<LesHouchesEvents version="3.0">
<header>
<!--
#*********************************************************************
#                                                                    *
#                        MadGraph5_aMC@NLO                           *
#                                                                    *
#                           Going Beyond                             *
#                                                                    *
#                   http://madgraph.hep.uiuc.edu                     *
#                   http://madgraph.phys.ucl.ac.be                   *
#                   http://amcatnlo.cern.ch                          *
#                                                                    *
#                     The MadGraph5_aMC@NLO team                     *
#                                                                    *
#....................................................................*
#                                                                    *
# This file contains all the information necessary to reproduce      *
# the events generated:                                              *
#                                                                    *
# 1. software version                                                *
# 2. proc_card          : code generation info including model       *
# 3. param_card         : model primary parameters in the LH format  *
# 4. run_card           : running parameters (collider and cuts)     *
# 5. pythia_card        : present only if pythia has been run        *
# 6. pgs_card           : present only if pgs has been run           *
# 7. delphes_cards      : present only if delphes has been run       *
#                                                                    *
#                                                                    *
#*********************************************************************
-->
<MGVersion>
#5.2.2.3
</MGVersion>
<MG5ProcCard>
#************************************************************
#*                     MadGraph5_aMC@NLO                    *
#*                                                          *
#*                *                       *                 *
#*                  *        * *        *                   *
#*                    * * * * 5 * * * *                     *
#*                  *        * *        *                   *
#*                *                       *                 *
#*                                                          *
#*                                                          *
#*         VERSION 2.2.3                 2015-02-10         *
#*                                                          *
#*    The MadGraph5_aMC@NLO Development Team - Find us at   *
#*    https://server06.fynu.ucl.ac.be/projects/madgraph     *
#*                                                          *
#************************************************************
#*                                                          *
#*               Command File for MadGraph5_aMC@NLO         *
#*                                                          *
#*     run as ./bin/mg5_aMC  filename                       *
#*                                                          *
#************************************************************
set group_subprocesses Auto
set ignore_six_quark_processes False
set loop_optimized_output True
set gauge unitary
set complex_mass_scheme False
import model sm
define p = g u c d s u~ c~ d~ s~
define j = g u c d s u~ c~ d~ s~
define l+ = e+ mu+
define l- = e- mu-
define vl = ve vm vt
define vl~ = ve~ vm~ vt~
import model Zprime_UFO
generate p p > zph, zph > j j
add process p p > zph, zph > b b~
output Dijet_signal
</MG5ProcCard>
<MGProcCard>
#*********************************************************************
#                        MadGraph/MadEvent                           *
#                   http://madgraph.hep.uiuc.edu                     *
#                                                                    *
#                          proc_card.dat                             *
#*********************************************************************
#                                                                    *
#            This Files is generated by MADGRAPH 5                   *
#                                                                    *
# WARNING: This Files is generated for MADEVENT (compatibility issue)*
#          This files is NOT a valid MG4 proc_card.dat               *
#          Running this in MG4 will NEVER reproduce the result of MG5*
#                                                                    *
#*********************************************************************
#*********************************************************************
# Process(es) requested : mg2 input                                  *
#*********************************************************************
# Begin PROCESS # This is TAG. Do not modify this line
p p > zph , zph > j j           #Process
# Be carefull the coupling are here in MG5 convention
          
end_coup           # End the couplings input

done               # this tells MG there are no more procs
# End PROCESS  # This is TAG. Do not modify this line
#*********************************************************************
# Model information                                                  *
#*********************************************************************
# Begin MODEL  # This is TAG. Do not modify this line
Zprime_UFO
# End   MODEL  # This is TAG. Do not modify this line
#*********************************************************************
# Start multiparticle definitions                                    *
#*********************************************************************
# Begin MULTIPARTICLES # This is TAG. Do not modify this line

# End  MULTIPARTICLES # This is TAG. Do not modify this line
</MGProcCard>
<MGRunCard>
#*********************************************************************
#                       MadGraph5_aMC@NLO                            *
#                                                                    *
#                     run_card.dat MadEvent                          *
#                                                                    *
#  This file is used to set the parameters of the run.               *
#                                                                    *
#  Some notation/conventions:                                        *
#                                                                    *
#   Lines starting with a '# ' are info or comments                  *
#                                                                    *
#   mind the format:   value    = variable     ! comment             *
#*********************************************************************
#
#*******************                                                 
# Running parameters
#*******************                                                 
#                                                                    
#*********************************************************************
# Tag name for the run (one word)                                    *
#*********************************************************************
  tag_1     = run_tag ! name of the run 
#*********************************************************************
# Run to generate the grid pack                                      *
#*********************************************************************
  .false.     = gridpack  !True = setting up the grid pack
#*********************************************************************
# Number of events and rnd seed                                      *
# Warning: Do not generate more than 1M events in a single run       *
# If you want to run Pythia, avoid more than 50k events in a run.    *
#*********************************************************************
  2000 = nevents ! Number of unweighted events requested 
 1749 = iseed   ! rnd seed (0=assigned automatically=default))
#*********************************************************************
# Collider type and energy                                           *
# lpp: 0=No PDF, 1=proton, -1=antiproton, 2=photon from proton,      *
#                                         3=photon from electron     *
#*********************************************************************
        1     = lpp1    ! beam 1 type 
        1     = lpp2    ! beam 2 type
     4000     = ebeam1  ! beam 1 total energy in GeV
     4000     = ebeam2  ! beam 2 total energy in GeV
#*********************************************************************
# Beam polarization from -100 (left-handed) to 100 (right-handed)    *
#*********************************************************************
        0     = polbeam1 ! beam polarization for beam 1
        0     = polbeam2 ! beam polarization for beam 2
#*********************************************************************
# PDF CHOICE: this automatically fixes also alpha_s and its evol.    *
#*********************************************************************
 'nn23lo1'    = pdlabel     ! PDF set                                     
 230000    = lhaid     ! if pdlabel=lhapdf, this is the lhapdf number
#*********************************************************************
# Renormalization and factorization scales                           *
#*********************************************************************
 F        = fixed_ren_scale  ! if .true. use fixed ren scale
 F        = fixed_fac_scale  ! if .true. use fixed fac scale
 91.1880  = scale            ! fixed ren scale
 91.1880  = dsqrt_q2fact1    ! fixed fact scale for pdf1
 91.1880  = dsqrt_q2fact2    ! fixed fact scale for pdf2
 1        = scalefact        ! scale factor for event-by-event scales
#*********************************************************************
# Matching - Warning! ickkw > 1 is still beta
#*********************************************************************
 0        = ickkw            ! 0 no matching, 1 MLM, 2 CKKW matching
 1        = highestmult      ! for ickkw=2, highest mult group
 1        = ktscheme         ! for ickkw=1, 1 Durham kT, 2 Pythia pTE
 1        = alpsfact         ! scale factor for QCD emission vx
 F        = chcluster        ! cluster only according to channel diag
 T        = pdfwgt           ! for ickkw=1, perform pdf reweighting
 5        = asrwgtflavor     ! highest quark flavor for a_s reweight
 T        = clusinfo         ! include clustering tag in output
 3.0      = lhe_version       ! Change the way clustering information pass to shower.        
#*********************************************************************
#**********************************************************
#
#**********************************************************
# Automatic ptj and mjj cuts if xqcut > 0
# (turn off for VBF and single top processes)
#**********************************************************
   T  = auto_ptj_mjj  ! Automatic setting of ptj and mjj
#**********************************************************
#                                                                    
#**********************************
# BW cutoff (M+/-bwcutoff*Gamma)
#**********************************
  15  = bwcutoff      ! (M+/-bwcutoff*Gamma)
#**********************************************************
# Apply pt/E/eta/dr/mij cuts on decay products or not
# (note that etmiss/ptll/ptheavy/ht/sorted cuts always apply)
#**********************************************************
   T  = cut_decays    ! Cut decay products 
#*************************************************************
# Number of helicities to sum per event (0 = all helicities)
# 0 gives more stable result, but longer run time (needed for
# long decay chains e.g.).
# Use >=2 if most helicities contribute, e.g. pure QCD.
#*************************************************************
   0  = nhel          ! Number of helicities used per event
#*******************                                                 
# Standard Cuts
#*******************                                                 
#                                                                    
#*********************************************************************
# Minimum and maximum pt's (for max, -1 means no cut)                *
#*********************************************************************
 20  = ptj       ! minimum pt for the jets 
  0  = ptb       ! minimum pt for the b 
 10  = pta       ! minimum pt for the photons 
 10  = ptl       ! minimum pt for the charged leptons 
  0  = misset    ! minimum missing Et (sum of neutrino's momenta)
  0  = ptheavy   ! minimum pt for one heavy final state
 1.0 = ptonium   ! minimum pt for the quarkonium states
 -1  = ptjmax    ! maximum pt for the jets
 -1  = ptbmax    ! maximum pt for the b
 -1  = ptamax    ! maximum pt for the photons
 -1  = ptlmax    ! maximum pt for the charged leptons
 -1  = missetmax ! maximum missing Et (sum of neutrino's momenta)
#*********************************************************************
# Minimum and maximum E's (in the center of mass frame)              *
#*********************************************************************
  0  = ej     ! minimum E for the jets 
  0  = eb     ! minimum E for the b 
  0  = ea     ! minimum E for the photons 
  0  = el     ! minimum E for the charged leptons 
 -1   = ejmax ! maximum E for the jets
 -1   = ebmax ! maximum E for the b
 -1   = eamax ! maximum E for the photons
 -1   = elmax ! maximum E for the charged leptons
#*********************************************************************
# Maximum and minimum absolute rapidity (for max, -1 means no cut)   *
#*********************************************************************
   5  = etaj    ! max rap for the jets 
  -1  = etab    ! max rap for the b
 2.5  = etaa    ! max rap for the photons 
 2.5  = etal    ! max rap for the charged leptons 
 0.6  = etaonium ! max rap for the quarkonium states
   0  = etajmin ! min rap for the jets
   0  = etabmin ! min rap for the b
   0  = etaamin ! min rap for the photons
   0  = etalmin ! main rap for the charged leptons
#*********************************************************************
# Minimum and maximum DeltaR distance                                *
#*********************************************************************
 0.4 = drjj    ! min distance between jets 
 0   = drbb    ! min distance between b's 
 0.4 = drll    ! min distance between leptons 
 0.4 = draa    ! min distance between gammas 
 0   = drbj    ! min distance between b and jet 
 0.4 = draj    ! min distance between gamma and jet 
 0.4 = drjl    ! min distance between jet and lepton 
 0   = drab    ! min distance between gamma and b 
 0   = drbl    ! min distance between b and lepton 
 0.4 = dral    ! min distance between gamma and lepton 
 -1  = drjjmax ! max distance between jets
 -1  = drbbmax ! max distance between b's
 -1  = drllmax ! max distance between leptons
 -1  = draamax ! max distance between gammas
 -1  = drbjmax ! max distance between b and jet
 -1  = drajmax ! max distance between gamma and jet
 -1  = drjlmax ! max distance between jet and lepton
 -1  = drabmax ! max distance between gamma and b
 -1  = drblmax ! max distance between b and lepton
 -1  = dralmax ! maxdistance between gamma and lepton
#*********************************************************************
# Minimum and maximum invariant mass for pairs                       *
# WARNING: for four lepton final state mmll cut require to have      *
#          different lepton masses for each flavor!                  *           
#*********************************************************************
 0   = mmjj    ! min invariant mass of a jet pair 
 0   = mmbb    ! min invariant mass of a b pair 
 0   = mmaa    ! min invariant mass of gamma gamma pair
 0   = mmll    ! min invariant mass of l+l- (same flavour) lepton pair
 -1  = mmjjmax ! max invariant mass of a jet pair
 -1  = mmbbmax ! max invariant mass of a b pair
 -1  = mmaamax ! max invariant mass of gamma gamma pair
 -1  = mmllmax ! max invariant mass of l+l- (same flavour) lepton pair
#*********************************************************************
# Minimum and maximum invariant mass for all letpons                 *
#*********************************************************************
 0   = mmnl    ! min invariant mass for all letpons (l+- and vl) 
 -1  = mmnlmax ! max invariant mass for all letpons (l+- and vl) 
#*********************************************************************
# Minimum and maximum pt for 4-momenta sum of leptons                *
#*********************************************************************
 0   = ptllmin  ! Minimum pt for 4-momenta sum of leptons(l and vl)
 -1  = ptllmax  ! Maximum pt for 4-momenta sum of leptons(l and vl)
#*********************************************************************
# Inclusive cuts                                                     *
#*********************************************************************
 0  = xptj ! minimum pt for at least one jet  
 0  = xptb ! minimum pt for at least one b 
 0  = xpta ! minimum pt for at least one photon 
 0  = xptl ! minimum pt for at least one charged lepton 
#*********************************************************************
# Control the pt's of the jets sorted by pt                          *
#*********************************************************************
 0   = ptj1min ! minimum pt for the leading jet in pt
 0   = ptj2min ! minimum pt for the second jet in pt
 0   = ptj3min ! minimum pt for the third jet in pt
 0   = ptj4min ! minimum pt for the fourth jet in pt
 -1  = ptj1max ! maximum pt for the leading jet in pt 
 -1  = ptj2max ! maximum pt for the second jet in pt
 -1  = ptj3max ! maximum pt for the third jet in pt
 -1  = ptj4max ! maximum pt for the fourth jet in pt
 0   = cutuse  ! reject event if fails any (0) / all (1) jet pt cuts
#*********************************************************************
# Control the pt's of leptons sorted by pt                           *
#*********************************************************************
 0   = ptl1min ! minimum pt for the leading lepton in pt
 0   = ptl2min ! minimum pt for the second lepton in pt
 0   = ptl3min ! minimum pt for the third lepton in pt
 0   = ptl4min ! minimum pt for the fourth lepton in pt
 -1  = ptl1max ! maximum pt for the leading lepton in pt 
 -1  = ptl2max ! maximum pt for the second lepton in pt
 -1  = ptl3max ! maximum pt for the third lepton in pt
 -1  = ptl4max ! maximum pt for the fourth lepton in pt
#*********************************************************************
# Control the Ht(k)=Sum of k leading jets                            *
#*********************************************************************
 0   = htjmin ! minimum jet HT=Sum(jet pt)
 -1  = htjmax ! maximum jet HT=Sum(jet pt)
 0   = ihtmin  !inclusive Ht for all partons (including b)
 -1  = ihtmax  !inclusive Ht for all partons (including b)
 0   = ht2min ! minimum Ht for the two leading jets
 0   = ht3min ! minimum Ht for the three leading jets
 0   = ht4min ! minimum Ht for the four leading jets
 -1  = ht2max ! maximum Ht for the two leading jets
 -1  = ht3max ! maximum Ht for the three leading jets
 -1  = ht4max ! maximum Ht for the four leading jets
#***********************************************************************
# Photon-isolation cuts, according to hep-ph/9801442                   *
# When ptgmin=0, all the other parameters are ignored                  *
# When ptgmin>0, pta and draj are not going to be used                 *
#***********************************************************************
   0 = ptgmin ! Min photon transverse momentum
 0.4 = R0gamma ! Radius of isolation code
 1.0 = xn ! n parameter of eq.(3.4) in hep-ph/9801442
 1.0 = epsgamma ! epsilon_gamma parameter of eq.(3.4) in hep-ph/9801442
 .true. = isoEM ! isolate photons from EM energy (photons and leptons)
#*********************************************************************
# WBF cuts                                                           *
#*********************************************************************
 0   = xetamin ! minimum rapidity for two jets in the WBF case  
 0   = deltaeta ! minimum rapidity for two jets in the WBF case 
#*********************************************************************
# KT DURHAM CUT                                                      *
#*********************************************************************
 -1    =  ktdurham        
 0.4  =  dparameter 
#*********************************************************************
# maximal pdg code for quark to be considered as a light jet         *
# (otherwise b cuts are applied)                                     *
#*********************************************************************
 4 = maxjetflavor    ! Maximum jet pdg code
#*********************************************************************
# Jet measure cuts                                                   *
#*********************************************************************
 0   = xqcut   ! minimum kt jet measure between partons
#*********************************************************************
#
#*********************************************************************
# Store info for systematics studies                                 *
# WARNING: If use_syst is T, matched Pythia output is                *
#          meaningful ONLY if plotted taking matchscale              *
#          reweighting into account!                                 *
#*********************************************************************
   F  = use_syst      ! Enable systematics studies
#
#**************************************
# Parameter of the systematics study
#  will be used by SysCalc (if installed)
#**************************************                                  
#
0.5 1 2 = sys_scalefact  # factorization/renormalization scale factor
0.5 1 2 = sys_alpsfact  # \alpha_s emission scale factors
30 50 = sys_matchscale # variation of merging scale
# PDF sets and number of members (0 or none for all members).
CT10nlo.LHgrid = sys_pdf # matching scales
# MSTW2008nlo68cl.LHgrid 1  = sys_pdf
</MGRunCard>
<slha>
######################################################################
## PARAM_CARD AUTOMATICALY GENERATED BY MG5 FOLLOWING UFO MODEL   ####
######################################################################
##                                                                  ##
##  Width set on Auto will be computed following the information    ##
##        present in the decay.py files of the model.               ##
##        See  arXiv:1402.1178 for more details.                    ##
##                                                                  ##
######################################################################

###################################
## INFORMATION FOR CKMBLOCK
###################################
Block ckmblock 
    1 2.277360e-01 # cabi 

###################################
## INFORMATION FOR FRBLOCK
###################################
Block frblock 
    1 8.000000e-01 # gz 

###################################
## INFORMATION FOR MASS
###################################
Block mass 
    1 5.040000e-03 # MD 
    2 2.550000e-03 # MU 
    3 1.010000e-01 # MS 
    4 1.270000e+00 # MC 
    5 4.700000e+00 # MB 
    6 1.720000e+02 # MT 
   11 5.110000e-04 # Me 
   13 1.056600e-01 # MM 
   15 1.777000e+00 # MTA 
   23 9.118760e+01 # MZ 
   25 1.200000e+02 # MH 
  10030 3.600000e+03 # MZph 
  10031 3.000000e+02 # MZpl 
## Dependent parameters, given by model restrictions.
## Those values should be edited following the 
## analytical expression. MG5 ignores those values 
## but they are important for interfacing the output of MG5
## to external program such as Pythia.
  12 0.000000 # ve : 0.0 
  14 0.000000 # vm : 0.0 
  16 0.000000 # vt : 0.0 
  21 0.000000 # g : 0.0 
  22 0.000000 # a : 0.0 
  24 79.824360 # w+ : cmath.sqrt(MZ__exp__2/2. + cmath.sqrt(MZ__exp__4/4. - (aEW*cmath.pi*MZ__exp__2)/(Gf*sqrt__2))) 

###################################
## INFORMATION FOR SMINPUTS
###################################
Block sminputs 
    1 1.279000e+02 # aEWM1 
    2 1.166370e-05 # Gf 
    3 1.184000e-01 # aS 

###################################
## INFORMATION FOR YUKAWA
###################################
Block yukawa 
    1 5.040000e-03 # ymdo 
    2 2.550000e-03 # ymup 
    3 1.010000e-01 # yms 
    4 1.270000e+00 # ymc 
    5 4.700000e+00 # ymb 
    6 1.720000e+02 # ymt 
   11 5.110000e-04 # yme 
   13 1.056600e-01 # ymm 
   15 1.777000e+00 # ymtau 

###################################
## INFORMATION FOR DECAY
###################################
DECAY   6 1.508336e+00 # WT 
DECAY  23 2.495200e+00 # WZ 
DECAY  24 2.085000e+00 # WW 
DECAY  25 5.753088e-03 # WH 
## Dependent parameters, given by model restrictions.
## Those values should be edited following the 
## analytical expression. MG5 ignores those values 
## but they are important for interfacing the output of MG5
## to external program such as Pythia.
DECAY  1 0.000000 # d : 0.0 
DECAY  2 0.000000 # u : 0.0 
DECAY  3 0.000000 # s : 0.0 
DECAY  4 0.000000 # c : 0.0 
DECAY  5 0.000000 # b : 0.0 
DECAY  11 0.000000 # e- : 0.0 
DECAY  12 0.000000 # ve : 0.0 
DECAY  13 0.000000 # mu- : 0.0 
DECAY  14 0.000000 # vm : 0.0 
DECAY  15 0.000000 # ta- : 0.0 
DECAY  16 0.000000 # vt : 0.0 
DECAY  21 0.000000 # g : 0.0 
DECAY  22 0.000000 # a : 0.0 
DECAY  10030 0.308725 # zph : (gz__exp__2*MZph*(5 + cmath.sqrt(1 - (4*MT__exp__2)/MZph__exp__2)))/(144.*cmath.pi) 
DECAY  10031 0.132629 # zpl : (5*gz__exp__2*MZpl)/(144.*cmath.pi) 
#===========================================================
# QUANTUM NUMBERS OF NEW STATE(S) (NON SM PDG CODE)
#===========================================================

Block QNUMBERS 10030  # zph 
        1 0  # 3 times electric charge
        2 3  # number of spin states (2S+1)
        3 1  # colour rep (1: singlet, 3: triplet, 8: octet)
        4 0  # Particle/Antiparticle distinction (0=own anti)
Block QNUMBERS 10031  # zpl 
        1 0  # 3 times electric charge
        2 3  # number of spin states (2S+1)
        3 1  # colour rep (1: singlet, 3: triplet, 8: octet)
        4 0  # Particle/Antiparticle distinction (0=own anti)
</slha>
## END BANNER##
<MGGenerationInfo>
#  Number of Events        :         3860
#  Integrated weight (pb)  :  0.10386E-03
#  Max wgt                 :  0.42006E-07
#  Average wgt             :  0.26907E-07
</MGGenerationInfo>
</header>
<init>
     2212     2212  0.40000000000E+04  0.40000000000E+04 0 0  247000  247000 2   1
  0.10388975043E-03  0.24417992468E-06  0.42006350000E-07   0
</init>
<event>
 5   0  0.3993751E-07  0.3548103E+04  0.7818609E-02  0.8102484E-01
        2   -1    0    0  501    0  0.00000000000E+00  0.00000000000E+00  0.17123942106E+04  0.17123942106E+04  0.25500000920E-02 0. -1.
       -2   -1    0    0    0  501  0.00000000000E+00  0.00000000000E+00 -0.18379285786E+04  0.18379285786E+04  0.25500000920E-02 0.  1.
    10030    2    1    2    0    0  0.00000000000E+00  0.00000000000E+00 -0.12553436802E+03  0.35503227892E+04  0.35481027367E+04 0.  0.
        1    1    3    3  502    0 -0.97534467460E+03 -0.13414123779E+04  0.56736794783E+03  0.17528807119E+04  0.50400001928E-02 0. -1.
       -1    1    3    3    0  502  0.97534467460E+03  0.13414123779E+04 -0.69290231585E+03  0.17974420773E+04  0.50400001928E-02 0.  1.
</event>
<event>
 5   0  0.3993751E-07  0.3603817E+04  0.7818609E-02  0.8089618E-01
       -2   -1    0    0    0  501  0.00000000000E+00  0.00000000000E+00  0.22465216626E+04  0.22465216626E+04  0.25500000920E-02 0. -1.
        2   -1    0    0  501    0  0.00000000000E+00  0.00000000000E+00 -0.14452894389E+04  0.14452894389E+04  0.25500000920E-02 0.  1.
    10030    2    1    2    0    0  0.00000000000E+00  0.00000000000E+00  0.80123222373E+03  0.36918111015E+04  0.36038168839E+04 0.  0.
        1    1    3    3  502    0 -0.15845265034E+04 -0.59923462763E+03 -0.22843566782E+03  0.17093827053E+04  0.50400001928E-02 0.  1.
       -1    1    3    3    0  502  0.15845265034E+04  0.59923462763E+03  0.10296678915E+04  0.19824283961E+04  0.50400001928E-02 0. -1.
</event>
<event>
 5   0  0.4115358E-07  0.3639563E+04  0.7818609E-02  0.8081489E-01
       -2   -1    0    0    0  501  0.00000000000E+00  0.00000000000E+00  0.13704859189E+04  0.13704859189E+04  0.25500000920E-02 0. -1.
        2   -1    0    0  501    0  0.00000000000E+00  0.00000000000E+00 -0.24163724264E+04  0.24163724264E+04  0.25500000920E-02 0.  1.
    10030    2    1    2    0    0  0.00000000000E+00  0.00000000000E+00 -0.10458865075E+04  0.37868583454E+04  0.36395628228E+04 0.  0.
        3    1    3    3  502    0  0.16692346315E+04 -0.44692052262E+03 -0.11165791077E+04  0.20573845345E+04  0.10100000352E+00 0.  1.
       -3    1    3    3    0  502 -0.16692346315E+04  0.44692052262E+03  0.70692600199E+02  0.17294738109E+04  0.10100000352E+00 0. -1.
</event>
<event>
 5   0  0.3993751E-07  0.3596141E+04  0.7818609E-02  0.8091376E-01
        2   -1    0    0  501    0  0.00000000000E+00  0.00000000000E+00  0.21604669800E+04  0.21604669800E+04  0.25500000920E-02 0.  1.
       -2   -1    0    0    0  501  0.00000000000E+00  0.00000000000E+00 -0.14964626477E+04  0.14964626477E+04  0.25500000920E-02 0. -1.
    10030    2    1    2    0    0  0.00000000000E+00  0.00000000000E+00  0.66400433223E+03  0.36569296277E+04  0.35961413416E+04 0.  0.
        1    1    3    3  502    0 -0.11871785913E+04 -0.98639179666E+03  0.12699250579E+04  0.19987674794E+04  0.50400001928E-02 0.  1.
       -1    1    3    3    0  502  0.11871785913E+04  0.98639179666E+03 -0.60592072564E+03  0.16581621483E+04  0.50400001928E-02 0. -1.
</event>
<event>
 5   0  0.4115358E-07  0.3586779E+04  0.7818609E-02  0.8093527E-01
        2   -1    0    0  501    0  0.00000000000E+00  0.00000000000E+00  0.17285997744E+04  0.17285997744E+04  0.25500000920E-02 0.  1.
       -2   -1    0    0    0  501  0.00000000000E+00  0.00000000000E+00 -0.18606073892E+04  0.18606073892E+04  0.25500000920E-02 0. -1.
    10030    2    1    2    0    0  0.00000000000E+00  0.00000000000E+00 -0.13200761484E+03  0.35892071635E+04  0.35867787850E+04 0.  0.
        3    1    3    3  502    0  0.16170063829E+04 -0.30488475152E+01  0.71010272604E+03  0.17660591240E+04  0.10100000352E+00 0.  1.
       -3    1    3    3    0  502 -0.16170063829E+04  0.30488475152E+01 -0.84211034088E+03  0.18231480396E+04  0.10100000352E+00 0. -1.
</event>
<event>
 5   0  0.1298250E-07  0.3668049E+04  0.7818609E-02  0.8075080E-01
        1   -1    0    0  501    0  0.00000000000E+00  0.00000000000E+00  0.17187558448E+04  0.17187558448E+04  0.50400001928E-02 0. -1.
       -1   -1    0    0    0  501  0.00000000000E+00  0.00000000000E+00 -0.19570238171E+04  0.19570238171E+04  0.50400001928E-02 0.  1.
    10030    2    1    2    0    0  0.00000000000E+00  0.00000000000E+00 -0.23826797227E+03  0.36757796619E+04  0.36680491404E+04 0.  0.
        1    1    3    3  502    0  0.18115026579E+04  0.27861518745E+03 -0.52076429969E+02  0.18335430884E+04  0.50400001928E-02 0.  1.
       -1    1    3    3    0  502 -0.18115026579E+04 -0.27861518745E+03 -0.18619154230E+03  0.18422365735E+04  0.50400001928E-02 0. -1.
</event>
<event>
 5   0  0.1370997E-07  0.3240767E+04  0.7818609E-02  0.8178133E-01
       -1   -1    0    0    0  501  0.00000000000E+00  0.00000000000E+00  0.10045511748E+04  0.10045511748E+04  0.50400001928E-02 0. -1.
        1   -1    0    0  501    0  0.00000000000E+00  0.00000000000E+00 -0.26137478445E+04  0.26137478445E+04  0.50400001928E-02 0.  1.
    10030    2    1    2    0    0  0.00000000000E+00  0.00000000000E+00 -0.16091966697E+04  0.36182990192E+04  0.32407674818E+04 0.  0.
        3    1    3    3  502    0  0.51890408925E+03  0.14436165754E+04 -0.22192812726E+03  0.15500136691E+04  0.10100000352E+00 0. -1.
       -3    1    3    3    0  502 -0.51890408925E+03 -0.14436165754E+04 -0.13872685424E+04  0.20682853501E+04  0.10100000352E+00 0.  1.
</event>
<event>
 5   0  0.3993751E-07  0.3600660E+04  0.7818609E-02  0.8090340E-01
        2   -1    0    0  501    0  0.00000000000E+00  0.00000000000E+00  0.14385782992E+04  0.14385782992E+04  0.25500000920E-02 0. -1.
       -2   -1    0    0    0  501  0.00000000000E+00  0.00000000000E+00 -0.22530499482E+04  0.22530499482E+04  0.25500000920E-02 0.  1.
    10030    2    1    2    0    0  0.00000000000E+00  0.00000000000E+00 -0.81447164906E+03  0.36916282474E+04  0.36006603631E+04 0.  0.
        1    1    3    3  502    0  0.91161759631E+02  0.45092144573E+03  0.13772977855E+04  0.14520984149E+04  0.50400001928E-02 0. -1.
       -1    1    3    3    0  502 -0.91161759631E+02 -0.45092144573E+03 -0.21917694345E+04  0.22395298325E+04  0.50400001928E-02 0.  1.
</event>
<event>
 5   0  0.1298250E-07  0.3597212E+04  0.7818609E-02  0.8091131E-01
        1   -1    0    0  501    0  0.00000000000E+00  0.00000000000E+00  0.12804564965E+04  0.12804564965E+04  0.50400001928E-02 0.  1.
       -1   -1    0    0    0  501  0.00000000000E+00  0.00000000000E+00 -0.25264301158E+04  0.25264301158E+04  0.50400001928E-02 0. -1.
    10030    2    1    2    0    0  0.00000000000E+00  0.00000000000E+00 -0.12459736193E+04  0.38068866123E+04  0.35972121731E+04 0.  0.
        2    1    3    3  502    0  0.79752453031E+03 -0.14736264811E+04 -0.13148219015E+04  0.21298772300E+04  0.25500000920E-02 0. -1.
       -2    1    3    3    0  502 -0.79752453031E+03  0.14736264811E+04  0.68848282138E+02  0.16770093823E+04  0.25500000920E-02 0.  1.
</event>
<event>
 5   0  0.3993751E-07  0.3629436E+04  0.7818609E-02  0.8083782E-01
        2   -1    0    0  501    0  0.00000000000E+00  0.00000000000E+00  0.13587005470E+04  0.13587005470E+04  0.25500000920E-02 0. -1.
       -2   -1    0    0    0  501  0.00000000000E+00  0.00000000000E+00 -0.24237872832E+04  0.24237872832E+04  0.25500000920E-02 0.  1.
    10030    2    1    2    0    0  0.00000000000E+00  0.00000000000E+00 -0.10650867362E+04  0.37824878302E+04  0.36294358280E+04 0.  0.
        1    1    3    3  502    0 -0.87054814285E+03 -0.13894390581E+04  0.27794449149E+03  0.16630237838E+04  0.50400001928E-02 0. -1.
       -1    1    3    3    0  502  0.87054814285E+03  0.13894390581E+04 -0.13430312277E+04  0.21194640463E+04  0.50400001928E-02 0.  1.
</event>
<event>
 5   0  0.1298250E-07  0.3616916E+04  0.7818609E-02  0.8086628E-01
        4   -1    0    0  501    0  0.00000000000E+00  0.00000000000E+00  0.15443981841E+04  0.15443987063E+04  0.12699999809E+01 0.  1.
       -4   -1    0    0    0  501  0.00000000000E+00  0.00000000000E+00 -0.21176659486E+04  0.21176663294E+04  0.12699999809E+01 0. -1.
    10030    2    1    2    0    0  0.00000000000E+00  0.00000000000E+00 -0.57326776444E+03  0.36620650357E+04  0.36169164210E+04 0.  0.
        4    1    3    3  502    0 -0.12588906842E+04  0.11675054726E+04 -0.86174246525E+03  0.19210612881E+04  0.12699999809E+01 0. -1.
       -4    1    3    3    0  502  0.12588906842E+04 -0.11675054726E+04  0.28847470080E+03  0.17410037476E+04  0.12699999809E+01 0.  1.
</event>
<event>
 5   0  0.3880259E-07  0.3606106E+04  0.7818609E-02  0.8089094E-01
        2   -1    0    0  501    0  0.00000000000E+00  0.00000000000E+00  0.16364899975E+04  0.16364899975E+04  0.25500000920E-02 0.  1.
       -2   -1    0    0    0  501  0.00000000000E+00  0.00000000000E+00 -0.19865693483E+04  0.19865693484E+04  0.25500000920E-02 0. -1.
    10030    2    1    2    0    0  0.00000000000E+00  0.00000000000E+00 -0.35007935086E+03  0.36230593458E+04  0.36061064143E+04 0.  0.
        5    1    3    3  502    0 -0.10346793353E+04 -0.44863551792E+03 -0.15884737768E+04  0.19481032273E+04  0.46999998093E+01 0. -1.
       -5    1    3    3    0  502  0.10346793353E+04  0.44863551792E+03  0.12383944259E+04  0.16749561185E+04  0.46999998093E+01 0.  1.
</event>
<event>
 5   0  0.1361743E-07  0.3578605E+04  0.7818609E-02  0.8095410E-01
        1   -1    0    0  501    0  0.00000000000E+00  0.00000000000E+00  0.13723440490E+04  0.13723440490E+04  0.50400001928E-02 0. -1.
       -1   -1    0    0    0  501  0.00000000000E+00  0.00000000000E+00 -0.23329455205E+04  0.23329455205E+04  0.50400001928E-02 0.  1.
    10030    2    1    2    0    0  0.00000000000E+00  0.00000000000E+00 -0.96060147154E+03  0.37052895696E+04  0.35786052600E+04 0.  0.
        5    1    3    3  502    0 -0.32140989227E+03 -0.14056970138E+04 -0.15771869091E+04  0.21370140500E+04  0.46999998093E+01 0.  1.
       -5    1    3    3    0  502  0.32140989227E+03  0.14056970138E+04  0.61658543756E+03  0.15682755196E+04  0.46999998093E+01 0. -1.
</event>
<event>
 5   0  0.1298250E-07  0.3599227E+04  0.7818609E-02  0.8090669E-01
        1   -1    0    0  501    0  0.00000000000E+00  0.00000000000E+00  0.22850739354E+04  0.22850739354E+04  0.50400001928E-02 0. -1.
       -1   -1    0    0    0  501  0.00000000000E+00  0.00000000000E+00 -0.14172883553E+04  0.14172883553E+04  0.50400001928E-02 0.  1.
    10030    2    1    2    0    0  0.00000000000E+00  0.00000000000E+00  0.86778558005E+03  0.37023622907E+04  0.35992269613E+04 0.  0.
        1    1    3    3  502    0  0.17809964983E+04  0.19236386637E+03  0.25674810265E+03  0.18096607340E+04  0.50400001928E-02 0.  1.
       -1    1    3    3    0  502 -0.17809964983E+04 -0.19236386637E+03  0.61103747740E+03  0.18927015567E+04  0.50400001928E-02 0. -1.
</event>
<event>
 5   0  0.1370997E-07  0.3236797E+04  0.7818609E-02  0.8179166E-01
        1   -1    0    0  501    0  0.00000000000E+00  0.00000000000E+00  0.18748150956E+04  0.18748150956E+04  0.50400001928E-02 0.  1.
       -1   -1    0    0    0  501  0.00000000000E+00  0.00000000000E+00 -0.13970514843E+04  0.13970514843E+04  0.50400001928E-02 0. -1.
    10030    2    1    2    0    0  0.00000000000E+00  0.00000000000E+00  0.47776361132E+03  0.32718665798E+04  0.32367966955E+04 0.  0.
        3    1    3    3  502    0 -0.68053186128E+03 -0.78912877507E+02 -0.12432454377E+04  0.14195105089E+04  0.10100000352E+00 0. -1.
       -3    1    3    3    0  502  0.68053186128E+03  0.78912877507E+02  0.17210090490E+04  0.18523560709E+04  0.10100000352E+00 0.  1.
</event>
<event>
 5   0  0.1370997E-07  0.3595918E+04  0.7818609E-02  0.8091427E-01
       -1   -1    0    0    0  501  0.00000000000E+00  0.00000000000E+00  0.15752095557E+04  0.15752095557E+04  0.50400001928E-02 0.  1.
        1   -1    0    0  501    0  0.00000000000E+00  0.00000000000E+00 -0.20522068914E+04  0.20522068914E+04  0.50400001928E-02 0. -1.
    10030    2    1    2    0    0  0.00000000000E+00  0.00000000000E+00 -0.47699733566E+03  0.36274164471E+04  0.35959176329E+04 0.  0.
        3    1    3    3  502    0  0.15520724616E+04  0.11419955484E+03 -0.11467663607E+04  0.19331434403E+04  0.10100000352E+00 0. -1.
       -3    1    3    3    0  502 -0.15520724616E+04 -0.11419955484E+03  0.66976902506E+03  0.16942730068E+04  0.10100000352E+00 0.  1.
</event>
<event>
 5   0  0.3993751E-07  0.3603333E+04  0.7818609E-02  0.8089729E-01
        2   -1    0    0  501    0  0.00000000000E+00  0.00000000000E+00  0.19989248957E+04  0.19989248957E+04  0.25500000920E-02 0. -1.
       -2   -1    0    0    0  501  0.00000000000E+00  0.00000000000E+00 -0.16238742422E+04  0.16238742422E+04  0.25500000920E-02 0.  1.
    10030    2    1    2    0    0  0.00000000000E+00  0.00000000000E+00  0.37505065349E+03  0.36227991379E+04  0.36033332625E+04 0.  0.
        1    1    3    3  502    0 -0.15320956343E+04 -0.62371030352E+03  0.90529452672E+03  0.18857066992E+04  0.50400001928E-02 0.  1.
       -1    1    3    3    0  502  0.15320956343E+04  0.62371030352E+03 -0.53024387323E+03  0.17370924387E+04  0.50400001928E-02 0. -1.
</event>
<event>
 5   0  0.1348226E-07  0.3593529E+04  0.7818609E-02  0.8091976E-01
        1   -1    0    0  501    0  0.00000000000E+00  0.00000000000E+00  0.17701960515E+04  0.17701960515E+04  0.50400001928E-02 0. -1.
       -1   -1    0    0    0  501  0.00000000000E+00  0.00000000000E+00 -0.18237312353E+04  0.18237312353E+04  0.50400001928E-02 0.  1.
    10030    2    1    2    0    0  0.00000000000E+00  0.00000000000E+00 -0.53535183790E+02  0.35939272868E+04  0.35935285343E+04 0.  0.
        4    1    3    3  502    0 -0.13351565744E+04 -0.11582690281E+04  0.29596001762E+03  0.17921562891E+04  0.12699999809E+01 0. -1.
       -4    1    3    3    0  502  0.13351565744E+04  0.11582690281E+04 -0.34949520141E+03  0.18017709977E+04  0.12699999809E+01 0.  1.
</event>
<event>
 5   0  0.1298250E-07  0.3392064E+04  0.7818609E-02  0.8139857E-01
       -1   -1    0    0    0  501  0.00000000000E+00  0.00000000000E+00  0.11456390553E+04  0.11456390553E+04  0.50400001928E-02 0.  1.
        1   -1    0    0  501    0  0.00000000000E+00  0.00000000000E+00 -0.25108478163E+04  0.25108478163E+04  0.50400001928E-02 0. -1.
    10030    2    1    2    0    0  0.00000000000E+00  0.00000000000E+00 -0.13652087610E+04  0.36564868716E+04  0.33920644571E+04 0.  0.
        1    1    3    3  502    0 -0.39726486732E+02 -0.50615925246E+02  0.11443228917E+04  0.11461304664E+04  0.50400001928E-02 0.  1.
       -1    1    3    3    0  502  0.39726486732E+02  0.50615925246E+02 -0.25095316526E+04  0.25103564052E+04  0.50400001928E-02 0. -1.
</event>
<event>
 5   0  0.4120440E-07  0.3720880E+04  0.7818609E-02  0.8063350E-01
       -2   -1    0    0    0  501  0.00000000000E+00  0.00000000000E+00  0.16039221444E+04  0.16039221444E+04  0.25500000920E-02 0.  1.
        2   -1    0    0  501    0  0.00000000000E+00  0.00000000000E+00 -0.21579826273E+04  0.21579826273E+04  0.25500000920E-02 0. -1.
    10030    2    1    2    0    0  0.00000000000E+00  0.00000000000E+00 -0.55406048288E+03  0.37619047717E+04  0.37208795322E+04 0.  0.
        2    1    3    3  502    0  0.11767151484E+03  0.15168753069E+04  0.80551289349E+03  0.17215133760E+04  0.25500000920E-02 0.  1.
       -2    1    3    3    0  502 -0.11767151484E+03 -0.15168753069E+04 -0.13595733764E+04  0.20403913958E+04  0.25500000920E-02 0. -1.
</event>
<event>
 5   0  0.1370997E-07  0.3619284E+04  0.7818609E-02  0.8086089E-01
       -1   -1    0    0    0  501  0.00000000000E+00  0.00000000000E+00  0.18231813021E+04  0.18231813021E+04  0.50400001928E-02 0.  1.
        1   -1    0    0  501    0  0.00000000000E+00  0.00000000000E+00 -0.17962036052E+04  0.17962036052E+04  0.50400001928E-02 0. -1.
    10030    2    1    2    0    0  0.00000000000E+00  0.00000000000E+00  0.26977696886E+02  0.36193849074E+04  0.36192843646E+04 0.  0.
        3    1    3    3  502    0 -0.13314771049E+04  0.91655593619E+03  0.82708305195E+03  0.18157567155E+04  0.10100000352E+00 0.  1.
       -3    1    3    3    0  502  0.13314771049E+04 -0.91655593619E+03 -0.80010535507E+03  0.18036281918E+04  0.10100000352E+00 0. -1.
</event>
<event>
 5   0  0.4115358E-07  0.3594844E+04  0.7818609E-02  0.8091674E-01
        2   -1    0    0  501    0  0.00000000000E+00  0.00000000000E+00  0.17087873281E+04  0.17087873281E+04  0.25500000920E-02 0.  1.
       -2   -1    0    0    0  501  0.00000000000E+00  0.00000000000E+00 -0.18906540942E+04  0.18906540942E+04  0.25500000920E-02 0. -1.
    10030    2    1    2    0    0  0.00000000000E+00  0.00000000000E+00 -0.18186676607E+03  0.35994414224E+04  0.35948439510E+04 0.  0.
        3    1    3    3  502    0  0.14170419020E+04  0.29176735826E+03  0.97700922234E+03  0.17457614311E+04  0.10100000352E+00 0.  1.
       -3    1    3    3    0  502 -0.14170419020E+04 -0.29176735826E+03 -0.11588759884E+04  0.18536799913E+04  0.10100000352E+00 0. -1.
</event>
<event>
 5   0  0.1298250E-07  0.3597179E+04  0.7818609E-02  0.8091138E-01
       -1   -1    0    0    0  501  0.00000000000E+00  0.00000000000E+00  0.14072078956E+04  0.14072078956E+04  0.50400001928E-02 0.  1.
        1   -1    0    0  501    0  0.00000000000E+00  0.00000000000E+00 -0.22988247014E+04  0.22988247014E+04  0.50400001928E-02 0. -1.
    10030    2    1    2    0    0  0.00000000000E+00  0.00000000000E+00 -0.89161680584E+03  0.37060325970E+04  0.35971790450E+04 0.  0.
        1    1    3    3  502    0  0.10464692839E+04 -0.28155411910E+03 -0.19247095190E+04  0.22088181040E+04  0.50400001928E-02 0. -1.
       -1    1    3    3    0  502 -0.10464692839E+04  0.28155411910E+03  0.10330927131E+04  0.14972144930E+04  0.50400001928E-02 0.  1.
</event>
<event>
 5   0  0.4120440E-07  0.3584650E+04  0.7818609E-02  0.8094017E-01
       -2   -1    0    0    0  501  0.00000000000E+00  0.00000000000E+00  0.16348066692E+04  0.16348066692E+04  0.25500000920E-02 0. -1.
        2   -1    0    0  501    0  0.00000000000E+00  0.00000000000E+00 -0.19650208827E+04  0.19650208827E+04  0.25500000920E-02 0.  1.
    10030    2    1    2    0    0  0.00000000000E+00  0.00000000000E+00 -0.33021421349E+03  0.35998275520E+04  0.35846501889E+04 0.  0.
        2    1    3    3  502    0 -0.70423738656E+03 -0.11442949957E+04 -0.13563283916E+04  0.19091851769E+04  0.25500000920E-02 0.  1.
       -2    1    3    3    0  502  0.70423738656E+03  0.11442949957E+04  0.10261141781E+04  0.16906423751E+04  0.25500000920E-02 0. -1.
</event>
<event>
 5   0  0.1298250E-07  0.3567191E+04  0.7818609E-02  0.8098049E-01
       -1   -1    0    0    0  501  0.00000000000E+00  0.00000000000E+00  0.13172048864E+04  0.13172048864E+04  0.50400001928E-02 0. -1.
        1   -1    0    0  501    0  0.00000000000E+00  0.00000000000E+00 -0.24151242828E+04  0.24151242828E+04  0.50400001928E-02 0.  1.
    10030    2    1    2    0    0  0.00000000000E+00  0.00000000000E+00 -0.10979193964E+04  0.37323291692E+04  0.35671913358E+04 0.  0.
        2    1    3    3  502    0  0.12456008423E+04 -0.69242479281E+03  0.57318215028E+03  0.15360700926E+04  0.25500000920E-02 0. -1.
       -2    1    3    3    0  502 -0.12456008423E+04  0.69242479281E+03 -0.16711015467E+04  0.21962590766E+04  0.25500000920E-02 0.  1.
</event>
<event>
 5   0  0.4115358E-07  0.3594739E+04  0.7818609E-02  0.8091698E-01
        2   -1    0    0  501    0  0.00000000000E+00  0.00000000000E+00  0.31805681342E+04  0.31805681342E+04  0.25500000920E-02 0.  1.
       -2   -1    0    0    0  501  0.00000000000E+00  0.00000000000E+00 -0.10157106415E+04  0.10157106415E+04  0.25500000920E-02 0. -1.
    10030    2    1    2    0    0  0.00000000000E+00  0.00000000000E+00  0.21648574927E+04  0.41962787757E+04  0.35947388778E+04 0.  0.
        3    1    3    3  502    0 -0.14937150222E+04 -0.99622000135E+03  0.98547612372E+03  0.20481215929E+04  0.10100000352E+00 0.  1.
       -3    1    3    3    0  502  0.14937150222E+04  0.99622000135E+03  0.11793813690E+04  0.21481571829E+04  0.10100000352E+00 0. -1.
</event>
<event>
 5   0  0.3880259E-07  0.3599348E+04  0.7818609E-02  0.8090641E-01
        2   -1    0    0  501    0  0.00000000000E+00  0.00000000000E+00  0.30654071450E+04  0.30654071450E+04  0.25500000920E-02 0.  1.
       -2   -1    0    0    0  501  0.00000000000E+00  0.00000000000E+00 -0.10565730364E+04  0.10565730364E+04  0.25500000920E-02 0. -1.
    10030    2    1    2    0    0  0.00000000000E+00  0.00000000000E+00  0.20088341086E+04  0.41219801815E+04  0.35993480160E+04 0.  0.
        5    1    3    3  502    0 -0.13160230706E+04 -0.87863276449E+03  0.19861511508E+04  0.25394351225E+04  0.46999998093E+01 0.  1.
       -5    1    3    3    0  502  0.13160230706E+04  0.87863276449E+03  0.22682957763E+02  0.15825450590E+04  0.46999998093E+01 0. -1.
</event>
<event>
 5   0  0.1298250E-07  0.3571915E+04  0.7818609E-02  0.8096955E-01
       -1   -1    0    0    0  501  0.00000000000E+00  0.00000000000E+00  0.20349959475E+04  0.20349959475E+04  0.50400001928E-02 0.  1.
        1   -1    0    0  501    0  0.00000000000E+00  0.00000000000E+00 -0.15673957045E+04  0.15673957045E+04  0.50400001928E-02 0. -1.
    10030    2    1    2    0    0  0.00000000000E+00  0.00000000000E+00  0.46760024295E+03  0.36023916520E+04  0.35719148405E+04 0.  0.
        2    1    3    3  502    0  0.14447230245E+04  0.78570212940E+03  0.93622784314E+03  0.18923728565E+04  0.25500000920E-02 0.  1.
       -2    1    3    3    0  502 -0.14447230245E+04 -0.78570212940E+03 -0.46862760019E+03  0.17100187956E+04  0.25500000920E-02 0. -1.
</event>
<event>
 5   0  0.4115358E-07  0.3412791E+04  0.7818609E-02  0.8134774E-01
        2   -1    0    0  501    0  0.00000000000E+00  0.00000000000E+00  0.15432508157E+04  0.15432508157E+04  0.25500000920E-02 0.  1.
       -2   -1    0    0    0  501  0.00000000000E+00  0.00000000000E+00 -0.18867875421E+04  0.18867875421E+04  0.25500000920E-02 0. -1.
    10030    2    1    2    0    0  0.00000000000E+00  0.00000000000E+00 -0.34353672639E+03  0.34300383579E+04  0.34127914753E+04 0.  0.
        3    1    3    3  502    0 -0.13753000150E+04  0.93722872524E+03  0.20688294774E+03  0.16770952206E+04  0.10100000352E+00 0. -1.
       -3    1    3    3    0  502  0.13753000150E+04 -0.93722872524E+03 -0.55041967413E+03  0.17529431373E+04  0.10100000352E+00 0.  1.
</event>
<event>
 5   0  0.3993751E-07  0.3606343E+04  0.7818609E-02  0.8089040E-01
        2   -1    0    0  501    0  0.00000000000E+00  0.00000000000E+00  0.20485015486E+04  0.20485015486E+04  0.25500000920E-02 0.  1.
       -2   -1    0    0    0  501  0.00000000000E+00  0.00000000000E+00 -0.15872219402E+04  0.15872219402E+04  0.25500000920E-02 0. -1.
    10030    2    1    2    0    0  0.00000000000E+00  0.00000000000E+00  0.46127960839E+03  0.36357234888E+04  0.36063425253E+04 0.  0.
        1    1    3    3  502    0  0.46909734140E+03  0.12861196041E+03  0.19811132264E+04  0.20399517073E+04  0.50400001928E-02 0.  1.
       -1    1    3    3    0  502 -0.46909734140E+03 -0.12861196041E+03 -0.15198336180E+04  0.15957717815E+04  0.50400001928E-02 0. -1.
</event>
<event>
 5   0  0.1361743E-07  0.3585875E+04  0.7818609E-02  0.8093735E-01
       -1   -1    0    0    0  501  0.00000000000E+00  0.00000000000E+00  0.30040889509E+04  0.30040889509E+04  0.50400001928E-02 0. -1.
        1   -1    0    0  501    0  0.00000000000E+00  0.00000000000E+00 -0.10700829799E+04  0.10700829799E+04  0.50400001928E-02 0.  1.
    10030    2    1    2    0    0  0.00000000000E+00  0.00000000000E+00  0.19340059710E+04  0.40741719308E+04  0.35858747643E+04 0.  0.
        5    1    3    3  502    0 -0.16573723088E+04 -0.55226366538E+03  0.50868134793E+03  0.18195210715E+04  0.46999998093E+01 0.  1.
       -5    1    3    3    0  502  0.16573723088E+04  0.55226366538E+03  0.14253246231E+04  0.22546508593E+04  0.46999998093E+01 0. -1.
</event>
<event>
 5   0  0.4115358E-07  0.3316545E+04  0.7818609E-02  0.8158698E-01
       -2   -1    0    0    0  501  0.00000000000E+00  0.00000000000E+00  0.89981720916E+03  0.89981720917E+03  0.25500000920E-02 0.  1.
        2   -1    0    0  501    0  0.00000000000E+00  0.00000000000E+00 -0.30560297466E+04  0.30560297466E+04  0.25500000920E-02 0. -1.
    10030    2    1    2    0    0  0.00000000000E+00  0.00000000000E+00 -0.21562125374E+04  0.39558469557E+04  0.33165452855E+04 0.  0.
        3    1    3    3  502    0 -0.14414939261E+04 -0.80522859560E+03 -0.89498606391E+03  0.18781101924E+04  0.10100000352E+00 0. -1.
       -3    1    3    3    0  502  0.14414939261E+04  0.80522859560E+03 -0.12612264735E+04  0.20777367633E+04  0.10100000352E+00 0.  1.
</event>
<event>
 5   0  0.1348226E-07  0.3616560E+04  0.7818609E-02  0.8086709E-01
        1   -1    0    0  501    0  0.00000000000E+00  0.00000000000E+00  0.19010500340E+04  0.19010500340E+04  0.50400001928E-02 0.  1.
       -1   -1    0    0    0  501  0.00000000000E+00  0.00000000000E+00 -0.17200366636E+04  0.17200366636E+04  0.50400001928E-02 0. -1.
    10030    2    1    2    0    0  0.00000000000E+00  0.00000000000E+00  0.18101337043E+03  0.36210866976E+04  0.36165595573E+04 0.  0.
        4    1    3    3  502    0 -0.19304193862E+03  0.51952440131E+02  0.18899513882E+04  0.19004952273E+04  0.12699999809E+01 0.  1.
       -4    1    3    3    0  502  0.19304193862E+03 -0.51952440131E+02 -0.17089380178E+04  0.17205914703E+04  0.12699999809E+01 0. -1.
</event>
<event>
 5   0  0.1298250E-07  0.3633892E+04  0.7818609E-02  0.8082772E-01
       -1   -1    0    0    0  501  0.00000000000E+00  0.00000000000E+00  0.11546028496E+04  0.11546028496E+04  0.50400001928E-02 0. -1.
        1   -1    0    0  501    0  0.00000000000E+00  0.00000000000E+00 -0.28592447691E+04  0.28592447691E+04  0.50400001928E-02 0.  1.
    10030    2    1    2    0    0  0.00000000000E+00  0.00000000000E+00 -0.17046419196E+04  0.40138476187E+04  0.36338916649E+04 0.  0.
        1    1    3    3  502    0  0.59083509611E+03 -0.42342401764E+02  0.10449542144E+04  0.12011695551E+04  0.50400001928E-02 0. -1.
       -1    1    3    3    0  502 -0.59083509611E+03  0.42342401764E+02 -0.27495961340E+04  0.28126780636E+04  0.50400001928E-02 0.  1.
</event>
<event>
 5   0  0.1370997E-07  0.3590341E+04  0.7818609E-02  0.8092708E-01
       -1   -1    0    0    0  501  0.00000000000E+00  0.00000000000E+00  0.22963226945E+04  0.22963226945E+04  0.50400001928E-02 0. -1.
        1   -1    0    0  501    0  0.00000000000E+00  0.00000000000E+00 -0.14033901516E+04  0.14033901516E+04  0.50400001928E-02 0.  1.
    10030    2    1    2    0    0  0.00000000000E+00  0.00000000000E+00  0.89293254292E+03  0.36997128462E+04  0.35903407384E+04 0.  0.
        3    1    3    3  502    0  0.15281672172E+04  0.82385935449E+03 -0.24171478829E+02  0.17362671310E+04  0.10100000352E+00 0.  1.
       -3    1    3    3    0  502 -0.15281672172E+04 -0.82385935449E+03  0.91710402175E+03  0.19634457152E+04  0.10100000352E+00 0. -1.
</event>
<event>
 5   0  0.4200635E-07  0.3699189E+04  0.7818609E-02  0.8068142E-01
       -2   -1    0    0    0  501  0.00000000000E+00  0.00000000000E+00  0.15685800072E+04  0.15685800072E+04  0.25500000920E-02 0. -1.
        2   -1    0    0  501    0  0.00000000000E+00  0.00000000000E+00 -0.21809534004E+04  0.21809534004E+04  0.25500000920E-02 0.  1.
    10030    2    1    2    0    0  0.00000000000E+00  0.00000000000E+00 -0.61237339319E+03  0.37495334077E+04  0.36991890466E+04 0.  0.
        4    1    3    3  502    0 -0.19271877211E+03 -0.18312927949E+04 -0.48240458404E+03  0.19035465903E+04  0.12699999809E+01 0. -1.
       -4    1    3    3    0  502  0.19271877211E+03  0.18312927949E+04 -0.12996880916E+03  0.18459868174E+04  0.12699999809E+01 0.  1.
</event>
<event>
 5   0  0.4200635E-07  0.3519519E+04  0.7818609E-02  0.8109180E-01
       -2   -1    0    0    0  501  0.00000000000E+00  0.00000000000E+00  0.15332272621E+04  0.15332272621E+04  0.25500000920E-02 0.  1.
        2   -1    0    0  501    0  0.00000000000E+00  0.00000000000E+00 -0.20197613839E+04  0.20197613839E+04  0.25500000920E-02 0. -1.
    10030    2    1    2    0    0  0.00000000000E+00  0.00000000000E+00 -0.48653412172E+03  0.35529886460E+04  0.35195188403E+04 0.  0.
        4    1    3    3  502    0 -0.17326759458E+04  0.17025983052E+03  0.15288199473E+02  0.17410886493E+04  0.12699999809E+01 0. -1.
       -4    1    3    3    0  502  0.17326759458E+04 -0.17025983052E+03 -0.50182232119E+03  0.18118999967E+04  0.12699999809E+01 0.  1.
</event>
<event>
 5   0  0.1298250E-07  0.3600321E+04  0.7818609E-02  0.8090418E-01
        1   -1    0    0  501    0  0.00000000000E+00  0.00000000000E+00  0.14796749641E+04  0.14796749641E+04  0.50400001928E-02 0.  1.
       -1   -1    0    0    0  501  0.00000000000E+00  0.00000000000E+00 -0.21900609523E+04  0.21900609523E+04  0.50400001928E-02 0. -1.
    10030    2    1    2    0    0  0.00000000000E+00  0.00000000000E+00 -0.71038598823E+03  0.36697359164E+04  0.36003212974E+04 0.  0.
        2    1    3    3  502    0  0.11112922600E+04  0.10283124914E+02 -0.17986542016E+04  0.21142925925E+04  0.25500000920E-02 0. -1.
       -2    1    3    3    0  502 -0.11112922600E+04 -0.10283124914E+02  0.10882682134E+04  0.15554433239E+04  0.25500000920E-02 0.  1.
</event>
<event>
 5   0  0.1361743E-07  0.3592761E+04  0.7818609E-02  0.8092152E-01
       -1   -1    0    0    0  501  0.00000000000E+00  0.00000000000E+00  0.12931822504E+04  0.12931822504E+04  0.50400001928E-02 0. -1.
        1   -1    0    0  501    0  0.00000000000E+00  0.00000000000E+00 -0.24953807127E+04  0.24953807127E+04  0.50400001928E-02 0.  1.
    10030    2    1    2    0    0  0.00000000000E+00  0.00000000000E+00 -0.12021984623E+04  0.37885629631E+04  0.35927605240E+04 0.  0.
        5    1    3    3  502    0 -0.12812745636E+04 -0.63309377220E+03 -0.17487546751E+04  0.22584590400E+04  0.46999998093E+01 0.  1.
       -5    1    3    3    0  502  0.12812745636E+04  0.63309377220E+03  0.54655621288E+03  0.15301039231E+04  0.46999998093E+01 0. -1.
</event>
<event>
 5   0  0.1361743E-07  0.3585789E+04  0.7818609E-02  0.8093755E-01
        1   -1    0    0  501    0  0.00000000000E+00  0.00000000000E+00  0.22700979210E+04  0.22700979210E+04  0.50400001928E-02 0.  1.
       -1   -1    0    0    0  501  0.00000000000E+00  0.00000000000E+00 -0.14160052158E+04  0.14160052158E+04  0.50400001928E-02 0. -1.
    10030    2    1    2    0    0  0.00000000000E+00  0.00000000000E+00  0.85409270518E+03  0.36861031367E+04  0.35857888931E+04 0.  0.
        5    1    3    3  502    0 -0.13029570643E+04 -0.12313795266E+04  0.40510066580E+03  0.18379666181E+04  0.46999998093E+01 0.  1.
       -5    1    3    3    0  502  0.13029570643E+04  0.12313795266E+04  0.44899203938E+03  0.18481365186E+04  0.46999998093E+01 0. -1.
</event>
<event>
 5   0  0.4120440E-07  0.3612081E+04  0.7818609E-02  0.8087730E-01
       -2   -1    0    0    0  501  0.00000000000E+00  0.00000000000E+00  0.16898240255E+04  0.16898240255E+04  0.25500000920E-02 0.  1.
        2   -1    0    0  501    0  0.00000000000E+00  0.00000000000E+00 -0.19302494105E+04  0.19302494105E+04  0.25500000920E-02 0. -1.
    10030    2    1    2    0    0  0.00000000000E+00  0.00000000000E+00 -0.24042538500E+03  0.36200734359E+04  0.36120807460E+04 0.  0.
        2    1    3    3  502    0 -0.10345091301E+04  0.11596726879E+04  0.80200383905E+03  0.17487881636E+04  0.25500000920E-02 0. -1.
       -2    1    3    3    0  502  0.10345091301E+04 -0.11596726879E+04 -0.10424292240E+04  0.18712852723E+04  0.25500000920E-02 0.  1.
</event>
<event>
 5   0  0.4115358E-07  0.3609769E+04  0.7818609E-02  0.8088258E-01
        2   -1    0    0  501    0  0.00000000000E+00  0.00000000000E+00  0.28634748039E+04  0.28634748039E+04  0.25500000920E-02 0. -1.
       -2   -1    0    0    0  501  0.00000000000E+00  0.00000000000E+00 -0.11376417362E+04  0.11376417362E+04  0.25500000920E-02 0.  1.
    10030    2    1    2    0    0  0.00000000000E+00  0.00000000000E+00  0.17258330677E+04  0.40011165401E+04  0.36097692156E+04 0.  0.
        3    1    3    3  502    0 -0.95500676673E+03  0.11504473866E+04  0.19834787954E+04  0.24838992040E+04  0.10100000352E+00 0. -1.
       -3    1    3    3    0  502  0.95500676673E+03 -0.11504473866E+04 -0.25764572771E+03  0.15172173361E+04  0.10100000352E+00 0.  1.
</event>
<event>
 5   0  0.3993751E-07  0.3559590E+04  0.7818609E-02  0.8099811E-01
        2   -1    0    0  501    0  0.00000000000E+00  0.00000000000E+00  0.11998163269E+04  0.11998163269E+04  0.25500000920E-02 0.  1.
       -2   -1    0    0    0  501  0.00000000000E+00  0.00000000000E+00 -0.26401293884E+04  0.26401293884E+04  0.25500000920E-02 0. -1.
    10030    2    1    2    0    0  0.00000000000E+00  0.00000000000E+00 -0.14403130616E+04  0.38399457153E+04  0.35595900580E+04 0.  0.
        1    1    3    3  502    0 -0.14644773168E+04  0.35570979283E+03 -0.17415367142E+04  0.23030791118E+04  0.50400001928E-02 0. -1.
       -1    1    3    3    0  502  0.14644773168E+04 -0.35570979283E+03  0.30122365265E+03  0.15368666035E+04  0.50400001928E-02 0.  1.
</event>
<event>
 5   0  0.4120440E-07  0.3604270E+04  0.7818609E-02  0.8089514E-01
       -2   -1    0    0    0  501  0.00000000000E+00  0.00000000000E+00  0.14891096602E+04  0.14891096602E+04  0.25500000920E-02 0. -1.
        2   -1    0    0  501    0  0.00000000000E+00  0.00000000000E+00 -0.21809616468E+04  0.21809616468E+04  0.25500000920E-02 0.  1.
    10030    2    1    2    0    0  0.00000000000E+00  0.00000000000E+00 -0.69185198655E+03  0.36700713070E+04  0.36042702766E+04 0.  0.
        2    1    3    3  502    0  0.38451034799E+03 -0.86360114928E+02 -0.21365479913E+04  0.21725891457E+04  0.25500000920E-02 0.  1.
       -2    1    3    3    0  502 -0.38451034799E+03  0.86360114928E+02  0.14446960047E+04  0.14974821612E+04  0.25500000920E-02 0. -1.
</event>
<event>
 5   0  0.4115358E-07  0.3612017E+04  0.7818609E-02  0.8087745E-01
       -2   -1    0    0    0  501  0.00000000000E+00  0.00000000000E+00  0.21082203675E+04  0.21082203675E+04  0.25500000920E-02 0.  1.
        2   -1    0    0  501    0  0.00000000000E+00  0.00000000000E+00 -0.15471185015E+04  0.15471185015E+04  0.25500000920E-02 0. -1.
    10030    2    1    2    0    0  0.00000000000E+00  0.00000000000E+00  0.56110186605E+03  0.36553388690E+04  0.36120170187E+04 0.  0.
        3    1    3    3  502    0 -0.14567954853E+04 -0.39566853164E+03 -0.72273263329E+03  0.16736633898E+04  0.10100000352E+00 0. -1.
       -3    1    3    3    0  502  0.14567954853E+04  0.39566853164E+03  0.12838344993E+04  0.19816754792E+04  0.10100000352E+00 0.  1.
</event>
<event>
 5   0  0.1361743E-07  0.3611628E+04  0.7818609E-02  0.8087833E-01
       -1   -1    0    0    0  501  0.00000000000E+00  0.00000000000E+00  0.24650755053E+04  0.24650755053E+04  0.50400001928E-02 0.  1.
        1   -1    0    0  501    0  0.00000000000E+00  0.00000000000E+00 -0.13228660626E+04  0.13228660626E+04  0.50400001928E-02 0. -1.
    10030    2    1    2    0    0  0.00000000000E+00  0.00000000000E+00  0.11422094426E+04  0.37879415679E+04  0.36116282908E+04 0.  0.
        5    1    3    3  502    0  0.37306750332E+03 -0.10202247175E+04  0.20840608359E+04  0.23501849914E+04  0.46999998093E+01 0.  1.
       -5    1    3    3    0  502 -0.37306750332E+03  0.10202247175E+04 -0.94185139326E+03  0.14377565765E+04  0.46999998093E+01 0. -1.
</event>
<event>
 5   0  0.3880259E-07  0.3579506E+04  0.7818609E-02  0.8095202E-01
        2   -1    0    0  501    0  0.00000000000E+00  0.00000000000E+00  0.22142838024E+04  0.22142838024E+04  0.25500000920E-02 0.  1.
       -2   -1    0    0    0  501  0.00000000000E+00  0.00000000000E+00 -0.14466144419E+04  0.14466144419E+04  0.25500000920E-02 0. -1.
    10030    2    1    2    0    0  0.00000000000E+00  0.00000000000E+00  0.76766936051E+03  0.36608982442E+04  0.35795055116E+04 0.  0.
        5    1    3    3  502    0 -0.79408680946E+03  0.14723793362E+04 -0.26680555742E+03  0.16940135968E+04  0.46999998093E+01 0. -1.
       -5    1    3    3    0  502  0.79408680946E+03 -0.14723793362E+04  0.10344749179E+04  0.19668846475E+04  0.46999998093E+01 0.  1.
</event>
<event>
 5   0  0.1361743E-07  0.3592408E+04  0.7818609E-02  0.8092233E-01
       -1   -1    0    0    0  501  0.00000000000E+00  0.00000000000E+00  0.17004221278E+04  0.17004221278E+04  0.50400001928E-02 0.  1.
        1   -1    0    0  501    0  0.00000000000E+00  0.00000000000E+00 -0.18973812545E+04  0.18973812546E+04  0.50400001928E-02 0. -1.
    10030    2    1    2    0    0  0.00000000000E+00  0.00000000000E+00 -0.19695912673E+03  0.35978033824E+04  0.35924081451E+04 0.  0.
        5    1    3    3  502    0  0.16959808693E+04 -0.58307956337E+03  0.16410426540E+01  0.17934206615E+04  0.46999998093E+01 0.  1.
       -5    1    3    3    0  502 -0.16959808693E+04  0.58307956337E+03 -0.19860016938E+03  0.18043827209E+04  0.46999998093E+01 0. -1.
</event>
<event>
 5   0  0.1370997E-07  0.3592969E+04  0.7818609E-02  0.8092104E-01
       -1   -1    0    0    0  501  0.00000000000E+00  0.00000000000E+00  0.14287507211E+04  0.14287507211E+04  0.50400001928E-02 0. -1.
        1   -1    0    0  501    0  0.00000000000E+00  0.00000000000E+00 -0.22588666551E+04  0.22588666551E+04  0.50400001928E-02 0.  1.
    10030    2    1    2    0    0  0.00000000000E+00  0.00000000000E+00 -0.83011593397E+03  0.36876173761E+04  0.35929694473E+04 0.  0.
        3    1    3    3  502    0  0.13855500179E+04  0.84748441188E+03 -0.12029914141E+04  0.20211796142E+04  0.10100000352E+00 0.  1.
       -3    1    3    3    0  502 -0.13855500179E+04 -0.84748441188E+03  0.37287548010E+03  0.16664377619E+04  0.10100000352E+00 0. -1.
</event>
<event>
 5   0  0.4115358E-07  0.3581076E+04  0.7818609E-02  0.8094840E-01
       -2   -1    0    0    0  501  0.00000000000E+00  0.00000000000E+00  0.18048619875E+04  0.18048619875E+04  0.25500000920E-02 0.  1.
        2   -1    0    0  501    0  0.00000000000E+00  0.00000000000E+00 -0.17763281772E+04  0.17763281772E+04  0.25500000920E-02 0. -1.
    10030    2    1    2    0    0  0.00000000000E+00  0.00000000000E+00  0.28533810283E+02  0.35811901647E+04  0.35810764886E+04 0.  0.
        3    1    3    3  502    0  0.17234313491E+04  0.19845983539E+03  0.45747988282E+03  0.17941264656E+04  0.10100000352E+00 0.  1.
       -3    1    3    3    0  502 -0.17234313491E+04 -0.19845983539E+03 -0.42894607254E+03  0.17870636991E+04  0.10100000352E+00 0. -1.
</event>
<event>
 5   0  0.1298250E-07  0.3590029E+04  0.7818609E-02  0.8092779E-01
       -1   -1    0    0    0  501  0.00000000000E+00  0.00000000000E+00  0.16263499835E+04  0.16263499835E+04  0.50400001928E-02 0.  1.
        1   -1    0    0  501    0  0.00000000000E+00  0.00000000000E+00 -0.19811709533E+04  0.19811709533E+04  0.50400001928E-02 0. -1.
    10030    2    1    2    0    0  0.00000000000E+00  0.00000000000E+00 -0.35482096982E+03  0.36075209368E+04  0.35900291627E+04 0.  0.
        1    1    3    3  502    0  0.61823415263E+03 -0.20782277784E+03 -0.18578843903E+04  0.19690449924E+04  0.50400001928E-02 0. -1.
       -1    1    3    3    0  502 -0.61823415263E+03  0.20782277784E+03  0.15030634205E+04  0.16384759444E+04  0.50400001928E-02 0.  1.
</event>
<event>
 5   0  0.1370997E-07  0.3617695E+04  0.7818609E-02  0.8086450E-01
       -1   -1    0    0    0  501  0.00000000000E+00  0.00000000000E+00  0.30116013114E+04  0.30116013114E+04  0.50400001928E-02 0.  1.
        1   -1    0    0  501    0  0.00000000000E+00  0.00000000000E+00 -0.10864416594E+04  0.10864416595E+04  0.50400001928E-02 0. -1.
    10030    2    1    2    0    0  0.00000000000E+00  0.00000000000E+00  0.19251596520E+04  0.40980429709E+04  0.36176949161E+04 0.  0.
        3    1    3    3  502    0  0.16659111119E+04  0.70244959991E+03  0.89816230230E+03  0.20187597194E+04  0.10100000352E+00 0.  1.
       -3    1    3    3    0  502 -0.16659111119E+04 -0.70244959991E+03  0.10269973497E+04  0.20792832515E+04  0.10100000352E+00 0. -1.
</event>
<event>
 5   0  0.1298250E-07  0.3596546E+04  0.7818609E-02  0.8091283E-01
        1   -1    0    0  501    0  0.00000000000E+00  0.00000000000E+00  0.23777802273E+04  0.23777802273E+04  0.50400001928E-02 0. -1.
       -1   -1    0    0    0  501  0.00000000000E+00  0.00000000000E+00 -0.13600022505E+04  0.13600022505E+04  0.50400001928E-02 0.  1.
    10030    2    1    2    0    0  0.00000000000E+00  0.00000000000E+00  0.10177779768E+04  0.37377824778E+04  0.35965463769E+04 0.  0.
        2    1    3    3  502    0 -0.49167097878E+03  0.11969180727E+04 -0.78892291153E+03  0.15155040694E+04  0.25500000920E-02 0.  1.
       -2    1    3    3    0  502  0.49167097878E+03 -0.11969180727E+04  0.18067008883E+04  0.22222784083E+04  0.25500000920E-02 0. -1.
</event>
<event>
 5   0  0.1361743E-07  0.3591757E+04  0.7818609E-02  0.8092382E-01
        1   -1    0    0  501    0  0.00000000000E+00  0.00000000000E+00  0.17603818997E+04  0.17603818997E+04  0.50400001928E-02 0.  1.
       -1   -1    0    0    0  501  0.00000000000E+00  0.00000000000E+00 -0.18320908668E+04  0.18320908669E+04  0.50400001928E-02 0. -1.
    10030    2    1    2    0    0  0.00000000000E+00  0.00000000000E+00 -0.71708967190E+02  0.35924727665E+04  0.35917570077E+04 0.  0.
        5    1    3    3  502    0 -0.13999256210E+03 -0.65296738770E+03 -0.17032779329E+04  0.18295196456E+04  0.46999998093E+01 0. -1.
       -5    1    3    3    0  502  0.13999256210E+03  0.65296738770E+03  0.16315689657E+04  0.17629531210E+04  0.46999998093E+01 0.  1.
</event>
<event>
 5   0  0.4200635E-07  0.3601892E+04  0.7818609E-02  0.8090058E-01
        2   -1    0    0  501    0  0.00000000000E+00  0.00000000000E+00  0.18249678557E+04  0.18249678557E+04  0.25500000920E-02 0. -1.
       -2   -1    0    0    0  501  0.00000000000E+00  0.00000000000E+00 -0.17772404812E+04  0.17772404812E+04  0.25500000920E-02 0.  1.
    10030    2    1    2    0    0  0.00000000000E+00  0.00000000000E+00  0.47727374552E+02  0.36022083369E+04  0.36018921417E+04 0.  0.
        4    1    3    3  502    0 -0.69776145880E+03  0.16592605754E+04  0.82078991033E+02  0.18018754907E+04  0.12699999809E+01 0.  1.
       -4    1    3    3    0  502  0.69776145880E+03 -0.16592605754E+04 -0.34351616481E+02  0.18003328462E+04  0.12699999809E+01 0. -1.
</event>
<event>
 5   0  0.3993751E-07  0.3599562E+04  0.7818609E-02  0.8090592E-01
        2   -1    0    0  501    0  0.00000000000E+00  0.00000000000E+00  0.16822222150E+04  0.16822222150E+04  0.25500000920E-02 0. -1.
       -2   -1    0    0    0  501  0.00000000000E+00  0.00000000000E+00 -0.19255554229E+04  0.19255554229E+04  0.25500000920E-02 0.  1.
    10030    2    1    2    0    0  0.00000000000E+00  0.00000000000E+00 -0.24333320785E+03  0.36077776379E+04  0.35995622560E+04 0.  0.
        1    1    3    3  502    0 -0.15467506307E+04  0.74817913600E+03 -0.65861551998E+03  0.18401043276E+04  0.50400001928E-02 0.  1.
       -1    1    3    3    0  502  0.15467506307E+04 -0.74817913600E+03  0.41528231213E+03  0.17676733103E+04  0.50400001928E-02 0. -1.
</event>
<event>
 5   0  0.1348226E-07  0.3581070E+04  0.7818609E-02  0.8094842E-01
       -1   -1    0    0    0  501  0.00000000000E+00  0.00000000000E+00  0.16416449594E+04  0.16416449594E+04  0.50400001928E-02 0. -1.
        1   -1    0    0  501    0  0.00000000000E+00  0.00000000000E+00 -0.19529285127E+04  0.19529285128E+04  0.50400001928E-02 0.  1.
    10030    2    1    2    0    0  0.00000000000E+00  0.00000000000E+00 -0.31128355339E+03  0.35945734721E+04  0.35810698116E+04 0.  0.
        4    1    3    3  502    0  0.92345020672E+03 -0.41075748557E+02 -0.16949060025E+04  0.19305842306E+04  0.12699999809E+01 0.  1.
       -4    1    3    3    0  502 -0.92345020672E+03  0.41075748557E+02  0.13836224491E+04  0.16639892415E+04  0.12699999809E+01 0. -1.
</event>
<event>
 5   0  0.4120440E-07  0.3591017E+04  0.7818609E-02  0.8092553E-01
        2   -1    0    0  501    0  0.00000000000E+00  0.00000000000E+00  0.17835412570E+04  0.17835412570E+04  0.25500000920E-02 0. -1.
       -2   -1    0    0    0  501  0.00000000000E+00  0.00000000000E+00 -0.18075557130E+04  0.18075557130E+04  0.25500000920E-02 0.  1.
    10030    2    1    2    0    0  0.00000000000E+00  0.00000000000E+00 -0.24014455987E+02  0.35910969699E+04  0.35910166741E+04 0.  0.
        2    1    3    3  502    0  0.14991712515E+04  0.74248019875E+03  0.63997276446E+03  0.17911885512E+04  0.25500000920E-02 0. -1.
       -2    1    3    3    0  502 -0.14991712515E+04 -0.74248019875E+03 -0.66398722044E+03  0.17999084187E+04  0.25500000920E-02 0.  1.
</event>
<event>
 5   0  0.1361743E-07  0.3602671E+04  0.7818609E-02  0.8089880E-01
       -1   -1    0    0    0  501  0.00000000000E+00  0.00000000000E+00  0.99912687983E+03  0.99912687984E+03  0.50400001928E-02 0. -1.
        1   -1    0    0  501    0  0.00000000000E+00  0.00000000000E+00 -0.32476443698E+04  0.32476443699E+04  0.50400001928E-02 0.  1.
    10030    2    1    2    0    0  0.00000000000E+00  0.00000000000E+00 -0.22485174900E+04  0.42467712497E+04  0.36026705573E+04 0.  0.
        5    1    3    3  502    0  0.10245928039E+04  0.46434498003E+03 -0.27826954821E+04  0.30014701249E+04  0.46999998093E+01 0.  1.
       -5    1    3    3    0  502 -0.10245928039E+04 -0.46434498003E+03  0.53417799213E+03  0.12453011248E+04  0.46999998093E+01 0. -1.
</event>
<event>
 5   0  0.4120440E-07  0.3578019E+04  0.7818609E-02  0.8095545E-01
       -2   -1    0    0    0  501  0.00000000000E+00  0.00000000000E+00  0.13837277754E+04  0.13837277754E+04  0.25500000920E-02 0. -1.
        2   -1    0    0  501    0  0.00000000000E+00  0.00000000000E+00 -0.23129951046E+04  0.23129951046E+04  0.25500000920E-02 0.  1.
    10030    2    1    2    0    0  0.00000000000E+00  0.00000000000E+00 -0.92926732926E+03  0.36967228800E+04  0.35780193239E+04 0.  0.
        2    1    3    3  502    0  0.55586014740E+03  0.49522230922E+02  0.12914985135E+04  0.14069119963E+04  0.25500000920E-02 0. -1.
       -2    1    3    3    0  502 -0.55586014740E+03 -0.49522230922E+02 -0.22207658428E+04  0.22898108837E+04  0.25500000920E-02 0.  1.
</event>
<event>
 5   0  0.1348226E-07  0.3536194E+04  0.7818609E-02  0.8105266E-01
        1   -1    0    0  501    0  0.00000000000E+00  0.00000000000E+00  0.28646798819E+04  0.28646798819E+04  0.50400001928E-02 0. -1.
       -1   -1    0    0    0  501  0.00000000000E+00  0.00000000000E+00 -0.10912798904E+04  0.10912798904E+04  0.50400001928E-02 0.  1.
    10030    2    1    2    0    0  0.00000000000E+00  0.00000000000E+00  0.17733999916E+04  0.39559597723E+04  0.35361943089E+04 0.  0.
        4    1    3    3  502    0 -0.72372226203E+03 -0.12497426155E+04  0.20278537919E+04  0.24895427556E+04  0.12699999809E+01 0. -1.
       -4    1    3    3    0  502  0.72372226203E+03  0.12497426155E+04 -0.25445380028E+03  0.14664170168E+04  0.12699999809E+01 0.  1.
</event>
<event>
 5   0  0.1348226E-07  0.3460932E+04  0.7818609E-02  0.8123111E-01
       -1   -1    0    0    0  501  0.00000000000E+00  0.00000000000E+00  0.16273548589E+04  0.16273548589E+04  0.50400001928E-02 0.  1.
        1   -1    0    0  501    0  0.00000000000E+00  0.00000000000E+00 -0.18401109059E+04  0.18401109059E+04  0.50400001928E-02 0. -1.
    10030    2    1    2    0    0  0.00000000000E+00  0.00000000000E+00 -0.21275604699E+03  0.34674657648E+04  0.34609324891E+04 0.  0.
        4    1    3    3  502    0 -0.55385192235E+03  0.12416439740E+04 -0.11789502328E+04  0.17995435461E+04  0.12699999809E+01 0. -1.
       -4    1    3    3    0  502  0.55385192235E+03 -0.12416439740E+04  0.96619418582E+03  0.16679222187E+04  0.12699999809E+01 0.  1.
</event>
<event>
 5   0  0.1298250E-07  0.3551469E+04  0.7818609E-02  0.8101700E-01
        1   -1    0    0  501    0  0.00000000000E+00  0.00000000000E+00  0.25790001425E+04  0.25790001425E+04  0.50400001928E-02 0. -1.
       -1   -1    0    0    0  501  0.00000000000E+00  0.00000000000E+00 -0.12226572568E+04  0.12226572568E+04  0.50400001928E-02 0.  1.
    10030    2    1    2    0    0  0.00000000000E+00  0.00000000000E+00  0.13563428857E+04  0.38016573993E+04  0.35514691267E+04 0.  0.
        2    1    3    3  502    0 -0.14634027196E+04 -0.70999037898E+03  0.14408217942E+04  0.21729245962E+04  0.25500000920E-02 0. -1.
       -2    1    3    3    0  502  0.14634027196E+04  0.70999037898E+03 -0.84478908518E+02  0.16287328031E+04  0.25500000920E-02 0.  1.
</event>
<event>
 5   0  0.4120440E-07  0.3613473E+04  0.7818609E-02  0.8087412E-01
        2   -1    0    0  501    0  0.00000000000E+00  0.00000000000E+00  0.21262696721E+04  0.21262696721E+04  0.25500000920E-02 0.  1.
       -2   -1    0    0    0  501  0.00000000000E+00  0.00000000000E+00 -0.15352226862E+04  0.15352226862E+04  0.25500000920E-02 0. -1.
    10030    2    1    2    0    0  0.00000000000E+00  0.00000000000E+00  0.59104698584E+03  0.36614923583E+04  0.36134733637E+04 0.  0.
        2    1    3    3  502    0 -0.13251300119E+04  0.85651777646E+03  0.11873933917E+04  0.19747139835E+04  0.25500000920E-02 0. -1.
       -2    1    3    3    0  502  0.13251300119E+04 -0.85651777646E+03 -0.59634640591E+03  0.16867783748E+04  0.25500000920E-02 0.  1.
</event>
<event>
 5   0  0.1298250E-07  0.3599929E+04  0.7818609E-02  0.8090508E-01
        3   -1    0    0  501    0  0.00000000000E+00  0.00000000000E+00  0.13012946183E+04  0.13012946222E+04  0.10100000352E+00 0. -1.
       -3   -1    0    0    0  501  0.00000000000E+00  0.00000000000E+00 -0.24897305531E+04  0.24897305551E+04  0.10100000352E+00 0.  1.
    10030    2    1    2    0    0  0.00000000000E+00  0.00000000000E+00 -0.11884359348E+04  0.37910251773E+04  0.35999294332E+04 0.  0.
        5    1    3    3  502    0 -0.11209680863E+04  0.10873603181E+04 -0.15366709318E+04  0.21909590490E+04  0.46999998093E+01 0.  1.
       -5    1    3    3    0  502  0.11209680863E+04 -0.10873603181E+04  0.34823499702E+03  0.16000661283E+04  0.46999998093E+01 0. -1.
</event>
<event>
 5   0  0.3880259E-07  0.3607288E+04  0.7818609E-02  0.8088824E-01
        2   -1    0    0  501    0  0.00000000000E+00  0.00000000000E+00  0.14197483992E+04  0.14197483992E+04  0.25500000920E-02 0.  1.
       -2   -1    0    0    0  501  0.00000000000E+00  0.00000000000E+00 -0.22913437064E+04  0.22913437064E+04  0.25500000920E-02 0. -1.
    10030    2    1    2    0    0  0.00000000000E+00  0.00000000000E+00 -0.87159530723E+03  0.37110921056E+04  0.36072879337E+04 0.  0.
        5    1    3    3  502    0  0.17007939728E+04 -0.57988956246E+03 -0.27596466945E+03  0.18180073243E+04  0.46999998093E+01 0.  1.
       -5    1    3    3    0  502 -0.17007939728E+04  0.57988956246E+03 -0.59563063778E+03  0.18930847813E+04  0.46999998093E+01 0. -1.
</event>
<event>
 5   0  0.3880259E-07  0.3589105E+04  0.7818609E-02  0.8092992E-01
       -2   -1    0    0    0  501  0.00000000000E+00  0.00000000000E+00  0.12368797056E+04  0.12368797056E+04  0.25500000920E-02 0.  1.
        2   -1    0    0  501    0  0.00000000000E+00  0.00000000000E+00 -0.26036631468E+04  0.26036631468E+04  0.25500000920E-02 0. -1.
    10030    2    1    2    0    0  0.00000000000E+00  0.00000000000E+00 -0.13667834412E+04  0.38405428523E+04  0.35891046830E+04 0.  0.
        5    1    3    3  502    0  0.22978249077E+01  0.14493601408E+04 -0.18157040437E+04  0.23232419939E+04  0.46999998093E+01 0. -1.
       -5    1    3    3    0  502 -0.22978249077E+01 -0.14493601408E+04  0.44892060254E+03  0.15173008585E+04  0.46999998093E+01 0.  1.
</event>
<event>
 5   0  0.4200635E-07  0.3622879E+04  0.7818609E-02  0.8085271E-01
       -2   -1    0    0    0  501  0.00000000000E+00  0.00000000000E+00  0.30786003754E+04  0.30786003754E+04  0.25500000920E-02 0.  1.
        2   -1    0    0  501    0  0.00000000000E+00  0.00000000000E+00 -0.10658457322E+04  0.10658457322E+04  0.25500000920E-02 0. -1.
    10030    2    1    2    0    0  0.00000000000E+00  0.00000000000E+00  0.20127546432E+04  0.41444461076E+04  0.36228790050E+04 0.  0.
        4    1    3    3  502    0  0.14101001975E+03 -0.56944603451E+03 -0.95416573250E+03  0.11200832424E+04  0.12699999809E+01 0. -1.
       -4    1    3    3    0  502 -0.14101001975E+03  0.56944603451E+03  0.29669203757E+04  0.30243628652E+04  0.12699999809E+01 0.  1.
</event>
<event>
 5   0  0.1348226E-07  0.3611056E+04  0.7818609E-02  0.8087964E-01
        1   -1    0    0  501    0  0.00000000000E+00  0.00000000000E+00  0.18626191208E+04  0.18626191208E+04  0.50400001928E-02 0. -1.
       -1   -1    0    0    0  501  0.00000000000E+00  0.00000000000E+00 -0.17501869078E+04  0.17501869078E+04  0.50400001928E-02 0.  1.
    10030    2    1    2    0    0  0.00000000000E+00  0.00000000000E+00  0.11243221303E+03  0.36128060286E+04  0.36110561332E+04 0.  0.
        4    1    3    3  502    0  0.16810413977E+04  0.47366839383E+03  0.51433324807E+03  0.18206598339E+04  0.12699999809E+01 0. -1.
       -4    1    3    3    0  502 -0.16810413977E+04 -0.47366839383E+03 -0.40190103504E+03  0.17921461946E+04  0.12699999809E+01 0.  1.
</event>
<event>
 5   0  0.1298250E-07  0.3624247E+04  0.7818609E-02  0.8084960E-01
       -1   -1    0    0    0  501  0.00000000000E+00  0.00000000000E+00  0.11671679377E+04  0.11671679377E+04  0.50400001928E-02 0.  1.
        1   -1    0    0  501    0  0.00000000000E+00  0.00000000000E+00 -0.28134694609E+04  0.28134694609E+04  0.50400001928E-02 0. -1.
    10030    2    1    2    0    0  0.00000000000E+00  0.00000000000E+00 -0.16463015232E+04  0.39806373986E+04  0.36242468726E+04 0.  0.
        2    1    3    3  502    0 -0.73867298456E+03 -0.90439809991E+03  0.69883319472E+03  0.13608605863E+04  0.25500000920E-02 0.  1.
       -2    1    3    3    0  502  0.73867298456E+03  0.90439809991E+03 -0.23451347179E+04  0.26197768123E+04  0.25500000920E-02 0. -1.
</event>
<event>
 5   0  0.4120440E-07  0.3307833E+04  0.7818609E-02  0.8160905E-01
       -2   -1    0    0    0  501  0.00000000000E+00  0.00000000000E+00  0.90367703117E+03  0.90367703118E+03  0.25500000920E-02 0.  1.
        2   -1    0    0  501    0  0.00000000000E+00  0.00000000000E+00 -0.30270105969E+04  0.30270105969E+04  0.25500000920E-02 0. -1.
    10030    2    1    2    0    0  0.00000000000E+00  0.00000000000E+00 -0.21233335657E+04  0.39306876281E+04  0.33078330971E+04 0.  0.
        2    1    3    3  502    0 -0.83666587975E+03 -0.12397255268E+04 -0.22266628661E+03  0.15121208455E+04  0.25500000920E-02 0.  1.
       -2    1    3    3    0  502  0.83666587975E+03  0.12397255268E+04 -0.19006672791E+04  0.24185667826E+04  0.25500000920E-02 0. -1.
</event>
<event>
 5   0  0.1298250E-07  0.3596709E+04  0.7818609E-02  0.8091246E-01
        1   -1    0    0  501    0  0.00000000000E+00  0.00000000000E+00  0.10687026759E+04  0.10687026759E+04  0.50400001928E-02 0.  1.
       -1   -1    0    0    0  501  0.00000000000E+00  0.00000000000E+00 -0.30261720086E+04  0.30261720086E+04  0.50400001928E-02 0. -1.
    10030    2    1    2    0    0  0.00000000000E+00  0.00000000000E+00 -0.19574693327E+04  0.40948746845E+04  0.35967085638E+04 0.  0.
        2    1    3    3  502    0  0.84129729786E+03 -0.12089434308E+03  0.82560232666E+03  0.11849117213E+04  0.25500000920E-02 0.  1.
       -2    1    3    3    0  502 -0.84129729786E+03  0.12089434308E+03 -0.27830716594E+04  0.29099629631E+04  0.25500000920E-02 0. -1.
</event>
<event>
 5   0  0.4115358E-07  0.3570125E+04  0.7818609E-02  0.8097369E-01
        2   -1    0    0  501    0  0.00000000000E+00  0.00000000000E+00  0.21266688369E+04  0.21266688369E+04  0.25500000920E-02 0.  1.
       -2   -1    0    0    0  501  0.00000000000E+00  0.00000000000E+00 -0.14983285576E+04  0.14983285576E+04  0.25500000920E-02 0. -1.
    10030    2    1    2    0    0  0.00000000000E+00  0.00000000000E+00  0.62834027927E+03  0.36249973945E+04  0.35701252924E+04 0.  0.
        3    1    3    3  502    0 -0.94390878694E+03  0.11036134731E+04 -0.73982192978E+03  0.16298045877E+04  0.10100000352E+00 0. -1.
       -3    1    3    3    0  502  0.94390878694E+03 -0.11036134731E+04  0.13681622091E+04  0.19951928068E+04  0.10100000352E+00 0.  1.
</event>
<event>
 5   0  0.3880259E-07  0.3621157E+04  0.7818609E-02  0.8085663E-01
        2   -1    0    0  501    0  0.00000000000E+00  0.00000000000E+00  0.17092628231E+04  0.17092628231E+04  0.25500000920E-02 0. -1.
       -2   -1    0    0    0  501  0.00000000000E+00  0.00000000000E+00 -0.19178995170E+04  0.19178995170E+04  0.25500000920E-02 0.  1.
    10030    2    1    2    0    0  0.00000000000E+00  0.00000000000E+00 -0.20863669383E+03  0.36271623401E+04  0.36211569106E+04 0.  0.
        5    1    3    3  502    0 -0.27491066661E+03 -0.17771619587E+04 -0.31512342721E+03  0.18257068129E+04  0.46999998093E+01 0. -1.
       -5    1    3    3    0  502  0.27491066661E+03  0.17771619587E+04  0.10648673337E+03  0.18014555272E+04  0.46999998093E+01 0.  1.
</event>
<event>
 5   0  0.1361743E-07  0.3594749E+04  0.7818609E-02  0.8091696E-01
       -1   -1    0    0    0  501  0.00000000000E+00  0.00000000000E+00  0.18581725014E+04  0.18581725014E+04  0.50400001928E-02 0. -1.
        1   -1    0    0  501    0  0.00000000000E+00  0.00000000000E+00 -0.17385658875E+04  0.17385658875E+04  0.50400001928E-02 0.  1.
    10030    2    1    2    0    0  0.00000000000E+00  0.00000000000E+00  0.11960661386E+03  0.35967383889E+04  0.35947491284E+04 0.  0.
        5    1    3    3  502    0  0.39980234382E+03  0.70143008375E+03 -0.15469144444E+04  0.17449391006E+04  0.46999998093E+01 0.  1.
       -5    1    3    3    0  502 -0.39980234382E+03 -0.70143008375E+03  0.16665210582E+04  0.18517992883E+04  0.46999998093E+01 0. -1.
</event>
<event>
 5   0  0.1370997E-07  0.3603344E+04  0.7818609E-02  0.8089726E-01
        1   -1    0    0  501    0  0.00000000000E+00  0.00000000000E+00  0.22885249647E+04  0.22885249647E+04  0.50400001928E-02 0. -1.
       -1   -1    0    0    0  501  0.00000000000E+00  0.00000000000E+00 -0.14183906310E+04  0.14183906310E+04  0.50400001928E-02 0.  1.
    10030    2    1    2    0    0  0.00000000000E+00  0.00000000000E+00  0.87013433374E+03  0.37069155957E+04  0.36033442071E+04 0.  0.
        3    1    3    3  502    0 -0.20909869076E+03  0.14540581385E+02  0.22759393043E+04  0.22855706986E+04  0.10100000352E+00 0. -1.
       -3    1    3    3    0  502  0.20909869076E+03 -0.14540581385E+02 -0.14058049706E+04  0.14213448971E+04  0.10100000352E+00 0.  1.
</event>
<event>
 5   0  0.4115358E-07  0.3620414E+04  0.7818609E-02  0.8085831E-01
       -2   -1    0    0    0  501  0.00000000000E+00  0.00000000000E+00  0.19817792411E+04  0.19817792411E+04  0.25500000920E-02 0. -1.
        2   -1    0    0  501    0  0.00000000000E+00  0.00000000000E+00 -0.16534889751E+04  0.16534889751E+04  0.25500000920E-02 0.  1.
    10030    2    1    2    0    0  0.00000000000E+00  0.00000000000E+00  0.32829026603E+03  0.36352682163E+04  0.36204144107E+04 0.  0.
        3    1    3    3  502    0 -0.23327503938E+03 -0.11065737179E+04 -0.12551347089E+04  0.16894631647E+04  0.10100000352E+00 0.  1.
       -3    1    3    3    0  502  0.23327503938E+03  0.11065737179E+04  0.15834249750E+04  0.19458050516E+04  0.10100000352E+00 0. -1.
</event>
<event>
 5   0  0.3993751E-07  0.3596243E+04  0.7818609E-02  0.8091353E-01
        2   -1    0    0  501    0  0.00000000000E+00  0.00000000000E+00  0.20031840049E+04  0.20031840049E+04  0.25500000920E-02 0. -1.
       -2   -1    0    0    0  501  0.00000000000E+00  0.00000000000E+00 -0.16140512249E+04  0.16140512249E+04  0.25500000920E-02 0.  1.
    10030    2    1    2    0    0  0.00000000000E+00  0.00000000000E+00  0.38913278007E+03  0.36172352298E+04  0.35962433715E+04 0.  0.
        1    1    3    3  502    0 -0.12755665034E+04 -0.33395007546E+03 -0.10351282816E+04  0.16763302529E+04  0.50400001928E-02 0.  1.
       -1    1    3    3    0  502  0.12755665034E+04  0.33395007546E+03  0.14242610616E+04  0.19409049769E+04  0.50400001928E-02 0. -1.
</event>
<event>
 5   0  0.3993751E-07  0.3599503E+04  0.7818609E-02  0.8090606E-01
       -2   -1    0    0    0  501  0.00000000000E+00  0.00000000000E+00  0.20255955139E+04  0.20255955139E+04  0.25500000920E-02 0.  1.
        2   -1    0    0  501    0  0.00000000000E+00  0.00000000000E+00 -0.15990880030E+04  0.15990880030E+04  0.25500000920E-02 0. -1.
    10030    2    1    2    0    0  0.00000000000E+00  0.00000000000E+00  0.42650751092E+03  0.36246835169E+04  0.35995030131E+04 0.  0.
        1    1    3    3  502    0  0.17785586145E+03  0.13840923008E+04  0.13577613606E+04  0.19470131271E+04  0.50400001928E-02 0. -1.
       -1    1    3    3    0  502 -0.17785586145E+03 -0.13840923008E+04 -0.93125384969E+03  0.16776703899E+04  0.50400001928E-02 0.  1.
</event>
<event>
 5   0  0.4120440E-07  0.3532370E+04  0.7818609E-02  0.8106161E-01
        2   -1    0    0  501    0  0.00000000000E+00  0.00000000000E+00  0.19469890823E+04  0.19469890823E+04  0.25500000920E-02 0.  1.
       -2   -1    0    0    0  501  0.00000000000E+00  0.00000000000E+00 -0.16021712307E+04  0.16021712307E+04  0.25500000920E-02 0. -1.
    10030    2    1    2    0    0  0.00000000000E+00  0.00000000000E+00  0.34481785165E+03  0.35491603130E+04  0.35323702491E+04 0.  0.
        2    1    3    3  502    0 -0.13845200060E+04  0.56106447061E+03  0.11190767631E+04  0.18665534519E+04  0.25500000920E-02 0.  1.
       -2    1    3    3    0  502  0.13845200060E+04 -0.56106447061E+03 -0.77425891142E+03  0.16826068611E+04  0.25500000920E-02 0. -1.
</event>
<event>
 5   0  0.1298250E-07  0.3574797E+04  0.7818609E-02  0.8096289E-01
        1   -1    0    0  501    0  0.00000000000E+00  0.00000000000E+00  0.19758955441E+04  0.19758955441E+04  0.50400001928E-02 0. -1.
       -1   -1    0    0    0  501  0.00000000000E+00  0.00000000000E+00 -0.16168840402E+04  0.16168840402E+04  0.50400001928E-02 0.  1.
    10030    2    1    2    0    0  0.00000000000E+00  0.00000000000E+00  0.35901150392E+03  0.35927795842E+04  0.35747973203E+04 0.  0.
        1    1    3    3  502    0  0.62712951642E+03 -0.15867452279E+04 -0.35584825335E+03  0.17428940955E+04  0.50400001928E-02 0.  1.
       -1    1    3    3    0  502 -0.62712951642E+03  0.15867452279E+04  0.71485975727E+03  0.18498854887E+04  0.50400001928E-02 0. -1.
</event>
<event>
 5   0  0.3993751E-07  0.3617795E+04  0.7818609E-02  0.8086428E-01
       -2   -1    0    0    0  501  0.00000000000E+00  0.00000000000E+00  0.17303113535E+04  0.17303113535E+04  0.25500000920E-02 0.  1.
        2   -1    0    0  501    0  0.00000000000E+00  0.00000000000E+00 -0.18910533015E+04  0.18910533015E+04  0.25500000920E-02 0. -1.
    10030    2    1    2    0    0  0.00000000000E+00  0.00000000000E+00 -0.16074194798E+03  0.36213646549E+04  0.36177954600E+04 0.  0.
        1    1    3    3  502    0  0.10261135861E+04  0.84223896756E+03 -0.13103368281E+04  0.18652769696E+04  0.50400001928E-02 0. -1.
       -1    1    3    3    0  502 -0.10261135861E+04 -0.84223896756E+03  0.11495948801E+04  0.17560876853E+04  0.50400001928E-02 0.  1.
</event>
<event>
 5   0  0.4200635E-07  0.3245869E+04  0.7818609E-02  0.8176807E-01
        2   -1    0    0  501    0  0.00000000000E+00  0.00000000000E+00  0.12682913851E+04  0.12682913851E+04  0.25500000920E-02 0. -1.
       -2   -1    0    0    0  501  0.00000000000E+00  0.00000000000E+00 -0.20767434221E+04  0.20767434221E+04  0.25500000920E-02 0.  1.
    10030    2    1    2    0    0  0.00000000000E+00  0.00000000000E+00 -0.80845203704E+03  0.33450348072E+04  0.32458686304E+04 0.  0.
        4    1    3    3  502    0  0.48739293183E+03 -0.37067444578E+02 -0.19990817438E+04  0.20579735899E+04  0.12699999809E+01 0.  1.
       -4    1    3    3    0  502 -0.48739293183E+03  0.37067444578E+02  0.11906297068E+04  0.12870612173E+04  0.12699999809E+01 0. -1.
</event>
<event>
 5   0  0.4115358E-07  0.3595179E+04  0.7818609E-02  0.8091597E-01
        2   -1    0    0  501    0  0.00000000000E+00  0.00000000000E+00  0.25220461430E+04  0.25220461430E+04  0.25500000920E-02 0. -1.
       -2   -1    0    0    0  501  0.00000000000E+00  0.00000000000E+00 -0.12812323619E+04  0.12812323619E+04  0.25500000920E-02 0.  1.
    10030    2    1    2    0    0  0.00000000000E+00  0.00000000000E+00  0.12408137812E+04  0.38032785049E+04  0.35951785139E+04 0.  0.
        3    1    3    3  502    0 -0.10832895780E+04 -0.14126645691E+04  0.88422017565E+03  0.19877079322E+04  0.10100000352E+00 0.  1.
       -3    1    3    3    0  502  0.10832895780E+04  0.14126645691E+04  0.35659360552E+03  0.18155705727E+04  0.10100000352E+00 0. -1.
</event>
<event>
 5   0  0.1361743E-07  0.3594501E+04  0.7818609E-02  0.8091752E-01
        1   -1    0    0  501    0  0.00000000000E+00  0.00000000000E+00  0.20377064971E+04  0.20377064971E+04  0.50400001928E-02 0. -1.
       -1   -1    0    0    0  501  0.00000000000E+00  0.00000000000E+00 -0.15851692712E+04  0.15851692712E+04  0.50400001928E-02 0.  1.
    10030    2    1    2    0    0  0.00000000000E+00  0.00000000000E+00  0.45253722586E+03  0.36228757683E+04  0.35945012021E+04 0.  0.
        5    1    3    3  502    0 -0.77967761574E+03 -0.44248489388E+03  0.17962546490E+04  0.20075464926E+04  0.46999998093E+01 0. -1.
       -5    1    3    3    0  502  0.77967761574E+03  0.44248489388E+03 -0.13437174232E+04  0.16153292758E+04  0.46999998093E+01 0.  1.
</event>
<event>
 5   0  0.1298250E-07  0.3639857E+04  0.7818609E-02  0.8081423E-01
       -1   -1    0    0    0  501  0.00000000000E+00  0.00000000000E+00  0.17637508562E+04  0.17637508562E+04  0.50400001928E-02 0.  1.
        1   -1    0    0  501    0  0.00000000000E+00  0.00000000000E+00 -0.18778953545E+04  0.18778953545E+04  0.50400001928E-02 0. -1.
    10030    2    1    2    0    0  0.00000000000E+00  0.00000000000E+00 -0.11414449827E+03  0.36416462107E+04  0.36398568869E+04 0.  0.
        2    1    3    3  502    0 -0.25027274887E+03  0.12087770433E+04 -0.13950258618E+04  0.18627601950E+04  0.25500000920E-02 0.  1.
       -2    1    3    3    0  502  0.25027274887E+03 -0.12087770433E+04  0.12808813635E+04  0.17788860156E+04  0.25500000920E-02 0. -1.
</event>
<event>
 5   0  0.3993751E-07  0.3613200E+04  0.7818609E-02  0.8087475E-01
        2   -1    0    0  501    0  0.00000000000E+00  0.00000000000E+00  0.21175520398E+04  0.21175520398E+04  0.25500000920E-02 0.  1.
       -2   -1    0    0    0  501  0.00000000000E+00  0.00000000000E+00 -0.15413100943E+04  0.15413100943E+04  0.25500000920E-02 0. -1.
    10030    2    1    2    0    0  0.00000000000E+00  0.00000000000E+00  0.57624194542E+03  0.36588621341E+04  0.36132004285E+04 0.  0.
        1    1    3    3  502    0  0.15076979620E+03  0.72623354478E+03 -0.13800152783E+04  0.15667127565E+04  0.50400001928E-02 0. -1.
       -1    1    3    3    0  502 -0.15076979620E+03 -0.72623354478E+03  0.19562572237E+04  0.20921493776E+04  0.50400001928E-02 0.  1.
</event>
<event>
 5   0  0.4200635E-07  0.3548060E+04  0.7818609E-02  0.8102494E-01
        2   -1    0    0  501    0  0.00000000000E+00  0.00000000000E+00  0.22905756167E+04  0.22905756167E+04  0.25500000920E-02 0.  1.
       -2   -1    0    0    0  501  0.00000000000E+00  0.00000000000E+00 -0.13739702625E+04  0.13739702625E+04  0.25500000920E-02 0. -1.
    10030    2    1    2    0    0  0.00000000000E+00  0.00000000000E+00  0.91660535418E+03  0.36645458792E+04  0.35480601919E+04 0.  0.
        4    1    3    3  502    0 -0.10901965340E+04  0.11519540408E+04  0.12791625140E+04  0.20375929291E+04  0.12699999809E+01 0.  1.
       -4    1    3    3    0  502  0.10901965340E+04 -0.11519540408E+04 -0.36255715984E+03  0.16269529501E+04  0.12699999809E+01 0. -1.
</event>
<event>
 5   0  0.4115358E-07  0.3604862E+04  0.7818609E-02  0.8089379E-01
       -2   -1    0    0    0  501  0.00000000000E+00  0.00000000000E+00  0.12786551970E+04  0.12786551970E+04  0.25500000920E-02 0.  1.
        2   -1    0    0  501    0  0.00000000000E+00  0.00000000000E+00 -0.25407612782E+04  0.25407612782E+04  0.25500000920E-02 0. -1.
    10030    2    1    2    0    0  0.00000000000E+00  0.00000000000E+00 -0.12621060813E+04  0.38194164752E+04  0.36048620571E+04 0.  0.
        3    1    3    3  502    0  0.12220331951E+04  0.16665043968E+03 -0.20236726011E+04  0.23698920451E+04  0.10100000352E+00 0. -1.
       -3    1    3    3    0  502 -0.12220331951E+04 -0.16665043968E+03  0.76156651985E+03  0.14495244301E+04  0.10100000352E+00 0.  1.
</event>
<event>
 5   0  0.1298250E-07  0.3670230E+04  0.7818609E-02  0.8074591E-01
       -1   -1    0    0    0  501  0.00000000000E+00  0.00000000000E+00  0.13816079555E+04  0.13816079555E+04  0.50400001928E-02 0.  1.
        1   -1    0    0  501    0  0.00000000000E+00  0.00000000000E+00 -0.24374842248E+04  0.24374842248E+04  0.50400001928E-02 0. -1.
    10030    2    1    2    0    0  0.00000000000E+00  0.00000000000E+00 -0.10558762693E+04  0.38190921803E+04  0.36702302905E+04 0.  0.
        1    1    3    3  502    0  0.10605863129E+04 -0.13916521462E+04  0.47772924704E+02  0.17503774666E+04  0.50400001928E-02 0. -1.
       -1    1    3    3    0  502 -0.10605863129E+04  0.13916521462E+04 -0.11036491940E+04  0.20687147137E+04  0.50400001928E-02 0.  1.
</event>
<event>
 5   0  0.4120440E-07  0.3616769E+04  0.7818609E-02  0.8086661E-01
        2   -1    0    0  501    0  0.00000000000E+00  0.00000000000E+00  0.25532626359E+04  0.25532626359E+04  0.25500000920E-02 0. -1.
       -2   -1    0    0    0  501  0.00000000000E+00  0.00000000000E+00 -0.12808141483E+04  0.12808141483E+04  0.25500000920E-02 0.  1.
    10030    2    1    2    0    0  0.00000000000E+00  0.00000000000E+00  0.12724484876E+04  0.38340767842E+04  0.36167692259E+04 0.  0.
        2    1    3    3  502    0 -0.16234839869E+03 -0.11432745031E+04 -0.83909084945E+03  0.14274127104E+04  0.25500000920E-02 0.  1.
       -2    1    3    3    0  502  0.16234839869E+03  0.11432745031E+04  0.21115393371E+04  0.24066640738E+04  0.25500000920E-02 0. -1.
</event>
<event>
 5   0  0.1298250E-07  0.3637368E+04  0.7818609E-02  0.8081985E-01
       -1   -1    0    0    0  501  0.00000000000E+00  0.00000000000E+00  0.19284295414E+04  0.19284295414E+04  0.50400001928E-02 0.  1.
        1   -1    0    0  501    0  0.00000000000E+00  0.00000000000E+00 -0.17151844602E+04  0.17151844603E+04  0.50400001928E-02 0. -1.
    10030    2    1    2    0    0  0.00000000000E+00  0.00000000000E+00  0.21324508111E+03  0.36436140016E+04  0.36373684895E+04 0.  0.
        1    1    3    3  502    0 -0.72001789465E+03  0.10335463006E+04  0.14207320034E+04  0.18987161846E+04  0.50400001928E-02 0.  1.
       -1    1    3    3    0  502  0.72001789465E+03 -0.10335463006E+04 -0.12074869223E+04  0.17448978170E+04  0.50400001928E-02 0. -1.
</event>
<event>
 5   0  0.1298250E-07  0.3604104E+04  0.7818609E-02  0.8089552E-01
       -1   -1    0    0    0  501  0.00000000000E+00  0.00000000000E+00  0.12598748725E+04  0.12598748725E+04  0.50400001928E-02 0.  1.
        1   -1    0    0  501    0  0.00000000000E+00  0.00000000000E+00 -0.25775513915E+04  0.25775513915E+04  0.50400001928E-02 0. -1.
    10030    2    1    2    0    0  0.00000000000E+00  0.00000000000E+00 -0.13176765190E+04  0.38374262640E+04  0.36041044550E+04 0.  0.
        2    1    3    3  502    0  0.10938134497E+03 -0.17493369011E+04 -0.11045659898E+04  0.20717649234E+04  0.25500000920E-02 0. -1.
       -2    1    3    3    0  502 -0.10938134497E+03  0.17493369011E+04 -0.21311052923E+03  0.17656613406E+04  0.25500000920E-02 0.  1.
</event>
<event>
 5   0  0.3880259E-07  0.3574646E+04  0.7818609E-02  0.8096324E-01
        2   -1    0    0  501    0  0.00000000000E+00  0.00000000000E+00  0.28895635419E+04  0.28895635419E+04  0.25500000920E-02 0. -1.
       -2   -1    0    0    0  501  0.00000000000E+00  0.00000000000E+00 -0.11055384091E+04  0.11055384092E+04  0.25500000920E-02 0.  1.
    10030    2    1    2    0    0  0.00000000000E+00  0.00000000000E+00  0.17840251328E+04  0.39951019511E+04  0.35746459860E+04 0.  0.
        5    1    3    3  502    0 -0.14505291352E+04  0.16396628838E+03  0.20446169094E+04  0.25122500098E+04  0.46999998093E+01 0. -1.
       -5    1    3    3    0  502  0.14505291352E+04 -0.16396628838E+03 -0.26059177658E+03  0.14828519413E+04  0.46999998093E+01 0.  1.
</event>
<event>
 5   0  0.1298250E-07  0.3662877E+04  0.7818609E-02  0.8076239E-01
       -1   -1    0    0    0  501  0.00000000000E+00  0.00000000000E+00  0.17372732048E+04  0.17372732048E+04  0.50400001928E-02 0. -1.
        1   -1    0    0  501    0  0.00000000000E+00  0.00000000000E+00 -0.19307076104E+04  0.19307076104E+04  0.50400001928E-02 0.  1.
    10030    2    1    2    0    0  0.00000000000E+00  0.00000000000E+00 -0.19343440562E+03  0.36679808152E+04  0.36628767917E+04 0.  0.
        1    1    3    3  502    0  0.59222180875E+03  0.15563389510E+04  0.66674203265E+03  0.17937286693E+04  0.50400001928E-02 0. -1.
       -1    1    3    3    0  502 -0.59222180875E+03 -0.15563389510E+04 -0.86017643827E+03  0.18742521458E+04  0.50400001928E-02 0.  1.
</event>
<event>
 5   0  0.4200635E-07  0.3595923E+04  0.7818609E-02  0.8091426E-01
        2   -1    0    0  501    0  0.00000000000E+00  0.00000000000E+00  0.17608312383E+04  0.17608312383E+04  0.25500000920E-02 0. -1.
       -2   -1    0    0    0  501  0.00000000000E+00  0.00000000000E+00 -0.18358749218E+04  0.18358749218E+04  0.25500000920E-02 0.  1.
    10030    2    1    2    0    0  0.00000000000E+00  0.00000000000E+00 -0.75043683562E+02  0.35967061601E+04  0.35959231982E+04 0.  0.
        4    1    3    3  502    0 -0.14377859553E+04 -0.12959759510E+03  0.10344578988E+04  0.17759866968E+04  0.12699999809E+01 0. -1.
       -4    1    3    3    0  502  0.14377859553E+04  0.12959759510E+03 -0.11095015823E+04  0.18207194633E+04  0.12699999809E+01 0.  1.
</event>
<event>
 5   0  0.4115358E-07  0.3616052E+04  0.7818609E-02  0.8086825E-01
       -2   -1    0    0    0  501  0.00000000000E+00  0.00000000000E+00  0.15287455576E+04  0.15287455576E+04  0.25500000920E-02 0.  1.
        2   -1    0    0  501    0  0.00000000000E+00  0.00000000000E+00 -0.21383273926E+04  0.21383273926E+04  0.25500000920E-02 0. -1.
    10030    2    1    2    0    0  0.00000000000E+00  0.00000000000E+00 -0.60958183502E+03  0.36670729501E+04  0.36160522684E+04 0.  0.
        3    1    3    3  502    0  0.15073057640E+03 -0.25174261332E+03  0.15044396697E+04  0.15327859538E+04  0.10100000352E+00 0.  1.
       -3    1    3    3    0  502 -0.15073057640E+03  0.25174261332E+03 -0.21140215048E+04  0.21342869964E+04  0.10100000352E+00 0. -1.
</event>
<event>
 5   0  0.4115358E-07  0.3638307E+04  0.7818609E-02  0.8081773E-01
       -2   -1    0    0    0  501  0.00000000000E+00  0.00000000000E+00  0.15481862699E+04  0.15481862699E+04  0.25500000920E-02 0.  1.
        2   -1    0    0  501    0  0.00000000000E+00  0.00000000000E+00 -0.21375465676E+04  0.21375465676E+04  0.25500000920E-02 0. -1.
    10030    2    1    2    0    0  0.00000000000E+00  0.00000000000E+00 -0.58936029771E+03  0.36857328374E+04  0.36383074345E+04 0.  0.
        3    1    3    3  502    0 -0.13912906990E+04 -0.83502586179E+03  0.53845246218E+03  0.17096458883E+04  0.10100000352E+00 0.  1.
       -3    1    3    3    0  502  0.13912906990E+04  0.83502586179E+03 -0.11278127599E+04  0.19760869492E+04  0.10100000352E+00 0. -1.
</event>
<event>
 5   0  0.1370997E-07  0.3500760E+04  0.7818609E-02  0.8113610E-01
        1   -1    0    0  501    0  0.00000000000E+00  0.00000000000E+00  0.23104489713E+04  0.23104489713E+04  0.50400001928E-02 0.  1.
       -1   -1    0    0    0  501  0.00000000000E+00  0.00000000000E+00 -0.13260760154E+04  0.13260760154E+04  0.50400001928E-02 0. -1.
    10030    2    1    2    0    0  0.00000000000E+00  0.00000000000E+00  0.98437295592E+03  0.36365249867E+04  0.35007604692E+04 0.  0.
        3    1    3    3  502    0 -0.78613357236E+03 -0.75610172302E+03 -0.92989549890E+03  0.14333183381E+04  0.10100000352E+00 0. -1.
       -3    1    3    3    0  502  0.78613357236E+03  0.75610172302E+03  0.19142684548E+04  0.22032066486E+04  0.10100000352E+00 0.  1.
</event>
<event>
 5   0  0.4120440E-07  0.3560817E+04  0.7818609E-02  0.8099527E-01
       -2   -1    0    0    0  501  0.00000000000E+00  0.00000000000E+00  0.15781315129E+04  0.15781315129E+04  0.25500000920E-02 0.  1.
        2   -1    0    0  501    0  0.00000000000E+00  0.00000000000E+00 -0.20086118792E+04  0.20086118792E+04  0.25500000920E-02 0. -1.
    10030    2    1    2    0    0  0.00000000000E+00  0.00000000000E+00 -0.43048036622E+03  0.35867433921E+04  0.35608165939E+04 0.  0.
        2    1    3    3  502    0 -0.27640843596E+03 -0.73541934218E+03  0.13940819158E+04  0.16002211161E+04  0.25500000920E-02 0.  1.
       -2    1    3    3    0  502  0.27640843596E+03  0.73541934218E+03 -0.18245622820E+04  0.19865222761E+04  0.25500000920E-02 0. -1.
</event>
<event>
 5   0  0.4200635E-07  0.3631771E+04  0.7818609E-02  0.8083253E-01
        2   -1    0    0  501    0  0.00000000000E+00  0.00000000000E+00  0.21472717016E+04  0.21472717016E+04  0.25500000920E-02 0.  1.
       -2   -1    0    0    0  501  0.00000000000E+00  0.00000000000E+00 -0.15356418625E+04  0.15356418625E+04  0.25500000920E-02 0. -1.
    10030    2    1    2    0    0  0.00000000000E+00  0.00000000000E+00  0.61162983912E+03  0.36829135641E+04  0.36317710914E+04 0.  0.
        4    1    3    3  502    0  0.13336254910E+04 -0.11757257144E+04  0.68054639893E+03  0.19036892918E+04  0.12699999809E+01 0. -1.
       -4    1    3    3    0  502 -0.13336254910E+04  0.11757257144E+04 -0.68916559801E+02  0.17792242722E+04  0.12699999809E+01 0.  1.
</event>
<event>
 5   0  0.4200635E-07  0.3594309E+04  0.7818609E-02  0.8091797E-01
       -2   -1    0    0    0  501  0.00000000000E+00  0.00000000000E+00  0.24292707088E+04  0.24292707088E+04  0.25500000920E-02 0. -1.
        2   -1    0    0  501    0  0.00000000000E+00  0.00000000000E+00 -0.13295202037E+04  0.13295202037E+04  0.25500000920E-02 0.  1.
    10030    2    1    2    0    0  0.00000000000E+00  0.00000000000E+00  0.10997505051E+04  0.37587909125E+04  0.35943091061E+04 0.  0.
        4    1    3    3  502    0 -0.16713617208E+04 -0.27812359669E+03 -0.76674923902E+02  0.16960788289E+04  0.12699999809E+01 0.  1.
       -4    1    3    3    0  502  0.16713617208E+04  0.27812359669E+03  0.11764254290E+04  0.20627120836E+04  0.12699999809E+01 0. -1.
</event>
<event>
 5   0  0.1348226E-07  0.3601440E+04  0.7818609E-02  0.8090162E-01
        1   -1    0    0  501    0  0.00000000000E+00  0.00000000000E+00  0.21155576868E+04  0.21155576868E+04  0.50400001928E-02 0.  1.
       -1   -1    0    0    0  501  0.00000000000E+00  0.00000000000E+00 -0.15327363605E+04  0.15327363605E+04  0.50400001928E-02 0. -1.
    10030    2    1    2    0    0  0.00000000000E+00  0.00000000000E+00  0.58282132629E+03  0.36482940473E+04  0.36014398172E+04 0.  0.
        4    1    3    3  502    0  0.61949696858E+02  0.10608586844E+04  0.17640537492E+04  0.20594043207E+04  0.12699999809E+01 0.  1.
       -4    1    3    3    0  502 -0.61949696858E+02 -0.10608586844E+04 -0.11812324229E+04  0.15888897266E+04  0.12699999809E+01 0. -1.
</event>
<event>
 5   0  0.1361743E-07  0.3593924E+04  0.7818609E-02  0.8091885E-01
       -1   -1    0    0    0  501  0.00000000000E+00  0.00000000000E+00  0.14052114575E+04  0.14052114575E+04  0.50400001928E-02 0. -1.
        1   -1    0    0  501    0  0.00000000000E+00  0.00000000000E+00 -0.22979263688E+04  0.22979263688E+04  0.50400001928E-02 0.  1.
    10030    2    1    2    0    0  0.00000000000E+00  0.00000000000E+00 -0.89271491134E+03  0.37031378263E+04  0.35939240180E+04 0.  0.
        5    1    3    3  502    0  0.42659387355E+03  0.10642298008E+04 -0.18720528246E+04  0.21952610938E+04  0.46999998093E+01 0.  1.
       -5    1    3    3    0  502 -0.42659387355E+03 -0.10642298008E+04  0.97933791327E+03  0.15078767324E+04  0.46999998093E+01 0. -1.
</event>
<event>
 5   0  0.1298250E-07  0.3507833E+04  0.7818609E-02  0.8111936E-01
        1   -1    0    0  501    0  0.00000000000E+00  0.00000000000E+00  0.19510214620E+04  0.19510214621E+04  0.50400001928E-02 0.  1.
       -1   -1    0    0    0  501  0.00000000000E+00  0.00000000000E+00 -0.15767243907E+04  0.15767243907E+04  0.50400001928E-02 0. -1.
    10030    2    1    2    0    0  0.00000000000E+00  0.00000000000E+00  0.37429707136E+03  0.35277458527E+04  0.35078330211E+04 0.  0.
        1    1    3    3  502    0  0.71424937012E+03 -0.66366859607E+03  0.16533737264E+04  0.19194407642E+04  0.50400001928E-02 0.  1.
       -1    1    3    3    0  502 -0.71424937012E+03  0.66366859607E+03 -0.12790766551E+04  0.16083050885E+04  0.50400001928E-02 0. -1.
</event>
<event>
 5   0  0.1348226E-07  0.3239455E+04  0.7818609E-02  0.8178474E-01
        1   -1    0    0  501    0  0.00000000000E+00  0.00000000000E+00  0.28583840275E+04  0.28583840275E+04  0.50400001928E-02 0.  1.
       -1   -1    0    0    0  501  0.00000000000E+00  0.00000000000E+00 -0.91783230897E+03  0.91783230898E+03  0.50400001928E-02 0. -1.
    10030    2    1    2    0    0  0.00000000000E+00  0.00000000000E+00  0.19405517185E+04  0.37762163365E+04  0.32394550232E+04 0.  0.
        4    1    3    3  502    0  0.43891478890E+03 -0.15590093776E+04  0.94818393308E+03  0.18767553956E+04  0.12699999809E+01 0.  1.
       -4    1    3    3    0  502 -0.43891478890E+03  0.15590093776E+04  0.99236778542E+03  0.18994609408E+04  0.12699999809E+01 0. -1.
</event>
<event>
 5   0  0.1298250E-07  0.3606077E+04  0.7818609E-02  0.8089101E-01
        1   -1    0    0  501    0  0.00000000000E+00  0.00000000000E+00  0.22150557841E+04  0.22150557841E+04  0.50400001928E-02 0.  1.
       -1   -1    0    0    0  501  0.00000000000E+00  0.00000000000E+00 -0.14676594372E+04  0.14676594372E+04  0.50400001928E-02 0. -1.
    10030    2    1    2    0    0  0.00000000000E+00  0.00000000000E+00  0.74739634689E+03  0.36827152214E+04  0.36060768298E+04 0.  0.
        1    1    3    3  502    0  0.81060189256E+03 -0.66805124514E+03  0.18703052677E+04  0.21450896692E+04  0.50400001928E-02 0.  1.
       -1    1    3    3    0  502 -0.81060189256E+03  0.66805124514E+03 -0.11229089208E+04  0.15376255522E+04  0.50400001928E-02 0. -1.
</event>
<event>
 5   0  0.4120440E-07  0.3620343E+04  0.7818609E-02  0.8085848E-01
       -2   -1    0    0    0  501  0.00000000000E+00  0.00000000000E+00  0.19305801579E+04  0.19305801579E+04  0.25500000920E-02 0.  1.
        2   -1    0    0  501    0  0.00000000000E+00  0.00000000000E+00 -0.16972728834E+04  0.16972728834E+04  0.25500000920E-02 0. -1.
    10030    2    1    2    0    0  0.00000000000E+00  0.00000000000E+00  0.23330727450E+03  0.36278530414E+04  0.36203432718E+04 0.  0.
        2    1    3    3  502    0 -0.57894735402E+03  0.21887993615E+03 -0.15879430918E+04  0.17043038837E+04  0.25500000920E-02 0. -1.
       -2    1    3    3    0  502  0.57894735402E+03 -0.21887993615E+03  0.18212503663E+04  0.19235491577E+04  0.25500000920E-02 0.  1.
</event>
<event>
 5   0  0.1348226E-07  0.3739194E+04  0.7818609E-02  0.8059331E-01
       -1   -1    0    0    0  501  0.00000000000E+00  0.00000000000E+00  0.19834003905E+04  0.19834003905E+04  0.50400001928E-02 0. -1.
        1   -1    0    0  501    0  0.00000000000E+00  0.00000000000E+00 -0.17623232003E+04  0.17623232003E+04  0.50400001928E-02 0.  1.
    10030    2    1    2    0    0  0.00000000000E+00  0.00000000000E+00  0.22107719025E+03  0.37457235908E+04  0.37391937761E+04 0.  0.
        4    1    3    3  502    0  0.10213004973E+04 -0.10240060310E+04  0.12974062836E+04  0.19429121788E+04  0.12699999809E+01 0. -1.
       -4    1    3    3    0  502 -0.10213004973E+04  0.10240060310E+04 -0.10763290933E+04  0.18028114120E+04  0.12699999809E+01 0.  1.
</event>
<event>
 5   0  0.4200635E-07  0.3596748E+04  0.7818609E-02  0.8091237E-01
        2   -1    0    0  501    0  0.00000000000E+00  0.00000000000E+00  0.12375813149E+04  0.12375813149E+04  0.25500000920E-02 0.  1.
       -2   -1    0    0    0  501  0.00000000000E+00  0.00000000000E+00 -0.26132814808E+04  0.26132814808E+04  0.25500000920E-02 0. -1.
    10030    2    1    2    0    0  0.00000000000E+00  0.00000000000E+00 -0.13757001659E+04  0.38508627958E+04  0.35967476038E+04 0.  0.
        4    1    3    3  502    0  0.12025799497E+04 -0.13364577810E+04 -0.64206445966E+03  0.19090747285E+04  0.12699999809E+01 0.  1.
       -4    1    3    3    0  502 -0.12025799497E+04  0.13364577810E+04 -0.73363570628E+03  0.19417880673E+04  0.12699999809E+01 0. -1.
</event>
<event>
 5   0  0.1298250E-07  0.3604524E+04  0.7818609E-02  0.8089456E-01
        1   -1    0    0  501    0  0.00000000000E+00  0.00000000000E+00  0.19386545461E+04  0.19386545461E+04  0.50400001928E-02 0. -1.
       -1   -1    0    0    0  501  0.00000000000E+00  0.00000000000E+00 -0.16754648874E+04  0.16754648874E+04  0.50400001928E-02 0.  1.
    10030    2    1    2    0    0  0.00000000000E+00  0.00000000000E+00  0.26318965872E+03  0.36141194336E+04  0.36045236140E+04 0.  0.
        1    1    3    3  502    0  0.59070973637E+03  0.92171459924E+03  0.15670666526E+04  0.19115945409E+04  0.50400001928E-02 0. -1.
       -1    1    3    3    0  502 -0.59070973637E+03 -0.92171459924E+03 -0.13038769938E+04  0.17025248927E+04  0.50400001928E-02 0.  1.
</event>
<event>
 5   0  0.1370997E-07  0.3561433E+04  0.7818609E-02  0.8099383E-01
       -1   -1    0    0    0  501  0.00000000000E+00  0.00000000000E+00  0.21441055620E+04  0.21441055620E+04  0.50400001928E-02 0. -1.
        1   -1    0    0  501    0  0.00000000000E+00  0.00000000000E+00 -0.14789158968E+04  0.14789158968E+04  0.50400001928E-02 0.  1.
    10030    2    1    2    0    0  0.00000000000E+00  0.00000000000E+00  0.66518966523E+03  0.36230214588E+04  0.35614333070E+04 0.  0.
        3    1    3    3  502    0  0.52610922075E+03 -0.16965460447E+04  0.46083993139E+03  0.18350566331E+04  0.10100000352E+00 0. -1.
       -3    1    3    3    0  502 -0.52610922075E+03  0.16965460447E+04  0.20434973384E+03  0.17879648257E+04  0.10100000352E+00 0.  1.
</event>
<event>
 5   0  0.4120440E-07  0.3594387E+04  0.7818609E-02  0.8091779E-01
        2   -1    0    0  501    0  0.00000000000E+00  0.00000000000E+00  0.26302902140E+04  0.26302902140E+04  0.25500000920E-02 0. -1.
       -2   -1    0    0    0  501  0.00000000000E+00  0.00000000000E+00 -0.12279648722E+04  0.12279648722E+04  0.25500000920E-02 0.  1.
    10030    2    1    2    0    0  0.00000000000E+00  0.00000000000E+00  0.14023253418E+04  0.38582550861E+04  0.35943867273E+04 0.  0.
        2    1    3    3  502    0  0.90924452342E+03 -0.32377621534E+03 -0.92616109565E+03  0.13376587816E+04  0.25500000920E-02 0.  1.
       -2    1    3    3    0  502 -0.90924452342E+03  0.32377621534E+03  0.23284864374E+04  0.25205963045E+04  0.25500000920E-02 0. -1.
</event>
<event>
 5   0  0.4115358E-07  0.3581513E+04  0.7818609E-02  0.8094740E-01
       -2   -1    0    0    0  501  0.00000000000E+00  0.00000000000E+00  0.15028011754E+04  0.15028011754E+04  0.25500000920E-02 0. -1.
        2   -1    0    0  501    0  0.00000000000E+00  0.00000000000E+00 -0.21338870885E+04  0.21338870885E+04  0.25500000920E-02 0.  1.
    10030    2    1    2    0    0  0.00000000000E+00  0.00000000000E+00 -0.63108591307E+03  0.36366882639E+04  0.35815125435E+04 0.  0.
        3    1    3    3  502    0  0.12345575833E+04 -0.10960509508E+04  0.38893780870E+03  0.16960933767E+04  0.10100000352E+00 0. -1.
       -3    1    3    3    0  502 -0.12345575833E+04  0.10960509508E+04 -0.10200237218E+04  0.19405948872E+04  0.10100000352E+00 0.  1.
</event>
<event>
 5   0  0.3880259E-07  0.3580984E+04  0.7818609E-02  0.8094861E-01
        2   -1    0    0  501    0  0.00000000000E+00  0.00000000000E+00  0.16765741892E+04  0.16765741892E+04  0.25500000920E-02 0.  1.
       -2   -1    0    0    0  501  0.00000000000E+00  0.00000000000E+00 -0.19121503254E+04  0.19121503254E+04  0.25500000920E-02 0. -1.
    10030    2    1    2    0    0  0.00000000000E+00  0.00000000000E+00 -0.23557613624E+03  0.35887245146E+04  0.35809841560E+04 0.  0.
        5    1    3    3  502    0 -0.12466818965E+04 -0.80270097548E+02 -0.14032065257E+04  0.18787415159E+04  0.46999998093E+01 0. -1.
       -5    1    3    3    0  502  0.12466818965E+04  0.80270097548E+02  0.11676303895E+04  0.17099829987E+04  0.46999998093E+01 0.  1.
</event>
<event>
 5   0  0.1348226E-07  0.3572041E+04  0.7818609E-02  0.8096926E-01
       -1   -1    0    0    0  501  0.00000000000E+00  0.00000000000E+00  0.26784066084E+04  0.26784066084E+04  0.50400001928E-02 0.  1.
        1   -1    0    0  501    0  0.00000000000E+00  0.00000000000E+00 -0.11909574915E+04  0.11909574915E+04  0.50400001928E-02 0. -1.
    10030    2    1    2    0    0  0.00000000000E+00  0.00000000000E+00  0.14874491168E+04  0.38693640999E+04  0.35720405460E+04 0.  0.
        4    1    3    3  502    0  0.15195449155E+04  0.90997153329E+03  0.49481141263E+03  0.18389956195E+04  0.12699999809E+01 0. -1.
       -4    1    3    3    0  502 -0.15195449155E+04 -0.90997153329E+03  0.99263770420E+03  0.20303684804E+04  0.12699999809E+01 0.  1.
</event>
<event>
 5   0  0.1298250E-07  0.3615269E+04  0.7818609E-02  0.8087003E-01
       -1   -1    0    0    0  501  0.00000000000E+00  0.00000000000E+00  0.13944119951E+04  0.13944119951E+04  0.50400001928E-02 0. -1.
        1   -1    0    0  501    0  0.00000000000E+00  0.00000000000E+00 -0.23433120158E+04  0.23433120158E+04  0.50400001928E-02 0.  1.
    10030    2    1    2    0    0  0.00000000000E+00  0.00000000000E+00 -0.94890002070E+03  0.37377240108E+04  0.36152689432E+04 0.  0.
        1    1    3    3  502    0  0.50622070462E+03 -0.95569080734E+03 -0.19719366320E+04  0.22490305471E+04  0.50400001928E-02 0.  1.
       -1    1    3    3    0  502 -0.50622070462E+03  0.95569080734E+03  0.10230366113E+04  0.14886934638E+04  0.50400001928E-02 0. -1.
</event>
<event>
 5   0  0.1361743E-07  0.3665130E+04  0.7818609E-02  0.8075734E-01
       -1   -1    0    0    0  501  0.00000000000E+00  0.00000000000E+00  0.12769664293E+04  0.12769664293E+04  0.50400001928E-02 0.  1.
        1   -1    0    0  501    0  0.00000000000E+00  0.00000000000E+00 -0.26299010311E+04  0.26299010311E+04  0.50400001928E-02 0. -1.
    10030    2    1    2    0    0  0.00000000000E+00  0.00000000000E+00 -0.13529346018E+04  0.39068674604E+04  0.36651304638E+04 0.  0.
        5    1    3    3  502    0  0.12708129611E+04 -0.11212727437E+04 -0.14196267224E+04  0.22107872510E+04  0.46999998093E+01 0. -1.
       -5    1    3    3    0  502 -0.12708129611E+04  0.11212727437E+04  0.66692120614E+02  0.16960802095E+04  0.46999998093E+01 0.  1.
</event>
<event>
 5   0  0.4115358E-07  0.3604815E+04  0.7818609E-02  0.8089390E-01
        2   -1    0    0  501    0  0.00000000000E+00  0.00000000000E+00  0.20902890020E+04  0.20902890020E+04  0.25500000920E-02 0. -1.
       -2   -1    0    0    0  501  0.00000000000E+00  0.00000000000E+00 -0.15541736799E+04  0.15541736799E+04  0.25500000920E-02 0.  1.
    10030    2    1    2    0    0  0.00000000000E+00  0.00000000000E+00  0.53611532216E+03  0.36444626819E+04  0.36048146417E+04 0.  0.
        3    1    3    3  502    0 -0.75281202071E+03 -0.89570272778E+03 -0.11180295144E+04  0.16183322651E+04  0.10100000352E+00 0.  1.
       -3    1    3    3    0  502  0.75281202071E+03  0.89570272778E+03  0.16541448366E+04  0.20261304168E+04  0.10100000352E+00 0. -1.
</event>
<event>
 5   0  0.4120440E-07  0.3616102E+04  0.7818609E-02  0.8086813E-01
       -2   -1    0    0    0  501  0.00000000000E+00  0.00000000000E+00  0.19081822217E+04  0.19081822217E+04  0.25500000920E-02 0.  1.
        2   -1    0    0  501    0  0.00000000000E+00  0.00000000000E+00 -0.17131742646E+04  0.17131742646E+04  0.25500000920E-02 0. -1.
    10030    2    1    2    0    0  0.00000000000E+00  0.00000000000E+00  0.19500795714E+03  0.36213564864E+04  0.36161021415E+04 0.  0.
        2    1    3    3  502    0  0.17949662049E+04 -0.16768366325E+03  0.23564347832E+03  0.18181169755E+04  0.25500000920E-02 0.  1.
       -2    1    3    3    0  502 -0.17949662049E+04  0.16768366325E+03 -0.40635521174E+02  0.18032395108E+04  0.25500000920E-02 0. -1.
</event>
<event>
 5   0  0.1298250E-07  0.3576044E+04  0.7818609E-02  0.8096001E-01
       -1   -1    0    0    0  501  0.00000000000E+00  0.00000000000E+00  0.23587014591E+04  0.23587014591E+04  0.50400001928E-02 0. -1.
        1   -1    0    0  501    0  0.00000000000E+00  0.00000000000E+00 -0.13554163165E+04  0.13554163165E+04  0.50400001928E-02 0.  1.
    10030    2    1    2    0    0  0.00000000000E+00  0.00000000000E+00  0.10032851426E+04  0.37141177757E+04  0.35760438720E+04 0.  0.
        2    1    3    3  502    0 -0.69524354543E+03 -0.20306470718E+03 -0.11962315174E+04  0.13984164995E+04  0.25500000920E-02 0.  1.
       -2    1    3    3    0  502  0.69524354543E+03  0.20306470718E+03  0.21995166600E+04  0.23157012762E+04  0.25500000920E-02 0. -1.
</event>
<event>
 5   0  0.1298250E-07  0.3635579E+04  0.7818609E-02  0.8082390E-01
        1   -1    0    0  501    0  0.00000000000E+00  0.00000000000E+00  0.20117862652E+04  0.20117862652E+04  0.50400001928E-02 0.  1.
       -1   -1    0    0    0  501  0.00000000000E+00  0.00000000000E+00 -0.16425000838E+04  0.16425000838E+04  0.50400001928E-02 0. -1.
    10030    2    1    2    0    0  0.00000000000E+00  0.00000000000E+00  0.36928618142E+03  0.36542863489E+04  0.36355792436E+04 0.  0.
        2    1    3    3  502    0 -0.62787530096E+03  0.85079333886E+03 -0.13015734506E+04  0.16769526369E+04  0.25500000920E-02 0. -1.
       -2    1    3    3    0  502  0.62787530096E+03 -0.85079333886E+03  0.16708596320E+04  0.19773337121E+04  0.25500000920E-02 0.  1.
</event>
<event>
 5   0  0.3993751E-07  0.3555192E+04  0.7818609E-02  0.8100833E-01
        2   -1    0    0  501    0  0.00000000000E+00  0.00000000000E+00  0.16936645340E+04  0.16936645340E+04  0.25500000920E-02 0. -1.
       -2   -1    0    0    0  501  0.00000000000E+00  0.00000000000E+00 -0.18656872454E+04  0.18656872454E+04  0.25500000920E-02 0.  1.
    10030    2    1    2    0    0  0.00000000000E+00  0.00000000000E+00 -0.17202271140E+03  0.35593517795E+04  0.35551924388E+04 0.  0.
        1    1    3    3  502    0  0.17538820847E+04 -0.23899128594E+03  0.77363864688E+02  0.17717800002E+04  0.50400001928E-02 0. -1.
       -1    1    3    3    0  502 -0.17538820847E+04  0.23899128594E+03 -0.24938657609E+03  0.17875717793E+04  0.50400001928E-02 0.  1.
</event>
<event>
 5   0  0.1370997E-07  0.3642469E+04  0.7818609E-02  0.8080832E-01
       -1   -1    0    0    0  501  0.00000000000E+00  0.00000000000E+00  0.13145684803E+04  0.13145684803E+04  0.50400001928E-02 0. -1.
        1   -1    0    0  501    0  0.00000000000E+00  0.00000000000E+00 -0.25231820419E+04  0.25231820419E+04  0.50400001928E-02 0.  1.
    10030    2    1    2    0    0  0.00000000000E+00  0.00000000000E+00 -0.12086135616E+04  0.38377505222E+04  0.36424692626E+04 0.  0.
        3    1    3    3  502    0  0.11035283189E+04  0.11059260599E+04  0.38184755202E+03  0.16083080438E+04  0.10100000352E+00 0. -1.
       -3    1    3    3    0  502 -0.11035283189E+04 -0.11059260599E+04 -0.15904611136E+04  0.22294424784E+04  0.10100000352E+00 0.  1.
</event>
<event>
 5   0  0.3993751E-07  0.3606235E+04  0.7818609E-02  0.8089065E-01
        2   -1    0    0  501    0  0.00000000000E+00  0.00000000000E+00  0.27946327065E+04  0.27946327065E+04  0.25500000920E-02 0. -1.
       -2   -1    0    0    0  501  0.00000000000E+00  0.00000000000E+00 -0.11633847268E+04  0.11633847268E+04  0.25500000920E-02 0.  1.
    10030    2    1    2    0    0  0.00000000000E+00  0.00000000000E+00  0.16312479797E+04  0.39580174332E+04  0.36062351602E+04 0.  0.
        1    1    3    3  502    0 -0.55582287989E+03  0.86885819907E+03 -0.80762714306E+03  0.13100058191E+04  0.50400001928E-02 0.  1.
       -1    1    3    3    0  502  0.55582287989E+03 -0.86885819907E+03  0.24388751228E+04  0.26480116141E+04  0.50400001928E-02 0. -1.
</event>
<event>
 5   0  0.1298250E-07  0.3569616E+04  0.7818609E-02  0.8097487E-01
        1   -1    0    0  501    0  0.00000000000E+00  0.00000000000E+00  0.17750036479E+04  0.17750036479E+04  0.50400001928E-02 0.  1.
       -1   -1    0    0    0  501  0.00000000000E+00  0.00000000000E+00 -0.17946661191E+04  0.17946661191E+04  0.50400001928E-02 0. -1.
    10030    2    1    2    0    0  0.00000000000E+00  0.00000000000E+00 -0.19662471233E+02  0.35696697670E+04  0.35696156142E+04 0.  0.
        2    1    3    3  502    0 -0.11497169572E+04  0.93786799797E+03 -0.10018611261E+04  0.17902991871E+04  0.25500000920E-02 0. -1.
       -2    1    3    3    0  502  0.11497169572E+04 -0.93786799797E+03  0.98219865486E+03  0.17793705800E+04  0.25500000920E-02 0.  1.
</event>
<event>
 5   0  0.1348226E-07  0.3623397E+04  0.7818609E-02  0.8085153E-01
       -1   -1    0    0    0  501  0.00000000000E+00  0.00000000000E+00  0.12934153862E+04  0.12934153863E+04  0.50400001928E-02 0. -1.
        1   -1    0    0  501    0  0.00000000000E+00  0.00000000000E+00 -0.25376628381E+04  0.25376628381E+04  0.50400001928E-02 0.  1.
    10030    2    1    2    0    0  0.00000000000E+00  0.00000000000E+00 -0.12442474519E+04  0.38310782244E+04  0.36233973892E+04 0.  0.
        4    1    3    3  502    0 -0.59826114603E+03  0.14225070488E+04 -0.16256324036E+04  0.22414560061E+04  0.12699999809E+01 0.  1.
       -4    1    3    3    0  502  0.59826114603E+03 -0.14225070488E+04  0.38138495173E+03  0.15896222183E+04  0.12699999809E+01 0. -1.
</event>
<event>
 5   0  0.4200635E-07  0.3611405E+04  0.7818609E-02  0.8087884E-01
        2   -1    0    0  501    0  0.00000000000E+00  0.00000000000E+00  0.25455550791E+04  0.25455550791E+04  0.25500000920E-02 0.  1.
       -2   -1    0    0    0  501  0.00000000000E+00  0.00000000000E+00 -0.12808840638E+04  0.12808840638E+04  0.25500000920E-02 0. -1.
    10030    2    1    2    0    0  0.00000000000E+00  0.00000000000E+00  0.12646710153E+04  0.38264391429E+04  0.36114046765E+04 0.  0.
        4    1    3    3  502    0 -0.26353837551E+03  0.17465018724E+04  0.23470594555E+03  0.17817995846E+04  0.12699999809E+01 0. -1.
       -4    1    3    3    0  502  0.26353837551E+03 -0.17465018724E+04  0.10299650697E+04  0.20446395583E+04  0.12699999809E+01 0.  1.
</event>
<event>
 5   0  0.4120440E-07  0.3604542E+04  0.7818609E-02  0.8089452E-01
        2   -1    0    0  501    0  0.00000000000E+00  0.00000000000E+00  0.23550184695E+04  0.23550184695E+04  0.25500000920E-02 0. -1.
       -2   -1    0    0    0  501  0.00000000000E+00  0.00000000000E+00 -0.13792587965E+04  0.13792587965E+04  0.25500000920E-02 0.  1.
    10030    2    1    2    0    0  0.00000000000E+00  0.00000000000E+00  0.97575967302E+03  0.37342772660E+04  0.36045415464E+04 0.  0.
        2    1    3    3  502    0  0.20230659594E+02  0.17059763078E+04  0.10896616214E+04  0.20243830891E+04  0.25500000920E-02 0. -1.
       -2    1    3    3    0  502 -0.20230659594E+02 -0.17059763078E+04 -0.11390194834E+03  0.17098941769E+04  0.25500000920E-02 0.  1.
</event>
<event>
 5   0  0.1361743E-07  0.3586996E+04  0.7818609E-02  0.8093477E-01
       -1   -1    0    0    0  501  0.00000000000E+00  0.00000000000E+00  0.12262383802E+04  0.12262383802E+04  0.50400001928E-02 0.  1.
        1   -1    0    0  501    0  0.00000000000E+00  0.00000000000E+00 -0.26231729260E+04  0.26231729260E+04  0.50400001928E-02 0. -1.
    10030    2    1    2    0    0  0.00000000000E+00  0.00000000000E+00 -0.13969345458E+04  0.38494113062E+04  0.35869961359E+04 0.  0.
        5    1    3    3  502    0 -0.15382239439E+04  0.32137196241E+03  0.22917803804E+03  0.15880672224E+04  0.46999998093E+01 0.  1.
       -5    1    3    3    0  502  0.15382239439E+04 -0.32137196241E+03 -0.16261125838E+04  0.22613440838E+04  0.46999998093E+01 0. -1.
</event>
<event>
 5   0  0.3880259E-07  0.3360489E+04  0.7818609E-02  0.8147672E-01
       -2   -1    0    0    0  501  0.00000000000E+00  0.00000000000E+00  0.17758538671E+04  0.17758538671E+04  0.25500000920E-02 0.  1.
        2   -1    0    0  501    0  0.00000000000E+00  0.00000000000E+00 -0.15897824617E+04  0.15897824617E+04  0.25500000920E-02 0. -1.
    10030    2    1    2    0    0  0.00000000000E+00  0.00000000000E+00  0.18607140543E+03  0.33656363287E+04  0.33604888527E+04 0.  0.
        5    1    3    3  502    0 -0.36314694208E+03 -0.16348179526E+04 -0.43899010412E+02  0.16752476392E+04  0.46999998093E+01 0. -1.
       -5    1    3    3    0  502  0.36314694208E+03  0.16348179526E+04  0.22997041584E+03  0.16903886895E+04  0.46999998093E+01 0.  1.
</event>
<event>
 5   0  0.4120440E-07  0.3604307E+04  0.7818609E-02  0.8089506E-01
        2   -1    0    0  501    0  0.00000000000E+00  0.00000000000E+00  0.24484435989E+04  0.24484435989E+04  0.25500000920E-02 0.  1.
       -2   -1    0    0    0  501  0.00000000000E+00  0.00000000000E+00 -0.13264575563E+04  0.13264575563E+04  0.25500000920E-02 0. -1.
    10030    2    1    2    0    0  0.00000000000E+00  0.00000000000E+00  0.11219860425E+04  0.37749011552E+04  0.36043065979E+04 0.  0.
        2    1    3    3  502    0 -0.11582156252E+04  0.66955256808E+03  0.18256172350E+04  0.22633255101E+04  0.25500000920E-02 0.  1.
       -2    1    3    3    0  502  0.11582156252E+04 -0.66955256808E+03 -0.70363119243E+03  0.15115756451E+04  0.25500000920E-02 0. -1.
</event>
<event>
 5   0  0.3880259E-07  0.3581620E+04  0.7818609E-02  0.8094715E-01
        2   -1    0    0  501    0  0.00000000000E+00  0.00000000000E+00  0.13855974977E+04  0.13855974977E+04  0.25500000920E-02 0. -1.
       -2   -1    0    0    0  501  0.00000000000E+00  0.00000000000E+00 -0.23145257135E+04  0.23145257135E+04  0.25500000920E-02 0.  1.
    10030    2    1    2    0    0  0.00000000000E+00  0.00000000000E+00 -0.92892821580E+03  0.37001232113E+04  0.35816203244E+04 0.  0.
        5    1    3    3  502    0  0.87043550063E+03 -0.35802450521E+03  0.11094725688E+04  0.14549195778E+04  0.46999998093E+01 0. -1.
       -5    1    3    3    0  502 -0.87043550063E+03  0.35802450521E+03 -0.20384007846E+04  0.22452036334E+04  0.46999998093E+01 0.  1.
</event>
<event>
 5   0  0.1370997E-07  0.3370828E+04  0.7818609E-02  0.8145103E-01
       -1   -1    0    0    0  501  0.00000000000E+00  0.00000000000E+00  0.11998306201E+04  0.11998306201E+04  0.50400001928E-02 0. -1.
        1   -1    0    0  501    0  0.00000000000E+00  0.00000000000E+00 -0.23675179517E+04  0.23675179517E+04  0.50400001928E-02 0.  1.
    10030    2    1    2    0    0  0.00000000000E+00  0.00000000000E+00 -0.11676873316E+04  0.35673485718E+04  0.33708281073E+04 0.  0.
        3    1    3    3  502    0 -0.19082246859E+03 -0.11254773379E+04  0.72840953993E+03  0.13541391807E+04  0.10100000352E+00 0. -1.
       -3    1    3    3    0  502  0.19082246859E+03  0.11254773379E+04 -0.18960968715E+04  0.22132093912E+04  0.10100000352E+00 0.  1.
</event>
<event>
 5   0  0.3993751E-07  0.3582993E+04  0.7818609E-02  0.8094398E-01
       -2   -1    0    0    0  501  0.00000000000E+00  0.00000000000E+00  0.12047297632E+04  0.12047297632E+04  0.25500000920E-02 0.  1.
        2   -1    0    0  501    0  0.00000000000E+00  0.00000000000E+00 -0.26640496008E+04  0.26640496008E+04  0.25500000920E-02 0. -1.
    10030    2    1    2    0    0  0.00000000000E+00  0.00000000000E+00 -0.14593198376E+04  0.38687793640E+04  0.35829930755E+04 0.  0.
        1    1    3    3  502    0  0.50614507297E+03  0.10571355840E+04 -0.21926242616E+04  0.24862259813E+04  0.50400001928E-02 0. -1.
       -1    1    3    3    0  502 -0.50614507297E+03 -0.10571355840E+04  0.73330442395E+03  0.13825533827E+04  0.50400001928E-02 0.  1.
</event>
<event>
 5   0  0.1370997E-07  0.3628068E+04  0.7818609E-02  0.8084092E-01
        1   -1    0    0  501    0  0.00000000000E+00  0.00000000000E+00  0.20406441781E+04  0.20406441781E+04  0.50400001928E-02 0. -1.
       -1   -1    0    0    0  501  0.00000000000E+00  0.00000000000E+00 -0.16125888892E+04  0.16125888892E+04  0.50400001928E-02 0.  1.
    10030    2    1    2    0    0  0.00000000000E+00  0.00000000000E+00  0.42805528885E+03  0.36532330673E+04  0.36280684274E+04 0.  0.
        3    1    3    3  502    0 -0.98654666272E+03 -0.83866927729E+03  0.14933040521E+04  0.19765114410E+04  0.10100000352E+00 0. -1.
       -3    1    3    3    0  502  0.98654666272E+03  0.83866927729E+03 -0.10652487632E+04  0.16767216263E+04  0.10100000352E+00 0.  1.
</event>
<event>
 5   0  0.4120440E-07  0.3581239E+04  0.7818609E-02  0.8094803E-01
       -2   -1    0    0    0  501  0.00000000000E+00  0.00000000000E+00  0.14261124692E+04  0.14261124692E+04  0.25500000920E-02 0.  1.
        2   -1    0    0  501    0  0.00000000000E+00  0.00000000000E+00 -0.22482921440E+04  0.22482921440E+04  0.25500000920E-02 0. -1.
    10030    2    1    2    0    0  0.00000000000E+00  0.00000000000E+00 -0.82217967476E+03  0.36744046132E+04  0.35812385908E+04 0.  0.
        2    1    3    3  502    0  0.14113698796E+04  0.66864179986E+03 -0.13098173145E+04  0.20383003191E+04  0.25500000920E-02 0. -1.
       -2    1    3    3    0  502 -0.14113698796E+04 -0.66864179986E+03  0.48763763978E+03  0.16361042941E+04  0.25500000920E-02 0.  1.
</event>
<event>
 5   0  0.4115358E-07  0.3565988E+04  0.7818609E-02  0.8098327E-01
        2   -1    0    0  501    0  0.00000000000E+00  0.00000000000E+00  0.17979193503E+04  0.17979193503E+04  0.25500000920E-02 0. -1.
       -2   -1    0    0    0  501  0.00000000000E+00  0.00000000000E+00 -0.17681921308E+04  0.17681921308E+04  0.25500000920E-02 0.  1.
    10030    2    1    2    0    0  0.00000000000E+00  0.00000000000E+00  0.29727219441E+02  0.35661114811E+04  0.35659875755E+04 0.  0.
        3    1    3    3  502    0  0.13042539000E+04  0.82379558675E+02 -0.11981097823E+04  0.17729443555E+04  0.10100000352E+00 0.  1.
       -3    1    3    3    0  502 -0.13042539000E+04 -0.82379558675E+02  0.12278370017E+04  0.17931671256E+04  0.10100000352E+00 0. -1.
</event>
<event>
 5   0  0.3993751E-07  0.3611485E+04  0.7818609E-02  0.8087866E-01
        2   -1    0    0  501    0  0.00000000000E+00  0.00000000000E+00  0.13864382077E+04  0.13864382077E+04  0.25500000920E-02 0. -1.
       -2   -1    0    0    0  501  0.00000000000E+00  0.00000000000E+00 -0.23518587076E+04  0.23518587076E+04  0.25500000920E-02 0.  1.
    10030    2    1    2    0    0  0.00000000000E+00  0.00000000000E+00 -0.96542049991E+03  0.37382969154E+04  0.36114854404E+04 0.  0.
        1    1    3    3  502    0  0.12363422955E+04 -0.13135317065E+04 -0.39735916685E+03  0.18471064190E+04  0.50400001928E-02 0. -1.
       -1    1    3    3    0  502 -0.12363422955E+04  0.13135317065E+04 -0.56806133306E+03  0.18911904964E+04  0.50400001928E-02 0.  1.
</event>
<event>
 5   0  0.3880259E-07  0.3571797E+04  0.7818609E-02  0.8096983E-01
       -2   -1    0    0    0  501  0.00000000000E+00  0.00000000000E+00  0.12090596460E+04  0.12090596460E+04  0.25500000920E-02 0.  1.
        2   -1    0    0  501    0  0.00000000000E+00  0.00000000000E+00 -0.26379461109E+04  0.26379461109E+04  0.25500000920E-02 0. -1.
    10030    2    1    2    0    0  0.00000000000E+00  0.00000000000E+00 -0.14288864649E+04  0.38470057569E+04  0.35717974136E+04 0.  0.
        5    1    3    3  502    0 -0.14021759347E+04 -0.25383877347E+03  0.44501569543E+03  0.14928471235E+04  0.46999998093E+01 0.  1.
       -5    1    3    3    0  502  0.14021759347E+04  0.25383877347E+03 -0.18739021603E+04  0.23541586334E+04  0.46999998093E+01 0. -1.
</event>
<event>
 5   0  0.1348226E-07  0.3617468E+04  0.7818609E-02  0.8086502E-01
        1   -1    0    0  501    0  0.00000000000E+00  0.00000000000E+00  0.12377604653E+04  0.12377604653E+04  0.50400001928E-02 0.  1.
       -1   -1    0    0    0  501  0.00000000000E+00  0.00000000000E+00 -0.26430958402E+04  0.26430958402E+04  0.50400001928E-02 0. -1.
    10030    2    1    2    0    0  0.00000000000E+00  0.00000000000E+00 -0.14053353750E+04  0.38808563055E+04  0.36174684723E+04 0.  0.
        4    1    3    3  502    0  0.12701618851E+03  0.96078013255E+03 -0.23410443119E+04  0.25337169650E+04  0.12699999809E+01 0. -1.
       -4    1    3    3    0  502 -0.12701618851E+03 -0.96078013255E+03  0.93570893697E+03  0.13471393406E+04  0.12699999809E+01 0.  1.
</event>
<event>
 5   0  0.1361743E-07  0.3610921E+04  0.7818609E-02  0.8087995E-01
        1   -1    0    0  501    0  0.00000000000E+00  0.00000000000E+00  0.15451769978E+04  0.15451769978E+04  0.50400001928E-02 0.  1.
       -1   -1    0    0    0  501  0.00000000000E+00  0.00000000000E+00 -0.21095883639E+04  0.21095883639E+04  0.50400001928E-02 0. -1.
    10030    2    1    2    0    0  0.00000000000E+00  0.00000000000E+00 -0.56441136610E+03  0.36547653616E+04  0.36109208879E+04 0.  0.
        5    1    3    3  502    0  0.89667899180E+02 -0.29078730833E+03  0.15190285925E+04  0.15492151386E+04  0.46999998093E+01 0.  1.
       -5    1    3    3    0  502 -0.89667899180E+02  0.29078730833E+03 -0.20834399586E+04  0.21055502231E+04  0.46999998093E+01 0. -1.
</event>
<event>
 5   0  0.4200635E-07  0.3460770E+04  0.7818609E-02  0.8123150E-01
       -2   -1    0    0    0  501  0.00000000000E+00  0.00000000000E+00  0.14416559575E+04  0.14416559575E+04  0.25500000920E-02 0.  1.
        2   -1    0    0  501    0  0.00000000000E+00  0.00000000000E+00 -0.20769401282E+04  0.20769401282E+04  0.25500000920E-02 0. -1.
    10030    2    1    2    0    0  0.00000000000E+00  0.00000000000E+00 -0.63528417066E+03  0.35185960857E+04  0.34607704976E+04 0.  0.
        4    1    3    3  502    0  0.25287227751E+02  0.10865648643E+04  0.10513211542E+04  0.15121310890E+04  0.12699999809E+01 0.  1.
       -4    1    3    3    0  502 -0.25287227751E+02 -0.10865648643E+04 -0.16866053249E+04  0.20064649967E+04  0.12699999809E+01 0. -1.
</event>
<event>
 5   0  0.1348226E-07  0.3628176E+04  0.7818609E-02  0.8084068E-01
       -1   -1    0    0    0  501  0.00000000000E+00  0.00000000000E+00  0.27657271529E+04  0.27657271529E+04  0.50400001928E-02 0.  1.
        1   -1    0    0  501    0  0.00000000000E+00  0.00000000000E+00 -0.11898913621E+04  0.11898913622E+04  0.50400001928E-02 0. -1.
    10030    2    1    2    0    0  0.00000000000E+00  0.00000000000E+00  0.15758357907E+04  0.39556185150E+04  0.36281757671E+04 0.  0.
        4    1    3    3  502    0 -0.56752603506E+03  0.13617424266E+04 -0.36304996470E+03  0.15192877037E+04  0.12699999809E+01 0. -1.
       -4    1    3    3    0  502  0.56752603506E+03 -0.13617424266E+04  0.19388857554E+04  0.24363308113E+04  0.12699999809E+01 0.  1.
</event>
<event>
 5   0  0.1298250E-07  0.3589449E+04  0.7818609E-02  0.8092913E-01
        1   -1    0    0  501    0  0.00000000000E+00  0.00000000000E+00  0.20298904966E+04  0.20298904966E+04  0.50400001928E-02 0.  1.
       -1   -1    0    0    0  501  0.00000000000E+00  0.00000000000E+00 -0.15868030585E+04  0.15868030585E+04  0.50400001928E-02 0. -1.
    10030    2    1    2    0    0  0.00000000000E+00  0.00000000000E+00  0.44308743809E+03  0.36166935551E+04  0.35894492327E+04 0.  0.
        1    1    3    3  502    0  0.12114597836E+04  0.19217788897E+03 -0.10985413444E+04  0.16466208531E+04  0.50400001928E-02 0. -1.
       -1    1    3    3    0  502 -0.12114597836E+04 -0.19217788897E+03  0.15416287825E+04  0.19700727021E+04  0.50400001928E-02 0.  1.
</event>
<event>
 5   0  0.3993751E-07  0.3525142E+04  0.7818609E-02  0.8107857E-01
       -2   -1    0    0    0  501  0.00000000000E+00  0.00000000000E+00  0.16352345075E+04  0.16352345075E+04  0.25500000920E-02 0. -1.
        2   -1    0    0  501    0  0.00000000000E+00  0.00000000000E+00 -0.18998229340E+04  0.18998229340E+04  0.25500000920E-02 0.  1.
    10030    2    1    2    0    0  0.00000000000E+00  0.00000000000E+00 -0.26458842654E+03  0.35350574415E+04  0.35251417105E+04 0.  0.
        1    1    3    3  502    0 -0.31290924427E+03 -0.46042262518E+03 -0.18093483926E+04  0.18930511865E+04  0.50400001928E-02 0.  1.
       -1    1    3    3    0  502  0.31290924427E+03  0.46042262518E+03  0.15447599660E+04  0.16420062550E+04  0.50400001928E-02 0. -1.
</event>
<event>
 5   0  0.1361743E-07  0.3623333E+04  0.7818609E-02  0.8085168E-01
        1   -1    0    0  501    0  0.00000000000E+00  0.00000000000E+00  0.23229578275E+04  0.23229578275E+04  0.50400001928E-02 0. -1.
       -1   -1    0    0    0  501  0.00000000000E+00  0.00000000000E+00 -0.14129119196E+04  0.14129119196E+04  0.50400001928E-02 0.  1.
    10030    2    1    2    0    0  0.00000000000E+00  0.00000000000E+00  0.91004590798E+03  0.37358697471E+04  0.36233326114E+04 0.  0.
        5    1    3    3  502    0 -0.17456029224E+04  0.61336919160E+02 -0.40766286623E+02  0.17471622021E+04  0.46999998093E+01 0.  1.
       -5    1    3    3    0  502  0.17456029224E+04 -0.61336919160E+02  0.95081219460E+03  0.19887075450E+04  0.46999998093E+01 0. -1.
</event>
<event>
 5   0  0.4200635E-07  0.3661641E+04  0.7818609E-02  0.8076516E-01
       -2   -1    0    0    0  501  0.00000000000E+00  0.00000000000E+00  0.26609372502E+04  0.26609372502E+04  0.25500000920E-02 0. -1.
        2   -1    0    0  501    0  0.00000000000E+00  0.00000000000E+00 -0.12596705147E+04  0.12596705147E+04  0.25500000920E-02 0.  1.
    10030    2    1    2    0    0  0.00000000000E+00  0.00000000000E+00  0.14012667355E+04  0.39206077649E+04  0.36616412689E+04 0.  0.
        4    1    3    3  502    0  0.10768156600E+04 -0.35884766032E+03  0.22387534876E+04  0.25100443024E+04  0.12699999809E+01 0. -1.
       -4    1    3    3    0  502 -0.10768156600E+04  0.35884766032E+03 -0.83748675206E+03  0.14105634625E+04  0.12699999809E+01 0.  1.
</event>
<event>
 5   0  0.3993751E-07  0.3617900E+04  0.7818609E-02  0.8086404E-01
        2   -1    0    0  501    0  0.00000000000E+00  0.00000000000E+00  0.27860758298E+04  0.27860758298E+04  0.25500000920E-02 0. -1.
       -2   -1    0    0    0  501  0.00000000000E+00  0.00000000000E+00 -0.11745192952E+04  0.11745192952E+04  0.25500000920E-02 0.  1.
    10030    2    1    2    0    0  0.00000000000E+00  0.00000000000E+00  0.16115565345E+04  0.39605951250E+04  0.36178998438E+04 0.  0.
        1    1    3    3  502    0 -0.11065720043E+04  0.12147850413E+04 -0.22236692268E+02  0.16433802870E+04  0.50400001928E-02 0. -1.
       -1    1    3    3    0  502  0.11065720043E+04 -0.12147850413E+04  0.16337932268E+04  0.23172148380E+04  0.50400001928E-02 0.  1.
</event>
<event>
 5   0  0.4115358E-07  0.3646913E+04  0.7818609E-02  0.8079829E-01
        2   -1    0    0  501    0  0.00000000000E+00  0.00000000000E+00  0.23823274301E+04  0.23823274301E+04  0.25500000920E-02 0. -1.
       -2   -1    0    0    0  501  0.00000000000E+00  0.00000000000E+00 -0.13956915716E+04  0.13956915716E+04  0.25500000920E-02 0.  1.
    10030    2    1    2    0    0  0.00000000000E+00  0.00000000000E+00  0.98663585852E+03  0.37780190017E+04  0.36469133880E+04 0.  0.
        3    1    3    3  502    0  0.32111591743E+03  0.14229552557E+04  0.16267611534E+04  0.21850100578E+04  0.10100000352E+00 0. -1.
       -3    1    3    3    0  502 -0.32111591743E+03 -0.14229552557E+04 -0.64012529487E+03  0.15930089439E+04  0.10100000352E+00 0.  1.
</event>
<event>
 5   0  0.4120440E-07  0.3653575E+04  0.7818609E-02  0.8078329E-01
        2   -1    0    0  501    0  0.00000000000E+00  0.00000000000E+00  0.21274909793E+04  0.21274909793E+04  0.25500000920E-02 0. -1.
       -2   -1    0    0    0  501  0.00000000000E+00  0.00000000000E+00 -0.15685858539E+04  0.15685858539E+04  0.25500000920E-02 0.  1.
    10030    2    1    2    0    0  0.00000000000E+00  0.00000000000E+00  0.55890512540E+03  0.36960768331E+04  0.36535748271E+04 0.  0.
        2    1    3    3  502    0 -0.15505555612E+04  0.96407293106E+03  0.33924246376E+03  0.18570795928E+04  0.25500000920E-02 0. -1.
       -2    1    3    3    0  502  0.15505555612E+04 -0.96407293106E+03  0.21966266164E+03  0.18389972403E+04  0.25500000920E-02 0.  1.
</event>
<event>
 5   0  0.3993751E-07  0.3601035E+04  0.7818609E-02  0.8090255E-01
        2   -1    0    0  501    0  0.00000000000E+00  0.00000000000E+00  0.22617678381E+04  0.22617678381E+04  0.25500000920E-02 0.  1.
       -2   -1    0    0    0  501  0.00000000000E+00  0.00000000000E+00 -0.14333316647E+04  0.14333316648E+04  0.25500000920E-02 0. -1.
    10030    2    1    2    0    0  0.00000000000E+00  0.00000000000E+00  0.82843617335E+03  0.36950995028E+04  0.36010351071E+04 0.  0.
        1    1    3    3  502    0  0.11101019290E+04 -0.12820662655E+04 -0.20643127168E+03  0.17084010278E+04  0.50400001928E-02 0. -1.
       -1    1    3    3    0  502 -0.11101019290E+04  0.12820662655E+04  0.10348674450E+04  0.19866984750E+04  0.50400001928E-02 0.  1.
</event>
<event>
 5   0  0.3880259E-07  0.3604847E+04  0.7818609E-02  0.8089382E-01
       -2   -1    0    0    0  501  0.00000000000E+00  0.00000000000E+00  0.31424311545E+04  0.31424311545E+04  0.25500000920E-02 0.  1.
        2   -1    0    0  501    0  0.00000000000E+00  0.00000000000E+00 -0.10338273787E+04  0.10338273787E+04  0.25500000920E-02 0. -1.
    10030    2    1    2    0    0  0.00000000000E+00  0.00000000000E+00  0.21086037758E+04  0.41762585332E+04  0.36048474937E+04 0.  0.
        5    1    3    3  502    0  0.24997201816E+03 -0.16833150568E+04  0.36630415626E+03  0.17407574257E+04  0.46999998093E+01 0. -1.
       -5    1    3    3    0  502 -0.24997201816E+03  0.16833150568E+04  0.17422996195E+04  0.24355011075E+04  0.46999998093E+01 0.  1.
</event>
<event>
 5   0  0.4120440E-07  0.3595750E+04  0.7818609E-02  0.8091466E-01
       -2   -1    0    0    0  501  0.00000000000E+00  0.00000000000E+00  0.21246478851E+04  0.21246478851E+04  0.25500000920E-02 0.  1.
        2   -1    0    0  501    0  0.00000000000E+00  0.00000000000E+00 -0.15213597843E+04  0.15213597843E+04  0.25500000920E-02 0. -1.
    10030    2    1    2    0    0  0.00000000000E+00  0.00000000000E+00  0.60328810081E+03  0.36460076694E+04  0.35957496287E+04 0.  0.
        2    1    3    3  502    0  0.55550127233E+03 -0.48005983757E+03  0.19657144187E+04  0.20983498962E+04  0.25500000920E-02 0.  1.
       -2    1    3    3    0  502 -0.55550127233E+03  0.48005983757E+03 -0.13624263179E+04  0.15476577732E+04  0.25500000920E-02 0. -1.
</event>
<event>
 5   0  0.1370997E-07  0.3614566E+04  0.7818609E-02  0.8087163E-01
        1   -1    0    0  501    0  0.00000000000E+00  0.00000000000E+00  0.16765317131E+04  0.16765317131E+04  0.50400001928E-02 0.  1.
       -1   -1    0    0    0  501  0.00000000000E+00  0.00000000000E+00 -0.19482317297E+04  0.19482317297E+04  0.50400001928E-02 0. -1.
    10030    2    1    2    0    0  0.00000000000E+00  0.00000000000E+00 -0.27170001663E+03  0.36247634428E+04  0.36145662419E+04 0.  0.
        3    1    3    3  502    0 -0.69160949718E+03  0.43799585374E+03  0.14799398422E+04  0.16912675753E+04  0.10100000352E+00 0.  1.
       -3    1    3    3    0  502  0.69160949718E+03 -0.43799585374E+03 -0.17516398588E+04  0.19334958675E+04  0.10100000352E+00 0. -1.
</event>
<event>
 5   0  0.1298250E-07  0.3579827E+04  0.7818609E-02  0.8095128E-01
       -1   -1    0    0    0  501  0.00000000000E+00  0.00000000000E+00  0.17385384028E+04  0.17385384028E+04  0.50400001928E-02 0.  1.
        1   -1    0    0  501    0  0.00000000000E+00  0.00000000000E+00 -0.18428070478E+04  0.18428070478E+04  0.50400001928E-02 0. -1.
    10030    2    1    2    0    0  0.00000000000E+00  0.00000000000E+00 -0.10426864499E+03  0.35813454506E+04  0.35798272704E+04 0.  0.
        1    1    3    3  502    0 -0.46133455181E+03  0.74120824275E+03  0.15110812545E+04  0.17451606762E+04  0.50400001928E-02 0.  1.
       -1    1    3    3    0  502  0.46133455181E+03 -0.74120824275E+03 -0.16153498995E+04  0.18361847744E+04  0.50400001928E-02 0. -1.
</event>
<event>
 5   0  0.4120440E-07  0.3466243E+04  0.7818609E-02  0.8121837E-01
       -2   -1    0    0    0  501  0.00000000000E+00  0.00000000000E+00  0.21825756775E+04  0.21825756775E+04  0.25500000920E-02 0.  1.
        2   -1    0    0  501    0  0.00000000000E+00  0.00000000000E+00 -0.13762227489E+04  0.13762227489E+04  0.25500000920E-02 0. -1.
    10030    2    1    2    0    0  0.00000000000E+00  0.00000000000E+00  0.80635292858E+03  0.35587984264E+04  0.34662430951E+04 0.  0.
        2    1    3    3  502    0  0.82880182358E+03  0.11844488229E+04  0.13846727919E+04  0.20017867562E+04  0.25500000920E-02 0. -1.
       -2    1    3    3    0  502 -0.82880182358E+03 -0.11844488229E+04 -0.57831986331E+03  0.15570116702E+04  0.25500000920E-02 0.  1.
</event>
<event>
 5   0  0.3880259E-07  0.3505690E+04  0.7818609E-02  0.8112443E-01
        2   -1    0    0  501    0  0.00000000000E+00  0.00000000000E+00  0.19863170424E+04  0.19863170424E+04  0.25500000920E-02 0.  1.
       -2   -1    0    0    0  501  0.00000000000E+00  0.00000000000E+00 -0.15468150131E+04  0.15468150131E+04  0.25500000920E-02 0. -1.
    10030    2    1    2    0    0  0.00000000000E+00  0.00000000000E+00  0.43950202932E+03  0.35331320554E+04  0.35056896736E+04 0.  0.
        5    1    3    3  502    0 -0.12149652933E+04 -0.12563749287E+04  0.35430380886E+03  0.17833036489E+04  0.46999998093E+01 0.  1.
       -5    1    3    3    0  502  0.12149652933E+04  0.12563749287E+04  0.85198220457E+02  0.17498284065E+04  0.46999998093E+01 0. -1.
</event>
<event>
 5   0  0.3880259E-07  0.3627648E+04  0.7818609E-02  0.8084188E-01
       -2   -1    0    0    0  501  0.00000000000E+00  0.00000000000E+00  0.18389101373E+04  0.18389101373E+04  0.25500000920E-02 0.  1.
        2   -1    0    0  501    0  0.00000000000E+00  0.00000000000E+00 -0.17890798135E+04  0.17890798135E+04  0.25500000920E-02 0. -1.
    10030    2    1    2    0    0  0.00000000000E+00  0.00000000000E+00  0.49830323872E+02  0.36279899508E+04  0.36276477257E+04 0.  0.
        5    1    3    3  502    0  0.12496016024E+04 -0.85833281987E+03  0.10208482114E+04  0.18276740834E+04  0.46999998093E+01 0.  1.
       -5    1    3    3    0  502 -0.12496016024E+04  0.85833281987E+03 -0.97101788753E+03  0.18003158674E+04  0.46999998093E+01 0. -1.
</event>
<event>
 5   0  0.1348226E-07  0.3597826E+04  0.7818609E-02  0.8090990E-01
       -1   -1    0    0    0  501  0.00000000000E+00  0.00000000000E+00  0.14065129384E+04  0.14065129384E+04  0.50400001928E-02 0.  1.
        1   -1    0    0  501    0  0.00000000000E+00  0.00000000000E+00 -0.23007873309E+04  0.23007873309E+04  0.50400001928E-02 0. -1.
    10030    2    1    2    0    0  0.00000000000E+00  0.00000000000E+00 -0.89427439251E+03  0.37073002693E+04  0.35978255375E+04 0.  0.
        4    1    3    3  502    0 -0.17971975663E+04 -0.67626229492E+02 -0.48826583034E+03  0.18635711774E+04  0.12699999809E+01 0. -1.
       -4    1    3    3    0  502  0.17971975663E+04  0.67626229492E+02 -0.40600856218E+03  0.18437290920E+04  0.12699999809E+01 0.  1.
</event>
<event>
 5   0  0.1298250E-07  0.3580814E+04  0.7818609E-02  0.8094901E-01
       -3   -1    0    0    0  501  0.00000000000E+00  0.00000000000E+00  0.24309499561E+04  0.24309499582E+04  0.10100000352E+00 0. -1.
        3   -1    0    0  501    0  0.00000000000E+00  0.00000000000E+00 -0.13186437303E+04  0.13186437341E+04  0.10100000352E+00 0.  1.
    10030    2    1    2    0    0  0.00000000000E+00  0.00000000000E+00  0.11123062259E+04  0.37495936923E+04  0.35808138345E+04 0.  0.
        4    1    3    3  502    0 -0.10366787761E+04  0.10254351873E+03 -0.96861899712E+03  0.14224775684E+04  0.12699999809E+01 0.  1.
       -4    1    3    3    0  502  0.10366787761E+04 -0.10254351873E+03  0.20809252230E+04  0.23271161240E+04  0.12699999809E+01 0. -1.
</event>
<event>
 5   0  0.3993751E-07  0.3624888E+04  0.7818609E-02  0.8084814E-01
       -2   -1    0    0    0  501  0.00000000000E+00  0.00000000000E+00  0.16491748082E+04  0.16491748082E+04  0.25500000920E-02 0.  1.
        2   -1    0    0  501    0  0.00000000000E+00  0.00000000000E+00 -0.19918773919E+04  0.19918773919E+04  0.25500000920E-02 0. -1.
    10030    2    1    2    0    0  0.00000000000E+00  0.00000000000E+00 -0.34270258378E+03  0.36410522001E+04  0.36248884207E+04 0.  0.
        1    1    3    3  502    0  0.30861355120E+02 -0.17186400553E+04  0.40590949132E+03  0.17661932449E+04  0.50400001928E-02 0. -1.
       -1    1    3    3    0  502 -0.30861355120E+02  0.17186400553E+04 -0.74861207510E+03  0.18748589552E+04  0.50400001928E-02 0.  1.
</event>
<event>
 5   0  0.4200635E-07  0.3615151E+04  0.7818609E-02  0.8087030E-01
        2   -1    0    0  501    0  0.00000000000E+00  0.00000000000E+00  0.16245098006E+04  0.16245098006E+04  0.25500000920E-02 0. -1.
       -2   -1    0    0    0  501  0.00000000000E+00  0.00000000000E+00 -0.20112713338E+04  0.20112713338E+04  0.25500000920E-02 0.  1.
    10030    2    1    2    0    0  0.00000000000E+00  0.00000000000E+00 -0.38676153323E+03  0.36357811344E+04  0.36151514454E+04 0.  0.
        4    1    3    3  502    0  0.36593321025E+03 -0.30246246259E+02  0.15866078381E+04  0.16285416772E+04  0.12699999809E+01 0. -1.
       -4    1    3    3    0  502 -0.36593321025E+03  0.30246246259E+02 -0.19733693713E+04  0.20072394571E+04  0.12699999809E+01 0.  1.
</event>
<event>
 5   0  0.4120440E-07  0.3616428E+04  0.7818609E-02  0.8086739E-01
       -2   -1    0    0    0  501  0.00000000000E+00  0.00000000000E+00  0.25634840675E+04  0.25634840675E+04  0.25500000920E-02 0. -1.
        2   -1    0    0  501    0  0.00000000000E+00  0.00000000000E+00 -0.12754662027E+04  0.12754662027E+04  0.25500000920E-02 0.  1.
    10030    2    1    2    0    0  0.00000000000E+00  0.00000000000E+00  0.12880178649E+04  0.38389502702E+04  0.36164276789E+04 0.  0.
        2    1    3    3  502    0  0.52933298941E+03  0.14844808125E+04  0.15849833667E+04  0.22351843255E+04  0.25500000920E-02 0. -1.
       -2    1    3    3    0  502 -0.52933298941E+03 -0.14844808125E+04 -0.29696550182E+03  0.16037659447E+04  0.25500000920E-02 0.  1.
</event>
<event>
 5   0  0.4120440E-07  0.3824111E+04  0.7818609E-02  0.8041000E-01
        2   -1    0    0  501    0  0.00000000000E+00  0.00000000000E+00  0.14852039988E+04  0.14852039988E+04  0.25500000920E-02 0. -1.
       -2   -1    0    0    0  501  0.00000000000E+00  0.00000000000E+00 -0.24615850457E+04  0.24615850457E+04  0.25500000920E-02 0.  1.
    10030    2    1    2    0    0  0.00000000000E+00  0.00000000000E+00 -0.97638104686E+03  0.39467890445E+04  0.38241108526E+04 0.  0.
        2    1    3    3  502    0  0.33406019691E+03 -0.34586942562E+03 -0.23981619432E+04  0.24458950469E+04  0.25500000920E-02 0.  1.
       -2    1    3    3    0  502 -0.33406019691E+03  0.34586942562E+03  0.14217808963E+04  0.15008939976E+04  0.25500000920E-02 0. -1.
</event>
<event>
 5   0  0.1298250E-07  0.3480828E+04  0.7818609E-02  0.8118349E-01
       -1   -1    0    0    0  501  0.00000000000E+00  0.00000000000E+00  0.19949095534E+04  0.19949095534E+04  0.50400001928E-02 0. -1.
        1   -1    0    0  501    0  0.00000000000E+00  0.00000000000E+00 -0.15183847676E+04  0.15183847676E+04  0.50400001928E-02 0.  1.
    10030    2    1    2    0    0  0.00000000000E+00  0.00000000000E+00  0.47652478580E+03  0.35132943210E+04  0.34808276479E+04 0.  0.
        2    1    3    3  502    0  0.16603254393E+04 -0.30914879441E+03 -0.18611950808E+03  0.16990862288E+04  0.25500000920E-02 0.  1.
       -2    1    3    3    0  502 -0.16603254393E+04  0.30914879441E+03  0.66264429388E+03  0.18142080922E+04  0.25500000920E-02 0. -1.
</event>
<event>
 5   0  0.1370997E-07  0.3538118E+04  0.7818609E-02  0.8104815E-01
       -1   -1    0    0    0  501  0.00000000000E+00  0.00000000000E+00  0.15592894486E+04  0.15592894487E+04  0.50400001928E-02 0.  1.
        1   -1    0    0  501    0  0.00000000000E+00  0.00000000000E+00 -0.20070487167E+04  0.20070487167E+04  0.50400001928E-02 0. -1.
    10030    2    1    2    0    0  0.00000000000E+00  0.00000000000E+00 -0.44775926806E+03  0.35663381654E+04  0.35381180800E+04 0.  0.
        3    1    3    3  502    0 -0.12560914963E+04 -0.11631629850E+04 -0.67336901796E+03  0.18396031695E+04  0.10100000352E+00 0. -1.
       -3    1    3    3    0  502  0.12560914963E+04  0.11631629850E+04  0.22560974989E+03  0.17267349959E+04  0.10100000352E+00 0.  1.
</event>
<event>
 5   0  0.3880259E-07  0.3582358E+04  0.7818609E-02  0.8094545E-01
       -2   -1    0    0    0  501  0.00000000000E+00  0.00000000000E+00  0.14461862258E+04  0.14461862258E+04  0.25500000920E-02 0.  1.
        2   -1    0    0  501    0  0.00000000000E+00  0.00000000000E+00 -0.22184714496E+04  0.22184714496E+04  0.25500000920E-02 0. -1.
    10030    2    1    2    0    0  0.00000000000E+00  0.00000000000E+00 -0.77228522383E+03  0.36646576755E+04  0.35823583589E+04 0.  0.
        5    1    3    3  502    0 -0.17039679183E+04 -0.39361108153E+03 -0.78215944138E+03  0.19157849127E+04  0.46999998093E+01 0. -1.
       -5    1    3    3    0  502  0.17039679183E+04  0.39361108153E+03  0.98742175536E+01  0.17488727627E+04  0.46999998093E+01 0.  1.
</event>
<event>
 5   0  0.3993751E-07  0.3603005E+04  0.7818609E-02  0.8089804E-01
       -2   -1    0    0    0  501  0.00000000000E+00  0.00000000000E+00  0.23811627469E+04  0.23811627469E+04  0.25500000920E-02 0.  1.
        2   -1    0    0  501    0  0.00000000000E+00  0.00000000000E+00 -0.13629523381E+04  0.13629523381E+04  0.25500000920E-02 0. -1.
    10030    2    1    2    0    0  0.00000000000E+00  0.00000000000E+00  0.10182104088E+04  0.37441150850E+04  0.36030050421E+04 0.  0.
        1    1    3    3  502    0 -0.73368772110E+03 -0.11813123149E+04 -0.68100584230E+03  0.15484073801E+04  0.50400001928E-02 0. -1.
       -1    1    3    3    0  502  0.73368772110E+03  0.11813123149E+04  0.16992162511E+04  0.21957077049E+04  0.50400001928E-02 0.  1.
</event>
<event>
 5   0  0.1348226E-07  0.3588993E+04  0.7818609E-02  0.8093018E-01
        1   -1    0    0  501    0  0.00000000000E+00  0.00000000000E+00  0.15582951587E+04  0.15582951587E+04  0.50400001928E-02 0. -1.
       -1   -1    0    0    0  501  0.00000000000E+00  0.00000000000E+00 -0.20665009490E+04  0.20665009490E+04  0.50400001928E-02 0.  1.
    10030    2    1    2    0    0  0.00000000000E+00  0.00000000000E+00 -0.50820579032E+03  0.36247961077E+04  0.35889934100E+04 0.  0.
        4    1    3    3  502    0 -0.97921454291E+03 -0.31612554899E+03  0.12307401110E+04  0.16042192236E+04  0.12699999809E+01 0. -1.
       -4    1    3    3    0  502  0.97921454291E+03  0.31612554899E+03 -0.17389459013E+04  0.20205768840E+04  0.12699999809E+01 0.  1.
</event>
<event>
 5   0  0.1370997E-07  0.3584244E+04  0.7818609E-02  0.8094110E-01
       -1   -1    0    0    0  501  0.00000000000E+00  0.00000000000E+00  0.13817225187E+04  0.13817225187E+04  0.50400001928E-02 0. -1.
        1   -1    0    0  501    0  0.00000000000E+00  0.00000000000E+00 -0.23244186922E+04  0.23244186922E+04  0.50400001928E-02 0.  1.
    10030    2    1    2    0    0  0.00000000000E+00  0.00000000000E+00 -0.94269617353E+03  0.37061412109E+04  0.35842442160E+04 0.  0.
        3    1    3    3  502    0 -0.13961147684E+04 -0.10340475755E+04 -0.92597216542E+03  0.19687090431E+04  0.10100000352E+00 0.  1.
       -3    1    3    3    0  502  0.13961147684E+04  0.10340475755E+04 -0.16724008120E+02  0.17374321678E+04  0.10100000352E+00 0. -1.
</event>
<event>
 5   0  0.3880259E-07  0.3584976E+04  0.7818609E-02  0.8093942E-01
       -2   -1    0    0    0  501  0.00000000000E+00  0.00000000000E+00  0.19687793563E+04  0.19687793563E+04  0.25500000920E-02 0.  1.
        2   -1    0    0  501    0  0.00000000000E+00  0.00000000000E+00 -0.16319828247E+04  0.16319828247E+04  0.25500000920E-02 0. -1.
    10030    2    1    2    0    0  0.00000000000E+00  0.00000000000E+00  0.33679653158E+03  0.36007621811E+04  0.35849764826E+04 0.  0.
        5    1    3    3  502    0 -0.16203424223E+04 -0.66918862170E+03  0.54376707568E+03  0.18354911330E+04  0.46999998093E+01 0. -1.
       -5    1    3    3    0  502  0.16203424223E+04  0.66918862170E+03 -0.20697054410E+03  0.17652710480E+04  0.46999998093E+01 0.  1.
</event>
<event>
 5   0  0.3880259E-07  0.3517456E+04  0.7818609E-02  0.8109665E-01
       -2   -1    0    0    0  501  0.00000000000E+00  0.00000000000E+00  0.25131996969E+04  0.25131996969E+04  0.25500000920E-02 0. -1.
        2   -1    0    0  501    0  0.00000000000E+00  0.00000000000E+00 -0.12307516263E+04  0.12307516263E+04  0.25500000920E-02 0.  1.
    10030    2    1    2    0    0  0.00000000000E+00  0.00000000000E+00  0.12824480706E+04  0.37439513232E+04  0.35174562481E+04 0.  0.
        5    1    3    3  502    0 -0.17267516074E+04 -0.32978518414E+02  0.28765395086E+03  0.17508642386E+04  0.46999998093E+01 0. -1.
       -5    1    3    3    0  502  0.17267516074E+04  0.32978518414E+02  0.99479411970E+03  0.19930870847E+04  0.46999998093E+01 0.  1.
</event>
<event>
 5   0  0.4120440E-07  0.3591859E+04  0.7818609E-02  0.8092359E-01
       -2   -1    0    0    0  501  0.00000000000E+00  0.00000000000E+00  0.30272889677E+04  0.30272889678E+04  0.25500000920E-02 0. -1.
        2   -1    0    0  501    0  0.00000000000E+00  0.00000000000E+00 -0.10654291626E+04  0.10654291626E+04  0.25500000920E-02 0.  1.
    10030    2    1    2    0    0  0.00000000000E+00  0.00000000000E+00  0.19618598051E+04  0.40927181304E+04  0.35918585440E+04 0.  0.
        2    1    3    3  502    0 -0.67613529139E+03  0.66820870118E+03 -0.75525380023E+03  0.12141128874E+04  0.25500000920E-02 0.  1.
       -2    1    3    3    0  502  0.67613529139E+03 -0.66820870118E+03  0.27171136053E+04  0.28786052430E+04  0.25500000920E-02 0. -1.
</event>
<event>
 5   0  0.4200635E-07  0.3584729E+04  0.7818609E-02  0.8093999E-01
        2   -1    0    0  501    0  0.00000000000E+00  0.00000000000E+00  0.16133920843E+04  0.16133920843E+04  0.25500000920E-02 0.  1.
       -2   -1    0    0    0  501  0.00000000000E+00  0.00000000000E+00 -0.19911896468E+04  0.19911896468E+04  0.25500000920E-02 0. -1.
    10030    2    1    2    0    0  0.00000000000E+00  0.00000000000E+00 -0.37779756254E+03  0.36045817311E+04  0.35847285054E+04 0.  0.
        4    1    3    3  502    0  0.11129102351E+04 -0.13269880714E+04 -0.65308455830E+03  0.18509423508E+04  0.12699999809E+01 0. -1.
       -4    1    3    3    0  502 -0.11129102351E+04  0.13269880714E+04  0.27528699575E+03  0.17536393802E+04  0.12699999809E+01 0.  1.
</event>
<event>
 5   0  0.1298250E-07  0.3600365E+04  0.7818609E-02  0.8090408E-01
        1   -1    0    0  501    0  0.00000000000E+00  0.00000000000E+00  0.18238585470E+04  0.18238585470E+04  0.50400001928E-02 0.  1.
       -1   -1    0    0    0  501  0.00000000000E+00  0.00000000000E+00 -0.17768135031E+04  0.17768135031E+04  0.50400001928E-02 0. -1.
    10030    2    1    2    0    0  0.00000000000E+00  0.00000000000E+00  0.47045043895E+02  0.36006720500E+04  0.36003647004E+04 0.  0.
        1    1    3    3  502    0 -0.92292331909E+03 -0.19835143980E+03  0.15564696524E+04  0.18203649430E+04  0.50400001928E-02 0.  1.
       -1    1    3    3    0  502  0.92292331909E+03  0.19835143980E+03 -0.15094246085E+04  0.17803071071E+04  0.50400001928E-02 0. -1.
</event>
<event>
 5   0  0.1298250E-07  0.3603884E+04  0.7818609E-02  0.8089603E-01
       -1   -1    0    0    0  501  0.00000000000E+00  0.00000000000E+00  0.27996461469E+04  0.27996461469E+04  0.50400001928E-02 0.  1.
        1   -1    0    0  501    0  0.00000000000E+00  0.00000000000E+00 -0.11597876356E+04  0.11597876356E+04  0.50400001928E-02 0. -1.
    10030    2    1    2    0    0  0.00000000000E+00  0.00000000000E+00  0.16398585114E+04  0.39594337825E+04  0.36038840076E+04 0.  0.
        1    1    3    3  502    0  0.59435626999E+03  0.13433836384E+04 -0.32660593087E+03  0.15048622561E+04  0.50400001928E-02 0. -1.
       -1    1    3    3    0  502 -0.59435626999E+03 -0.13433836384E+04  0.19664644422E+04  0.24545715264E+04  0.50400001928E-02 0.  1.
</event>
<event>
 5   0  0.1361743E-07  0.3577750E+04  0.7818609E-02  0.8095607E-01
       -1   -1    0    0    0  501  0.00000000000E+00  0.00000000000E+00  0.13906468749E+04  0.13906468749E+04  0.50400001928E-02 0. -1.
        1   -1    0    0  501    0  0.00000000000E+00  0.00000000000E+00 -0.23011401496E+04  0.23011401496E+04  0.50400001928E-02 0.  1.
    10030    2    1    2    0    0  0.00000000000E+00  0.00000000000E+00 -0.91049327472E+03  0.36917870246E+04  0.35777497721E+04 0.  0.
        5    1    3    3  502    0 -0.28028856391E+03 -0.14668897948E+04  0.56088677088E+03  0.15952878765E+04  0.46999998093E+01 0. -1.
       -5    1    3    3    0  502  0.28028856391E+03  0.14668897948E+04 -0.14713800456E+04  0.20964991481E+04  0.46999998093E+01 0.  1.
</event>
<event>
 5   0  0.3993751E-07  0.3597489E+04  0.7818609E-02  0.8091067E-01
       -2   -1    0    0    0  501  0.00000000000E+00  0.00000000000E+00  0.15827482279E+04  0.15827482279E+04  0.25500000920E-02 0.  1.
        2   -1    0    0  501    0  0.00000000000E+00  0.00000000000E+00 -0.20442180355E+04  0.20442180355E+04  0.25500000920E-02 0. -1.
    10030    2    1    2    0    0  0.00000000000E+00  0.00000000000E+00 -0.46146980764E+03  0.36269662634E+04  0.35974893874E+04 0.  0.
        1    1    3    3  502    0 -0.16096596695E+02 -0.10239649274E+04 -0.17216074025E+04  0.20031713161E+04  0.50400001928E-02 0. -1.
       -1    1    3    3    0  502  0.16096596695E+02  0.10239649274E+04  0.12601375949E+04  0.16237949474E+04  0.50400001928E-02 0.  1.
</event>
<event>
 5   0  0.4200635E-07  0.3603172E+04  0.7818609E-02  0.8089766E-01
        2   -1    0    0  501    0  0.00000000000E+00  0.00000000000E+00  0.23140640444E+04  0.23140640445E+04  0.25500000920E-02 0.  1.
       -2   -1    0    0    0  501  0.00000000000E+00  0.00000000000E+00 -0.14026023445E+04  0.14026023445E+04  0.25500000920E-02 0. -1.
    10030    2    1    2    0    0  0.00000000000E+00  0.00000000000E+00  0.91146169990E+03  0.37166663890E+04  0.36031717440E+04 0.  0.
        4    1    3    3  502    0 -0.26021890786E+03 -0.21442494772E+03  0.22812262751E+04  0.23060110297E+04  0.12699999809E+01 0.  1.
       -4    1    3    3    0  502  0.26021890786E+03  0.21442494772E+03 -0.13697645752E+04  0.14106553592E+04  0.12699999809E+01 0. -1.
</event>
<event>
 5   0  0.1348226E-07  0.3612966E+04  0.7818609E-02  0.8087528E-01
       -1   -1    0    0    0  501  0.00000000000E+00  0.00000000000E+00  0.16753749419E+04  0.16753749419E+04  0.50400001928E-02 0.  1.
        1   -1    0    0  501    0  0.00000000000E+00  0.00000000000E+00 -0.19478512796E+04  0.19478512796E+04  0.50400001928E-02 0. -1.
    10030    2    1    2    0    0  0.00000000000E+00  0.00000000000E+00 -0.27247633763E+03  0.36232262215E+04  0.36129662187E+04 0.  0.
        4    1    3    3  502    0 -0.10001175663E+04  0.14926049301E+04 -0.32458789133E+03  0.18257775155E+04  0.12699999809E+01 0.  1.
       -4    1    3    3    0  502  0.10001175663E+04 -0.14926049301E+04  0.52111553692E+02  0.17974487060E+04  0.12699999809E+01 0. -1.
</event>
<event>
 5   0  0.1361743E-07  0.3490460E+04  0.7818609E-02  0.8116054E-01
        1   -1    0    0  501    0  0.00000000000E+00  0.00000000000E+00  0.12942159222E+04  0.12942159222E+04  0.50400001928E-02 0.  1.
       -1   -1    0    0    0  501  0.00000000000E+00  0.00000000000E+00 -0.23534158895E+04  0.23534158895E+04  0.50400001928E-02 0. -1.
    10030    2    1    2    0    0  0.00000000000E+00  0.00000000000E+00 -0.10591999673E+04  0.36476318117E+04  0.34904603225E+04 0.  0.
        5    1    3    3  502    0 -0.99932601426E+03  0.12809103702E+03  0.95961068283E+03  0.13913786505E+04  0.46999998093E+01 0.  1.
       -5    1    3    3    0  502  0.99932601426E+03 -0.12809103702E+03 -0.20188106501E+04  0.22562531612E+04  0.46999998093E+01 0. -1.
</event>
<event>
 5   0  0.3993751E-07  0.3579094E+04  0.7818609E-02  0.8095297E-01
       -2   -1    0    0    0  501  0.00000000000E+00  0.00000000000E+00  0.17966925065E+04  0.17966925065E+04  0.25500000920E-02 0.  1.
        2   -1    0    0  501    0  0.00000000000E+00  0.00000000000E+00 -0.17824300007E+04  0.17824300007E+04  0.25500000920E-02 0. -1.
    10030    2    1    2    0    0  0.00000000000E+00  0.00000000000E+00  0.14262505879E+02  0.35791225072E+04  0.35790940897E+04 0.  0.
        1    1    3    3  502    0 -0.63319376909E+03  0.61030446992E+03  0.15656919042E+04  0.17957719883E+04  0.50400001928E-02 0.  1.
       -1    1    3    3    0  502  0.63319376909E+03 -0.61030446992E+03 -0.15514293983E+04  0.17833505189E+04  0.50400001928E-02 0. -1.
</event>
<event>
 5   0  0.1370997E-07  0.3563575E+04  0.7818609E-02  0.8098886E-01
        1   -1    0    0  501    0  0.00000000000E+00  0.00000000000E+00  0.27044848986E+04  0.27044848986E+04  0.50400001928E-02 0. -1.
       -1   -1    0    0    0  501  0.00000000000E+00  0.00000000000E+00 -0.11738898986E+04  0.11738898986E+04  0.50400001928E-02 0.  1.
    10030    2    1    2    0    0  0.00000000000E+00  0.00000000000E+00  0.15305949999E+04  0.38783747972E+04  0.35635754536E+04 0.  0.
        3    1    3    3  502    0 -0.38084175664E+03  0.52714725761E+02  0.26588018719E+04  0.26864561582E+04  0.10100000352E+00 0. -1.
       -3    1    3    3    0  502  0.38084175664E+03 -0.52714725761E+02 -0.11282068719E+04  0.11919186390E+04  0.10100000352E+00 0.  1.
</event>
<event>
 5   0  0.4120440E-07  0.3598530E+04  0.7818609E-02  0.8090828E-01
       -2   -1    0    0    0  501  0.00000000000E+00  0.00000000000E+00  0.16636703558E+04  0.16636703558E+04  0.25500000920E-02 0. -1.
        2   -1    0    0  501    0  0.00000000000E+00  0.00000000000E+00 -0.19459113617E+04  0.19459113617E+04  0.25500000920E-02 0.  1.
    10030    2    1    2    0    0  0.00000000000E+00  0.00000000000E+00 -0.28224100586E+03  0.36095817176E+04  0.35985302820E+04 0.  0.
        2    1    3    3  502    0  0.10718608441E+04 -0.11764313864E+04 -0.98303039132E+03  0.18706216149E+04  0.25500000920E-02 0.  1.
       -2    1    3    3    0  502 -0.10718608441E+04  0.11764313864E+04  0.70078938546E+03  0.17389601027E+04  0.25500000920E-02 0. -1.
</event>
<event>
 5   0  0.4120440E-07  0.3623591E+04  0.7818609E-02  0.8085109E-01
       -2   -1    0    0    0  501  0.00000000000E+00  0.00000000000E+00  0.12954809303E+04  0.12954809304E+04  0.25500000920E-02 0.  1.
        2   -1    0    0  501    0  0.00000000000E+00  0.00000000000E+00 -0.25338871529E+04  0.25338871529E+04  0.25500000920E-02 0. -1.
    10030    2    1    2    0    0  0.00000000000E+00  0.00000000000E+00 -0.12384062225E+04  0.38293680832E+04  0.36235907530E+04 0.  0.
        2    1    3    3  502    0  0.21790276125E+03 -0.16857620254E+03 -0.25116222662E+04  0.25266867549E+04  0.25500000920E-02 0. -1.
       -2    1    3    3    0  502 -0.21790276125E+03  0.16857620254E+03  0.12732160436E+04  0.13026813283E+04  0.25500000920E-02 0.  1.
</event>
<event>
 5   0  0.4200635E-07  0.3742484E+04  0.7818609E-02  0.8058611E-01
       -2   -1    0    0    0  501  0.00000000000E+00  0.00000000000E+00  0.11194492200E+04  0.11194492200E+04  0.25500000920E-02 0.  1.
        2   -1    0    0  501    0  0.00000000000E+00  0.00000000000E+00 -0.31279197407E+04  0.31279197407E+04  0.25500000920E-02 0. -1.
    10030    2    1    2    0    0  0.00000000000E+00  0.00000000000E+00 -0.20084705207E+04  0.42473689606E+04  0.37424843694E+04 0.  0.
        4    1    3    3  502    0 -0.58502384174E+03 -0.43754214841E+03 -0.29593891375E+04  0.30482259934E+04  0.12699999809E+01 0. -1.
       -4    1    3    3    0  502  0.58502384174E+03  0.43754214841E+03  0.95091861680E+03  0.11991429672E+04  0.12699999809E+01 0.  1.
</event>
<event>
 5   0  0.3880259E-07  0.3556538E+04  0.7818609E-02  0.8100520E-01
        2   -1    0    0  501    0  0.00000000000E+00  0.00000000000E+00  0.23688766153E+04  0.23688766153E+04  0.25500000920E-02 0.  1.
       -2   -1    0    0    0  501  0.00000000000E+00  0.00000000000E+00 -0.13349116781E+04  0.13349116781E+04  0.25500000920E-02 0. -1.
    10030    2    1    2    0    0  0.00000000000E+00  0.00000000000E+00  0.10339649372E+04  0.37037882935E+04  0.35565382370E+04 0.  0.
        5    1    3    3  502    0  0.96664338690E+03  0.99512035202E+03 -0.64153058003E+03  0.15284788280E+04  0.46999998093E+01 0. -1.
       -5    1    3    3    0  502 -0.96664338690E+03 -0.99512035202E+03  0.16754955172E+04  0.21753094655E+04  0.46999998093E+01 0.  1.
</event>
<event>
 5   0  0.3993751E-07  0.3604401E+04  0.7818609E-02  0.8089484E-01
       -2   -1    0    0    0  501  0.00000000000E+00  0.00000000000E+00  0.99991674555E+03  0.99991674555E+03  0.25500000920E-02 0. -1.
        2   -1    0    0  501    0  0.00000000000E+00  0.00000000000E+00 -0.32481976325E+04  0.32481976325E+04  0.25500000920E-02 0.  1.
    10030    2    1    2    0    0  0.00000000000E+00  0.00000000000E+00 -0.22482808870E+04  0.42481143781E+04  0.36044013126E+04 0.  0.
        1    1    3    3  502    0  0.13432554362E+04  0.21443813367E+02 -0.25399867784E+04  0.28733826475E+04  0.50400001928E-02 0.  1.
       -1    1    3    3    0  502 -0.13432554362E+04 -0.21443813367E+02  0.29170589146E+03  0.13747317306E+04  0.50400001928E-02 0. -1.
</event>
<event>
 5   0  0.3880259E-07  0.3541889E+04  0.7818609E-02  0.8103934E-01
        2   -1    0    0  501    0  0.00000000000E+00  0.00000000000E+00  0.23463101286E+04  0.23463101286E+04  0.25500000920E-02 0. -1.
       -2   -1    0    0    0  501  0.00000000000E+00  0.00000000000E+00 -0.13366711927E+04  0.13366711927E+04  0.25500000920E-02 0.  1.
    10030    2    1    2    0    0  0.00000000000E+00  0.00000000000E+00  0.10096389359E+04  0.36829813213E+04  0.35418894155E+04 0.  0.
        5    1    3    3  502    0 -0.11307620485E+04  0.27726883163E+03 -0.88277516586E+03  0.14611005779E+04  0.46999998093E+01 0.  1.
       -5    1    3    3    0  502  0.11307620485E+04 -0.27726883163E+03  0.18924141017E+04  0.22218807434E+04  0.46999998093E+01 0. -1.
</event>
<event>
 5   0  0.1348226E-07  0.3631802E+04  0.7818609E-02  0.8083246E-01
        1   -1    0    0  501    0  0.00000000000E+00  0.00000000000E+00  0.21393368901E+04  0.21393368901E+04  0.50400001928E-02 0. -1.
       -1   -1    0    0    0  501  0.00000000000E+00  0.00000000000E+00 -0.15413641951E+04  0.15413641951E+04  0.50400001928E-02 0.  1.
    10030    2    1    2    0    0  0.00000000000E+00  0.00000000000E+00  0.59797269506E+03  0.36807010852E+04  0.36318024636E+04 0.  0.
        4    1    3    3  502    0 -0.17000630654E+04 -0.50175348078E+03  0.69866228374E+03  0.19052825464E+04  0.12699999809E+01 0.  1.
       -4    1    3    3    0  502  0.17000630654E+04  0.50175348078E+03 -0.10068958868E+03  0.17754185389E+04  0.12699999809E+01 0. -1.
</event>
<event>
 5   0  0.1361743E-07  0.3605530E+04  0.7818609E-02  0.8089226E-01
        1   -1    0    0  501    0  0.00000000000E+00  0.00000000000E+00  0.13727914490E+04  0.13727914490E+04  0.50400001928E-02 0.  1.
       -1   -1    0    0    0  501  0.00000000000E+00  0.00000000000E+00 -0.23674116217E+04  0.23674116217E+04  0.50400001928E-02 0. -1.
    10030    2    1    2    0    0  0.00000000000E+00  0.00000000000E+00 -0.99462017273E+03  0.37402030708E+04  0.36055304357E+04 0.  0.
        5    1    3    3  502    0  0.45061456883E+01 -0.59450677161E+03  0.12681642688E+04  0.14006146185E+04  0.46999998093E+01 0.  1.
       -5    1    3    3    0  502 -0.45061456883E+01  0.59450677161E+03 -0.22627844416E+04  0.23395884522E+04  0.46999998093E+01 0. -1.
</event>
<event>
 5   0  0.4200635E-07  0.3543505E+04  0.7818609E-02  0.8103557E-01
       -2   -1    0    0    0  501  0.00000000000E+00  0.00000000000E+00  0.15773051471E+04  0.15773051471E+04  0.25500000920E-02 0.  1.
        2   -1    0    0  501    0  0.00000000000E+00  0.00000000000E+00 -0.19901709589E+04  0.19901709589E+04  0.25500000920E-02 0. -1.
    10030    2    1    2    0    0  0.00000000000E+00  0.00000000000E+00 -0.41286581173E+03  0.35674761060E+04  0.35435049863E+04 0.  0.
        4    1    3    3  502    0 -0.67645506306E+03  0.82818359266E+03 -0.16286555085E+04  0.19483325932E+04  0.12699999809E+01 0. -1.
       -4    1    3    3    0  502  0.67645506306E+03 -0.82818359266E+03  0.12157896967E+04  0.16191435128E+04  0.12699999809E+01 0.  1.
</event>
<event>
 5   0  0.4120440E-07  0.3629095E+04  0.7818609E-02  0.8083859E-01
       -2   -1    0    0    0  501  0.00000000000E+00  0.00000000000E+00  0.17029807647E+04  0.17029807647E+04  0.25500000920E-02 0.  1.
        2   -1    0    0  501    0  0.00000000000E+00  0.00000000000E+00 -0.19334231986E+04  0.19334231986E+04  0.25500000920E-02 0. -1.
    10030    2    1    2    0    0  0.00000000000E+00  0.00000000000E+00 -0.23044243388E+03  0.36364039633E+04  0.36290949380E+04 0.  0.
        2    1    3    3  502    0 -0.10218325037E+04  0.11465072319E+04  0.85314225857E+03  0.17568358523E+04  0.25500000920E-02 0.  1.
       -2    1    3    3    0  502  0.10218325037E+04 -0.11465072319E+04 -0.10835846925E+04  0.18795681111E+04  0.25500000920E-02 0. -1.
</event>
<event>
 5   0  0.1361743E-07  0.3554789E+04  0.7818609E-02  0.8100927E-01
       -1   -1    0    0    0  501  0.00000000000E+00  0.00000000000E+00  0.16142335604E+04  0.16142335604E+04  0.50400001928E-02 0.  1.
        1   -1    0    0  501    0  0.00000000000E+00  0.00000000000E+00 -0.19570469515E+04  0.19570469515E+04  0.50400001928E-02 0. -1.
    10030    2    1    2    0    0  0.00000000000E+00  0.00000000000E+00 -0.34281339111E+03  0.35712805118E+04  0.35547888085E+04 0.  0.
        5    1    3    3  502    0  0.10920614223E+04 -0.13863641299E+04 -0.38334779590E+03  0.18059848486E+04  0.46999998093E+01 0. -1.
       -5    1    3    3    0  502 -0.10920614223E+04  0.13863641299E+04  0.40534404790E+02  0.17652956632E+04  0.46999998093E+01 0.  1.
</event>
<event>
 5   0  0.1298250E-07  0.3589747E+04  0.7818609E-02  0.8092844E-01
       -1   -1    0    0    0  501  0.00000000000E+00  0.00000000000E+00  0.15610035829E+04  0.15610035830E+04  0.50400001928E-02 0. -1.
        1   -1    0    0  501    0  0.00000000000E+00  0.00000000000E+00 -0.20637820226E+04  0.20637820226E+04  0.50400001928E-02 0.  1.
    10030    2    1    2    0    0  0.00000000000E+00  0.00000000000E+00 -0.50277843969E+03  0.36247856056E+04  0.35897471397E+04 0.  0.
        2    1    3    3  502    0 -0.71627884647E+03  0.12317843837E+04 -0.13534739813E+04  0.19652582456E+04  0.25500000920E-02 0.  1.
       -2    1    3    3    0  502  0.71627884647E+03 -0.12317843837E+04  0.85069554165E+03  0.16595273600E+04  0.25500000920E-02 0. -1.
</event>
<event>
 5   0  0.3880259E-07  0.3631478E+04  0.7818609E-02  0.8083319E-01
        2   -1    0    0  501    0  0.00000000000E+00  0.00000000000E+00  0.25224149429E+04  0.25224149429E+04  0.25500000920E-02 0.  1.
       -2   -1    0    0    0  501  0.00000000000E+00  0.00000000000E+00 -0.13070443944E+04  0.13070443944E+04  0.25500000920E-02 0. -1.
    10030    2    1    2    0    0  0.00000000000E+00  0.00000000000E+00  0.12153705485E+04  0.38294593372E+04  0.36314781075E+04 0.  0.
        5    1    3    3  502    0 -0.42423230221E+03 -0.11136806826E+04 -0.83690001255E+03  0.14562559631E+04  0.46999998093E+01 0. -1.
       -5    1    3    3    0  502  0.42423230221E+03  0.11136806826E+04  0.20522705611E+04  0.23732033741E+04  0.46999998093E+01 0.  1.
</event>
<event>
 5   0  0.1298250E-07  0.3607184E+04  0.7818609E-02  0.8088848E-01
       -1   -1    0    0    0  501  0.00000000000E+00  0.00000000000E+00  0.16528254620E+04  0.16528254620E+04  0.50400001928E-02 0.  1.
        1   -1    0    0  501    0  0.00000000000E+00  0.00000000000E+00 -0.19681108636E+04  0.19681108636E+04  0.50400001928E-02 0. -1.
    10030    2    1    2    0    0  0.00000000000E+00  0.00000000000E+00 -0.31528540162E+03  0.36209363256E+04  0.36071838031E+04 0.  0.
        2    1    3    3  502    0 -0.39763548299E+03  0.22024551001E+03  0.15943830965E+04  0.16579142078E+04  0.25500000920E-02 0.  1.
       -2    1    3    3    0  502  0.39763548299E+03 -0.22024551001E+03 -0.19096684981E+04  0.19630221178E+04  0.25500000920E-02 0. -1.
</event>
<event>
 5   0  0.1370997E-07  0.3604889E+04  0.7818609E-02  0.8089373E-01
        1   -1    0    0  501    0  0.00000000000E+00  0.00000000000E+00  0.16714963726E+04  0.16714963726E+04  0.50400001928E-02 0.  1.
       -1   -1    0    0    0  501  0.00000000000E+00  0.00000000000E+00 -0.19436509339E+04  0.19436509339E+04  0.50400001928E-02 0. -1.
    10030    2    1    2    0    0  0.00000000000E+00  0.00000000000E+00 -0.27215456133E+03  0.36151473065E+04  0.36048886172E+04 0.  0.
        3    1    3    3  502    0  0.15629149738E+04 -0.89720819565E+03 -0.16963462947E+03  0.18100999087E+04  0.10100000352E+00 0.  1.
       -3    1    3    3    0  502 -0.15629149738E+04  0.89720819565E+03 -0.10251993187E+03  0.18050473978E+04  0.10100000352E+00 0. -1.
</event>
<event>
 5   0  0.1298250E-07  0.3424041E+04  0.7818609E-02  0.8132031E-01
        1   -1    0    0  501    0  0.00000000000E+00  0.00000000000E+00  0.22315709669E+04  0.22315709669E+04  0.50400001928E-02 0.  1.
       -1   -1    0    0    0  501  0.00000000000E+00  0.00000000000E+00 -0.13134312059E+04  0.13134312059E+04  0.50400001928E-02 0. -1.
    10030    2    1    2    0    0  0.00000000000E+00  0.00000000000E+00  0.91813976099E+03  0.35450021729E+04  0.34240414403E+04 0.  0.
        1    1    3    3  502    0  0.30402171154E+03  0.15601913122E+04  0.11174505339E+04  0.19430187410E+04  0.50400001928E-02 0.  1.
       -1    1    3    3    0  502 -0.30402171154E+03 -0.15601913122E+04 -0.19931077294E+03  0.16019834319E+04  0.50400001928E-02 0. -1.
</event>
<event>
 5   0  0.3993751E-07  0.3617382E+04  0.7818609E-02  0.8086522E-01
       -2   -1    0    0    0  501  0.00000000000E+00  0.00000000000E+00  0.10762905623E+04  0.10762905623E+04  0.25500000920E-02 0.  1.
        2   -1    0    0  501    0  0.00000000000E+00  0.00000000000E+00 -0.30394790442E+04  0.30394790442E+04  0.25500000920E-02 0. -1.
    10030    2    1    2    0    0  0.00000000000E+00  0.00000000000E+00 -0.19631884820E+04  0.41157696065E+04  0.36173817103E+04 0.  0.
        1    1    3    3  502    0 -0.13358761016E+04 -0.61043861651E+03  0.21937243213E+03  0.14850335105E+04  0.50400001928E-02 0.  1.
       -1    1    3    3    0  502  0.13358761016E+04  0.61043861651E+03 -0.21825609141E+04  0.26307360960E+04  0.50400001928E-02 0. -1.
</event>
<event>
 5   0  0.4115358E-07  0.3593629E+04  0.7818609E-02  0.8091953E-01
        2   -1    0    0  501    0  0.00000000000E+00  0.00000000000E+00  0.30971469132E+04  0.30971469132E+04  0.25500000920E-02 0. -1.
       -2   -1    0    0    0  501  0.00000000000E+00  0.00000000000E+00 -0.10424248739E+04  0.10424248739E+04  0.25500000920E-02 0.  1.
    10030    2    1    2    0    0  0.00000000000E+00  0.00000000000E+00  0.20547220393E+04  0.41395717871E+04  0.35936293523E+04 0.  0.
        3    1    3    3  502    0 -0.74891000282E+02 -0.14318773448E+02  0.30952825219E+04  0.30962215021E+04  0.10100000352E+00 0. -1.
       -3    1    3    3    0  502  0.74891000282E+02  0.14318773448E+02 -0.10405604826E+04  0.10433502851E+04  0.10100000352E+00 0.  1.
</event>
<event>
 5   0  0.3880259E-07  0.3596087E+04  0.7818609E-02  0.8091389E-01
        2   -1    0    0  501    0  0.00000000000E+00  0.00000000000E+00  0.28890179837E+04  0.28890179837E+04  0.25500000920E-02 0.  1.
       -2   -1    0    0    0  501  0.00000000000E+00  0.00000000000E+00 -0.11190514573E+04  0.11190514573E+04  0.25500000920E-02 0. -1.
    10030    2    1    2    0    0  0.00000000000E+00  0.00000000000E+00  0.17699665264E+04  0.40080694410E+04  0.35960866423E+04 0.  0.
        5    1    3    3  502    0 -0.34826676912E+03  0.11461167835E+03  0.28469050486E+04  0.28704208794E+04  0.46999998093E+01 0.  1.
       -5    1    3    3    0  502  0.34826676912E+03 -0.11461167835E+03 -0.10769385221E+04  0.11376485616E+04  0.46999998093E+01 0. -1.
</event>
<event>
 5   0  0.4200635E-07  0.3583952E+04  0.7818609E-02  0.8094177E-01
        2   -1    0    0  501    0  0.00000000000E+00  0.00000000000E+00  0.15568216360E+04  0.15568216360E+04  0.25500000920E-02 0. -1.
       -2   -1    0    0    0  501  0.00000000000E+00  0.00000000000E+00 -0.20626503602E+04  0.20626503602E+04  0.25500000920E-02 0.  1.
    10030    2    1    2    0    0  0.00000000000E+00  0.00000000000E+00 -0.50582872424E+03  0.36194719962E+04  0.35839524039E+04 0.  0.
        4    1    3    3  502    0  0.50318397505E+03 -0.38442492073E+03  0.14400648984E+04  0.15731386324E+04  0.12699999809E+01 0. -1.
       -4    1    3    3    0  502 -0.50318397505E+03  0.38442492073E+03 -0.19458936226E+04  0.20463333638E+04  0.12699999809E+01 0.  1.
</event>
<event>
 5   0  0.3993751E-07  0.3603654E+04  0.7818609E-02  0.8089655E-01
       -2   -1    0    0    0  501  0.00000000000E+00  0.00000000000E+00  0.12716549141E+04  0.12716549141E+04  0.25500000920E-02 0.  1.
        2   -1    0    0  501    0  0.00000000000E+00  0.00000000000E+00 -0.25530356964E+04  0.25530356964E+04  0.25500000920E-02 0. -1.
    10030    2    1    2    0    0  0.00000000000E+00  0.00000000000E+00 -0.12813807823E+04  0.38246906105E+04  0.36036539175E+04 0.  0.
        1    1    3    3  502    0  0.97210759783E+03  0.24711967082E+03  0.94795715556E+03  0.13801029245E+04  0.50400001928E-02 0.  1.
       -1    1    3    3    0  502 -0.97210759783E+03 -0.24711967082E+03 -0.22293379378E+04  0.24445876860E+04  0.50400001928E-02 0. -1.
</event>
<event>
 5   0  0.1298250E-07  0.3605136E+04  0.7818609E-02  0.8089316E-01
       -1   -1    0    0    0  501  0.00000000000E+00  0.00000000000E+00  0.16232182281E+04  0.16232182281E+04  0.50400001928E-02 0.  1.
        1   -1    0    0  501    0  0.00000000000E+00  0.00000000000E+00 -0.20017336761E+04  0.20017336761E+04  0.50400001928E-02 0. -1.
    10030    2    1    2    0    0  0.00000000000E+00  0.00000000000E+00 -0.37851544803E+03  0.36249519043E+04  0.36051355542E+04 0.  0.
        2    1    3    3  502    0  0.12041429429E+04 -0.13019166816E+04 -0.51399318240E+03  0.18463846469E+04  0.25500000920E-02 0.  1.
       -2    1    3    3    0  502 -0.12041429429E+04  0.13019166816E+04  0.13547773437E+03  0.17785672574E+04  0.25500000920E-02 0. -1.
</event>
<event>
 5   0  0.1370997E-07  0.3591079E+04  0.7818609E-02  0.8092538E-01
        1   -1    0    0  501    0  0.00000000000E+00  0.00000000000E+00  0.28456198398E+04  0.28456198398E+04  0.50400001928E-02 0.  1.
       -1   -1    0    0    0  501  0.00000000000E+00  0.00000000000E+00 -0.11329560329E+04  0.11329560330E+04  0.50400001928E-02 0. -1.
    10030    2    1    2    0    0  0.00000000000E+00  0.00000000000E+00  0.17126638068E+04  0.39785758727E+04  0.35910790384E+04 0.  0.
        3    1    3    3  502    0  0.12252402593E+04  0.91552644024E+02  0.23069547933E+04  0.26137398509E+04  0.10100000352E+00 0.  1.
       -3    1    3    3    0  502 -0.12252402593E+04 -0.91552644024E+02 -0.59429098643E+03  0.13648360218E+04  0.10100000352E+00 0. -1.
</event>
<event>
 5   0  0.4115358E-07  0.3631667E+04  0.7818609E-02  0.8083276E-01
        2   -1    0    0  501    0  0.00000000000E+00  0.00000000000E+00  0.24984821266E+04  0.24984821266E+04  0.25500000920E-02 0.  1.
       -2   -1    0    0    0  501  0.00000000000E+00  0.00000000000E+00 -0.13197016454E+04  0.13197016454E+04  0.25500000920E-02 0. -1.
    10030    2    1    2    0    0  0.00000000000E+00  0.00000000000E+00  0.11787804813E+04  0.38181837720E+04  0.36316668203E+04 0.  0.
        3    1    3    3  502    0 -0.11828170509E+04 -0.16761850923E+03 -0.84835887005E+03  0.14652183875E+04  0.10100000352E+00 0. -1.
       -3    1    3    3    0  502  0.11828170509E+04  0.16761850923E+03  0.20271393513E+04  0.23529653844E+04  0.10100000352E+00 0.  1.
</event>
<event>
 5   0  0.4115358E-07  0.3611766E+04  0.7818609E-02  0.8087802E-01
       -2   -1    0    0    0  501  0.00000000000E+00  0.00000000000E+00  0.16287005218E+04  0.16287005218E+04  0.25500000920E-02 0.  1.
        2   -1    0    0  501    0  0.00000000000E+00  0.00000000000E+00 -0.20023403854E+04  0.20023403854E+04  0.25500000920E-02 0. -1.
    10030    2    1    2    0    0  0.00000000000E+00  0.00000000000E+00 -0.37363986365E+03  0.36310409072E+04  0.36117656793E+04 0.  0.
        3    1    3    3  502    0  0.14602088451E+04 -0.76495368894E+03 -0.92821665683E+03  0.18918113515E+04  0.10100000352E+00 0. -1.
       -3    1    3    3    0  502 -0.14602088451E+04  0.76495368894E+03  0.55457679318E+03  0.17392295557E+04  0.10100000352E+00 0.  1.
</event>
<event>
 5   0  0.1298250E-07  0.3596264E+04  0.7818609E-02  0.8091348E-01
        1   -1    0    0  501    0  0.00000000000E+00  0.00000000000E+00  0.12234736881E+04  0.12234736881E+04  0.50400001928E-02 0.  1.
       -1   -1    0    0    0  501  0.00000000000E+00  0.00000000000E+00 -0.26427040226E+04  0.26427040226E+04  0.50400001928E-02 0. -1.
    10030    2    1    2    0    0  0.00000000000E+00  0.00000000000E+00 -0.14192303345E+04  0.38661777107E+04  0.35962640821E+04 0.  0.
        2    1    3    3  502    0  0.17168392761E+04 -0.49436139897E+03 -0.92822029740E+03  0.20133363388E+04  0.25500000920E-02 0.  1.
       -2    1    3    3    0  502 -0.17168392761E+04  0.49436139897E+03 -0.49101003711E+03  0.18528413718E+04  0.25500000920E-02 0. -1.
</event>
<event>
 5   0  0.1298250E-07  0.3570545E+04  0.7818609E-02  0.8097272E-01
       -1   -1    0    0    0  501  0.00000000000E+00  0.00000000000E+00  0.10520860790E+04  0.10520860790E+04  0.50400001928E-02 0.  1.
        1   -1    0    0  501    0  0.00000000000E+00  0.00000000000E+00 -0.30294072837E+04  0.30294072837E+04  0.50400001928E-02 0. -1.
    10030    2    1    2    0    0  0.00000000000E+00  0.00000000000E+00 -0.19773212047E+04  0.40814933627E+04  0.35705446256E+04 0.  0.
        1    1    3    3  502    0 -0.16368723576E+04 -0.67058286605E+03 -0.71297473218E+03  0.19071878419E+04  0.50400001928E-02 0.  1.
       -1    1    3    3    0  502  0.16368723576E+04  0.67058286605E+03 -0.12643464725E+04  0.21743055208E+04  0.50400001928E-02 0. -1.
</event>
<event>
 5   0  0.3880259E-07  0.3609673E+04  0.7818609E-02  0.8088280E-01
        2   -1    0    0  501    0  0.00000000000E+00  0.00000000000E+00  0.24094287651E+04  0.24094287651E+04  0.25500000920E-02 0.  1.
       -2   -1    0    0    0  501  0.00000000000E+00  0.00000000000E+00 -0.13519530669E+04  0.13519530669E+04  0.25500000920E-02 0. -1.
    10030    2    1    2    0    0  0.00000000000E+00  0.00000000000E+00  0.10574756982E+04  0.37613818320E+04  0.36096728984E+04 0.  0.
        5    1    3    3  502    0 -0.78860495188E+03  0.27678403861E+03 -0.11381511654E+04  0.14120613795E+04  0.46999998093E+01 0. -1.
       -5    1    3    3    0  502  0.78860495188E+03 -0.27678403861E+03  0.21956268636E+04  0.23493204524E+04  0.46999998093E+01 0.  1.
</event>
<event>
 5   0  0.1348226E-07  0.3617012E+04  0.7818609E-02  0.8086606E-01
        1   -1    0    0  501    0  0.00000000000E+00  0.00000000000E+00  0.16412710097E+04  0.16412710097E+04  0.50400001928E-02 0.  1.
       -1   -1    0    0    0  501  0.00000000000E+00  0.00000000000E+00 -0.19927807594E+04  0.19927807594E+04  0.50400001928E-02 0. -1.
    10030    2    1    2    0    0  0.00000000000E+00  0.00000000000E+00 -0.35150974967E+03  0.36340517691E+04  0.36170116334E+04 0.  0.
        4    1    3    3  502    0  0.11963405728E+03  0.37008506168E+03 -0.19502625447E+04  0.19886681138E+04  0.12699999809E+01 0. -1.
       -4    1    3    3    0  502 -0.11963405728E+03 -0.37008506168E+03  0.15987527950E+04  0.16453836553E+04  0.12699999809E+01 0.  1.
</event>
<event>
 5   0  0.1298250E-07  0.3490995E+04  0.7818609E-02  0.8115927E-01
       -1   -1    0    0    0  501  0.00000000000E+00  0.00000000000E+00  0.15932710547E+04  0.15932710548E+04  0.50400001928E-02 0.  1.
        1   -1    0    0  501    0  0.00000000000E+00  0.00000000000E+00 -0.19122677805E+04  0.19122677805E+04  0.50400001928E-02 0. -1.
    10030    2    1    2    0    0  0.00000000000E+00  0.00000000000E+00 -0.31899672575E+03  0.35055388353E+04  0.34909946454E+04 0.  0.
        1    1    3    3  502    0  0.10600893537E+04 -0.13283565687E+04  0.24020556606E+03  0.17163971934E+04  0.50400001928E-02 0.  1.
       -1    1    3    3    0  502 -0.10600893537E+04  0.13283565687E+04 -0.55920229181E+03  0.17891416419E+04  0.50400001928E-02 0. -1.
</event>
<event>
 5   0  0.4200635E-07  0.3615762E+04  0.7818609E-02  0.8086891E-01
       -2   -1    0    0    0  501  0.00000000000E+00  0.00000000000E+00  0.11615907273E+04  0.11615907273E+04  0.25500000920E-02 0. -1.
        2   -1    0    0  501    0  0.00000000000E+00  0.00000000000E+00 -0.28137561253E+04  0.28137561253E+04  0.25500000920E-02 0.  1.
    10030    2    1    2    0    0  0.00000000000E+00  0.00000000000E+00 -0.16521653980E+04  0.39753468526E+04  0.36157616205E+04 0.  0.
        4    1    3    3  502    0 -0.11590257328E+04 -0.10512945945E+04  0.16943239712E+03  0.15739345361E+04  0.12699999809E+01 0. -1.
       -4    1    3    3    0  502  0.11590257328E+04  0.10512945945E+04 -0.18215977951E+04  0.24014123165E+04  0.12699999809E+01 0.  1.
</event>
<event>
 5   0  0.1370997E-07  0.3599726E+04  0.7818609E-02  0.8090554E-01
        1   -1    0    0  501    0  0.00000000000E+00  0.00000000000E+00  0.19427998107E+04  0.19427998107E+04  0.50400001928E-02 0. -1.
       -1   -1    0    0    0  501  0.00000000000E+00  0.00000000000E+00 -0.16674427268E+04  0.16674427268E+04  0.50400001928E-02 0.  1.
    10030    2    1    2    0    0  0.00000000000E+00  0.00000000000E+00  0.27535708389E+03  0.36102425375E+04  0.35997263307E+04 0.  0.
        3    1    3    3  502    0  0.10496889398E+04  0.10372210570E+04  0.11711417163E+04  0.18839446173E+04  0.10100000352E+00 0. -1.
       -3    1    3    3    0  502 -0.10496889398E+04 -0.10372210570E+04 -0.89578463238E+03  0.17262979202E+04  0.10100000352E+00 0.  1.
</event>
<event>
 5   0  0.1298250E-07  0.3598402E+04  0.7818609E-02  0.8090858E-01
        1   -1    0    0  501    0  0.00000000000E+00  0.00000000000E+00  0.27043866275E+04  0.27043866275E+04  0.50400001928E-02 0.  1.
       -1   -1    0    0    0  501  0.00000000000E+00  0.00000000000E+00 -0.11969901456E+04  0.11969901456E+04  0.50400001928E-02 0. -1.
    10030    2    1    2    0    0  0.00000000000E+00  0.00000000000E+00  0.15073964819E+04  0.39013767732E+04  0.35984019471E+04 0.  0.
        1    1    3    3  502    0  0.14472785637E+04 -0.92401275900E+03  0.13362555098E+04  0.21757742546E+04  0.50400001928E-02 0.  1.
       -1    1    3    3    0  502 -0.14472785637E+04  0.92401275900E+03  0.17114097206E+03  0.17256025185E+04  0.50400001928E-02 0. -1.
</event>
<event>
 5   0  0.1298250E-07  0.3607643E+04  0.7818609E-02  0.8088743E-01
        1   -1    0    0  501    0  0.00000000000E+00  0.00000000000E+00  0.16995166169E+04  0.16995166169E+04  0.50400001928E-02 0. -1.
       -1   -1    0    0    0  501  0.00000000000E+00  0.00000000000E+00 -0.19145281148E+04  0.19145281148E+04  0.50400001928E-02 0.  1.
    10030    2    1    2    0    0  0.00000000000E+00  0.00000000000E+00 -0.21501149798E+03  0.36140447317E+04  0.36076431889E+04 0.  0.
        1    1    3    3  502    0 -0.92721941192E+02  0.10837118944E+03 -0.19088707601E+04  0.19141915401E+04  0.50400001928E-02 0.  1.
       -1    1    3    3    0  502  0.92721941192E+02 -0.10837118944E+03  0.16938592622E+04  0.16998531916E+04  0.50400001928E-02 0. -1.
</event>
<event>
 5   0  0.1361743E-07  0.3438122E+04  0.7818609E-02  0.8128613E-01
       -1   -1    0    0    0  501  0.00000000000E+00  0.00000000000E+00  0.16151918946E+04  0.16151918946E+04  0.50400001928E-02 0.  1.
        1   -1    0    0  501    0  0.00000000000E+00  0.00000000000E+00 -0.18296101742E+04  0.18296101742E+04  0.50400001928E-02 0. -1.
    10030    2    1    2    0    0  0.00000000000E+00  0.00000000000E+00 -0.21441827957E+03  0.34448020688E+04  0.34381224665E+04 0.  0.
        5    1    3    3  502    0 -0.43414949154E+03 -0.13264231239E+04 -0.11127850900E+04  0.17849921096E+04  0.46999998093E+01 0. -1.
       -5    1    3    3    0  502  0.43414949154E+03  0.13264231239E+04  0.89836681044E+03  0.16598099592E+04  0.46999998093E+01 0.  1.
</event>
<event>
 5   0  0.1361743E-07  0.3589240E+04  0.7818609E-02  0.8092961E-01
       -1   -1    0    0    0  501  0.00000000000E+00  0.00000000000E+00  0.18192513326E+04  0.18192513326E+04  0.50400001928E-02 0. -1.
        1   -1    0    0  501    0  0.00000000000E+00  0.00000000000E+00 -0.17703225264E+04  0.17703225264E+04  0.50400001928E-02 0.  1.
    10030    2    1    2    0    0  0.00000000000E+00  0.00000000000E+00  0.48928806209E+02  0.35895738590E+04  0.35892403739E+04 0.  0.
        5    1    3    3  502    0 -0.14398426239E+04  0.10639693712E+04  0.14882192955E+03  0.17964820236E+04  0.46999998093E+01 0. -1.
       -5    1    3    3    0  502  0.14398426239E+04 -0.10639693712E+04 -0.99893123341E+02  0.17930918355E+04  0.46999998093E+01 0.  1.
</event>
<event>
 5   0  0.1298250E-07  0.3572233E+04  0.7818609E-02  0.8096882E-01
        1   -1    0    0  501    0  0.00000000000E+00  0.00000000000E+00  0.28182106346E+04  0.28182106346E+04  0.50400001928E-02 0.  1.
       -1   -1    0    0    0  501  0.00000000000E+00  0.00000000000E+00 -0.11319994089E+04  0.11319994089E+04  0.50400001928E-02 0. -1.
    10030    2    1    2    0    0  0.00000000000E+00  0.00000000000E+00  0.16862112257E+04  0.39502100435E+04  0.35722333477E+04 0.  0.
        2    1    3    3  502    0  0.10644448834E+04  0.48848075938E+03 -0.64812138257E+03  0.13385505925E+04  0.25500000920E-02 0. -1.
       -2    1    3    3    0  502 -0.10644448834E+04 -0.48848075938E+03  0.23343326083E+04  0.26116594510E+04  0.25500000920E-02 0.  1.
</event>
<event>
 5   0  0.1298250E-07  0.3603947E+04  0.7818609E-02  0.8089588E-01
        1   -1    0    0  501    0  0.00000000000E+00  0.00000000000E+00  0.21168044467E+04  0.21168044467E+04  0.50400001928E-02 0.  1.
       -1   -1    0    0    0  501  0.00000000000E+00  0.00000000000E+00 -0.15339673458E+04  0.15339673458E+04  0.50400001928E-02 0. -1.
    10030    2    1    2    0    0  0.00000000000E+00  0.00000000000E+00  0.58283710092E+03  0.36507717925E+04  0.36039472242E+04 0.  0.
        2    1    3    3  502    0 -0.56729376655E+02 -0.15859627315E+04 -0.57326000626E+03  0.16873420053E+04  0.25500000920E-02 0. -1.
       -2    1    3    3    0  502  0.56729376655E+02  0.15859627315E+04  0.11560971072E+04  0.19634297872E+04  0.25500000920E-02 0.  1.
</event>
<event>
 5   0  0.1298250E-07  0.3633093E+04  0.7818609E-02  0.8082953E-01
        1   -1    0    0  501    0  0.00000000000E+00  0.00000000000E+00  0.15237620655E+04  0.15237620655E+04  0.50400001928E-02 0.  1.
       -1   -1    0    0    0  501  0.00000000000E+00  0.00000000000E+00 -0.21655881091E+04  0.21655881091E+04  0.50400001928E-02 0. -1.
    10030    2    1    2    0    0  0.00000000000E+00  0.00000000000E+00 -0.64182604365E+03  0.36893501746E+04  0.36330929028E+04 0.  0.
        2    1    3    3  502    0 -0.17099706119E+04 -0.55811683749E+03 -0.63317738939E+02  0.17998619486E+04  0.25500000920E-02 0. -1.
       -2    1    3    3    0  502  0.17099706119E+04  0.55811683749E+03 -0.57850830471E+03  0.18894882261E+04  0.25500000920E-02 0.  1.
</event>
<event>
 5   0  0.3880259E-07  0.3621276E+04  0.7818609E-02  0.8085636E-01
       -2   -1    0    0    0  501  0.00000000000E+00  0.00000000000E+00  0.15951747226E+04  0.15951747226E+04  0.25500000920E-02 0.  1.
        2   -1    0    0  501    0  0.00000000000E+00  0.00000000000E+00 -0.20552038706E+04  0.20552038706E+04  0.25500000920E-02 0. -1.
    10030    2    1    2    0    0  0.00000000000E+00  0.00000000000E+00 -0.46002914806E+03  0.36503785932E+04  0.36212756118E+04 0.  0.
        5    1    3    3  502    0 -0.12123151954E+04  0.97086414394E+03 -0.11681397986E+04  0.19434140058E+04  0.46999998093E+01 0.  1.
       -5    1    3    3    0  502  0.12123151954E+04 -0.97086414394E+03  0.70811065055E+03  0.17069645873E+04  0.46999998093E+01 0. -1.
</event>
<event>
 5   0  0.1298250E-07  0.3590712E+04  0.7818609E-02  0.8092623E-01
        1   -1    0    0  501    0  0.00000000000E+00  0.00000000000E+00  0.16947006410E+04  0.16947006410E+04  0.50400001928E-02 0.  1.
       -1   -1    0    0    0  501  0.00000000000E+00  0.00000000000E+00 -0.19019894776E+04  0.19019894776E+04  0.50400001928E-02 0. -1.
    10030    2    1    2    0    0  0.00000000000E+00  0.00000000000E+00 -0.20728883663E+03  0.35966901187E+04  0.35907117885E+04 0.  0.
        1    1    3    3  502    0 -0.14055650669E+04 -0.13266424920E+03  0.10072963071E+04  0.17343179669E+04  0.50400001928E-02 0.  1.
       -1    1    3    3    0  502  0.14055650669E+04  0.13266424920E+03 -0.12145851437E+04  0.18623721517E+04  0.50400001928E-02 0. -1.
</event>
<event>
 5   0  0.4115358E-07  0.3626745E+04  0.7818609E-02  0.8084393E-01
        2   -1    0    0  501    0  0.00000000000E+00  0.00000000000E+00  0.23870316713E+04  0.23870316713E+04  0.25500000920E-02 0. -1.
       -2   -1    0    0    0  501  0.00000000000E+00  0.00000000000E+00 -0.13775771875E+04  0.13775771875E+04  0.25500000920E-02 0.  1.
    10030    2    1    2    0    0  0.00000000000E+00  0.00000000000E+00  0.10094544838E+04  0.37646088588E+04  0.36267453047E+04 0.  0.
        3    1    3    3  502    0  0.10151977509E+04  0.14694804933E+04  0.83020842425E+03  0.19695800140E+04  0.10100000352E+00 0. -1.
       -3    1    3    3    0  502 -0.10151977509E+04 -0.14694804933E+04  0.17924605952E+03  0.17950288448E+04  0.10100000352E+00 0.  1.
</event>
<event>
 5   0  0.1348226E-07  0.3697939E+04  0.7818609E-02  0.8068419E-01
        1   -1    0    0  501    0  0.00000000000E+00  0.00000000000E+00  0.15346890324E+04  0.15346890324E+04  0.50400001928E-02 0.  1.
       -1   -1    0    0    0  501  0.00000000000E+00  0.00000000000E+00 -0.22276096101E+04  0.22276096101E+04  0.50400001928E-02 0. -1.
    10030    2    1    2    0    0  0.00000000000E+00  0.00000000000E+00 -0.69292057766E+03  0.37622986425E+04  0.36979389055E+04 0.  0.
        4    1    3    3  502    0  0.80347071867E+03  0.85961546058E+03  0.11046101331E+04  0.16138987251E+04  0.12699999809E+01 0.  1.
       -4    1    3    3    0  502 -0.80347071867E+03 -0.85961546058E+03 -0.17975307108E+04  0.21483999174E+04  0.12699999809E+01 0. -1.
</event>
<event>
 5   0  0.4200635E-07  0.3608130E+04  0.7818609E-02  0.8088632E-01
        2   -1    0    0  501    0  0.00000000000E+00  0.00000000000E+00  0.21913352309E+04  0.21913352309E+04  0.25500000920E-02 0.  1.
       -2   -1    0    0    0  501  0.00000000000E+00  0.00000000000E+00 -0.14852363935E+04  0.14852363935E+04  0.25500000920E-02 0. -1.
    10030    2    1    2    0    0  0.00000000000E+00  0.00000000000E+00  0.70609883735E+03  0.36765716244E+04  0.36081301724E+04 0.  0.
        4    1    3    3  502    0 -0.12892504158E+04  0.11207785276E+04 -0.23789801882E+03  0.17247922260E+04  0.12699999809E+01 0. -1.
       -4    1    3    3    0  502  0.12892504158E+04 -0.11207785276E+04  0.94399685617E+03  0.19517793984E+04  0.12699999809E+01 0.  1.
</event>
<event>
 5   0  0.3993751E-07  0.3590090E+04  0.7818609E-02  0.8092766E-01
        2   -1    0    0  501    0  0.00000000000E+00  0.00000000000E+00  0.23471473257E+04  0.23471473258E+04  0.25500000920E-02 0. -1.
       -2   -1    0    0    0  501  0.00000000000E+00  0.00000000000E+00 -0.13728095122E+04  0.13728095122E+04  0.25500000920E-02 0.  1.
    10030    2    1    2    0    0  0.00000000000E+00  0.00000000000E+00  0.97433781359E+03  0.37199568379E+04  0.35900897901E+04 0.  0.
        1    1    3    3  502    0  0.15953856274E+04 -0.64586999979E+03  0.10152952153E+04  0.19983062155E+04  0.50400001928E-02 0. -1.
       -1    1    3    3    0  502 -0.15953856274E+04  0.64586999979E+03 -0.40957401709E+02  0.17216506224E+04  0.50400001928E-02 0.  1.
</event>
<event>
 5   0  0.1370997E-07  0.3616330E+04  0.7818609E-02  0.8086761E-01
        1   -1    0    0  501    0  0.00000000000E+00  0.00000000000E+00  0.13986263822E+04  0.13986263822E+04  0.50400001928E-02 0.  1.
       -1   -1    0    0    0  501  0.00000000000E+00  0.00000000000E+00 -0.23376231226E+04  0.23376231226E+04  0.50400001928E-02 0. -1.
    10030    2    1    2    0    0  0.00000000000E+00  0.00000000000E+00 -0.93899674041E+03  0.37362495048E+04  0.36163303892E+04 0.  0.
        3    1    3    3  502    0 -0.17376985527E+03 -0.66350841608E+03  0.12590077596E+04  0.14337154284E+04  0.10100000352E+00 0.  1.
       -3    1    3    3    0  502  0.17376985527E+03  0.66350841608E+03 -0.21980045000E+04  0.23025340764E+04  0.10100000352E+00 0. -1.
</event>
<event>
 5   0  0.4115358E-07  0.3588035E+04  0.7818609E-02  0.8093238E-01
        2   -1    0    0  501    0  0.00000000000E+00  0.00000000000E+00  0.27480752867E+04  0.27480752867E+04  0.25500000920E-02 0.  1.
       -2   -1    0    0    0  501  0.00000000000E+00  0.00000000000E+00 -0.11711827376E+04  0.11711827377E+04  0.25500000920E-02 0. -1.
    10030    2    1    2    0    0  0.00000000000E+00  0.00000000000E+00  0.15768925490E+04  0.39192580243E+04  0.35880347476E+04 0.  0.
        3    1    3    3  502    0 -0.10451561330E+04  0.27961547109E+03  0.23516233644E+04  0.25885649716E+04  0.10100000352E+00 0.  1.
       -3    1    3    3    0  502  0.10451561330E+04 -0.27961547109E+03 -0.77473081539E+03  0.13306930527E+04  0.10100000352E+00 0. -1.
</event>
<event>
 5   0  0.1348226E-07  0.3607301E+04  0.7818609E-02  0.8088821E-01
       -1   -1    0    0    0  501  0.00000000000E+00  0.00000000000E+00  0.23129385542E+04  0.23129385542E+04  0.50400001928E-02 0. -1.
        1   -1    0    0  501    0  0.00000000000E+00  0.00000000000E+00 -0.14065030286E+04  0.14065030286E+04  0.50400001928E-02 0.  1.
    10030    2    1    2    0    0  0.00000000000E+00  0.00000000000E+00  0.90643552563E+03  0.37194415828E+04  0.36073009753E+04 0.  0.
        4    1    3    3  502    0 -0.69786678958E+02  0.17628535326E+04  0.83988328481E+03  0.19539519705E+04  0.12699999809E+01 0. -1.
       -4    1    3    3    0  502  0.69786678958E+02 -0.17628535326E+04  0.66552240813E+02  0.17654896124E+04  0.12699999809E+01 0.  1.
</event>
<event>
 5   0  0.4120440E-07  0.3574251E+04  0.7818609E-02  0.8096415E-01
        2   -1    0    0  501    0  0.00000000000E+00  0.00000000000E+00  0.17371690992E+04  0.17371690992E+04  0.25500000920E-02 0. -1.
       -2   -1    0    0    0  501  0.00000000000E+00  0.00000000000E+00 -0.18385188454E+04  0.18385188454E+04  0.25500000920E-02 0.  1.
    10030    2    1    2    0    0  0.00000000000E+00  0.00000000000E+00 -0.10134974619E+03  0.35756879446E+04  0.35742513211E+04 0.  0.
        2    1    3    3  502    0 -0.61027470445E+03  0.64221718583E+03  0.15020249919E+04  0.17438340532E+04  0.25500000920E-02 0. -1.
       -2    1    3    3    0  502  0.61027470445E+03 -0.64221718583E+03 -0.16033747381E+04  0.18318538914E+04  0.25500000920E-02 0.  1.
</event>
<event>
 5   0  0.1348226E-07  0.3607635E+04  0.7818609E-02  0.8088745E-01
       -1   -1    0    0    0  501  0.00000000000E+00  0.00000000000E+00  0.17416914267E+04  0.17416914268E+04  0.50400001928E-02 0. -1.
        1   -1    0    0  501    0  0.00000000000E+00  0.00000000000E+00 -0.18681591945E+04  0.18681591945E+04  0.50400001928E-02 0.  1.
    10030    2    1    2    0    0  0.00000000000E+00  0.00000000000E+00 -0.12646776775E+03  0.36098506213E+04  0.36076346006E+04 0.  0.
        4    1    3    3  502    0  0.11182741542E+04 -0.91705392692E+03 -0.11419639287E+04  0.18427176170E+04  0.12699999809E+01 0.  1.
       -4    1    3    3    0  502 -0.11182741542E+04  0.91705392692E+03  0.10154961609E+04  0.17671330042E+04  0.12699999809E+01 0. -1.
</event>
<event>
 5   0  0.1348226E-07  0.3588518E+04  0.7818609E-02  0.8093127E-01
        1   -1    0    0  501    0  0.00000000000E+00  0.00000000000E+00  0.10941765680E+04  0.10941765680E+04  0.50400001928E-02 0. -1.
       -1   -1    0    0    0  501  0.00000000000E+00  0.00000000000E+00 -0.29422726916E+04  0.29422726916E+04  0.50400001928E-02 0.  1.
    10030    2    1    2    0    0  0.00000000000E+00  0.00000000000E+00 -0.18480961236E+04  0.40364492596E+04  0.35885182657E+04 0.  0.
        4    1    3    3  502    0  0.43751239992E+03  0.47746019891E+03 -0.28062304885E+04  0.28799855050E+04  0.12699999809E+01 0.  1.
       -4    1    3    3    0  502 -0.43751239992E+03 -0.47746019891E+03  0.95813436487E+03  0.11564637546E+04  0.12699999809E+01 0. -1.
</event>
<event>
 5   0  0.1298250E-07  0.3597048E+04  0.7818609E-02  0.8091168E-01
        1   -1    0    0  501    0  0.00000000000E+00  0.00000000000E+00  0.11631230866E+04  0.11631230867E+04  0.50400001928E-02 0. -1.
       -1   -1    0    0    0  501  0.00000000000E+00  0.00000000000E+00 -0.27810373863E+04  0.27810373863E+04  0.50400001928E-02 0.  1.
    10030    2    1    2    0    0  0.00000000000E+00  0.00000000000E+00 -0.16179142997E+04  0.39441604730E+04  0.35970481169E+04 0.  0.
        2    1    3    3  502    0 -0.10086095482E+04 -0.63783372748E+03 -0.22843756818E+04  0.25773042778E+04  0.25500000920E-02 0.  1.
       -2    1    3    3    0  502  0.10086095482E+04  0.63783372748E+03  0.66646138211E+03  0.13668561952E+04  0.25500000920E-02 0. -1.
</event>
<event>
 5   0  0.4120440E-07  0.3598835E+04  0.7818609E-02  0.8090759E-01
       -2   -1    0    0    0  501  0.00000000000E+00  0.00000000000E+00  0.20740573511E+04  0.20740573511E+04  0.25500000920E-02 0.  1.
        2   -1    0    0  501    0  0.00000000000E+00  0.00000000000E+00 -0.15611444624E+04  0.15611444624E+04  0.25500000920E-02 0. -1.
    10030    2    1    2    0    0  0.00000000000E+00  0.00000000000E+00  0.51291288865E+03  0.36352018135E+04  0.35988348939E+04 0.  0.
        2    1    3    3  502    0 -0.15436178327E+04 -0.73609187446E+03 -0.30894617002E+03  0.17378247889E+04  0.25500000920E-02 0.  1.
       -2    1    3    3    0  502  0.15436178327E+04  0.73609187446E+03  0.82185905866E+03  0.18973770245E+04  0.25500000920E-02 0. -1.
</event>
<event>
 5   0  0.3993751E-07  0.3559664E+04  0.7818609E-02  0.8099794E-01
       -2   -1    0    0    0  501  0.00000000000E+00  0.00000000000E+00  0.20590687156E+04  0.20590687156E+04  0.25500000920E-02 0. -1.
        2   -1    0    0  501    0  0.00000000000E+00  0.00000000000E+00 -0.15384636626E+04  0.15384636626E+04  0.25500000920E-02 0.  1.
    10030    2    1    2    0    0  0.00000000000E+00  0.00000000000E+00  0.52060505299E+03  0.35975323783E+04  0.35596642526E+04 0.  0.
        1    1    3    3  502    0 -0.18157146960E+03 -0.71311884789E+03  0.18981274891E+04  0.20357786359E+04  0.50400001928E-02 0. -1.
       -1    1    3    3    0  502  0.18157146960E+03  0.71311884789E+03 -0.13775224361E+04  0.15617537423E+04  0.50400001928E-02 0.  1.
</event>
<event>
 5   0  0.3880259E-07  0.3580038E+04  0.7818609E-02  0.8095079E-01
       -2   -1    0    0    0  501  0.00000000000E+00  0.00000000000E+00  0.12271929438E+04  0.12271929438E+04  0.25500000920E-02 0.  1.
        2   -1    0    0  501    0  0.00000000000E+00  0.00000000000E+00 -0.26109738564E+04  0.26109738564E+04  0.25500000920E-02 0. -1.
    10030    2    1    2    0    0  0.00000000000E+00  0.00000000000E+00 -0.13837809126E+04  0.38381668002E+04  0.35800383758E+04 0.  0.
        5    1    3    3  502    0  0.31364475178E+03  0.17559039552E+04 -0.53080778722E+03  0.18610079869E+04  0.46999998093E+01 0. -1.
       -5    1    3    3    0  502 -0.31364475178E+03 -0.17559039552E+04 -0.85297312542E+03  0.19771588133E+04  0.46999998093E+01 0.  1.
</event>
<event>
 5   0  0.3993751E-07  0.3608659E+04  0.7818609E-02  0.8088511E-01
       -2   -1    0    0    0  501  0.00000000000E+00  0.00000000000E+00  0.17435369965E+04  0.17435369965E+04  0.25500000920E-02 0. -1.
        2   -1    0    0  501    0  0.00000000000E+00  0.00000000000E+00 -0.18672417724E+04  0.18672417724E+04  0.25500000920E-02 0.  1.
    10030    2    1    2    0    0  0.00000000000E+00  0.00000000000E+00 -0.12370477589E+03  0.36107787688E+04  0.36086590925E+04 0.  0.
        1    1    3    3  502    0 -0.25080176439E+02 -0.15883513297E+04  0.79428806307E+03  0.17760581322E+04  0.50400001928E-02 0. -1.
       -1    1    3    3    0  502  0.25080176439E+02  0.15883513297E+04 -0.91799283896E+03  0.18347206366E+04  0.50400001928E-02 0.  1.
</event>
<event>
 5   0  0.1298250E-07  0.3625410E+04  0.7818609E-02  0.8084696E-01
        1   -1    0    0  501    0  0.00000000000E+00  0.00000000000E+00  0.22455280646E+04  0.22455280646E+04  0.50400001928E-02 0. -1.
       -1   -1    0    0    0  501  0.00000000000E+00  0.00000000000E+00 -0.14633077174E+04  0.14633077174E+04  0.50400001928E-02 0.  1.
    10030    2    1    2    0    0  0.00000000000E+00  0.00000000000E+00  0.78222034724E+03  0.37088357820E+04  0.36254095198E+04 0.  0.
        1    1    3    3  502    0 -0.14542281077E+04 -0.91186279881E+03 -0.20507423031E+03  0.17286782792E+04  0.50400001928E-02 0. -1.
       -1    1    3    3    0  502  0.14542281077E+04  0.91186279881E+03  0.98729457755E+03  0.19801575028E+04  0.50400001928E-02 0.  1.
</event>
<event>
 5   0  0.3880259E-07  0.3585050E+04  0.7818609E-02  0.8093925E-01
        2   -1    0    0  501    0  0.00000000000E+00  0.00000000000E+00  0.20351573388E+04  0.20351573388E+04  0.25500000920E-02 0.  1.
       -2   -1    0    0    0  501  0.00000000000E+00  0.00000000000E+00 -0.15788189693E+04  0.15788189693E+04  0.25500000920E-02 0. -1.
    10030    2    1    2    0    0  0.00000000000E+00  0.00000000000E+00  0.45633836958E+03  0.36139763081E+04  0.35850495182E+04 0.  0.
        5    1    3    3  502    0 -0.17483246905E+04 -0.39020560261E+03  0.16265800802E+03  0.17987160291E+04  0.46999998093E+01 0.  1.
       -5    1    3    3    0  502  0.17483246905E+04  0.39020560261E+03  0.29368036156E+03  0.18152602790E+04  0.46999998093E+01 0. -1.
</event>
<event>
 5   0  0.4200635E-07  0.3614197E+04  0.7818609E-02  0.8087247E-01
       -2   -1    0    0    0  501  0.00000000000E+00  0.00000000000E+00  0.15098767525E+04  0.15098767525E+04  0.25500000920E-02 0.  1.
        2   -1    0    0  501    0  0.00000000000E+00  0.00000000000E+00 -0.21628287505E+04  0.21628287505E+04  0.25500000920E-02 0. -1.
    10030    2    1    2    0    0  0.00000000000E+00  0.00000000000E+00 -0.65295199797E+03  0.36727055029E+04  0.36141969232E+04 0.  0.
        4    1    3    3  502    0 -0.48706476734E+03  0.15614418863E+04  0.45425206565E+03  0.16975510018E+04  0.12699999809E+01 0.  1.
       -4    1    3    3    0  502  0.48706476734E+03 -0.15614418863E+04 -0.11072040636E+04  0.19751545011E+04  0.12699999809E+01 0. -1.
</event>
<event>
 5   0  0.4200635E-07  0.3624301E+04  0.7818609E-02  0.8084948E-01
       -2   -1    0    0    0  501  0.00000000000E+00  0.00000000000E+00  0.27843699226E+04  0.27843699226E+04  0.25500000920E-02 0.  1.
        2   -1    0    0  501    0  0.00000000000E+00  0.00000000000E+00 -0.11794009782E+04  0.11794009782E+04  0.25500000920E-02 0. -1.
    10030    2    1    2    0    0  0.00000000000E+00  0.00000000000E+00  0.16049689445E+04  0.39637709008E+04  0.36243005451E+04 0.  0.
        4    1    3    3  502    0  0.26385319756E+03  0.31407941447E+03 -0.11279575555E+04  0.12002309146E+04  0.12699999809E+01 0. -1.
       -4    1    3    3    0  502 -0.26385319756E+03 -0.31407941447E+03  0.27329264999E+04  0.27635399862E+04  0.12699999809E+01 0.  1.
</event>
<event>
 5   0  0.1298250E-07  0.3604739E+04  0.7818609E-02  0.8089407E-01
        1   -1    0    0  501    0  0.00000000000E+00  0.00000000000E+00  0.17102215004E+04  0.17102215004E+04  0.50400001928E-02 0. -1.
       -1   -1    0    0    0  501  0.00000000000E+00  0.00000000000E+00 -0.18994829462E+04  0.18994829462E+04  0.50400001928E-02 0.  1.
    10030    2    1    2    0    0  0.00000000000E+00  0.00000000000E+00 -0.18926144580E+03  0.36097044467E+04  0.36047394216E+04 0.  0.
        2    1    3    3  502    0 -0.61251616120E+03  0.14898149809E+04 -0.90433076532E+03  0.18473058378E+04  0.25500000920E-02 0. -1.
       -2    1    3    3    0  502  0.61251616120E+03 -0.14898149809E+04  0.71506931952E+03  0.17623986089E+04  0.25500000920E-02 0.  1.
</event>
<event>
 5   0  0.1370997E-07  0.3587934E+04  0.7818609E-02  0.8093261E-01
       -1   -1    0    0    0  501  0.00000000000E+00  0.00000000000E+00  0.27206112023E+04  0.27206112023E+04  0.50400001928E-02 0.  1.
        1   -1    0    0  501    0  0.00000000000E+00  0.00000000000E+00 -0.11829394459E+04  0.11829394459E+04  0.50400001928E-02 0. -1.
    10030    2    1    2    0    0  0.00000000000E+00  0.00000000000E+00  0.15376717564E+04  0.39035506481E+04  0.35879343963E+04 0.  0.
        3    1    3    3  502    0  0.89056854814E+03  0.12449363137E+04  0.17867323212E+04  0.23527412017E+04  0.10100000352E+00 0.  1.
       -3    1    3    3    0  502 -0.89056854814E+03 -0.12449363137E+04 -0.24906056481E+03  0.15508094465E+04  0.10100000352E+00 0. -1.
</event>
<event>
 5   0  0.1361743E-07  0.3550457E+04  0.7818609E-02  0.8101935E-01
       -1   -1    0    0    0  501  0.00000000000E+00  0.00000000000E+00  0.15400251139E+04  0.15400251139E+04  0.50400001928E-02 0.  1.
        1   -1    0    0  501    0  0.00000000000E+00  0.00000000000E+00 -0.20463541671E+04  0.20463541671E+04  0.50400001928E-02 0. -1.
    10030    2    1    2    0    0  0.00000000000E+00  0.00000000000E+00 -0.50632905321E+03  0.35863792809E+04  0.35504573278E+04 0.  0.
        5    1    3    3  502    0 -0.62316497356E+03 -0.16558474239E+04 -0.10591778172E+03  0.17724011797E+04  0.46999998093E+01 0.  1.
       -5    1    3    3    0  502  0.62316497356E+03  0.16558474239E+04 -0.40041127149E+03  0.18139781012E+04  0.46999998093E+01 0. -1.
</event>
<event>
 5   0  0.4200635E-07  0.3596106E+04  0.7818609E-02  0.8091384E-01
        2   -1    0    0  501    0  0.00000000000E+00  0.00000000000E+00  0.21551295054E+04  0.21551295054E+04  0.25500000920E-02 0.  1.
       -2   -1    0    0    0  501  0.00000000000E+00  0.00000000000E+00 -0.15001389700E+04  0.15001389700E+04  0.25500000920E-02 0. -1.
    10030    2    1    2    0    0  0.00000000000E+00  0.00000000000E+00  0.65499053540E+03  0.36552684755E+04  0.35961055360E+04 0.  0.
        4    1    3    3  502    0 -0.11919654927E+04  0.10209794464E+04 -0.56432844400E+03  0.16678276204E+04  0.12699999809E+01 0. -1.
       -4    1    3    3    0  502  0.11919654927E+04 -0.10209794464E+04  0.12193189794E+04  0.19874408550E+04  0.12699999809E+01 0.  1.
</event>
<event>
 5   0  0.3880259E-07  0.3609555E+04  0.7818609E-02  0.8088306E-01
       -2   -1    0    0    0  501  0.00000000000E+00  0.00000000000E+00  0.14780812661E+04  0.14780812661E+04  0.25500000920E-02 0. -1.
        2   -1    0    0  501    0  0.00000000000E+00  0.00000000000E+00 -0.22036826831E+04  0.22036826831E+04  0.25500000920E-02 0.  1.
    10030    2    1    2    0    0  0.00000000000E+00  0.00000000000E+00 -0.72560141695E+03  0.36817639492E+04  0.36095551473E+04 0.  0.
        5    1    3    3  502    0  0.13932936003E+04 -0.10904344536E+04  0.53535569633E+00  0.17692757645E+04  0.46999998093E+01 0. -1.
       -5    1    3    3    0  502 -0.13932936003E+04  0.10904344536E+04 -0.72613677264E+03  0.19124881847E+04  0.46999998093E+01 0.  1.
</event>
<event>
 5   0  0.3993751E-07  0.3637019E+04  0.7818609E-02  0.8082064E-01
        2   -1    0    0  501    0  0.00000000000E+00  0.00000000000E+00  0.19539399262E+04  0.19539399262E+04  0.25500000920E-02 0.  1.
       -2   -1    0    0    0  501  0.00000000000E+00  0.00000000000E+00 -0.16924656061E+04  0.16924656061E+04  0.25500000920E-02 0. -1.
    10030    2    1    2    0    0  0.00000000000E+00  0.00000000000E+00  0.26147432009E+03  0.36464055323E+04  0.36370186260E+04 0.  0.
        1    1    3    3  502    0  0.63717543505E+03 -0.72776238129E+03 -0.14131546344E+04  0.17124942743E+04  0.50400001928E-02 0. -1.
       -1    1    3    3    0  502 -0.63717543505E+03  0.72776238129E+03  0.16746289545E+04  0.19339112580E+04  0.50400001928E-02 0.  1.
</event>
<event>
 5   0  0.3993751E-07  0.3578619E+04  0.7818609E-02  0.8095407E-01
        2   -1    0    0  501    0  0.00000000000E+00  0.00000000000E+00  0.18032460481E+04  0.18032460481E+04  0.25500000920E-02 0. -1.
       -2   -1    0    0    0  501  0.00000000000E+00  0.00000000000E+00 -0.17754810505E+04  0.17754810505E+04  0.25500000920E-02 0.  1.
    10030    2    1    2    0    0  0.00000000000E+00  0.00000000000E+00  0.27764997550E+02  0.35787270986E+04  0.35786193918E+04 0.  0.
        1    1    3    3  502    0 -0.85413942813E+03  0.45810978196E+01 -0.15584415280E+04  0.17771649179E+04  0.50400001928E-02 0.  1.
       -1    1    3    3    0  502  0.85413942813E+03 -0.45810978196E+01  0.15862065256E+04  0.18015621807E+04  0.50400001928E-02 0. -1.
</event>
<event>
 5   0  0.1298250E-07  0.3598664E+04  0.7818609E-02  0.8090798E-01
        3   -1    0    0  501    0  0.00000000000E+00  0.00000000000E+00  0.15043458512E+04  0.15043458546E+04  0.10100000352E+00 0.  1.
       -3   -1    0    0    0  501  0.00000000000E+00  0.00000000000E+00 -0.21521614375E+04  0.21521614399E+04  0.10100000352E+00 0. -1.
    10030    2    1    2    0    0  0.00000000000E+00  0.00000000000E+00 -0.64781558628E+03  0.36565072945E+04  0.35986637187E+04 0.  0.
        3    1    3    3  502    0  0.12934360777E+02  0.83181823514E+03 -0.19450169656E+04  0.21154620963E+04  0.10100000352E+00 0. -1.
       -3    1    3    3    0  502 -0.12934360777E+02 -0.83181823514E+03  0.12972013794E+04  0.15410451982E+04  0.10100000352E+00 0.  1.
</event>
<event>
 5   0  0.1298250E-07  0.3696639E+04  0.7818609E-02  0.8068707E-01
        3   -1    0    0  501    0  0.00000000000E+00  0.00000000000E+00  0.19951056084E+04  0.19951056110E+04  0.10100000352E+00 0. -1.
       -3   -1    0    0    0  501  0.00000000000E+00  0.00000000000E+00 -0.17123331293E+04  0.17123331323E+04  0.10100000352E+00 0.  1.
    10030    2    1    2    0    0  0.00000000000E+00  0.00000000000E+00  0.28277247910E+03  0.37074387433E+04  0.36966392521E+04 0.  0.
        5    1    3    3  502    0 -0.12896482636E+04 -0.14265025028E+03  0.14615606476E+04  0.19544112552E+04  0.46999998093E+01 0. -1.
       -5    1    3    3    0  502  0.12896482636E+04  0.14265025028E+03 -0.11787881685E+04  0.17530274881E+04  0.46999998093E+01 0.  1.
</event>
<event>
 5   0  0.4200635E-07  0.3625798E+04  0.7818609E-02  0.8084608E-01
       -2   -1    0    0    0  501  0.00000000000E+00  0.00000000000E+00  0.15107248684E+04  0.15107248684E+04  0.25500000920E-02 0. -1.
        2   -1    0    0  501    0  0.00000000000E+00  0.00000000000E+00 -0.21755143173E+04  0.21755143173E+04  0.25500000920E-02 0.  1.
    10030    2    1    2    0    0  0.00000000000E+00  0.00000000000E+00 -0.66478944883E+03  0.36862391857E+04  0.36257984394E+04 0.  0.
        4    1    3    3  502    0 -0.12730440191E+04  0.81612252581E+03 -0.13490160266E+04  0.20264606842E+04  0.12699999809E+01 0.  1.
       -4    1    3    3    0  502  0.12730440191E+04 -0.81612252581E+03  0.68422657772E+03  0.16597785015E+04  0.12699999809E+01 0. -1.
</event>
<event>
 5   0  0.1348226E-07  0.3641589E+04  0.7818609E-02  0.8081031E-01
        1   -1    0    0  501    0  0.00000000000E+00  0.00000000000E+00  0.16619094253E+04  0.16619094253E+04  0.50400001928E-02 0. -1.
       -1   -1    0    0    0  501  0.00000000000E+00  0.00000000000E+00 -0.19948701575E+04  0.19948701575E+04  0.50400001928E-02 0.  1.
    10030    2    1    2    0    0  0.00000000000E+00  0.00000000000E+00 -0.33296073217E+03  0.36567795828E+04  0.36415894974E+04 0.  0.
        4    1    3    3  502    0 -0.13541881236E+04 -0.12094633126E+04 -0.29290850008E+02  0.18158982751E+04  0.12699999809E+01 0.  1.
       -4    1    3    3    0  502  0.13541881236E+04  0.12094633126E+04 -0.30366988216E+03  0.18408813077E+04  0.12699999809E+01 0. -1.
</event>
<event>
 5   0  0.4200635E-07  0.3601910E+04  0.7818609E-02  0.8090054E-01
        2   -1    0    0  501    0  0.00000000000E+00  0.00000000000E+00  0.18071745735E+04  0.18071745735E+04  0.25500000920E-02 0. -1.
       -2   -1    0    0    0  501  0.00000000000E+00  0.00000000000E+00 -0.17947569564E+04  0.17947569564E+04  0.25500000920E-02 0.  1.
    10030    2    1    2    0    0  0.00000000000E+00  0.00000000000E+00  0.12417617097E+02  0.36019315300E+04  0.36019101251E+04 0.  0.
        4    1    3    3  502    0  0.11571329908E+04  0.13797346847E+04  0.34721531758E+02  0.18010640623E+04  0.12699999809E+01 0. -1.
       -4    1    3    3    0  502 -0.11571329908E+04 -0.13797346847E+04 -0.22303914661E+02  0.18008674677E+04  0.12699999809E+01 0.  1.
</event>
<event>
 5   0  0.1370997E-07  0.3608382E+04  0.7818609E-02  0.8088574E-01
       -1   -1    0    0    0  501  0.00000000000E+00  0.00000000000E+00  0.27666027502E+04  0.27666027503E+04  0.50400001928E-02 0.  1.
        1   -1    0    0  501    0  0.00000000000E+00  0.00000000000E+00 -0.11765714877E+04  0.11765714877E+04  0.50400001928E-02 0. -1.
    10030    2    1    2    0    0  0.00000000000E+00  0.00000000000E+00  0.15900312626E+04  0.39431742379E+04  0.36083824152E+04 0.  0.
        3    1    3    3  502    0  0.17573460159E+04  0.38835643343E+03  0.65670139164E+03  0.19158137872E+04  0.10100000352E+00 0.  1.
       -3    1    3    3    0  502 -0.17573460159E+04 -0.38835643343E+03  0.93332987095E+03  0.20273604508E+04  0.10100000352E+00 0. -1.
</event>
<event>
 5   0  0.1348226E-07  0.3599735E+04  0.7818609E-02  0.8090552E-01
       -1   -1    0    0    0  501  0.00000000000E+00  0.00000000000E+00  0.11194740176E+04  0.11194740176E+04  0.50400001928E-02 0.  1.
        1   -1    0    0  501    0  0.00000000000E+00  0.00000000000E+00 -0.28937899072E+04  0.28937899072E+04  0.50400001928E-02 0. -1.
    10030    2    1    2    0    0  0.00000000000E+00  0.00000000000E+00 -0.17743158897E+04  0.40132639248E+04  0.35997347755E+04 0.  0.
        4    1    3    3  502    0  0.12045845167E+04 -0.88350674341E+03 -0.20064379255E+04  0.25014801189E+04  0.12699999809E+01 0. -1.
       -4    1    3    3    0  502 -0.12045845167E+04  0.88350674341E+03  0.23212203581E+03  0.15117838060E+04  0.12699999809E+01 0.  1.
</event>
<event>
 5   0  0.1298250E-07  0.3632349E+04  0.7818609E-02  0.8083122E-01
        1   -1    0    0  501    0  0.00000000000E+00  0.00000000000E+00  0.22462559480E+04  0.22462559480E+04  0.50400001928E-02 0. -1.
       -1   -1    0    0    0  501  0.00000000000E+00  0.00000000000E+00 -0.14684386361E+04  0.14684386361E+04  0.50400001928E-02 0.  1.
    10030    2    1    2    0    0  0.00000000000E+00  0.00000000000E+00  0.77781731196E+03  0.37146945841E+04  0.36323485629E+04 0.  0.
        2    1    3    3  502    0 -0.48103029709E+03 -0.30865799257E+01 -0.14021046374E+04  0.14823282659E+04  0.25500000920E-02 0.  1.
       -2    1    3    3    0  502  0.48103029709E+03  0.30865799257E+01  0.21799219493E+04  0.22323663182E+04  0.25500000920E-02 0. -1.
</event>
<event>
 5   0  0.3993751E-07  0.3614142E+04  0.7818609E-02  0.8087260E-01
       -2   -1    0    0    0  501  0.00000000000E+00  0.00000000000E+00  0.99472081009E+03  0.99472081010E+03  0.25500000920E-02 0. -1.
        2   -1    0    0  501    0  0.00000000000E+00  0.00000000000E+00 -0.32828371729E+04  0.32828371729E+04  0.25500000920E-02 0.  1.
    10030    2    1    2    0    0  0.00000000000E+00  0.00000000000E+00 -0.22881163628E+04  0.42775579830E+04  0.36141424720E+04 0.  0.
        1    1    3    3  502    0  0.14777097114E+04 -0.29225137218E+03  0.37411721046E+02  0.15067967655E+04  0.50400001928E-02 0. -1.
       -1    1    3    3    0  502 -0.14777097114E+04  0.29225137218E+03 -0.23255280838E+04  0.27707612175E+04  0.50400001928E-02 0.  1.
</event>
<event>
 5   0  0.1298250E-07  0.3679890E+04  0.7818609E-02  0.8072433E-01
        1   -1    0    0  501    0  0.00000000000E+00  0.00000000000E+00  0.21903746803E+04  0.21903746803E+04  0.50400001928E-02 0. -1.
       -1   -1    0    0    0  501  0.00000000000E+00  0.00000000000E+00 -0.15455792174E+04  0.15455792174E+04  0.50400001928E-02 0.  1.
    10030    2    1    2    0    0  0.00000000000E+00  0.00000000000E+00  0.64479546295E+03  0.37359538977E+04  0.36798899898E+04 0.  0.
        1    1    3    3  502    0  0.18333037591E+03 -0.18133238190E+04  0.57851943319E+03  0.19121814856E+04  0.50400001928E-02 0.  1.
       -1    1    3    3    0  502 -0.18333037591E+03  0.18133238190E+04  0.66276029763E+02  0.18237724121E+04  0.50400001928E-02 0. -1.
</event>
<event>
 5   0  0.3993751E-07  0.3537237E+04  0.7818609E-02  0.8105022E-01
        2   -1    0    0  501    0  0.00000000000E+00  0.00000000000E+00  0.21744157449E+04  0.21744157449E+04  0.25500000920E-02 0. -1.
       -2   -1    0    0    0  501  0.00000000000E+00  0.00000000000E+00 -0.14385524771E+04  0.14385524771E+04  0.25500000920E-02 0.  1.
    10030    2    1    2    0    0  0.00000000000E+00  0.00000000000E+00  0.73586326783E+03  0.36129682220E+04  0.35372368629E+04 0.  0.
        1    1    3    3  502    0  0.90665709957E+02 -0.12728153523E+04  0.16187862146E+04  0.20612491360E+04  0.50400001928E-02 0. -1.
       -1    1    3    3    0  502 -0.90665709957E+02  0.12728153523E+04 -0.88292294675E+03  0.15517190860E+04  0.50400001928E-02 0.  1.
</event>
<event>
 5   0  0.4120440E-07  0.3599663E+04  0.7818609E-02  0.8090569E-01
       -2   -1    0    0    0  501  0.00000000000E+00  0.00000000000E+00  0.11822002621E+04  0.11822002621E+04  0.25500000920E-02 0. -1.
        2   -1    0    0  501    0  0.00000000000E+00  0.00000000000E+00 -0.27401388715E+04  0.27401388715E+04  0.25500000920E-02 0.  1.
    10030    2    1    2    0    0  0.00000000000E+00  0.00000000000E+00 -0.15579386094E+04  0.39223391336E+04  0.35996627021E+04 0.  0.
        2    1    3    3  502    0 -0.59898813199E+03  0.11223335088E+04 -0.21662722374E+04  0.25122011651E+04  0.25500000920E-02 0.  1.
       -2    1    3    3    0  502  0.59898813199E+03 -0.11223335088E+04  0.60833362801E+03  0.14101379685E+04  0.25500000920E-02 0. -1.
</event>
<event>
 5   0  0.4200635E-07  0.3592644E+04  0.7818609E-02  0.8092179E-01
       -2   -1    0    0    0  501  0.00000000000E+00  0.00000000000E+00  0.11711824833E+04  0.11711824833E+04  0.25500000920E-02 0. -1.
        2   -1    0    0  501    0  0.00000000000E+00  0.00000000000E+00 -0.27551406288E+04  0.27551406288E+04  0.25500000920E-02 0.  1.
    10030    2    1    2    0    0  0.00000000000E+00  0.00000000000E+00 -0.15839581455E+04  0.39263231121E+04  0.35926438417E+04 0.  0.
        4    1    3    3  502    0 -0.65466267145E+03 -0.58782537451E+03 -0.25035289773E+04  0.26536354002E+04  0.12699999809E+01 0.  1.
       -4    1    3    3    0  502  0.65466267145E+03  0.58782537451E+03  0.91957083177E+03  0.12726877118E+04  0.12699999809E+01 0. -1.
</event>
<event>
 5   0  0.1348226E-07  0.3566486E+04  0.7818609E-02  0.8098212E-01
       -1   -1    0    0    0  501  0.00000000000E+00  0.00000000000E+00  0.28171525198E+04  0.28171525198E+04  0.50400001928E-02 0.  1.
        1   -1    0    0  501    0  0.00000000000E+00  0.00000000000E+00 -0.11287838630E+04  0.11287838630E+04  0.50400001928E-02 0. -1.
    10030    2    1    2    0    0  0.00000000000E+00  0.00000000000E+00  0.16883686567E+04  0.39459363828E+04  0.35664863965E+04 0.  0.
        4    1    3    3  502    0  0.12274726615E+04 -0.10644951140E+04  0.16573010860E+04  0.23208807563E+04  0.12699999809E+01 0.  1.
       -4    1    3    3    0  502 -0.12274726615E+04  0.10644951140E+04  0.31067570697E+02  0.16250556265E+04  0.12699999809E+01 0. -1.
</event>
<event>
 5   0  0.1298250E-07  0.3598693E+04  0.7818609E-02  0.8090791E-01
        1   -1    0    0  501    0  0.00000000000E+00  0.00000000000E+00  0.21846395915E+04  0.21846395915E+04  0.50400001928E-02 0.  1.
       -1   -1    0    0    0  501  0.00000000000E+00  0.00000000000E+00 -0.14820051882E+04  0.14820051882E+04  0.50400001928E-02 0. -1.
    10030    2    1    2    0    0  0.00000000000E+00  0.00000000000E+00  0.70263440327E+03  0.36666447797E+04  0.35986926565E+04 0.  0.
        1    1    3    3  502    0 -0.25663888364E+02 -0.14733117656E+04 -0.70081942020E+03  0.16317028080E+04  0.50400001928E-02 0. -1.
       -1    1    3    3    0  502  0.25663888364E+02  0.14733117656E+04  0.14034538235E+04  0.20349419717E+04  0.50400001928E-02 0.  1.
</event>
<event>
 5   0  0.4200635E-07  0.3597898E+04  0.7818609E-02  0.8090973E-01
        2   -1    0    0  501    0  0.00000000000E+00  0.00000000000E+00  0.14872935961E+04  0.14872935961E+04  0.25500000920E-02 0.  1.
       -2   -1    0    0    0  501  0.00000000000E+00  0.00000000000E+00 -0.21759103370E+04  0.21759103370E+04  0.25500000920E-02 0. -1.
    10030    2    1    2    0    0  0.00000000000E+00  0.00000000000E+00 -0.68861674085E+03  0.36632039331E+04  0.35978980029E+04 0.  0.
        4    1    3    3  502    0  0.23445716449E+03  0.70843609059E+03  0.13222790972E+04  0.15183133669E+04  0.12699999809E+01 0.  1.
       -4    1    3    3    0  502 -0.23445716449E+03 -0.70843609059E+03 -0.20108958380E+04  0.21448905661E+04  0.12699999809E+01 0. -1.
</event>
<event>
 5   0  0.3880259E-07  0.3603739E+04  0.7818609E-02  0.8089636E-01
        2   -1    0    0  501    0  0.00000000000E+00  0.00000000000E+00  0.21780790754E+04  0.21780790755E+04  0.25500000920E-02 0.  1.
       -2   -1    0    0    0  501  0.00000000000E+00  0.00000000000E+00 -0.14906404858E+04  0.14906404858E+04  0.25500000920E-02 0. -1.
    10030    2    1    2    0    0  0.00000000000E+00  0.00000000000E+00  0.68743858968E+03  0.36687195612E+04  0.36037385316E+04 0.  0.
        5    1    3    3  502    0 -0.31098532729E+03  0.62748753808E+03  0.20338535247E+04  0.21510543308E+04  0.46999998093E+01 0.  1.
       -5    1    3    3    0  502  0.31098532729E+03 -0.62748753808E+03 -0.13464149350E+04  0.15176652304E+04  0.46999998093E+01 0. -1.
</event>
<event>
 5   0  0.1298250E-07  0.3517749E+04  0.7818609E-02  0.8109596E-01
        1   -1    0    0  501    0  0.00000000000E+00  0.00000000000E+00  0.26087287396E+04  0.26087287396E+04  0.50400001928E-02 0. -1.
       -1   -1    0    0    0  501  0.00000000000E+00  0.00000000000E+00 -0.11858803008E+04  0.11858803008E+04  0.50400001928E-02 0.  1.
    10030    2    1    2    0    0  0.00000000000E+00  0.00000000000E+00  0.14228484388E+04  0.37946090405E+04  0.35177492933E+04 0.  0.
        2    1    3    3  502    0  0.53263376202E+03  0.11013370869E+04 -0.65175930257E+03  0.13861573835E+04  0.25500000920E-02 0.  1.
       -2    1    3    3    0  502 -0.53263376202E+03 -0.11013370869E+04  0.20746077414E+04  0.24084516570E+04  0.25500000920E-02 0. -1.
</event>
<event>
 5   0  0.1370997E-07  0.3547834E+04  0.7818609E-02  0.8102547E-01
       -1   -1    0    0    0  501  0.00000000000E+00  0.00000000000E+00  0.18411780866E+04  0.18411780866E+04  0.50400001928E-02 0.  1.
        1   -1    0    0  501    0  0.00000000000E+00  0.00000000000E+00 -0.17091128227E+04  0.17091128227E+04  0.50400001928E-02 0. -1.
    10030    2    1    2    0    0  0.00000000000E+00  0.00000000000E+00  0.13206526396E+03  0.35502909093E+04  0.35478337485E+04 0.  0.
        3    1    3    3  502    0  0.12512756508E+04 -0.41113839662E+03  0.12551550533E+04  0.18193789472E+04  0.10100000352E+00 0.  1.
       -3    1    3    3    0  502 -0.12512756508E+04  0.41113839662E+03 -0.11230897893E+04  0.17309119621E+04  0.10100000352E+00 0. -1.
</event>
<event>
 5   0  0.4120440E-07  0.3750383E+04  0.7818609E-02  0.8056887E-01
       -2   -1    0    0    0  501  0.00000000000E+00  0.00000000000E+00  0.21744282204E+04  0.21744282204E+04  0.25500000920E-02 0.  1.
        2   -1    0    0  501    0  0.00000000000E+00  0.00000000000E+00 -0.16171346460E+04  0.16171346460E+04  0.25500000920E-02 0. -1.
    10030    2    1    2    0    0  0.00000000000E+00  0.00000000000E+00  0.55729357439E+03  0.37915628664E+04  0.37503830260E+04 0.  0.
        2    1    3    3  502    0 -0.17145812229E+04 -0.58167621334E+03  0.77207059474E+03  0.19683061221E+04  0.25500000920E-02 0.  1.
       -2    1    3    3    0  502  0.17145812229E+04  0.58167621334E+03 -0.21477702036E+03  0.18232567443E+04  0.25500000920E-02 0. -1.
</event>
<event>
 5   0  0.4200635E-07  0.3601614E+04  0.7818609E-02  0.8090122E-01
        2   -1    0    0  501    0  0.00000000000E+00  0.00000000000E+00  0.13289423271E+04  0.13289423271E+04  0.25500000920E-02 0. -1.
       -2   -1    0    0    0  501  0.00000000000E+00  0.00000000000E+00 -0.24402160670E+04  0.24402160670E+04  0.25500000920E-02 0.  1.
    10030    2    1    2    0    0  0.00000000000E+00  0.00000000000E+00 -0.11112737400E+04  0.37691583941E+04  0.36016143151E+04 0.  0.
        4    1    3    3  502    0  0.35072135282E+03  0.97231032097E+03  0.98758399615E+03  0.14295861604E+04  0.12699999809E+01 0. -1.
       -4    1    3    3    0  502 -0.35072135282E+03 -0.97231032097E+03 -0.20988577361E+04  0.23395722337E+04  0.12699999809E+01 0.  1.
</event>
<event>
 5   0  0.1298250E-07  0.3436212E+04  0.7818609E-02  0.8129076E-01
        1   -1    0    0  501    0  0.00000000000E+00  0.00000000000E+00  0.22799115382E+04  0.22799115382E+04  0.50400001928E-02 0. -1.
       -1   -1    0    0    0  501  0.00000000000E+00  0.00000000000E+00 -0.12947378374E+04  0.12947378374E+04  0.50400001928E-02 0.  1.
    10030    2    1    2    0    0  0.00000000000E+00  0.00000000000E+00  0.98517370078E+03  0.35746493756E+04  0.34362117131E+04 0.  0.
        1    1    3    3  502    0  0.14349126723E+04 -0.57060617936E+03 -0.29096605925E+03  0.15713774329E+04  0.50400001928E-02 0.  1.
       -1    1    3    3    0  502 -0.14349126723E+04  0.57060617936E+03  0.12761397600E+04  0.20032719426E+04  0.50400001928E-02 0. -1.
</event>
<event>
 5   0  0.1298250E-07  0.3558925E+04  0.7818609E-02  0.8099966E-01
        1   -1    0    0  501    0  0.00000000000E+00  0.00000000000E+00  0.16732537965E+04  0.16732537965E+04  0.50400001928E-02 0. -1.
       -1   -1    0    0    0  501  0.00000000000E+00  0.00000000000E+00 -0.18924132081E+04  0.18924132081E+04  0.50400001928E-02 0.  1.
    10030    2    1    2    0    0  0.00000000000E+00  0.00000000000E+00 -0.21915941158E+03  0.35656670046E+04  0.35589254474E+04 0.  0.
        1    1    3    3  502    0  0.55227620030E+03 -0.11663504845E+03  0.15811817623E+04  0.16789128928E+04  0.50400001928E-02 0. -1.
       -1    1    3    3    0  502 -0.55227620030E+03  0.11663504845E+03 -0.18003411739E+04  0.18867541118E+04  0.50400001928E-02 0.  1.
</event>
<event>
 5   0  0.4115358E-07  0.3619494E+04  0.7818609E-02  0.8086041E-01
        2   -1    0    0  501    0  0.00000000000E+00  0.00000000000E+00  0.15308632986E+04  0.15308632986E+04  0.25500000920E-02 0. -1.
       -2   -1    0    0    0  501  0.00000000000E+00  0.00000000000E+00 -0.21394364795E+04  0.21394364795E+04  0.25500000920E-02 0.  1.
    10030    2    1    2    0    0  0.00000000000E+00  0.00000000000E+00 -0.60857318088E+03  0.36702997781E+04  0.36194943217E+04 0.  0.
        3    1    3    3  502    0  0.63967562124E+03 -0.16684427576E+04 -0.59519077438E+03  0.18833847732E+04  0.10100000352E+00 0.  1.
       -3    1    3    3    0  502 -0.63967562124E+03  0.16684427576E+04 -0.13382406496E+02  0.17869150049E+04  0.10100000352E+00 0. -1.
</event>
<event>
 5   0  0.1348226E-07  0.3612892E+04  0.7818609E-02  0.8087545E-01
       -1   -1    0    0    0  501  0.00000000000E+00  0.00000000000E+00  0.16450253570E+04  0.16450253570E+04  0.50400001928E-02 0.  1.
        1   -1    0    0  501    0  0.00000000000E+00  0.00000000000E+00 -0.19837067364E+04  0.19837067364E+04  0.50400001928E-02 0. -1.
    10030    2    1    2    0    0  0.00000000000E+00  0.00000000000E+00 -0.33868137941E+03  0.36287320935E+04  0.36128924049E+04 0.  0.
        4    1    3    3  502    0 -0.17803958393E+02  0.16379289563E+04 -0.93433473866E+03  0.18857654317E+04  0.12699999809E+01 0. -1.
       -4    1    3    3    0  502  0.17803958393E+02 -0.16379289563E+04  0.59565335925E+03  0.17429666618E+04  0.12699999809E+01 0.  1.
</event>
<event>
 5   0  0.1370997E-07  0.3593871E+04  0.7818609E-02  0.8091897E-01
        1   -1    0    0  501    0  0.00000000000E+00  0.00000000000E+00  0.15999441304E+04  0.15999441304E+04  0.50400001928E-02 0.  1.
       -1   -1    0    0    0  501  0.00000000000E+00  0.00000000000E+00 -0.20181816943E+04  0.20181816943E+04  0.50400001928E-02 0. -1.
    10030    2    1    2    0    0  0.00000000000E+00  0.00000000000E+00 -0.41823756397E+03  0.36181258247E+04  0.35938714256E+04 0.  0.
        3    1    3    3  502    0 -0.18480610436E+03  0.15411542047E+04 -0.11205842460E+04  0.19144238406E+04  0.10100000352E+00 0. -1.
       -3    1    3    3    0  502  0.18480610436E+03 -0.15411542047E+04  0.70234668204E+03  0.17037019841E+04  0.10100000352E+00 0.  1.
</event>
<event>
 5   0  0.1298250E-07  0.3609953E+04  0.7818609E-02  0.8088216E-01
        1   -1    0    0  501    0  0.00000000000E+00  0.00000000000E+00  0.22993217737E+04  0.22993217737E+04  0.50400001928E-02 0. -1.
       -1   -1    0    0    0  501  0.00000000000E+00  0.00000000000E+00 -0.14169132922E+04  0.14169132922E+04  0.50400001928E-02 0.  1.
    10030    2    1    2    0    0  0.00000000000E+00  0.00000000000E+00  0.88240848146E+03  0.37162350659E+04  0.36099526779E+04 0.  0.
        1    1    3    3  502    0  0.27770146134E+02  0.16943352652E+04  0.10811132295E+04  0.20100619361E+04  0.50400001928E-02 0. -1.
       -1    1    3    3    0  502 -0.27770146134E+02 -0.16943352652E+04 -0.19870474803E+03  0.17061731298E+04  0.50400001928E-02 0.  1.
</event>
<event>
 5   0  0.1370997E-07  0.3597295E+04  0.7818609E-02  0.8091112E-01
       -1   -1    0    0    0  501  0.00000000000E+00  0.00000000000E+00  0.22309684544E+04  0.22309684544E+04  0.50400001928E-02 0.  1.
        1   -1    0    0  501    0  0.00000000000E+00  0.00000000000E+00 -0.14501026457E+04  0.14501026457E+04  0.50400001928E-02 0. -1.
    10030    2    1    2    0    0  0.00000000000E+00  0.00000000000E+00  0.78086580863E+03  0.36810711001E+04  0.35972952385E+04 0.  0.
        3    1    3    3  502    0  0.13205384710E+04 -0.22469232670E+03  0.16187307880E+04  0.21010944456E+04  0.10100000352E+00 0.  1.
       -3    1    3    3    0  502 -0.13205384710E+04  0.22469232670E+03 -0.83786497932E+03  0.15799766545E+04  0.10100000352E+00 0. -1.
</event>
<event>
 5   0  0.3880259E-07  0.3612447E+04  0.7818609E-02  0.8087647E-01
        2   -1    0    0  501    0  0.00000000000E+00  0.00000000000E+00  0.28304252634E+04  0.28304252634E+04  0.25500000920E-02 0. -1.
       -2   -1    0    0    0  501  0.00000000000E+00  0.00000000000E+00 -0.11526333828E+04  0.11526333828E+04  0.25500000920E-02 0.  1.
    10030    2    1    2    0    0  0.00000000000E+00  0.00000000000E+00  0.16777918806E+04  0.39830586462E+04  0.36124466203E+04 0.  0.
        5    1    3    3  502    0 -0.94428999855E+03  0.14379976192E+04  0.14457227464E+04  0.22471442107E+04  0.46999998093E+01 0. -1.
       -5    1    3    3    0  502  0.94428999855E+03 -0.14379976192E+04  0.23206913420E+03  0.17359144355E+04  0.46999998093E+01 0.  1.
</event>
<event>
 5   0  0.1348226E-07  0.3607260E+04  0.7818609E-02  0.8088831E-01
       -1   -1    0    0    0  501  0.00000000000E+00  0.00000000000E+00  0.16970303607E+04  0.16970303607E+04  0.50400001928E-02 0.  1.
        1   -1    0    0  501    0  0.00000000000E+00  0.00000000000E+00 -0.19169260956E+04  0.19169260956E+04  0.50400001928E-02 0. -1.
    10030    2    1    2    0    0  0.00000000000E+00  0.00000000000E+00 -0.21989573484E+03  0.36139564563E+04  0.36072603363E+04 0.  0.
        4    1    3    3  502    0  0.80350652437E+03 -0.15836930834E+03  0.15000126210E+04  0.17090181534E+04  0.12699999809E+01 0.  1.
       -4    1    3    3    0  502 -0.80350652437E+03  0.15836930834E+03 -0.17199083559E+04  0.19049383029E+04  0.12699999809E+01 0. -1.
</event>
<event>
 5   0  0.1298250E-07  0.3616163E+04  0.7818609E-02  0.8086799E-01
        1   -1    0    0  501    0  0.00000000000E+00  0.00000000000E+00  0.28063551486E+04  0.28063551486E+04  0.50400001928E-02 0. -1.
       -1   -1    0    0    0  501  0.00000000000E+00  0.00000000000E+00 -0.11649130067E+04  0.11649130067E+04  0.50400001928E-02 0.  1.
    10030    2    1    2    0    0  0.00000000000E+00  0.00000000000E+00  0.16414421419E+04  0.39712681553E+04  0.36161634997E+04 0.  0.
        1    1    3    3  502    0 -0.81944154072E+03 -0.48724019523E+03 -0.86646195555E+03  0.12882716200E+04  0.50400001928E-02 0.  1.
       -1    1    3    3    0  502  0.81944154072E+03  0.48724019523E+03  0.25079040974E+04  0.26829965353E+04  0.50400001928E-02 0. -1.
</event>
<event>
 5   0  0.1370997E-07  0.3268970E+04  0.7818609E-02  0.8170836E-01
       -1   -1    0    0    0  501  0.00000000000E+00  0.00000000000E+00  0.17188800766E+04  0.17188800766E+04  0.50400001928E-02 0.  1.
        1   -1    0    0  501    0  0.00000000000E+00  0.00000000000E+00 -0.15542337555E+04  0.15542337555E+04  0.50400001928E-02 0. -1.
    10030    2    1    2    0    0  0.00000000000E+00  0.00000000000E+00  0.16464632109E+03  0.32731138321E+04  0.32689701355E+04 0.  0.
        3    1    3    3  502    0 -0.33078685380E+02  0.10194799438E+04  0.13610903899E+04  0.17008823048E+04  0.10100000352E+00 0.  1.
       -3    1    3    3    0  502  0.33078685380E+02 -0.10194799438E+04 -0.11964440688E+04  0.15722315272E+04  0.10100000352E+00 0. -1.
</event>
<event>
 5   0  0.3880259E-07  0.3597987E+04  0.7818609E-02  0.8090953E-01
        2   -1    0    0  501    0  0.00000000000E+00  0.00000000000E+00  0.22898595408E+04  0.22898595408E+04  0.25500000920E-02 0.  1.
       -2   -1    0    0    0  501  0.00000000000E+00  0.00000000000E+00 -0.14133522121E+04  0.14133522121E+04  0.25500000920E-02 0. -1.
    10030    2    1    2    0    0  0.00000000000E+00  0.00000000000E+00  0.87650732862E+03  0.37032117529E+04  0.35979872415E+04 0.  0.
        5    1    3    3  502    0 -0.16174390828E+04 -0.37019407575E+03 -0.27720375333E+03  0.16822653926E+04  0.46999998093E+01 0. -1.
       -5    1    3    3    0  502  0.16174390828E+04  0.37019407575E+03  0.11537110819E+04  0.20209463603E+04  0.46999998093E+01 0.  1.
</event>
<event>
 5   0  0.4200635E-07  0.3622473E+04  0.7818609E-02  0.8085363E-01
        2   -1    0    0  501    0  0.00000000000E+00  0.00000000000E+00  0.21295609716E+04  0.21295609716E+04  0.25500000920E-02 0. -1.
       -2   -1    0    0    0  501  0.00000000000E+00  0.00000000000E+00 -0.15404944675E+04  0.15404944675E+04  0.25500000920E-02 0.  1.
    10030    2    1    2    0    0  0.00000000000E+00  0.00000000000E+00  0.58906650415E+03  0.36700554391E+04  0.36224725782E+04 0.  0.
        4    1    3    3  502    0 -0.91239826873E+03  0.87028722927E+03  0.16118839730E+04  0.20464706247E+04  0.12699999809E+01 0. -1.
       -4    1    3    3    0  502  0.91239826873E+03 -0.87028722927E+03 -0.10228174689E+04  0.16235848145E+04  0.12699999809E+01 0.  1.
</event>
<event>
 5   0  0.1361743E-07  0.3612983E+04  0.7818609E-02  0.8087524E-01
       -1   -1    0    0    0  501  0.00000000000E+00  0.00000000000E+00  0.10773689582E+04  0.10773689582E+04  0.50400001928E-02 0.  1.
        1   -1    0    0  501    0  0.00000000000E+00  0.00000000000E+00 -0.30290560617E+04  0.30290560617E+04  0.50400001928E-02 0. -1.
    10030    2    1    2    0    0  0.00000000000E+00  0.00000000000E+00 -0.19516871035E+04  0.41064250199E+04  0.36129826867E+04 0.  0.
        5    1    3    3  502    0  0.43135359535E+03 -0.61969664768E+03 -0.28411075322E+04  0.29397285519E+04  0.46999998093E+01 0. -1.
       -5    1    3    3    0  502 -0.43135359535E+03  0.61969664768E+03  0.88942042877E+03  0.11666964680E+04  0.46999998093E+01 0.  1.
</event>
<event>
 5   0  0.4200635E-07  0.3549531E+04  0.7818609E-02  0.8102151E-01
        2   -1    0    0  501    0  0.00000000000E+00  0.00000000000E+00  0.19157856242E+04  0.19157856242E+04  0.25500000920E-02 0. -1.
       -2   -1    0    0    0  501  0.00000000000E+00  0.00000000000E+00 -0.16441261429E+04  0.16441261429E+04  0.25500000920E-02 0.  1.
    10030    2    1    2    0    0  0.00000000000E+00  0.00000000000E+00  0.27165948126E+03  0.35599117671E+04  0.35495313656E+04 0.  0.
        4    1    3    3  502    0 -0.10497976476E+04 -0.13977646679E+04  0.44327221381E+03  0.18034170445E+04  0.12699999809E+01 0. -1.
       -4    1    3    3    0  502  0.10497976476E+04  0.13977646679E+04 -0.17161273255E+03  0.17564947226E+04  0.12699999809E+01 0.  1.
</event>
<event>
 5   0  0.1370997E-07  0.3543282E+04  0.7818609E-02  0.8103609E-01
        1   -1    0    0  501    0  0.00000000000E+00  0.00000000000E+00  0.14164910648E+04  0.14164910648E+04  0.50400001928E-02 0.  1.
       -1   -1    0    0    0  501  0.00000000000E+00  0.00000000000E+00 -0.22158359445E+04  0.22158359445E+04  0.50400001928E-02 0. -1.
    10030    2    1    2    0    0  0.00000000000E+00  0.00000000000E+00 -0.79934487974E+03  0.36323270093E+04  0.35432819907E+04 0.  0.
        3    1    3    3  502    0  0.35012116406E+02  0.41759788338E+03 -0.21642966298E+04  0.22044939901E+04  0.10100000352E+00 0. -1.
       -3    1    3    3    0  502 -0.35012116406E+02 -0.41759788338E+03  0.13649517501E+04  0.14278330192E+04  0.10100000352E+00 0.  1.
</event>
<event>
 5   0  0.4120440E-07  0.3601147E+04  0.7818609E-02  0.8090229E-01
        2   -1    0    0  501    0  0.00000000000E+00  0.00000000000E+00  0.18077078896E+04  0.18077078896E+04  0.25500000920E-02 0.  1.
       -2   -1    0    0    0  501  0.00000000000E+00  0.00000000000E+00 -0.17934675810E+04  0.17934675811E+04  0.25500000920E-02 0. -1.
    10030    2    1    2    0    0  0.00000000000E+00  0.00000000000E+00  0.14240308595E+02  0.36011754707E+04  0.36011473150E+04 0.  0.
        2    1    3    3  502    0 -0.61250450530E+03  0.13134225889E+04  0.10756905473E+04  0.18048132368E+04  0.25500000920E-02 0.  1.
       -2    1    3    3    0  502  0.61250450530E+03 -0.13134225889E+04 -0.10614502387E+04  0.17963622339E+04  0.25500000920E-02 0. -1.
</event>
<event>
 5   0  0.3993751E-07  0.3601550E+04  0.7818609E-02  0.8090137E-01
        2   -1    0    0  501    0  0.00000000000E+00  0.00000000000E+00  0.16622790391E+04  0.16622790391E+04  0.25500000920E-02 0.  1.
       -2   -1    0    0    0  501  0.00000000000E+00  0.00000000000E+00 -0.19508098539E+04  0.19508098539E+04  0.25500000920E-02 0. -1.
    10030    2    1    2    0    0  0.00000000000E+00  0.00000000000E+00 -0.28853081478E+03  0.36130888931E+04  0.36015498494E+04 0.  0.
        1    1    3    3  502    0 -0.91559307607E+03 -0.16312662513E+03 -0.16912401076E+04  0.19300813657E+04  0.50400001928E-02 0. -1.
       -1    1    3    3    0  502  0.91559307607E+03  0.16312662513E+03  0.14027092928E+04  0.16830075273E+04  0.50400001928E-02 0.  1.
</event>
<event>
 5   0  0.1348226E-07  0.3400497E+04  0.7818609E-02  0.8137784E-01
        1   -1    0    0  501    0  0.00000000000E+00  0.00000000000E+00  0.25684229443E+04  0.25684229443E+04  0.50400001928E-02 0.  1.
       -1   -1    0    0    0  501  0.00000000000E+00  0.00000000000E+00 -0.11255332303E+04  0.11255332303E+04  0.50400001928E-02 0. -1.
    10030    2    1    2    0    0  0.00000000000E+00  0.00000000000E+00  0.14428897141E+04  0.36939561746E+04  0.34004972420E+04 0.  0.
        4    1    3    3  502    0 -0.58150786291E+03  0.22322187707E+03  0.24400177947E+04  0.25182668350E+04  0.12699999809E+01 0.  1.
       -4    1    3    3    0  502  0.58150786291E+03 -0.22322187707E+03 -0.99712808065E+03  0.11756893396E+04  0.12699999809E+01 0. -1.
</event>
<event>
 5   0  0.3993751E-07  0.3618514E+04  0.7818609E-02  0.8086264E-01
        2   -1    0    0  501    0  0.00000000000E+00  0.00000000000E+00  0.16087604057E+04  0.16087604057E+04  0.25500000920E-02 0.  1.
       -2   -1    0    0    0  501  0.00000000000E+00  0.00000000000E+00 -0.20347407366E+04  0.20347407366E+04  0.25500000920E-02 0. -1.
    10030    2    1    2    0    0  0.00000000000E+00  0.00000000000E+00 -0.42598033094E+03  0.36435011422E+04  0.36185136909E+04 0.  0.
        1    1    3    3  502    0 -0.61042299995E+03  0.65994725036E+03 -0.17939483461E+04  0.20065884682E+04  0.50400001928E-02 0. -1.
       -1    1    3    3    0  502  0.61042299995E+03 -0.65994725036E+03  0.13679680151E+04  0.16369126741E+04  0.50400001928E-02 0.  1.
</event>
<event>
 5   0  0.1298250E-07  0.3599421E+04  0.7818609E-02  0.8090624E-01
       -1   -1    0    0    0  501  0.00000000000E+00  0.00000000000E+00  0.30485869174E+04  0.30485869174E+04  0.50400001928E-02 0. -1.
        1   -1    0    0  501    0  0.00000000000E+00  0.00000000000E+00 -0.10624458482E+04  0.10624458482E+04  0.50400001928E-02 0.  1.
    10030    2    1    2    0    0  0.00000000000E+00  0.00000000000E+00  0.19861410692E+04  0.41110327655E+04  0.35994213497E+04 0.  0.
        2    1    3    3  502    0  0.17725434353E+04 -0.14633010803E+02  0.63765816368E+03  0.18838079225E+04  0.25500000920E-02 0.  1.
       -2    1    3    3    0  502 -0.17725434353E+04  0.14633010803E+02  0.13484829055E+04  0.22272248431E+04  0.25500000920E-02 0. -1.
</event>
<event>
 5   0  0.4200635E-07  0.3577337E+04  0.7818609E-02  0.8095703E-01
       -2   -1    0    0    0  501  0.00000000000E+00  0.00000000000E+00  0.12435323827E+04  0.12435323827E+04  0.25500000920E-02 0. -1.
        2   -1    0    0  501    0  0.00000000000E+00  0.00000000000E+00 -0.25727798362E+04  0.25727798362E+04  0.25500000920E-02 0.  1.
    10030    2    1    2    0    0  0.00000000000E+00  0.00000000000E+00 -0.13292474535E+04  0.38163122189E+04  0.35773370207E+04 0.  0.
        4    1    3    3  502    0 -0.58557316823E+03  0.55540175947E+03 -0.23674913462E+04  0.25012764615E+04  0.12699999809E+01 0.  1.
       -4    1    3    3    0  502  0.58557316823E+03 -0.55540175947E+03  0.10382438927E+04  0.13150357574E+04  0.12699999809E+01 0. -1.
</event>
<event>
 5   0  0.4115358E-07  0.3657180E+04  0.7818609E-02  0.8077518E-01
       -2   -1    0    0    0  501  0.00000000000E+00  0.00000000000E+00  0.14923453199E+04  0.14923453200E+04  0.25500000920E-02 0.  1.
        2   -1    0    0  501    0  0.00000000000E+00  0.00000000000E+00 -0.22405948798E+04  0.22405948798E+04  0.25500000920E-02 0. -1.
    10030    2    1    2    0    0  0.00000000000E+00  0.00000000000E+00 -0.74824955982E+03  0.37329401997E+04  0.36571799424E+04 0.  0.
        3    1    3    3  502    0 -0.17234157190E+04  0.44860607068E+03  0.49603866483E+02  0.17815357703E+04  0.10100000352E+00 0.  1.
       -3    1    3    3    0  502  0.17234157190E+04 -0.44860607068E+03 -0.79785342631E+03  0.19514044294E+04  0.10100000352E+00 0. -1.
</event>
<event>
 5   0  0.1298250E-07  0.3596902E+04  0.7818609E-02  0.8091202E-01
       -1   -1    0    0    0  501  0.00000000000E+00  0.00000000000E+00  0.20110077990E+04  0.20110077990E+04  0.50400001928E-02 0.  1.
        1   -1    0    0  501    0  0.00000000000E+00  0.00000000000E+00 -0.16083611079E+04  0.16083611079E+04  0.50400001928E-02 0. -1.
    10030    2    1    2    0    0  0.00000000000E+00  0.00000000000E+00  0.40264669110E+03  0.36193689069E+04  0.35969024071E+04 0.  0.
        2    1    3    3  502    0 -0.14161328045E+04  0.94532751879E+03 -0.38138826542E+03  0.17448590908E+04  0.25500000920E-02 0. -1.
       -2    1    3    3    0  502  0.14161328045E+04 -0.94532751879E+03  0.78403495652E+03  0.18745098161E+04  0.25500000920E-02 0.  1.
</event>
<event>
 5   0  0.1348226E-07  0.3586455E+04  0.7818609E-02  0.8093601E-01
        1   -1    0    0  501    0  0.00000000000E+00  0.00000000000E+00  0.17342694320E+04  0.17342694320E+04  0.50400001928E-02 0. -1.
       -1   -1    0    0    0  501  0.00000000000E+00  0.00000000000E+00 -0.18541895030E+04  0.18541895030E+04  0.50400001928E-02 0.  1.
    10030    2    1    2    0    0  0.00000000000E+00  0.00000000000E+00 -0.11992007099E+03  0.35884589349E+04  0.35864546149E+04 0.  0.
        4    1    3    3  502    0 -0.96225391373E+03  0.15079891254E+04  0.65404704387E+02  0.17900399954E+04  0.12699999809E+01 0. -1.
       -4    1    3    3    0  502  0.96225391373E+03 -0.15079891254E+04 -0.18532477537E+03  0.17984189396E+04  0.12699999809E+01 0.  1.
</event>
<event>
 5   0  0.1370997E-07  0.3423564E+04  0.7818609E-02  0.8132147E-01
       -1   -1    0    0    0  501  0.00000000000E+00  0.00000000000E+00  0.24077626035E+04  0.24077626035E+04  0.50400001928E-02 0. -1.
        1   -1    0    0  501    0  0.00000000000E+00  0.00000000000E+00 -0.12169795608E+04  0.12169795608E+04  0.50400001928E-02 0.  1.
    10030    2    1    2    0    0  0.00000000000E+00  0.00000000000E+00  0.11907830427E+04  0.36247421644E+04  0.34235641521E+04 0.  0.
        3    1    3    3  502    0 -0.12412119806E+04  0.17642322141E+02 -0.65254775289E+03  0.14024040118E+04  0.10100000352E+00 0.  1.
       -3    1    3    3    0  502  0.12412119806E+04 -0.17642322141E+02  0.18433307956E+04  0.22223381526E+04  0.10100000352E+00 0. -1.
</event>
<event>
 5   0  0.1370997E-07  0.3588053E+04  0.7818609E-02  0.8093234E-01
       -1   -1    0    0    0  501  0.00000000000E+00  0.00000000000E+00  0.17876731545E+04  0.17876731545E+04  0.50400001928E-02 0. -1.
        1   -1    0    0  501    0  0.00000000000E+00  0.00000000000E+00 -0.18004022891E+04  0.18004022891E+04  0.50400001928E-02 0.  1.
    10030    2    1    2    0    0  0.00000000000E+00  0.00000000000E+00 -0.12729134611E+02  0.35880754436E+04  0.35880528644E+04 0.  0.
        3    1    3    3  502    0  0.18536651871E+03 -0.63606688194E+01 -0.17907887601E+04  0.18003681839E+04  0.10100000352E+00 0.  1.
       -3    1    3    3    0  502 -0.18536651871E+03  0.63606688194E+01  0.17780596254E+04  0.17877072597E+04  0.10100000352E+00 0. -1.
</event>
<event>
 5   0  0.3993751E-07  0.3606905E+04  0.7818609E-02  0.8088912E-01
        2   -1    0    0  501    0  0.00000000000E+00  0.00000000000E+00  0.20454054697E+04  0.20454054697E+04  0.25500000920E-02 0. -1.
       -2   -1    0    0    0  501  0.00000000000E+00  0.00000000000E+00 -0.15901200300E+04  0.15901200300E+04  0.25500000920E-02 0.  1.
    10030    2    1    2    0    0  0.00000000000E+00  0.00000000000E+00  0.45528543972E+03  0.36355254998E+04  0.36069046047E+04 0.  0.
        1    1    3    3  502    0  0.55040902863E+03  0.39814534453E+03  0.19115189003E+04  0.20286385386E+04  0.50400001928E-02 0. -1.
       -1    1    3    3    0  502 -0.55040902863E+03 -0.39814534453E+03 -0.14562334606E+04  0.16068869611E+04  0.50400001928E-02 0.  1.
</event>
<event>
 5   0  0.3880259E-07  0.3612927E+04  0.7818609E-02  0.8087537E-01
        2   -1    0    0  501    0  0.00000000000E+00  0.00000000000E+00  0.25761433961E+04  0.25761433962E+04  0.25500000920E-02 0. -1.
       -2   -1    0    0    0  501  0.00000000000E+00  0.00000000000E+00 -0.12667425253E+04  0.12667425253E+04  0.25500000920E-02 0.  1.
    10030    2    1    2    0    0  0.00000000000E+00  0.00000000000E+00  0.13094008709E+04  0.38428859214E+04  0.36129270079E+04 0.  0.
        5    1    3    3  502    0  0.92518493969E+03 -0.78378717049E+03  0.20789572438E+04  0.24067353018E+04  0.46999998093E+01 0. -1.
       -5    1    3    3    0  502 -0.92518493969E+03  0.78378717049E+03 -0.76955637289E+03  0.14361506196E+04  0.46999998093E+01 0.  1.
</event>
<event>
 5   0  0.4120440E-07  0.3596409E+04  0.7818609E-02  0.8091315E-01
       -2   -1    0    0    0  501  0.00000000000E+00  0.00000000000E+00  0.14372874956E+04  0.14372874956E+04  0.25500000920E-02 0.  1.
        2   -1    0    0  501    0  0.00000000000E+00  0.00000000000E+00 -0.22497515341E+04  0.22497515341E+04  0.25500000920E-02 0. -1.
    10030    2    1    2    0    0  0.00000000000E+00  0.00000000000E+00 -0.81246403856E+03  0.36870390297E+04  0.35964091804E+04 0.  0.
        2    1    3    3  502    0 -0.56843265156E+03 -0.15307214684E+04  0.36595251288E+03  0.16733634198E+04  0.25500000920E-02 0.  1.
       -2    1    3    3    0  502  0.56843265156E+03  0.15307214684E+04 -0.11784165514E+04  0.20136756099E+04  0.25500000920E-02 0. -1.
</event>
<event>
 5   0  0.1298250E-07  0.3579282E+04  0.7818609E-02  0.8095254E-01
       -1   -1    0    0    0  501  0.00000000000E+00  0.00000000000E+00  0.14737933539E+04  0.14737933539E+04  0.50400001928E-02 0.  1.
        1   -1    0    0  501    0  0.00000000000E+00  0.00000000000E+00 -0.21731775936E+04  0.21731775936E+04  0.50400001928E-02 0. -1.
    10030    2    1    2    0    0  0.00000000000E+00  0.00000000000E+00 -0.69938423971E+03  0.36469709475E+04  0.35792818801E+04 0.  0.
        1    1    3    3  502    0 -0.32673255570E+03 -0.42272749652E+03  0.13906377025E+04  0.14897402186E+04  0.50400001928E-02 0.  1.
       -1    1    3    3    0  502  0.32673255570E+03  0.42272749652E+03 -0.20900219422E+04  0.21572307290E+04  0.50400001928E-02 0. -1.
</event>
<event>
 5   0  0.4120440E-07  0.3578873E+04  0.7818609E-02  0.8095348E-01
       -2   -1    0    0    0  501  0.00000000000E+00  0.00000000000E+00  0.13403669553E+04  0.13403669553E+04  0.25500000920E-02 0. -1.
        2   -1    0    0  501    0  0.00000000000E+00  0.00000000000E+00 -0.23889599055E+04  0.23889599055E+04  0.25500000920E-02 0.  1.
    10030    2    1    2    0    0  0.00000000000E+00  0.00000000000E+00 -0.10485929502E+04  0.37293268608E+04  0.35788729594E+04 0.  0.
        2    1    3    3  502    0 -0.29144363317E+03 -0.10595971004E+04  0.94730436927E+03  0.14508862721E+04  0.25500000920E-02 0. -1.
       -2    1    3    3    0  502  0.29144363317E+03  0.10595971004E+04 -0.19958973195E+04  0.22784405887E+04  0.25500000920E-02 0.  1.
</event>
<event>
 5   0  0.1298250E-07  0.3591533E+04  0.7818609E-02  0.8092434E-01
       -1   -1    0    0    0  501  0.00000000000E+00  0.00000000000E+00  0.11833171219E+04  0.11833171219E+04  0.50400001928E-02 0. -1.
        1   -1    0    0  501    0  0.00000000000E+00  0.00000000000E+00 -0.27252016479E+04  0.27252016479E+04  0.50400001928E-02 0.  1.
    10030    2    1    2    0    0  0.00000000000E+00  0.00000000000E+00 -0.15418845260E+04  0.39085187698E+04  0.35915332496E+04 0.  0.
        1    1    3    3  502    0 -0.22478331799E+03  0.69242988249E+03 -0.25574087016E+04  0.26590084523E+04  0.50400001928E-02 0.  1.
       -1    1    3    3    0  502  0.22478331799E+03 -0.69242988249E+03  0.10155241757E+04  0.12495103175E+04  0.50400001928E-02 0. -1.
</event>
<event>
 5   0  0.1298250E-07  0.3600050E+04  0.7818609E-02  0.8090480E-01
        3   -1    0    0  501    0  0.00000000000E+00  0.00000000000E+00  0.19882966829E+04  0.19882966855E+04  0.10100000352E+00 0. -1.
       -3   -1    0    0    0  501  0.00000000000E+00  0.00000000000E+00 -0.16295807301E+04  0.16295807332E+04  0.10100000352E+00 0.  1.
    10030    2    1    2    0    0  0.00000000000E+00  0.00000000000E+00  0.35871595281E+03  0.36178774187E+04  0.36000499833E+04 0.  0.
        2    1    3    3  502    0  0.14977396489E+04 -0.52403020991E+03  0.10334242538E+04  0.18936201850E+04  0.25500000920E-02 0. -1.
       -2    1    3    3    0  502 -0.14977396489E+04  0.52403020991E+03 -0.67470830098E+03  0.17242572337E+04  0.25500000920E-02 0.  1.
</event>
<event>
 5   0  0.4200635E-07  0.3568711E+04  0.7818609E-02  0.8097697E-01
        2   -1    0    0  501    0  0.00000000000E+00  0.00000000000E+00  0.23682472285E+04  0.23682472285E+04  0.25500000920E-02 0.  1.
       -2   -1    0    0    0  501  0.00000000000E+00  0.00000000000E+00 -0.13444225675E+04  0.13444225675E+04  0.25500000920E-02 0. -1.
    10030    2    1    2    0    0  0.00000000000E+00  0.00000000000E+00  0.10238246610E+04  0.37126697961E+04  0.35687112629E+04 0.  0.
        4    1    3    3  502    0  0.11330696267E+04 -0.82331324430E+03  0.16620550267E+04  0.21735040838E+04  0.12699999809E+01 0.  1.
       -4    1    3    3    0  502 -0.11330696267E+04  0.82331324430E+03 -0.63823036572E+03  0.15391657123E+04  0.12699999809E+01 0. -1.
</event>
<event>
 5   0  0.1370997E-07  0.3714575E+04  0.7818609E-02  0.8064739E-01
        1   -1    0    0  501    0  0.00000000000E+00  0.00000000000E+00  0.24694199276E+04  0.24694199276E+04  0.50400001928E-02 0.  1.
       -1   -1    0    0    0  501  0.00000000000E+00  0.00000000000E+00 -0.13968937282E+04  0.13968937282E+04  0.50400001928E-02 0. -1.
    10030    2    1    2    0    0  0.00000000000E+00  0.00000000000E+00  0.10725261994E+04  0.38663136558E+04  0.37145751893E+04 0.  0.
        3    1    3    3  502    0 -0.93680194252E+03  0.14295519277E+04  0.12927971575E+04  0.21430214871E+04  0.10100000352E+00 0.  1.
       -3    1    3    3    0  502  0.93680194252E+03 -0.14295519277E+04 -0.22027095814E+03  0.17232921687E+04  0.10100000352E+00 0. -1.
</event>
<event>
 5   0  0.1298250E-07  0.3594133E+04  0.7818609E-02  0.8091837E-01
       -1   -1    0    0    0  501  0.00000000000E+00  0.00000000000E+00  0.15348121589E+04  0.15348121589E+04  0.50400001928E-02 0. -1.
        1   -1    0    0  501    0  0.00000000000E+00  0.00000000000E+00 -0.21041328006E+04  0.21041328006E+04  0.50400001928E-02 0.  1.
    10030    2    1    2    0    0  0.00000000000E+00  0.00000000000E+00 -0.56932064171E+03  0.36389449594E+04  0.35941333343E+04 0.  0.
        1    1    3    3  502    0 -0.10228528050E+04  0.57688054010E+02 -0.17795146523E+04  0.20533456041E+04  0.50400001928E-02 0.  1.
       -1    1    3    3    0  502  0.10228528050E+04 -0.57688054010E+02  0.12101940106E+04  0.15855993553E+04  0.50400001928E-02 0. -1.
</event>
<event>
 5   0  0.1298250E-07  0.3656989E+04  0.7818609E-02  0.8077561E-01
       -1   -1    0    0    0  501  0.00000000000E+00  0.00000000000E+00  0.14870953196E+04  0.14870953196E+04  0.50400001928E-02 0.  1.
        1   -1    0    0  501    0  0.00000000000E+00  0.00000000000E+00 -0.22482700199E+04  0.22482700199E+04  0.50400001928E-02 0. -1.
    10030    2    1    2    0    0  0.00000000000E+00  0.00000000000E+00 -0.76117470032E+03  0.37353653396E+04  0.36569888290E+04 0.  0.
        2    1    3    3  502    0  0.89261813194E+03  0.15832998831E+04 -0.58432699391E+03  0.19091997500E+04  0.25500000920E-02 0.  1.
       -2    1    3    3    0  502 -0.89261813194E+03 -0.15832998831E+04 -0.17684770640E+03  0.18261655896E+04  0.25500000920E-02 0. -1.
</event>
<event>
 5   0  0.1348226E-07  0.3604201E+04  0.7818609E-02  0.8089530E-01
       -1   -1    0    0    0  501  0.00000000000E+00  0.00000000000E+00  0.35714149068E+04  0.35714149068E+04  0.50400001928E-02 0. -1.
        1   -1    0    0  501    0  0.00000000000E+00  0.00000000000E+00 -0.90932213318E+03  0.90932213319E+03  0.50400001928E-02 0.  1.
    10030    2    1    2    0    0  0.00000000000E+00  0.00000000000E+00  0.26620927736E+04  0.44807370400E+04  0.36042012272E+04 0.  0.
        4    1    3    3  502    0  0.14357590041E+04  0.60381026095E+03  0.24578904972E+04  0.29098484597E+04  0.12699999809E+01 0. -1.
       -4    1    3    3    0  502 -0.14357590041E+04 -0.60381026095E+03  0.20420227635E+03  0.15708885803E+04  0.12699999809E+01 0.  1.
</event>
<event>
 5   0  0.1298250E-07  0.3492311E+04  0.7818609E-02  0.8115615E-01
       -3   -1    0    0    0  501  0.00000000000E+00  0.00000000000E+00  0.16006949915E+04  0.16006949947E+04  0.10100000352E+00 0.  1.
        3   -1    0    0  501    0  0.00000000000E+00  0.00000000000E+00 -0.19048343942E+04  0.19048343969E+04  0.10100000352E+00 0. -1.
    10030    2    1    2    0    0  0.00000000000E+00  0.00000000000E+00 -0.30413940270E+03  0.35055293915E+04  0.34923109166E+04 0.  0.
        3    1    3    3  502    0 -0.60539721184E+03 -0.12149159026E+04  0.95051055861E+03  0.16571049353E+04  0.10100000352E+00 0.  1.
       -3    1    3    3    0  502  0.60539721184E+03  0.12149159026E+04 -0.12546499613E+04  0.18484244562E+04  0.10100000352E+00 0. -1.
</event>
<event>
 5   0  0.3993751E-07  0.3600512E+04  0.7818609E-02  0.8090375E-01
        2   -1    0    0  501    0  0.00000000000E+00  0.00000000000E+00  0.26601217610E+04  0.26601217610E+04  0.25500000920E-02 0.  1.
       -2   -1    0    0    0  501  0.00000000000E+00  0.00000000000E+00 -0.12183355855E+04  0.12183355855E+04  0.25500000920E-02 0. -1.
    10030    2    1    2    0    0  0.00000000000E+00  0.00000000000E+00  0.14417861755E+04  0.38784573466E+04  0.36005116321E+04 0.  0.
        1    1    3    3  502    0 -0.31137310937E+02  0.16380630420E+04 -0.82828769662E+02  0.16404513607E+04  0.50400001928E-02 0. -1.
       -1    1    3    3    0  502  0.31137310937E+02 -0.16380630420E+04  0.15246149452E+04  0.22380059859E+04  0.50400001928E-02 0.  1.
</event>
<event>
 5   0  0.1298250E-07  0.3598463E+04  0.7818609E-02  0.8090844E-01
       -1   -1    0    0    0  501  0.00000000000E+00  0.00000000000E+00  0.15593636642E+04  0.15593636642E+04  0.50400001928E-02 0.  1.
        1   -1    0    0  501    0  0.00000000000E+00  0.00000000000E+00 -0.20759965300E+04  0.20759965300E+04  0.50400001928E-02 0. -1.
    10030    2    1    2    0    0  0.00000000000E+00  0.00000000000E+00 -0.51663286578E+03  0.36353601942E+04  0.35984627584E+04 0.  0.
        2    1    3    3  502    0  0.75608682313E+03 -0.11329158675E+04 -0.14459846282E+04  0.19864634887E+04  0.25500000920E-02 0. -1.
       -2    1    3    3    0  502 -0.75608682313E+03  0.11329158675E+04  0.92935176244E+03  0.16488967055E+04  0.25500000920E-02 0.  1.
</event>
<event>
 5   0  0.4115358E-07  0.3615060E+04  0.7818609E-02  0.8087051E-01
        2   -1    0    0  501    0  0.00000000000E+00  0.00000000000E+00  0.23597710629E+04  0.23597710629E+04  0.25500000920E-02 0.  1.
       -2   -1    0    0    0  501  0.00000000000E+00  0.00000000000E+00 -0.13845263036E+04  0.13845263037E+04  0.25500000920E-02 0. -1.
    10030    2    1    2    0    0  0.00000000000E+00  0.00000000000E+00  0.97524475921E+03  0.37442973665E+04  0.36150602247E+04 0.  0.
        3    1    3    3  502    0 -0.14953239218E+04  0.17100487957E+03  0.15243704250E+04  0.21421814822E+04  0.10100000352E+00 0.  1.
       -3    1    3    3    0  502  0.14953239218E+04 -0.17100487957E+03 -0.54912566576E+03  0.16021158843E+04  0.10100000352E+00 0. -1.
</event>
<event>
 5   0  0.1348226E-07  0.3598565E+04  0.7818609E-02  0.8090821E-01
       -1   -1    0    0    0  501  0.00000000000E+00  0.00000000000E+00  0.19130427510E+04  0.19130427510E+04  0.50400001928E-02 0. -1.
        1   -1    0    0  501    0  0.00000000000E+00  0.00000000000E+00 -0.16922866998E+04  0.16922866998E+04  0.50400001928E-02 0.  1.
    10030    2    1    2    0    0  0.00000000000E+00  0.00000000000E+00  0.22075605113E+03  0.36053294508E+04  0.35985646047E+04 0.  0.
        4    1    3    3  502    0  0.34061577150E+03 -0.16667879224E+04 -0.47656807061E+03  0.17667257345E+04  0.12699999809E+01 0. -1.
       -4    1    3    3    0  502 -0.34061577150E+03  0.16667879224E+04  0.69732412175E+03  0.18386037163E+04  0.12699999809E+01 0.  1.
</event>
<event>
 5   0  0.3993751E-07  0.3594567E+04  0.7818609E-02  0.8091737E-01
        2   -1    0    0  501    0  0.00000000000E+00  0.00000000000E+00  0.12012941548E+04  0.12012941548E+04  0.25500000920E-02 0. -1.
       -2   -1    0    0    0  501  0.00000000000E+00  0.00000000000E+00 -0.26889568891E+04  0.26889568891E+04  0.25500000920E-02 0.  1.
    10030    2    1    2    0    0  0.00000000000E+00  0.00000000000E+00 -0.14876627343E+04  0.38902510439E+04  0.35945671191E+04 0.  0.
        1    1    3    3  502    0  0.40834554494E+03 -0.79041324860E+02  0.11484922607E+04  0.12214860163E+04  0.50400001928E-02 0. -1.
       -1    1    3    3    0  502 -0.40834554494E+03  0.79041324860E+02 -0.26361549950E+04  0.26687650276E+04  0.50400001928E-02 0.  1.
</event>
<event>
 5   0  0.1370997E-07  0.3494218E+04  0.7818609E-02  0.8115161E-01
        1   -1    0    0  501    0  0.00000000000E+00  0.00000000000E+00  0.17323005359E+04  0.17323005359E+04  0.50400001928E-02 0. -1.
       -1   -1    0    0    0  501  0.00000000000E+00  0.00000000000E+00 -0.17620445525E+04  0.17620445525E+04  0.50400001928E-02 0.  1.
    10030    2    1    2    0    0  0.00000000000E+00  0.00000000000E+00 -0.29744016614E+02  0.34943450884E+04  0.34942184949E+04 0.  0.
        3    1    3    3  502    0 -0.13348670037E+03  0.41630050406E+03 -0.17064609747E+04  0.17615714227E+04  0.10100000352E+00 0.  1.
       -3    1    3    3    0  502  0.13348670037E+03 -0.41630050406E+03  0.16767169581E+04  0.17327736657E+04  0.10100000352E+00 0. -1.
</event>
<event>
 5   0  0.4200635E-07  0.3530917E+04  0.7818609E-02  0.8106502E-01
        2   -1    0    0  501    0  0.00000000000E+00  0.00000000000E+00  0.28922473766E+04  0.28922473766E+04  0.25500000920E-02 0. -1.
       -2   -1    0    0    0  501  0.00000000000E+00  0.00000000000E+00 -0.10776545159E+04  0.10776545159E+04  0.25500000920E-02 0.  1.
    10030    2    1    2    0    0  0.00000000000E+00  0.00000000000E+00  0.18145928608E+04  0.39699018925E+04  0.35309168478E+04 0.  0.
        4    1    3    3  502    0  0.11471099450E+03  0.75155391694E+03 -0.88417876595E+03  0.11660898788E+04  0.12699999809E+01 0.  1.
       -4    1    3    3    0  502 -0.11471099450E+03 -0.75155391694E+03  0.26987716267E+04  0.28038120137E+04  0.12699999809E+01 0. -1.
</event>
<event>
 5   0  0.4200635E-07  0.3309714E+04  0.7818609E-02  0.8160428E-01
       -2   -1    0    0    0  501  0.00000000000E+00  0.00000000000E+00  0.11559269858E+04  0.11559269858E+04  0.25500000920E-02 0. -1.
        2   -1    0    0  501    0  0.00000000000E+00  0.00000000000E+00 -0.23691382948E+04  0.23691382948E+04  0.25500000920E-02 0.  1.
    10030    2    1    2    0    0  0.00000000000E+00  0.00000000000E+00 -0.12132113090E+04  0.35250652806E+04  0.33097135152E+04 0.  0.
        4    1    3    3  502    0  0.10845818495E+04 -0.11182812797E+04 -0.11998459796E+02  0.15578884379E+04  0.12699999809E+01 0. -1.
       -4    1    3    3    0  502 -0.10845818495E+04  0.11182812797E+04 -0.12012128492E+04  0.19671768428E+04  0.12699999809E+01 0.  1.
</event>
<event>
 5   0  0.3880259E-07  0.3588887E+04  0.7818609E-02  0.8093042E-01
       -2   -1    0    0    0  501  0.00000000000E+00  0.00000000000E+00  0.13375913005E+04  0.13375913005E+04  0.25500000920E-02 0.  1.
        2   -1    0    0  501    0  0.00000000000E+00  0.00000000000E+00 -0.24073334123E+04  0.24073334123E+04  0.25500000920E-02 0. -1.
    10030    2    1    2    0    0  0.00000000000E+00  0.00000000000E+00 -0.10697421118E+04  0.37449247128E+04  0.35888874207E+04 0.  0.
        5    1    3    3  502    0 -0.43000609535E+02 -0.43396489316E+03 -0.23511916133E+04  0.23912964419E+04  0.46999998093E+01 0. -1.
       -5    1    3    3    0  502  0.43000609535E+02  0.43396489316E+03  0.12814495014E+04  0.13536282709E+04  0.46999998093E+01 0.  1.
</event>
<event>
 5   0  0.4120440E-07  0.3581470E+04  0.7818609E-02  0.8094750E-01
        2   -1    0    0  501    0  0.00000000000E+00  0.00000000000E+00  0.14573875000E+04  0.14573875001E+04  0.25500000920E-02 0.  1.
       -2   -1    0    0    0  501  0.00000000000E+00  0.00000000000E+00 -0.22003285035E+04  0.22003285035E+04  0.25500000920E-02 0. -1.
    10030    2    1    2    0    0  0.00000000000E+00  0.00000000000E+00 -0.74294100340E+03  0.36577160035E+04  0.35814696743E+04 0.  0.
        2    1    3    3  502    0  0.38577956805E+03  0.14670325170E+04  0.60048395885E+03  0.16314384040E+04  0.25500000920E-02 0.  1.
       -2    1    3    3    0  502 -0.38577956805E+03 -0.14670325170E+04 -0.13434249622E+04  0.20262775995E+04  0.25500000920E-02 0. -1.
</event>
<event>
 5   0  0.4115358E-07  0.3593353E+04  0.7818609E-02  0.8092016E-01
       -2   -1    0    0    0  501  0.00000000000E+00  0.00000000000E+00  0.22516015625E+04  0.22516015625E+04  0.25500000920E-02 0.  1.
        2   -1    0    0  501    0  0.00000000000E+00  0.00000000000E+00 -0.14336668222E+04  0.14336668222E+04  0.25500000920E-02 0. -1.
    10030    2    1    2    0    0  0.00000000000E+00  0.00000000000E+00  0.81793474030E+03  0.36852683848E+04  0.35933530064E+04 0.  0.
        3    1    3    3  502    0 -0.12140091088E+04  0.90947772407E+03 -0.57851082769E+03  0.16234662407E+04  0.10100000352E+00 0. -1.
       -3    1    3    3    0  502  0.12140091088E+04 -0.90947772407E+03  0.13964455680E+04  0.20618021441E+04  0.10100000352E+00 0.  1.
</event>
<event>
 5   0  0.4115358E-07  0.3603271E+04  0.7818609E-02  0.8089743E-01
        2   -1    0    0  501    0  0.00000000000E+00  0.00000000000E+00  0.20858199168E+04  0.20858199168E+04  0.25500000920E-02 0. -1.
       -2   -1    0    0    0  501  0.00000000000E+00  0.00000000000E+00 -0.15561699747E+04  0.15561699747E+04  0.25500000920E-02 0.  1.
    10030    2    1    2    0    0  0.00000000000E+00  0.00000000000E+00  0.52964994206E+03  0.36419898915E+04  0.36032709180E+04 0.  0.
        3    1    3    3  502    0 -0.86498545973E+03 -0.69209856414E+03  0.17008983799E+04  0.20298412689E+04  0.10100000352E+00 0. -1.
       -3    1    3    3    0  502  0.86498545973E+03  0.69209856414E+03 -0.11712484378E+04  0.16121486226E+04  0.10100000352E+00 0.  1.
</event>
<event>
 5   0  0.4120440E-07  0.3648842E+04  0.7818609E-02  0.8079395E-01
        2   -1    0    0  501    0  0.00000000000E+00  0.00000000000E+00  0.14292535178E+04  0.14292535178E+04  0.25500000920E-02 0. -1.
       -2   -1    0    0    0  501  0.00000000000E+00  0.00000000000E+00 -0.23288462996E+04  0.23288462996E+04  0.25500000920E-02 0.  1.
    10030    2    1    2    0    0  0.00000000000E+00  0.00000000000E+00 -0.89959278180E+03  0.37580998173E+04  0.36488418798E+04 0.  0.
        2    1    3    3  502    0  0.13110864872E+04  0.11940445042E+04 -0.89137870320E+03  0.19847533971E+04  0.25500000920E-02 0.  1.
       -2    1    3    3    0  502 -0.13110864872E+04 -0.11940445042E+04 -0.82140786035E+01  0.17733464202E+04  0.25500000920E-02 0. -1.
</event>
<event>
 5   0  0.3880259E-07  0.3600246E+04  0.7818609E-02  0.8090435E-01
        2   -1    0    0  501    0  0.00000000000E+00  0.00000000000E+00  0.18888088252E+04  0.18888088252E+04  0.25500000920E-02 0. -1.
       -2   -1    0    0    0  501  0.00000000000E+00  0.00000000000E+00 -0.17156016441E+04  0.17156016441E+04  0.25500000920E-02 0.  1.
    10030    2    1    2    0    0  0.00000000000E+00  0.00000000000E+00  0.17320718105E+03  0.36044104693E+04  0.36002463948E+04 0.  0.
        5    1    3    3  502    0 -0.39727748936E+03  0.17502375667E+04  0.22554628287E+03  0.18088820192E+04  0.46999998093E+01 0. -1.
       -5    1    3    3    0  502  0.39727748936E+03 -0.17502375667E+04 -0.52339101815E+02  0.17955284501E+04  0.46999998093E+01 0.  1.
</event>
<event>
 5   0  0.4115358E-07  0.3597712E+04  0.7818609E-02  0.8091016E-01
        2   -1    0    0  501    0  0.00000000000E+00  0.00000000000E+00  0.13246778059E+04  0.13246778059E+04  0.25500000920E-02 0. -1.
       -2   -1    0    0    0  501  0.00000000000E+00  0.00000000000E+00 -0.24427700253E+04  0.24427700253E+04  0.25500000920E-02 0.  1.
    10030    2    1    2    0    0  0.00000000000E+00  0.00000000000E+00 -0.11180922194E+04  0.37674478312E+04  0.35977121828E+04 0.  0.
        3    1    3    3  502    0  0.17220060086E+04  0.18904629634E+03 -0.51580173547E+02  0.17331196497E+04  0.10100000352E+00 0. -1.
       -3    1    3    3    0  502 -0.17220060086E+04 -0.18904629634E+03 -0.10665120459E+04  0.20343281815E+04  0.10100000352E+00 0.  1.
</event>
<event>
 5   0  0.1348226E-07  0.3558065E+04  0.7818609E-02  0.8100166E-01
        1   -1    0    0  501    0  0.00000000000E+00  0.00000000000E+00  0.19054944177E+04  0.19054944177E+04  0.50400001928E-02 0. -1.
       -1   -1    0    0    0  501  0.00000000000E+00  0.00000000000E+00 -0.16609632934E+04  0.16609632934E+04  0.50400001928E-02 0.  1.
    10030    2    1    2    0    0  0.00000000000E+00  0.00000000000E+00  0.24453112428E+03  0.35664577112E+04  0.35580648020E+04 0.  0.
        4    1    3    3  502    0 -0.15290579890E+03 -0.13565887162E+04 -0.10211449620E+04  0.17048318904E+04  0.12699999809E+01 0.  1.
       -4    1    3    3    0  502  0.15290579890E+03  0.13565887162E+04  0.12656760863E+04  0.18616258208E+04  0.12699999809E+01 0. -1.
</event>
<event>
 5   0  0.3993751E-07  0.3629428E+04  0.7818609E-02  0.8083784E-01
       -2   -1    0    0    0  501  0.00000000000E+00  0.00000000000E+00  0.21235554105E+04  0.21235554105E+04  0.25500000920E-02 0.  1.
        2   -1    0    0  501    0  0.00000000000E+00  0.00000000000E+00 -0.15507892981E+04  0.15507892981E+04  0.25500000920E-02 0. -1.
    10030    2    1    2    0    0  0.00000000000E+00  0.00000000000E+00  0.57276611241E+03  0.36743447085E+04  0.36294280565E+04 0.  0.
        1    1    3    3  502    0  0.50787547353E+03 -0.13002679919E+04  0.14602817320E+04  0.20201626380E+04  0.50400001928E-02 0.  1.
       -1    1    3    3    0  502 -0.50787547353E+03  0.13002679919E+04 -0.88751561958E+03  0.16541820705E+04  0.50400001928E-02 0. -1.
</event>
<event>
 5   0  0.4120440E-07  0.3639606E+04  0.7818609E-02  0.8081479E-01
       -2   -1    0    0    0  501  0.00000000000E+00  0.00000000000E+00  0.16324600409E+04  0.16324600409E+04  0.25500000920E-02 0. -1.
        2   -1    0    0  501    0  0.00000000000E+00  0.00000000000E+00 -0.20286458073E+04  0.20286458073E+04  0.25500000920E-02 0.  1.
    10030    2    1    2    0    0  0.00000000000E+00  0.00000000000E+00 -0.39618576639E+03  0.36611058481E+04  0.36396061421E+04 0.  0.
        2    1    3    3  502    0 -0.17630288097E+04 -0.28994715425E+03  0.14940877628E+03  0.17929481082E+04  0.25500000920E-02 0.  1.
       -2    1    3    3    0  502  0.17630288097E+04  0.28994715425E+03 -0.54559454267E+03  0.18681577399E+04  0.25500000920E-02 0. -1.
</event>
<event>
 5   0  0.1298250E-07  0.3585725E+04  0.7818609E-02  0.8093769E-01
        1   -1    0    0  501    0  0.00000000000E+00  0.00000000000E+00  0.19174691974E+04  0.19174691974E+04  0.50400001928E-02 0.  1.
       -1   -1    0    0    0  501  0.00000000000E+00  0.00000000000E+00 -0.16763535569E+04  0.16763535569E+04  0.50400001928E-02 0. -1.
    10030    2    1    2    0    0  0.00000000000E+00  0.00000000000E+00  0.24111564053E+03  0.35938227543E+04  0.35857252038E+04 0.  0.
        2    1    3    3  502    0  0.81738925402E+03 -0.15952376436E+04  0.15869604542E+03  0.17994701351E+04  0.25500000920E-02 0. -1.
       -2    1    3    3    0  502 -0.81738925402E+03  0.15952376436E+04  0.82419595114E+02  0.17943526192E+04  0.25500000920E-02 0.  1.
</event>
<event>
 5   0  0.3880259E-07  0.3635234E+04  0.7818609E-02  0.8082468E-01
        2   -1    0    0  501    0  0.00000000000E+00  0.00000000000E+00  0.10885170787E+04  0.10885170787E+04  0.25500000920E-02 0. -1.
       -2   -1    0    0    0  501  0.00000000000E+00  0.00000000000E+00 -0.30350761021E+04  0.30350761021E+04  0.25500000920E-02 0.  1.
    10030    2    1    2    0    0  0.00000000000E+00  0.00000000000E+00 -0.19465590234E+04  0.41235931809E+04  0.36352343376E+04 0.  0.
        5    1    3    3  502    0  0.54075019012E+03  0.17063097305E+04 -0.61491694750E+03  0.18926300766E+04  0.46999998093E+01 0. -1.
       -5    1    3    3    0  502 -0.54075019012E+03 -0.17063097305E+04 -0.13316420759E+04  0.22309631043E+04  0.46999998093E+01 0.  1.
</event>
<event>
 5   0  0.1370997E-07  0.3592946E+04  0.7818609E-02  0.8092109E-01
        1   -1    0    0  501    0  0.00000000000E+00  0.00000000000E+00  0.11495368350E+04  0.11495368350E+04  0.50400001928E-02 0. -1.
       -1   -1    0    0    0  501  0.00000000000E+00  0.00000000000E+00 -0.28074921926E+04  0.28074921926E+04  0.50400001928E-02 0.  1.
    10030    2    1    2    0    0  0.00000000000E+00  0.00000000000E+00 -0.16579553575E+04  0.39570290276E+04  0.35929462503E+04 0.  0.
        3    1    3    3  502    0  0.33497671027E+03 -0.72187477012E+03 -0.26027740460E+04  0.27217173485E+04  0.10100000352E+00 0.  1.
       -3    1    3    3    0  502 -0.33497671027E+03  0.72187477012E+03  0.94481868851E+03  0.12353116791E+04  0.10100000352E+00 0. -1.
</event>
<event>
 5   0  0.1370997E-07  0.3593588E+04  0.7818609E-02  0.8091962E-01
        1   -1    0    0  501    0  0.00000000000E+00  0.00000000000E+00  0.22152920736E+04  0.22152920737E+04  0.50400001928E-02 0.  1.
       -1   -1    0    0    0  501  0.00000000000E+00  0.00000000000E+00 -0.14573559679E+04  0.14573559679E+04  0.50400001928E-02 0. -1.
    10030    2    1    2    0    0  0.00000000000E+00  0.00000000000E+00  0.75793610574E+03  0.36726480416E+04  0.35935882481E+04 0.  0.
        3    1    3    3  502    0  0.96666091845E+03 -0.18319684637E+03  0.19155326464E+04  0.21534297633E+04  0.10100000352E+00 0.  1.
       -3    1    3    3    0  502 -0.96666091845E+03  0.18319684637E+03 -0.11575965407E+04  0.15192182783E+04  0.10100000352E+00 0. -1.
</event>
<event>
 5   0  0.1348226E-07  0.3602734E+04  0.7818609E-02  0.8089866E-01
       -1   -1    0    0    0  501  0.00000000000E+00  0.00000000000E+00  0.11147343969E+04  0.11147343969E+04  0.50400001928E-02 0.  1.
        1   -1    0    0  501    0  0.00000000000E+00  0.00000000000E+00 -0.29109379127E+04  0.29109379127E+04  0.50400001928E-02 0. -1.
    10030    2    1    2    0    0  0.00000000000E+00  0.00000000000E+00 -0.17962035157E+04  0.40256723096E+04  0.36027337501E+04 0.  0.
        4    1    3    3  502    0 -0.15174856547E+04 -0.69193825358E+03 -0.16587340800E+04  0.23522205721E+04  0.12699999809E+01 0. -1.
       -4    1    3    3    0  502  0.15174856547E+04  0.69193825358E+03 -0.13746943579E+03  0.16734517375E+04  0.12699999809E+01 0.  1.
</event>
<event>
 5   0  0.4200635E-07  0.3578991E+04  0.7818609E-02  0.8095321E-01
        2   -1    0    0  501    0  0.00000000000E+00  0.00000000000E+00  0.20555112398E+04  0.20555112398E+04  0.25500000920E-02 0. -1.
       -2   -1    0    0    0  501  0.00000000000E+00  0.00000000000E+00 -0.15579065884E+04  0.15579065884E+04  0.25500000920E-02 0.  1.
    10030    2    1    2    0    0  0.00000000000E+00  0.00000000000E+00  0.49760465133E+03  0.36134178282E+04  0.35789912004E+04 0.  0.
        4    1    3    3  502    0  0.15350287804E+04 -0.53691264466E+03  0.10027818755E+04  0.19105396220E+04  0.12699999809E+01 0. -1.
       -4    1    3    3    0  502 -0.15350287804E+04  0.53691264466E+03 -0.50517722414E+03  0.17028782062E+04  0.12699999809E+01 0.  1.
</event>
<event>
 5   0  0.4120440E-07  0.3598432E+04  0.7818609E-02  0.8090851E-01
        2   -1    0    0  501    0  0.00000000000E+00  0.00000000000E+00  0.10979126493E+04  0.10979126493E+04  0.25500000920E-02 0. -1.
       -2   -1    0    0    0  501  0.00000000000E+00  0.00000000000E+00 -0.29484842269E+04  0.29484842269E+04  0.25500000920E-02 0.  1.
    10030    2    1    2    0    0  0.00000000000E+00  0.00000000000E+00 -0.18505715776E+04  0.40463968762E+04  0.35984319524E+04 0.  0.
        2    1    3    3  502    0 -0.10459459850E+04  0.34215106331E+03 -0.25258992090E+04  0.27552199853E+04  0.25500000920E-02 0.  1.
       -2    1    3    3    0  502  0.10459459850E+04 -0.34215106331E+03  0.67532763143E+03  0.12911768908E+04  0.25500000920E-02 0. -1.
</event>
<event>
 5   0  0.4200635E-07  0.3766953E+04  0.7818609E-02  0.8053284E-01
       -2   -1    0    0    0  501  0.00000000000E+00  0.00000000000E+00  0.20017043633E+04  0.20017043633E+04  0.25500000920E-02 0.  1.
        2   -1    0    0  501    0  0.00000000000E+00  0.00000000000E+00 -0.17722314170E+04  0.17722314170E+04  0.25500000920E-02 0. -1.
    10030    2    1    2    0    0  0.00000000000E+00  0.00000000000E+00  0.22947294637E+03  0.37739357803E+04  0.37669528058E+04 0.  0.
        4    1    3    3  502    0  0.10601910792E+04 -0.71516969244E+03 -0.12705809139E+04  0.18027341138E+04  0.12699999809E+01 0. -1.
       -4    1    3    3    0  502 -0.10601910792E+04  0.71516969244E+03  0.15000538603E+04  0.19712016665E+04  0.12699999809E+01 0.  1.
</event>
<event>
 5   0  0.3993751E-07  0.3574063E+04  0.7818609E-02  0.8096459E-01
       -2   -1    0    0    0  501  0.00000000000E+00  0.00000000000E+00  0.14316115854E+04  0.14316115854E+04  0.25500000920E-02 0. -1.
        2   -1    0    0  501    0  0.00000000000E+00  0.00000000000E+00 -0.22306899604E+04  0.22306899604E+04  0.25500000920E-02 0.  1.
    10030    2    1    2    0    0  0.00000000000E+00  0.00000000000E+00 -0.79907837491E+03  0.36623015458E+04  0.35740630049E+04 0.  0.
        1    1    3    3  502    0 -0.15112101302E+04 -0.92771575177E+03 -0.17255501495E+03  0.17816250467E+04  0.50400001928E-02 0.  1.
       -1    1    3    3    0  502  0.15112101302E+04  0.92771575177E+03 -0.62652335996E+03  0.18806764991E+04  0.50400001928E-02 0. -1.
</event>
<event>
 5   0  0.4115358E-07  0.3151282E+04  0.7818609E-02  0.8201803E-01
       -2   -1    0    0    0  501  0.00000000000E+00  0.00000000000E+00  0.90779271889E+03  0.90779271889E+03  0.25500000920E-02 0. -1.
        2   -1    0    0  501    0  0.00000000000E+00  0.00000000000E+00 -0.27348135745E+04  0.27348135745E+04  0.25500000920E-02 0.  1.
    10030    2    1    2    0    0  0.00000000000E+00  0.00000000000E+00 -0.18270208556E+04  0.36426062934E+04  0.31512815491E+04 0.  0.
        3    1    3    3  502    0 -0.63189922490E+03 -0.68632844832E+03 -0.23812466671E+04  0.25574751356E+04  0.10100000352E+00 0.  1.
       -3    1    3    3    0  502  0.63189922490E+03  0.68632844832E+03  0.55422581146E+03  0.10851311578E+04  0.10100000352E+00 0. -1.
</event>
<event>
 5   0  0.1298250E-07  0.3695170E+04  0.7818609E-02  0.8069033E-01
        1   -1    0    0  501    0  0.00000000000E+00  0.00000000000E+00  0.22424024143E+04  0.22424024143E+04  0.50400001928E-02 0.  1.
       -1   -1    0    0    0  501  0.00000000000E+00  0.00000000000E+00 -0.15222826883E+04  0.15222826883E+04  0.50400001928E-02 0. -1.
    10030    2    1    2    0    0  0.00000000000E+00  0.00000000000E+00  0.72011972597E+03  0.37646851026E+04  0.36951700234E+04 0.  0.
        1    1    3    3  502    0  0.16102963801E+04 -0.25691656498E+03  0.12450260519E+04  0.20516214132E+04  0.50400001928E-02 0. -1.
       -1    1    3    3    0  502 -0.16102963801E+04  0.25691656498E+03 -0.52490632594E+03  0.17130636894E+04  0.50400001928E-02 0.  1.
</event>
<event>
 5   0  0.4120440E-07  0.3540175E+04  0.7818609E-02  0.8104334E-01
        2   -1    0    0  501    0  0.00000000000E+00  0.00000000000E+00  0.20175907549E+04  0.20175907549E+04  0.25500000920E-02 0.  1.
       -2   -1    0    0    0  501  0.00000000000E+00  0.00000000000E+00 -0.15529463323E+04  0.15529463323E+04  0.25500000920E-02 0. -1.
    10030    2    1    2    0    0  0.00000000000E+00  0.00000000000E+00  0.46464442259E+03  0.35705370872E+04  0.35401752290E+04 0.  0.
        2    1    3    3  502    0 -0.10466113432E+04  0.50079573703E+03  0.15805811630E+04  0.19607214200E+04  0.25500000920E-02 0.  1.
       -2    1    3    3    0  502  0.10466113432E+04 -0.50079573703E+03 -0.11159367404E+04  0.16098156673E+04  0.25500000920E-02 0. -1.
</event>
<event>
 5   0  0.1298250E-07  0.3625681E+04  0.7818609E-02  0.8084634E-01
        1   -1    0    0  501    0  0.00000000000E+00  0.00000000000E+00  0.25192798562E+04  0.25192798562E+04  0.50400001928E-02 0. -1.
       -1   -1    0    0    0  501  0.00000000000E+00  0.00000000000E+00 -0.13044959265E+04  0.13044959265E+04  0.50400001928E-02 0.  1.
    10030    2    1    2    0    0  0.00000000000E+00  0.00000000000E+00  0.12147839297E+04  0.38237757827E+04  0.36256807969E+04 0.  0.
        2    1    3    3  502    0  0.15639226646E+04 -0.65363223151E+03  0.12854020293E+04  0.21272864339E+04  0.25500000920E-02 0. -1.
       -2    1    3    3    0  502 -0.15639226646E+04  0.65363223151E+03 -0.70618099627E+02  0.16964893489E+04  0.25500000920E-02 0.  1.
</event>
<event>
 5   0  0.4200635E-07  0.3605286E+04  0.7818609E-02  0.8089282E-01
       -2   -1    0    0    0  501  0.00000000000E+00  0.00000000000E+00  0.15574657359E+04  0.15574657359E+04  0.25500000920E-02 0. -1.
        2   -1    0    0  501    0  0.00000000000E+00  0.00000000000E+00 -0.20864163309E+04  0.20864163309E+04  0.25500000920E-02 0.  1.
    10030    2    1    2    0    0  0.00000000000E+00  0.00000000000E+00 -0.52895059496E+03  0.36438820668E+04  0.36052860892E+04 0.  0.
        4    1    3    3  502    0 -0.51062327080E+03 -0.17180779791E+04 -0.45886804156E+03  0.18501593335E+04  0.12699999809E+01 0. -1.
       -4    1    3    3    0  502  0.51062327080E+03  0.17180779791E+04 -0.70082553402E+02  0.17937227333E+04  0.12699999809E+01 0.  1.
</event>
<event>
 5   0  0.4200635E-07  0.3581293E+04  0.7818609E-02  0.8094790E-01
        2   -1    0    0  501    0  0.00000000000E+00  0.00000000000E+00  0.16561135238E+04  0.16561135238E+04  0.25500000920E-02 0. -1.
       -2   -1    0    0    0  501  0.00000000000E+00  0.00000000000E+00 -0.19361086380E+04  0.19361086380E+04  0.25500000920E-02 0.  1.
    10030    2    1    2    0    0  0.00000000000E+00  0.00000000000E+00 -0.27999511421E+03  0.35922221618E+04  0.35812934528E+04 0.  0.
        4    1    3    3  502    0  0.20430143873E+03  0.74496512847E+03 -0.17603845017E+04  0.19224118516E+04  0.12699999809E+01 0.  1.
       -4    1    3    3    0  502 -0.20430143873E+03 -0.74496512847E+03  0.14803893875E+04  0.16698103102E+04  0.12699999809E+01 0. -1.
</event>
<event>
 5   0  0.1298250E-07  0.3580691E+04  0.7818609E-02  0.8094929E-01
        1   -1    0    0  501    0  0.00000000000E+00  0.00000000000E+00  0.20182614312E+04  0.20182614313E+04  0.50400001928E-02 0. -1.
       -1   -1    0    0    0  501  0.00000000000E+00  0.00000000000E+00 -0.15881669572E+04  0.15881669572E+04  0.50400001928E-02 0.  1.
    10030    2    1    2    0    0  0.00000000000E+00  0.00000000000E+00  0.43009447406E+03  0.36064283884E+04  0.35806905011E+04 0.  0.
        1    1    3    3  502    0 -0.23057300336E+03 -0.17467826634E+04 -0.10491932854E+03  0.17650557070E+04  0.50400001928E-02 0.  1.
       -1    1    3    3    0  502  0.23057300336E+03  0.17467826634E+04  0.53501380261E+03  0.18413726815E+04  0.50400001928E-02 0. -1.
</event>
<event>
 5   0  0.1370997E-07  0.3736152E+04  0.7818609E-02  0.8059997E-01
       -1   -1    0    0    0  501  0.00000000000E+00  0.00000000000E+00  0.16027117340E+04  0.16027117340E+04  0.50400001928E-02 0. -1.
        1   -1    0    0  501    0  0.00000000000E+00  0.00000000000E+00 -0.21773766758E+04  0.21773766758E+04  0.50400001928E-02 0.  1.
    10030    2    1    2    0    0  0.00000000000E+00  0.00000000000E+00 -0.57466494176E+03  0.37800884098E+04  0.37361515749E+04 0.  0.
        3    1    3    3  502    0 -0.14538680808E+04 -0.33588515047E+03  0.84978661458E+03  0.17171745780E+04  0.10100000352E+00 0. -1.
       -3    1    3    3    0  502  0.14538680808E+04  0.33588515047E+03 -0.14244515563E+04  0.20629138318E+04  0.10100000352E+00 0.  1.
</event>
<event>
 5   0  0.4115358E-07  0.3641547E+04  0.7818609E-02  0.8081041E-01
        2   -1    0    0  501    0  0.00000000000E+00  0.00000000000E+00  0.20230491780E+04  0.20230491780E+04  0.25500000920E-02 0. -1.
       -2   -1    0    0    0  501  0.00000000000E+00  0.00000000000E+00 -0.16387226794E+04  0.16387226794E+04  0.25500000920E-02 0.  1.
    10030    2    1    2    0    0  0.00000000000E+00  0.00000000000E+00  0.38432649857E+03  0.36617718573E+04  0.36415472368E+04 0.  0.
        3    1    3    3  502    0  0.16490283391E+04  0.73234452470E+03  0.43763703552E+03  0.18566499807E+04  0.10100000352E+00 0. -1.
       -3    1    3    3    0  502 -0.16490283391E+04 -0.73234452470E+03 -0.53310536948E+02  0.18051218766E+04  0.10100000352E+00 0.  1.
</event>
<event>
 5   0  0.1361743E-07  0.3772643E+04  0.7818609E-02  0.8052051E-01
        1   -1    0    0  501    0  0.00000000000E+00  0.00000000000E+00  0.21060286536E+04  0.21060286536E+04  0.50400001928E-02 0. -1.
       -1   -1    0    0    0  501  0.00000000000E+00  0.00000000000E+00 -0.16895347080E+04  0.16895347080E+04  0.50400001928E-02 0.  1.
    10030    2    1    2    0    0  0.00000000000E+00  0.00000000000E+00  0.41649394555E+03  0.37955633616E+04  0.37726428436E+04 0.  0.
        5    1    3    3  502    0  0.15397077191E+04  0.33496436537E+03  0.12515066788E+04  0.20122604313E+04  0.46999998093E+01 0. -1.
       -5    1    3    3    0  502 -0.15397077191E+04 -0.33496436537E+03 -0.83501273329E+03  0.17833029303E+04  0.46999998093E+01 0.  1.
</event>
<event>
 5   0  0.1348226E-07  0.3588821E+04  0.7818609E-02  0.8093057E-01
       -1   -1    0    0    0  501  0.00000000000E+00  0.00000000000E+00  0.15841724743E+04  0.15841724743E+04  0.50400001928E-02 0.  1.
        1   -1    0    0  501    0  0.00000000000E+00  0.00000000000E+00 -0.20325492824E+04  0.20325492824E+04  0.50400001928E-02 0. -1.
    10030    2    1    2    0    0  0.00000000000E+00  0.00000000000E+00 -0.44837680812E+03  0.36167217567E+04  0.35888207678E+04 0.  0.
        4    1    3    3  502    0 -0.15837916822E+04  0.57968193211E+03 -0.84171633484E+03  0.18849178328E+04  0.12699999809E+01 0. -1.
       -4    1    3    3    0  502  0.15837916822E+04 -0.57968193211E+03  0.39333952672E+03  0.17318039240E+04  0.12699999809E+01 0.  1.
</event>
<event>
 5   0  0.4200635E-07  0.3602391E+04  0.7818609E-02  0.8089944E-01
        2   -1    0    0  501    0  0.00000000000E+00  0.00000000000E+00  0.98071536722E+03  0.98071536723E+03  0.25500000920E-02 0. -1.
       -2   -1    0    0    0  501  0.00000000000E+00  0.00000000000E+00 -0.33081007975E+04  0.33081007975E+04  0.25500000920E-02 0.  1.
    10030    2    1    2    0    0  0.00000000000E+00  0.00000000000E+00 -0.23273854303E+04  0.42888161648E+04  0.36023910329E+04 0.  0.
        4    1    3    3  502    0 -0.85619501143E+03 -0.12373520058E+04 -0.23423907295E+04  0.27840448679E+04  0.12699999809E+01 0.  1.
       -4    1    3    3    0  502  0.85619501143E+03  0.12373520058E+04  0.15005299201E+02  0.15047712969E+04  0.12699999809E+01 0. -1.
</event>
<event>
 5   0  0.3993751E-07  0.3581258E+04  0.7818609E-02  0.8094798E-01
        2   -1    0    0  501    0  0.00000000000E+00  0.00000000000E+00  0.15837028356E+04  0.15837028356E+04  0.25500000920E-02 0.  1.
       -2   -1    0    0    0  501  0.00000000000E+00  0.00000000000E+00 -0.20245925026E+04  0.20245925026E+04  0.25500000920E-02 0. -1.
    10030    2    1    2    0    0  0.00000000000E+00  0.00000000000E+00 -0.44088966696E+03  0.36082953381E+04  0.35812583750E+04 0.  0.
        1    1    3    3  502    0  0.15200211434E+04 -0.94319822371E+03 -0.30019874112E+03  0.18138926235E+04  0.50400001928E-02 0.  1.
       -1    1    3    3    0  502 -0.15200211434E+04  0.94319822371E+03 -0.14069092584E+03  0.17944027146E+04  0.50400001928E-02 0. -1.
</event>
<event>
 5   0  0.1298250E-07  0.3607546E+04  0.7818609E-02  0.8088765E-01
       -1   -1    0    0    0  501  0.00000000000E+00  0.00000000000E+00  0.13906065518E+04  0.13906065518E+04  0.50400001928E-02 0.  1.
        1   -1    0    0  501    0  0.00000000000E+00  0.00000000000E+00 -0.23396961371E+04  0.23396961371E+04  0.50400001928E-02 0. -1.
    10030    2    1    2    0    0  0.00000000000E+00  0.00000000000E+00 -0.94908958534E+03  0.37303026889E+04  0.36075458570E+04 0.  0.
        2    1    3    3  502    0 -0.15857739603E+04 -0.57300385739E+03 -0.11371172587E+04  0.20337276450E+04  0.25500000920E-02 0. -1.
       -2    1    3    3    0  502  0.15857739603E+04  0.57300385739E+03  0.18802767335E+03  0.16965750440E+04  0.25500000920E-02 0.  1.
</event>
<event>
 5   0  0.4120440E-07  0.3443844E+04  0.7818609E-02  0.8127229E-01
        2   -1    0    0  501    0  0.00000000000E+00  0.00000000000E+00  0.18361900941E+04  0.18361900941E+04  0.25500000920E-02 0.  1.
       -2   -1    0    0    0  501  0.00000000000E+00  0.00000000000E+00 -0.16147647514E+04  0.16147647514E+04  0.25500000920E-02 0. -1.
    10030    2    1    2    0    0  0.00000000000E+00  0.00000000000E+00  0.22142534272E+03  0.34509548456E+04  0.34438438065E+04 0.  0.
        2    1    3    3  502    0  0.15144324679E+03  0.15820397114E+04  0.77482569060E+03  0.17680892388E+04  0.25500000920E-02 0. -1.
       -2    1    3    3    0  502 -0.15144324679E+03 -0.15820397114E+04 -0.55340034788E+03  0.16828656068E+04  0.25500000920E-02 0.  1.
</event>
<event>
 5   0  0.3993751E-07  0.3567575E+04  0.7818609E-02  0.8097960E-01
        2   -1    0    0  501    0  0.00000000000E+00  0.00000000000E+00  0.19393984184E+04  0.19393984184E+04  0.25500000920E-02 0.  1.
       -2   -1    0    0    0  501  0.00000000000E+00  0.00000000000E+00 -0.16406619953E+04  0.16406619953E+04  0.25500000920E-02 0. -1.
    10030    2    1    2    0    0  0.00000000000E+00  0.00000000000E+00  0.29873642312E+03  0.35800604136E+04  0.35675746824E+04 0.  0.
        1    1    3    3  502    0 -0.10618569173E+04 -0.90138077380E+03 -0.96892406840E+03  0.16967148442E+04  0.50400001928E-02 0. -1.
       -1    1    3    3    0  502  0.10618569173E+04  0.90138077380E+03  0.12676604915E+04  0.18833455694E+04  0.50400001928E-02 0.  1.
</event>
<event>
 5   0  0.4115358E-07  0.3476993E+04  0.7818609E-02  0.8119264E-01
        2   -1    0    0  501    0  0.00000000000E+00  0.00000000000E+00  0.22205091624E+04  0.22205091624E+04  0.25500000920E-02 0.  1.
       -2   -1    0    0    0  501  0.00000000000E+00  0.00000000000E+00 -0.13611159848E+04  0.13611159848E+04  0.25500000920E-02 0. -1.
    10030    2    1    2    0    0  0.00000000000E+00  0.00000000000E+00  0.85939317758E+03  0.35816251472E+04  0.34769932501E+04 0.  0.
        3    1    3    3  502    0 -0.12866363851E+04 -0.41594215324E+03  0.15552487188E+04  0.20608832208E+04  0.10100000352E+00 0.  1.
       -3    1    3    3    0  502  0.12866363851E+04  0.41594215324E+03 -0.69585554118E+03  0.15207419264E+04  0.10100000352E+00 0. -1.
</event>
<event>
 5   0  0.4120440E-07  0.3560399E+04  0.7818609E-02  0.8099623E-01
       -2   -1    0    0    0  501  0.00000000000E+00  0.00000000000E+00  0.14862580897E+04  0.14862580898E+04  0.25500000920E-02 0.  1.
        2   -1    0    0  501    0  0.00000000000E+00  0.00000000000E+00 -0.21322748500E+04  0.21322748500E+04  0.25500000920E-02 0. -1.
    10030    2    1    2    0    0  0.00000000000E+00  0.00000000000E+00 -0.64601676022E+03  0.36185329397E+04  0.35603992727E+04 0.  0.
        2    1    3    3  502    0  0.15064268912E+03  0.14057081943E+04 -0.14225238749E+04  0.20055629938E+04  0.25500000920E-02 0. -1.
       -2    1    3    3    0  502 -0.15064268912E+03 -0.14057081943E+04  0.77650711465E+03  0.16129699459E+04  0.25500000920E-02 0.  1.
</event>
<event>
 5   0  0.1361743E-07  0.3608448E+04  0.7818609E-02  0.8088559E-01
        1   -1    0    0  501    0  0.00000000000E+00  0.00000000000E+00  0.19647581990E+04  0.19647581990E+04  0.50400001928E-02 0. -1.
       -1   -1    0    0    0  501  0.00000000000E+00  0.00000000000E+00 -0.16568061756E+04  0.16568061756E+04  0.50400001928E-02 0.  1.
    10030    2    1    2    0    0  0.00000000000E+00  0.00000000000E+00  0.30795202336E+03  0.36215643746E+04  0.36084475984E+04 0.  0.
        5    1    3    3  502    0  0.13610694199E+04  0.79922629950E+03 -0.72323130117E+03  0.17361907293E+04  0.46999998093E+01 0.  1.
       -5    1    3    3    0  502 -0.13610694199E+04 -0.79922629950E+03  0.10311833245E+04  0.18853736453E+04  0.46999998093E+01 0. -1.
</event>
<event>
 5   0  0.4200635E-07  0.3595562E+04  0.7818609E-02  0.8091509E-01
        2   -1    0    0  501    0  0.00000000000E+00  0.00000000000E+00  0.22654540314E+04  0.22654540314E+04  0.25500000920E-02 0.  1.
       -2   -1    0    0    0  501  0.00000000000E+00  0.00000000000E+00 -0.14266526471E+04  0.14266526471E+04  0.25500000920E-02 0. -1.
    10030    2    1    2    0    0  0.00000000000E+00  0.00000000000E+00  0.83880138433E+03  0.36921066785E+04  0.35955617035E+04 0.  0.
        4    1    3    3  502    0  0.56281612406E+03 -0.73379995014E+03  0.20024808392E+04  0.22057097453E+04  0.12699999809E+01 0.  1.
       -4    1    3    3    0  502 -0.56281612406E+03  0.73379995014E+03 -0.11636794549E+04  0.14863969332E+04  0.12699999809E+01 0. -1.
</event>
<event>
 5   0  0.1370997E-07  0.3577287E+04  0.7818609E-02  0.8095714E-01
        1   -1    0    0  501    0  0.00000000000E+00  0.00000000000E+00  0.25054822246E+04  0.25054822246E+04  0.50400001928E-02 0.  1.
       -1   -1    0    0    0  501  0.00000000000E+00  0.00000000000E+00 -0.12768980186E+04  0.12768980186E+04  0.50400001928E-02 0. -1.
    10030    2    1    2    0    0  0.00000000000E+00  0.00000000000E+00  0.12285842060E+04  0.37823802432E+04  0.35772868424E+04 0.  0.
        3    1    3    3  502    0  0.13436389248E+04  0.11442564368E+04  0.30683395203E+03  0.17913222596E+04  0.10100000352E+00 0.  1.
       -3    1    3    3    0  502 -0.13436389248E+04 -0.11442564368E+04  0.92175025397E+03  0.19910579836E+04  0.10100000352E+00 0. -1.
</event>
<event>
 5   0  0.1370997E-07  0.3605903E+04  0.7818609E-02  0.8089141E-01
       -1   -1    0    0    0  501  0.00000000000E+00  0.00000000000E+00  0.34218221754E+04  0.34218221755E+04  0.50400001928E-02 0.  1.
        1   -1    0    0  501    0  0.00000000000E+00  0.00000000000E+00 -0.94997154063E+03  0.94997154064E+03  0.50400001928E-02 0. -1.
    10030    2    1    2    0    0  0.00000000000E+00  0.00000000000E+00  0.24718506348E+04  0.43717937161E+04  0.36059027629E+04 0.  0.
        3    1    3    3  502    0  0.45507964587E+03  0.96105716077E+03  0.30011658172E+04  0.31839793691E+04  0.10100000352E+00 0.  1.
       -3    1    3    3    0  502 -0.45507964587E+03 -0.96105716077E+03 -0.52931518240E+03  0.11878143470E+04  0.10100000352E+00 0. -1.
</event>
<event>
 5   0  0.4115358E-07  0.3570001E+04  0.7818609E-02  0.8097398E-01
       -2   -1    0    0    0  501  0.00000000000E+00  0.00000000000E+00  0.13924667093E+04  0.13924667093E+04  0.25500000920E-02 0. -1.
        2   -1    0    0  501    0  0.00000000000E+00  0.00000000000E+00 -0.22881882127E+04  0.22881882127E+04  0.25500000920E-02 0.  1.
    10030    2    1    2    0    0  0.00000000000E+00  0.00000000000E+00 -0.89572150340E+03  0.36806549220E+04  0.35700005103E+04 0.  0.
        3    1    3    3  502    0  0.79021611254E+03 -0.12542429666E+04 -0.14729934378E+04  0.20898030055E+04  0.10100000352E+00 0.  1.
       -3    1    3    3    0  502 -0.79021611254E+03  0.12542429666E+04  0.57727193442E+03  0.15908519165E+04  0.10100000352E+00 0. -1.
</event>
<event>
 5   0  0.1370997E-07  0.3596918E+04  0.7818609E-02  0.8091198E-01
        1   -1    0    0  501    0  0.00000000000E+00  0.00000000000E+00  0.17790883792E+04  0.17790883792E+04  0.50400001928E-02 0.  1.
       -1   -1    0    0    0  501  0.00000000000E+00  0.00000000000E+00 -0.18180401364E+04  0.18180401364E+04  0.50400001928E-02 0. -1.
    10030    2    1    2    0    0  0.00000000000E+00  0.00000000000E+00 -0.38951757194E+02  0.35971285156E+04  0.35969176135E+04 0.  0.
        3    1    3    3  502    0 -0.47805220797E+02  0.13023883842E+04  0.12199325895E+04  0.17851432367E+04  0.10100000352E+00 0.  1.
       -3    1    3    3    0  502  0.47805220797E+02 -0.13023883842E+04 -0.12588843466E+04  0.18119852789E+04  0.10100000352E+00 0. -1.
</event>
<event>
 5   0  0.1348226E-07  0.3615852E+04  0.7818609E-02  0.8086870E-01
       -1   -1    0    0    0  501  0.00000000000E+00  0.00000000000E+00  0.12798073616E+04  0.12798073616E+04  0.50400001928E-02 0. -1.
        1   -1    0    0  501    0  0.00000000000E+00  0.00000000000E+00 -0.25539750505E+04  0.25539750505E+04  0.50400001928E-02 0.  1.
    10030    2    1    2    0    0  0.00000000000E+00  0.00000000000E+00 -0.12741676889E+04  0.38337824121E+04  0.36158518061E+04 0.  0.
        4    1    3    3  502    0 -0.35082108253E+03  0.17586284612E+04 -0.88058853309E+03  0.19978206311E+04  0.12699999809E+01 0. -1.
       -4    1    3    3    0  502  0.35082108253E+03 -0.17586284612E+04 -0.39357915580E+03  0.18359617810E+04  0.12699999809E+01 0.  1.
</event>
<event>
 5   0  0.1361743E-07  0.3549953E+04  0.7818609E-02  0.8102053E-01
       -1   -1    0    0    0  501  0.00000000000E+00  0.00000000000E+00  0.31316978270E+04  0.31316978270E+04  0.50400001928E-02 0.  1.
        1   -1    0    0  501    0  0.00000000000E+00  0.00000000000E+00 -0.10060168269E+04  0.10060168269E+04  0.50400001928E-02 0. -1.
    10030    2    1    2    0    0  0.00000000000E+00  0.00000000000E+00  0.21256810001E+04  0.41377146539E+04  0.35499525128E+04 0.  0.
        5    1    3    3  502    0 -0.31227777710E+03  0.13326213934E+04 -0.25436668332E+03  0.13921643896E+04  0.46999998093E+01 0. -1.
       -5    1    3    3    0  502  0.31227777710E+03 -0.13326213934E+04  0.23800476834E+04  0.27455502643E+04  0.46999998093E+01 0.  1.
</event>
<event>
 5   0  0.1348226E-07  0.3674403E+04  0.7818609E-02  0.8073658E-01
       -1   -1    0    0    0  501  0.00000000000E+00  0.00000000000E+00  0.16520832878E+04  0.16520832878E+04  0.50400001928E-02 0. -1.
        1   -1    0    0  501    0  0.00000000000E+00  0.00000000000E+00 -0.20430626454E+04  0.20430626454E+04  0.50400001928E-02 0.  1.
    10030    2    1    2    0    0  0.00000000000E+00  0.00000000000E+00 -0.39097935754E+03  0.36951459332E+04  0.36744031638E+04 0.  0.
        4    1    3    3  502    0  0.30480979342E+03 -0.65017495490E+03 -0.18960923869E+04  0.20275118828E+04  0.12699999809E+01 0.  1.
       -4    1    3    3    0  502 -0.30480979342E+03  0.65017495490E+03  0.15051130294E+04  0.16676340505E+04  0.12699999809E+01 0. -1.
</event>
<event>
 5   0  0.4115358E-07  0.3532578E+04  0.7818609E-02  0.8106112E-01
       -2   -1    0    0    0  501  0.00000000000E+00  0.00000000000E+00  0.11122348673E+04  0.11122348673E+04  0.25500000920E-02 0. -1.
        2   -1    0    0  501    0  0.00000000000E+00  0.00000000000E+00 -0.28049627520E+04  0.28049627520E+04  0.25500000920E-02 0.  1.
    10030    2    1    2    0    0  0.00000000000E+00  0.00000000000E+00 -0.16927278847E+04  0.39171976192E+04  0.35325783072E+04 0.  0.
        3    1    3    3  502    0 -0.44914580818E+03  0.16865383891E+04 -0.11472637461E+04  0.20886258182E+04  0.10100000352E+00 0. -1.
       -3    1    3    3    0  502  0.44914580818E+03 -0.16865383891E+04 -0.54546413859E+03  0.18285718011E+04  0.10100000352E+00 0.  1.
</event>
<event>
 5   0  0.1298250E-07  0.3601195E+04  0.7818609E-02  0.8090218E-01
       -1   -1    0    0    0  501  0.00000000000E+00  0.00000000000E+00  0.15860130857E+04  0.15860130857E+04  0.50400001928E-02 0. -1.
        1   -1    0    0  501    0  0.00000000000E+00  0.00000000000E+00 -0.20442147593E+04  0.20442147593E+04  0.50400001928E-02 0.  1.
    10030    2    1    2    0    0  0.00000000000E+00  0.00000000000E+00 -0.45820167365E+03  0.36302278450E+04  0.36011950007E+04 0.  0.
        1    1    3    3  502    0  0.13256287621E+04  0.11966446201E+04 -0.46095815796E+03  0.18443785905E+04  0.50400001928E-02 0. -1.
       -1    1    3    3    0  502 -0.13256287621E+04 -0.11966446201E+04  0.27564843122E+01  0.17858492545E+04  0.50400001928E-02 0.  1.
</event>
<event>
 5   0  0.4115358E-07  0.3624575E+04  0.7818609E-02  0.8084886E-01
        2   -1    0    0  501    0  0.00000000000E+00  0.00000000000E+00  0.24522103602E+04  0.24522103602E+04  0.25500000920E-02 0. -1.
       -2   -1    0    0    0  501  0.00000000000E+00  0.00000000000E+00 -0.13393572544E+04  0.13393572544E+04  0.25500000920E-02 0.  1.
    10030    2    1    2    0    0  0.00000000000E+00  0.00000000000E+00  0.11128531058E+04  0.37915676146E+04  0.36245748635E+04 0.  0.
        3    1    3    3  502    0  0.10809039651E+04 -0.12498820674E+04 -0.22205595059E+03  0.16672934414E+04  0.10100000352E+00 0.  1.
       -3    1    3    3    0  502 -0.10809039651E+04  0.12498820674E+04  0.13349090564E+04  0.21242741733E+04  0.10100000352E+00 0. -1.
</event>
<event>
 5   0  0.4200635E-07  0.3598674E+04  0.7818609E-02  0.8090795E-01
        2   -1    0    0  501    0  0.00000000000E+00  0.00000000000E+00  0.25277084504E+04  0.25277084504E+04  0.25500000920E-02 0.  1.
       -2   -1    0    0    0  501  0.00000000000E+00  0.00000000000E+00 -0.12808495519E+04  0.12808495519E+04  0.25500000920E-02 0. -1.
    10030    2    1    2    0    0  0.00000000000E+00  0.00000000000E+00  0.12468588985E+04  0.38085580022E+04  0.35986743314E+04 0.  0.
        4    1    3    3  502    0  0.85925179689E+03 -0.14469392456E+04  0.12974951383E+04  0.21249569590E+04  0.12699999809E+01 0.  1.
       -4    1    3    3    0  502 -0.85925179689E+03  0.14469392456E+04 -0.50636239748E+02  0.16836010432E+04  0.12699999809E+01 0. -1.
</event>
<event>
 5   0  0.1348226E-07  0.3626937E+04  0.7818609E-02  0.8084349E-01
       -1   -1    0    0    0  501  0.00000000000E+00  0.00000000000E+00  0.11398680919E+04  0.11398680919E+04  0.50400001928E-02 0. -1.
        1   -1    0    0  501    0  0.00000000000E+00  0.00000000000E+00 -0.28851310922E+04  0.28851310922E+04  0.50400001928E-02 0.  1.
    10030    2    1    2    0    0  0.00000000000E+00  0.00000000000E+00 -0.17452630003E+04  0.40249991841E+04  0.36269374811E+04 0.  0.
        4    1    3    3  502    0 -0.85802105287E+03  0.12431897193E+04 -0.19862307141E+04  0.24953626726E+04  0.12699999809E+01 0.  1.
       -4    1    3    3    0  502  0.85802105287E+03 -0.12431897193E+04  0.24096771386E+03  0.15296365115E+04  0.12699999809E+01 0. -1.
</event>
<event>
 5   0  0.1298250E-07  0.3649507E+04  0.7818609E-02  0.8079245E-01
        1   -1    0    0  501    0  0.00000000000E+00  0.00000000000E+00  0.22080470730E+04  0.22080470730E+04  0.50400001928E-02 0.  1.
       -1   -1    0    0    0  501  0.00000000000E+00  0.00000000000E+00 -0.15079956356E+04  0.15079956356E+04  0.50400001928E-02 0. -1.
    10030    2    1    2    0    0  0.00000000000E+00  0.00000000000E+00  0.70005143743E+03  0.37160427086E+04  0.36495070074E+04 0.  0.
        1    1    3    3  502    0  0.11925317572E+04  0.11792444560E+04  0.10821446402E+04  0.19959425096E+04  0.50400001928E-02 0. -1.
       -1    1    3    3    0  502 -0.11925317572E+04 -0.11792444560E+04 -0.38209320278E+03  0.17201001990E+04  0.50400001928E-02 0.  1.
</event>
<event>
 5   0  0.4120440E-07  0.3599371E+04  0.7818609E-02  0.8090636E-01
       -2   -1    0    0    0  501  0.00000000000E+00  0.00000000000E+00  0.17348466390E+04  0.17348466390E+04  0.25500000920E-02 0. -1.
        2   -1    0    0  501    0  0.00000000000E+00  0.00000000000E+00 -0.18669473999E+04  0.18669473999E+04  0.25500000920E-02 0.  1.
    10030    2    1    2    0    0  0.00000000000E+00  0.00000000000E+00 -0.13210076086E+03  0.36017940389E+04  0.35993707350E+04 0.  0.
        2    1    3    3  502    0  0.71955144327E+03 -0.92825303849E+03  0.12984876632E+04  0.17508507059E+04  0.25500000920E-02 0. -1.
       -2    1    3    3    0  502 -0.71955144327E+03  0.92825303849E+03 -0.14305884241E+04  0.18509433330E+04  0.25500000920E-02 0.  1.
</event>
<event>
 5   0  0.4115358E-07  0.3618116E+04  0.7818609E-02  0.8086355E-01
        2   -1    0    0  501    0  0.00000000000E+00  0.00000000000E+00  0.24083183204E+04  0.24083183204E+04  0.25500000920E-02 0. -1.
       -2   -1    0    0    0  501  0.00000000000E+00  0.00000000000E+00 -0.13589110823E+04  0.13589110823E+04  0.25500000920E-02 0.  1.
    10030    2    1    2    0    0  0.00000000000E+00  0.00000000000E+00  0.10494072381E+04  0.37672294027E+04  0.36181157833E+04 0.  0.
        3    1    3    3  502    0  0.46271368341E+03  0.17409502207E+04  0.35147748934E+03  0.18353604713E+04  0.10100000352E+00 0. -1.
       -3    1    3    3    0  502 -0.46271368341E+03 -0.17409502207E+04  0.69792974874E+03  0.19318689314E+04  0.10100000352E+00 0.  1.
</event>
<event>
 5   0  0.1348226E-07  0.3588513E+04  0.7818609E-02  0.8093128E-01
        1   -1    0    0  501    0  0.00000000000E+00  0.00000000000E+00  0.15333856402E+04  0.15333856402E+04  0.50400001928E-02 0.  1.
       -1   -1    0    0    0  501  0.00000000000E+00  0.00000000000E+00 -0.20995082130E+04  0.20995082130E+04  0.50400001928E-02 0. -1.
    10030    2    1    2    0    0  0.00000000000E+00  0.00000000000E+00 -0.56612257278E+03  0.36328938532E+04  0.35885126419E+04 0.  0.
        4    1    3    3  502    0 -0.12920604070E+04 -0.43252434324E+03 -0.14649139265E+04  0.20006178615E+04  0.12699999809E+01 0. -1.
       -4    1    3    3    0  502  0.12920604070E+04  0.43252434324E+03  0.89879135370E+03  0.16322759917E+04  0.12699999809E+01 0.  1.
</event>
<event>
 5   0  0.1298250E-07  0.3634405E+04  0.7818609E-02  0.8082656E-01
        1   -1    0    0  501    0  0.00000000000E+00  0.00000000000E+00  0.20011740004E+04  0.20011740004E+04  0.50400001928E-02 0.  1.
       -1   -1    0    0    0  501  0.00000000000E+00  0.00000000000E+00 -0.16501437343E+04  0.16501437343E+04  0.50400001928E-02 0. -1.
    10030    2    1    2    0    0  0.00000000000E+00  0.00000000000E+00  0.35103026617E+03  0.36513177347E+04  0.36344048966E+04 0.  0.
        2    1    3    3  502    0 -0.16279046448E+04  0.59835122178E+03  0.72037369498E+03  0.18780404621E+04  0.25500000920E-02 0.  1.
       -2    1    3    3    0  502  0.16279046448E+04 -0.59835122178E+03 -0.36934342881E+03  0.17732772726E+04  0.25500000920E-02 0. -1.
</event>
<event>
 5   0  0.1298250E-07  0.3514620E+04  0.7818609E-02  0.8110334E-01
        1   -1    0    0  501    0  0.00000000000E+00  0.00000000000E+00  0.24988163304E+04  0.24988163304E+04  0.50400001928E-02 0.  1.
       -1   -1    0    0    0  501  0.00000000000E+00  0.00000000000E+00 -0.12358403674E+04  0.12358403674E+04  0.50400001928E-02 0. -1.
    10030    2    1    2    0    0  0.00000000000E+00  0.00000000000E+00  0.12629759630E+04  0.37346566977E+04  0.35146198040E+04 0.  0.
        1    1    3    3  502    0  0.53815122880E+03  0.16202891325E+04  0.10737089687E+04  0.20168774299E+04  0.50400001928E-02 0. -1.
       -1    1    3    3    0  502 -0.53815122880E+03 -0.16202891325E+04  0.18926699428E+03  0.17177792678E+04  0.50400001928E-02 0.  1.
</event>
<event>
 5   0  0.4120440E-07  0.3612865E+04  0.7818609E-02  0.8087551E-01
       -2   -1    0    0    0  501  0.00000000000E+00  0.00000000000E+00  0.23638052917E+04  0.23638052917E+04  0.25500000920E-02 0. -1.
        2   -1    0    0  501    0  0.00000000000E+00  0.00000000000E+00 -0.13804856242E+04  0.13804856242E+04  0.25500000920E-02 0.  1.
    10030    2    1    2    0    0  0.00000000000E+00  0.00000000000E+00  0.98331966744E+03  0.37442909159E+04  0.36128654686E+04 0.  0.
        2    1    3    3  502    0  0.10137989854E+02 -0.18057712551E+04  0.54121793816E+03  0.18851603277E+04  0.25500000920E-02 0. -1.
       -2    1    3    3    0  502 -0.10137989854E+02  0.18057712551E+04  0.44210172928E+03  0.18591305881E+04  0.25500000920E-02 0.  1.
</event>
<event>
 5   0  0.1361743E-07  0.3592938E+04  0.7818609E-02  0.8092111E-01
       -1   -1    0    0    0  501  0.00000000000E+00  0.00000000000E+00  0.14798719064E+04  0.14798719064E+04  0.50400001928E-02 0.  1.
        1   -1    0    0  501    0  0.00000000000E+00  0.00000000000E+00 -0.21807972652E+04  0.21807972652E+04  0.50400001928E-02 0. -1.
    10030    2    1    2    0    0  0.00000000000E+00  0.00000000000E+00 -0.70092535880E+03  0.36606691717E+04  0.35929378545E+04 0.  0.
        5    1    3    3  502    0 -0.11367825840E+03  0.13270325586E+04 -0.15787343729E+04  0.20655174819E+04  0.46999998093E+01 0. -1.
       -5    1    3    3    0  502  0.11367825840E+03 -0.13270325586E+04  0.87780901407E+03  0.15951516897E+04  0.46999998093E+01 0.  1.
</event>
<event>
 5   0  0.1370997E-07  0.3582991E+04  0.7818609E-02  0.8094399E-01
        1   -1    0    0  501    0  0.00000000000E+00  0.00000000000E+00  0.14790779327E+04  0.14790779327E+04  0.50400001928E-02 0.  1.
       -1   -1    0    0    0  501  0.00000000000E+00  0.00000000000E+00 -0.21699036506E+04  0.21699036506E+04  0.50400001928E-02 0. -1.
    10030    2    1    2    0    0  0.00000000000E+00  0.00000000000E+00 -0.69082571791E+03  0.36489815833E+04  0.35829912674E+04 0.  0.
        3    1    3    3  502    0 -0.83123498334E+03 -0.64859038188E+03 -0.18204794897E+04  0.21037506182E+04  0.10100000352E+00 0. -1.
       -3    1    3    3    0  502  0.83123498334E+03  0.64859038188E+03  0.11296537718E+04  0.15452309651E+04  0.10100000352E+00 0.  1.
</event>
<event>
 5   0  0.4115358E-07  0.3605093E+04  0.7818609E-02  0.8089326E-01
        2   -1    0    0  501    0  0.00000000000E+00  0.00000000000E+00  0.21474217808E+04  0.21474217808E+04  0.25500000920E-02 0. -1.
       -2   -1    0    0    0  501  0.00000000000E+00  0.00000000000E+00 -0.15130580432E+04  0.15130580432E+04  0.25500000920E-02 0.  1.
    10030    2    1    2    0    0  0.00000000000E+00  0.00000000000E+00  0.63436373762E+03  0.36604798240E+04  0.36050929517E+04 0.  0.
        3    1    3    3  502    0  0.10555943693E+04 -0.56873241640E+03 -0.10493924596E+04  0.15934116162E+04  0.10100000352E+00 0. -1.
       -3    1    3    3    0  502 -0.10555943693E+04  0.56873241640E+03  0.16837561972E+04  0.20670682078E+04  0.10100000352E+00 0.  1.
</event>
<event>
 5   0  0.4115358E-07  0.3352230E+04  0.7818609E-02  0.8149731E-01
        2   -1    0    0  501    0  0.00000000000E+00  0.00000000000E+00  0.18084265989E+04  0.18084265989E+04  0.25500000920E-02 0.  1.
       -2   -1    0    0    0  501  0.00000000000E+00  0.00000000000E+00 -0.15534836145E+04  0.15534836145E+04  0.25500000920E-02 0. -1.
    10030    2    1    2    0    0  0.00000000000E+00  0.00000000000E+00  0.25494298438E+03  0.33619102134E+04  0.33522297591E+04 0.  0.
        3    1    3    3  502    0  0.33991910583E+03  0.16184100546E+04 -0.14638294024E+03  0.16601879648E+04  0.10100000352E+00 0. -1.
       -3    1    3    3    0  502 -0.33991910583E+03 -0.16184100546E+04  0.40132592462E+03  0.17017222485E+04  0.10100000352E+00 0.  1.
</event>
<event>
 5   0  0.1298250E-07  0.3403242E+04  0.7818609E-02  0.8137111E-01
       -1   -1    0    0    0  501  0.00000000000E+00  0.00000000000E+00  0.11019425752E+04  0.11019425752E+04  0.50400001928E-02 0. -1.
        1   -1    0    0  501    0  0.00000000000E+00  0.00000000000E+00 -0.26276455751E+04  0.26276455751E+04  0.50400001928E-02 0.  1.
    10030    2    1    2    0    0  0.00000000000E+00  0.00000000000E+00 -0.15257029999E+04  0.37295881503E+04  0.34032422962E+04 0.  0.
        1    1    3    3  502    0  0.11590746626E+04 -0.73801896768E+03  0.33708215969E+03  0.14148323055E+04  0.50400001928E-02 0. -1.
       -1    1    3    3    0  502 -0.11590746626E+04  0.73801896768E+03 -0.18627851596E+04  0.23147558448E+04  0.50400001928E-02 0.  1.
</event>
<event>
 5   0  0.3993751E-07  0.3567477E+04  0.7818609E-02  0.8097982E-01
        2   -1    0    0  501    0  0.00000000000E+00  0.00000000000E+00  0.21781479928E+04  0.21781479928E+04  0.25500000920E-02 0. -1.
       -2   -1    0    0    0  501  0.00000000000E+00  0.00000000000E+00 -0.14607469990E+04  0.14607469990E+04  0.25500000920E-02 0.  1.
    10030    2    1    2    0    0  0.00000000000E+00  0.00000000000E+00  0.71740099382E+03  0.36388949917E+04  0.35674770602E+04 0.  0.
        1    1    3    3  502    0  0.15857232211E+04 -0.74332424886E+03  0.70411530243E+03  0.18875453457E+04  0.50400001928E-02 0. -1.
       -1    1    3    3    0  502 -0.15857232211E+04  0.74332424886E+03  0.13285691396E+02  0.17513496460E+04  0.50400001928E-02 0.  1.
</event>
<event>
 5   0  0.1298250E-07  0.3636069E+04  0.7818609E-02  0.8082279E-01
       -1   -1    0    0    0  501  0.00000000000E+00  0.00000000000E+00  0.12850756954E+04  0.12850756954E+04  0.50400001928E-02 0. -1.
        1   -1    0    0  501    0  0.00000000000E+00  0.00000000000E+00 -0.25720265153E+04  0.25720265153E+04  0.50400001928E-02 0.  1.
    10030    2    1    2    0    0  0.00000000000E+00  0.00000000000E+00 -0.12869508199E+04  0.38571022107E+04  0.36360686257E+04 0.  0.
        2    1    3    3  502    0 -0.14659218651E+04 -0.83034218025E+03  0.81326759001E+02  0.16867154747E+04  0.25500000920E-02 0. -1.
       -2    1    3    3    0  502  0.14659218651E+04  0.83034218025E+03 -0.13682775789E+04  0.21703867360E+04  0.25500000920E-02 0.  1.
</event>
<event>
 5   0  0.1298250E-07  0.3620541E+04  0.7818609E-02  0.8085803E-01
        1   -1    0    0  501    0  0.00000000000E+00  0.00000000000E+00  0.15131567683E+04  0.15131567683E+04  0.50400001928E-02 0.  1.
       -1   -1    0    0    0  501  0.00000000000E+00  0.00000000000E+00 -0.21657240505E+04  0.21657240506E+04  0.50400001928E-02 0. -1.
    10030    2    1    2    0    0  0.00000000000E+00  0.00000000000E+00 -0.65256728225E+03  0.36788808189E+04  0.36205413990E+04 0.  0.
        1    1    3    3  502    0 -0.61272451498E+03  0.16803467607E+04 -0.42346854007E+02  0.17890751308E+04  0.50400001928E-02 0.  1.
       -1    1    3    3    0  502  0.61272451498E+03 -0.16803467607E+04 -0.61022042824E+03  0.18898056881E+04  0.50400001928E-02 0. -1.
</event>
<event>
 5   0  0.3880259E-07  0.3569978E+04  0.7818609E-02  0.8097403E-01
       -2   -1    0    0    0  501  0.00000000000E+00  0.00000000000E+00  0.15056864593E+04  0.15056864593E+04  0.25500000920E-02 0. -1.
        2   -1    0    0  501    0  0.00000000000E+00  0.00000000000E+00 -0.21161014885E+04  0.21161014885E+04  0.25500000920E-02 0.  1.
    10030    2    1    2    0    0  0.00000000000E+00  0.00000000000E+00 -0.61041502911E+03  0.36217879478E+04  0.35699777914E+04 0.  0.
        5    1    3    3  502    0  0.33101561030E+03  0.76349993265E+03 -0.19072576598E+04  0.20809030137E+04  0.46999998093E+01 0.  1.
       -5    1    3    3    0  502 -0.33101561030E+03 -0.76349993265E+03  0.12968426307E+04  0.15408849341E+04  0.46999998093E+01 0. -1.
</event>
<event>
 5   0  0.3993751E-07  0.3598481E+04  0.7818609E-02  0.8090840E-01
       -2   -1    0    0    0  501  0.00000000000E+00  0.00000000000E+00  0.11650253721E+04  0.11650253721E+04  0.25500000920E-02 0.  1.
        2   -1    0    0  501    0  0.00000000000E+00  0.00000000000E+00 -0.27787083969E+04  0.27787083969E+04  0.25500000920E-02 0. -1.
    10030    2    1    2    0    0  0.00000000000E+00  0.00000000000E+00 -0.16136830249E+04  0.39437337690E+04  0.35984806705E+04 0.  0.
        1    1    3    3  502    0  0.12947695028E+04  0.71517646373E+03 -0.19295079488E+04  0.24312355633E+04  0.50400001928E-02 0. -1.
       -1    1    3    3    0  502 -0.12947695028E+04 -0.71517646373E+03  0.31582492397E+03  0.15124982057E+04  0.50400001928E-02 0.  1.
</event>
<event>
 5   0  0.1348226E-07  0.3580684E+04  0.7818609E-02  0.8094931E-01
        1   -1    0    0  501    0  0.00000000000E+00  0.00000000000E+00  0.18585494957E+04  0.18585494957E+04  0.50400001928E-02 0.  1.
       -1   -1    0    0    0  501  0.00000000000E+00  0.00000000000E+00 -0.17246378292E+04  0.17246378292E+04  0.50400001928E-02 0. -1.
    10030    2    1    2    0    0  0.00000000000E+00  0.00000000000E+00  0.13391166653E+03  0.35831873250E+04  0.35806841625E+04 0.  0.
        4    1    3    3  502    0 -0.17302812924E+04 -0.35426458574E+03  0.36032695535E+03  0.18025575927E+04  0.12699999809E+01 0.  1.
       -4    1    3    3    0  502  0.17302812924E+04  0.35426458574E+03 -0.22641528882E+03  0.17806297322E+04  0.12699999809E+01 0. -1.
</event>
<event>
 5   0  0.1298250E-07  0.3595931E+04  0.7818609E-02  0.8091424E-01
        1   -1    0    0  501    0  0.00000000000E+00  0.00000000000E+00  0.16761607872E+04  0.16761607872E+04  0.50400001928E-02 0. -1.
       -1   -1    0    0    0  501  0.00000000000E+00  0.00000000000E+00 -0.19286211106E+04  0.19286211106E+04  0.50400001928E-02 0.  1.
    10030    2    1    2    0    0  0.00000000000E+00  0.00000000000E+00 -0.25246032335E+03  0.36047818978E+04  0.35959305216E+04 0.  0.
        2    1    3    3  502    0  0.36182441364E+03  0.15520284149E+04 -0.96072741102E+03  0.18608348302E+04  0.25500000920E-02 0.  1.
       -2    1    3    3    0  502 -0.36182441364E+03 -0.15520284149E+04  0.70826708766E+03  0.17439470676E+04  0.25500000920E-02 0. -1.
</event>
<event>
 5   0  0.4120440E-07  0.3570197E+04  0.7818609E-02  0.8097353E-01
       -2   -1    0    0    0  501  0.00000000000E+00  0.00000000000E+00  0.22856701816E+04  0.22856701816E+04  0.25500000920E-02 0.  1.
        2   -1    0    0  501    0  0.00000000000E+00  0.00000000000E+00 -0.13941541912E+04  0.13941541912E+04  0.25500000920E-02 0. -1.
    10030    2    1    2    0    0  0.00000000000E+00  0.00000000000E+00  0.89151599040E+03  0.36798243728E+04  0.35701970049E+04 0.  0.
        2    1    3    3  502    0  0.13866436754E+04  0.17690739774E+03  0.15900275180E+04  0.21171358997E+04  0.25500000920E-02 0.  1.
       -2    1    3    3    0  502 -0.13866436754E+04 -0.17690739774E+03 -0.69851152763E+03  0.15626884731E+04  0.25500000920E-02 0. -1.
</event>
<event>
 5   0  0.1370997E-07  0.3599284E+04  0.7818609E-02  0.8090656E-01
        1   -1    0    0  501    0  0.00000000000E+00  0.00000000000E+00  0.30143768607E+04  0.30143768607E+04  0.50400001928E-02 0.  1.
       -1   -1    0    0    0  501  0.00000000000E+00  0.00000000000E+00 -0.10744212744E+04  0.10744212744E+04  0.50400001928E-02 0. -1.
    10030    2    1    2    0    0  0.00000000000E+00  0.00000000000E+00  0.19399555862E+04  0.40887981351E+04  0.35992836111E+04 0.  0.
        3    1    3    3  502    0  0.92673618485E+03 -0.13202801247E+04  0.63499066094E+02  0.16143146241E+04  0.10100000352E+00 0. -1.
       -3    1    3    3    0  502 -0.92673618485E+03  0.13202801247E+04  0.18764565201E+04  0.24744835110E+04  0.10100000352E+00 0.  1.
</event>
<event>
 5   0  0.3880259E-07  0.3600123E+04  0.7818609E-02  0.8090463E-01
        2   -1    0    0  501    0  0.00000000000E+00  0.00000000000E+00  0.16469807350E+04  0.16469807351E+04  0.25500000920E-02 0. -1.
       -2   -1    0    0    0  501  0.00000000000E+00  0.00000000000E+00 -0.19673708553E+04  0.19673708553E+04  0.25500000920E-02 0.  1.
    10030    2    1    2    0    0  0.00000000000E+00  0.00000000000E+00 -0.32039012022E+03  0.36143515903E+04  0.36001232742E+04 0.  0.
        5    1    3    3  502    0  0.13428233807E+04 -0.94751906480E+03  0.57703184159E+03  0.17418251480E+04  0.46999998093E+01 0. -1.
       -5    1    3    3    0  502 -0.13428233807E+04  0.94751906480E+03 -0.89742196181E+03  0.18725264424E+04  0.46999998093E+01 0.  1.
</event>
<event>
 5   0  0.1370997E-07  0.3613307E+04  0.7818609E-02  0.8087450E-01
       -1   -1    0    0    0  501  0.00000000000E+00  0.00000000000E+00  0.11319642552E+04  0.11319642552E+04  0.50400001928E-02 0.  1.
        1   -1    0    0  501    0  0.00000000000E+00  0.00000000000E+00 -0.28834807662E+04  0.28834807662E+04  0.50400001928E-02 0. -1.
    10030    2    1    2    0    0  0.00000000000E+00  0.00000000000E+00 -0.17515165110E+04  0.40154450214E+04  0.36133071599E+04 0.  0.
        3    1    3    3  502    0 -0.58571949198E+03  0.14534574963E+04 -0.18749286846E+04  0.24435555241E+04  0.10100000352E+00 0. -1.
       -3    1    3    3    0  502  0.58571949198E+03 -0.14534574963E+04  0.12341217354E+03  0.15718894973E+04  0.10100000352E+00 0.  1.
</event>
<event>
 5   0  0.4120440E-07  0.3593363E+04  0.7818609E-02  0.8092014E-01
        2   -1    0    0  501    0  0.00000000000E+00  0.00000000000E+00  0.19339582206E+04  0.19339582206E+04  0.25500000920E-02 0.  1.
       -2   -1    0    0    0  501  0.00000000000E+00  0.00000000000E+00 -0.16691491265E+04  0.16691491265E+04  0.25500000920E-02 0. -1.
    10030    2    1    2    0    0  0.00000000000E+00  0.00000000000E+00  0.26480909414E+03  0.36031073472E+04  0.35933631460E+04 0.  0.
        2    1    3    3  502    0  0.24918166401E+03  0.17606651663E+04  0.39006701613E+03  0.18204904852E+04  0.25500000920E-02 0.  1.
       -2    1    3    3    0  502 -0.24918166401E+03 -0.17606651663E+04 -0.12525792199E+03  0.17826168620E+04  0.25500000920E-02 0. -1.
</event>
<event>
 5   0  0.4120440E-07  0.3586195E+04  0.7818609E-02  0.8093661E-01
        2   -1    0    0  501    0  0.00000000000E+00  0.00000000000E+00  0.19420540212E+04  0.19420540212E+04  0.25500000920E-02 0.  1.
       -2   -1    0    0    0  501  0.00000000000E+00  0.00000000000E+00 -0.16555663613E+04  0.16555663613E+04  0.25500000920E-02 0. -1.
    10030    2    1    2    0    0  0.00000000000E+00  0.00000000000E+00  0.28648765994E+03  0.35976203825E+04  0.35861953707E+04 0.  0.
        2    1    3    3  502    0 -0.96862157438E+02  0.48237069625E+02 -0.16522879259E+04  0.16558274314E+04  0.25500000920E-02 0. -1.
       -2    1    3    3    0  502  0.96862157438E+02 -0.48237069625E+02  0.19387755859E+04  0.19417929511E+04  0.25500000920E-02 0.  1.
</event>
<event>
 5   0  0.1298250E-07  0.3548237E+04  0.7818609E-02  0.8102453E-01
       -1   -1    0    0    0  501  0.00000000000E+00  0.00000000000E+00  0.16205150828E+04  0.16205150828E+04  0.50400001928E-02 0.  1.
        1   -1    0    0  501    0  0.00000000000E+00  0.00000000000E+00 -0.19422809583E+04  0.19422809583E+04  0.50400001928E-02 0. -1.
    10030    2    1    2    0    0  0.00000000000E+00  0.00000000000E+00 -0.32176587550E+03  0.35627960411E+04  0.35482365130E+04 0.  0.
        1    1    3    3  502    0  0.16523715468E+04 -0.26655064739E+03 -0.75161204075E+03  0.18347483849E+04  0.50400001928E-02 0. -1.
       -1    1    3    3    0  502 -0.16523715468E+04  0.26655064739E+03  0.42984616525E+03  0.17280476562E+04  0.50400001928E-02 0.  1.
</event>
<event>
 5   0  0.4115358E-07  0.3442720E+04  0.7818609E-02  0.8127500E-01
       -2   -1    0    0    0  501  0.00000000000E+00  0.00000000000E+00  0.14177159689E+04  0.14177159689E+04  0.25500000920E-02 0. -1.
        2   -1    0    0  501    0  0.00000000000E+00  0.00000000000E+00 -0.20900375386E+04  0.20900375386E+04  0.25500000920E-02 0.  1.
    10030    2    1    2    0    0  0.00000000000E+00  0.00000000000E+00 -0.67232156972E+03  0.35077535076E+04  0.34427196193E+04 0.  0.
        3    1    3    3  502    0 -0.11492347012E+04 -0.10627133138E+04  0.39359485437E+03  0.16140064762E+04  0.10100000352E+00 0. -1.
       -3    1    3    3    0  502  0.11492347012E+04  0.10627133138E+04 -0.10659164241E+04  0.18937470314E+04  0.10100000352E+00 0.  1.
</event>
<event>
 5   0  0.4120440E-07  0.3609930E+04  0.7818609E-02  0.8088221E-01
        2   -1    0    0  501    0  0.00000000000E+00  0.00000000000E+00  0.21366394722E+04  0.21366394722E+04  0.25500000920E-02 0. -1.
       -2   -1    0    0    0  501  0.00000000000E+00  0.00000000000E+00 -0.15247765568E+04  0.15247765568E+04  0.25500000920E-02 0.  1.
    10030    2    1    2    0    0  0.00000000000E+00  0.00000000000E+00  0.61186291532E+03  0.36614160290E+04  0.36099295160E+04 0.  0.
        2    1    3    3  502    0 -0.75634299206E+03 -0.53324878724E+02 -0.13554166956E+04  0.15530784536E+04  0.25500000920E-02 0.  1.
       -2    1    3    3    0  502  0.75634299206E+03  0.53324878724E+02  0.19672796109E+04  0.21083375754E+04  0.25500000920E-02 0. -1.
</event>
<event>
 5   0  0.1370997E-07  0.3596642E+04  0.7818609E-02  0.8091261E-01
        1   -1    0    0  501    0  0.00000000000E+00  0.00000000000E+00  0.19769122885E+04  0.19769122885E+04  0.50400001928E-02 0. -1.
       -1   -1    0    0    0  501  0.00000000000E+00  0.00000000000E+00 -0.16358630733E+04  0.16358630733E+04  0.50400001928E-02 0.  1.
    10030    2    1    2    0    0  0.00000000000E+00  0.00000000000E+00  0.34104921518E+03  0.36127753618E+04  0.35966416623E+04 0.  0.
        3    1    3    3  502    0  0.12584175530E+04 -0.12303811399E+04 -0.20059898852E+03  0.17713532825E+04  0.10100000352E+00 0. -1.
       -3    1    3    3    0  502 -0.12584175530E+04  0.12303811399E+04  0.54164820370E+03  0.18414220792E+04  0.10100000352E+00 0.  1.
</event>
<event>
 5   0  0.1370997E-07  0.3633550E+04  0.7818609E-02  0.8082850E-01
        1   -1    0    0  501    0  0.00000000000E+00  0.00000000000E+00  0.16761826954E+04  0.16761826955E+04  0.50400001928E-02 0. -1.
       -1   -1    0    0    0  501  0.00000000000E+00  0.00000000000E+00 -0.19691600001E+04  0.19691600001E+04  0.50400001928E-02 0.  1.
    10030    2    1    2    0    0  0.00000000000E+00  0.00000000000E+00 -0.29297730464E+03  0.36453426956E+04  0.36335502841E+04 0.  0.
        3    1    3    3  502    0  0.19340610960E+03 -0.33182245110E+03  0.16349881893E+04  0.16794935105E+04  0.10100000352E+00 0. -1.
       -3    1    3    3    0  502 -0.19340610960E+03  0.33182245110E+03 -0.19279654940E+04  0.19658491851E+04  0.10100000352E+00 0.  1.
</event>
<event>
 5   0  0.1348226E-07  0.3619645E+04  0.7818609E-02  0.8086006E-01
        1   -1    0    0  501    0  0.00000000000E+00  0.00000000000E+00  0.15045730680E+04  0.15045730681E+04  0.50400001928E-02 0. -1.
       -1   -1    0    0    0  501  0.00000000000E+00  0.00000000000E+00 -0.21770017239E+04  0.21770017240E+04  0.50400001928E-02 0.  1.
    10030    2    1    2    0    0  0.00000000000E+00  0.00000000000E+00 -0.67242865590E+03  0.36815747920E+04  0.36196453765E+04 0.  0.
        4    1    3    3  502    0  0.83325910639E+03 -0.11046264682E+04  0.85033687296E+03  0.16240673579E+04  0.12699999809E+01 0.  1.
       -4    1    3    3    0  502 -0.83325910639E+03  0.11046264682E+04 -0.15227655289E+04  0.20575074341E+04  0.12699999809E+01 0. -1.
</event>
<event>
 5   0  0.4115358E-07  0.3609828E+04  0.7818609E-02  0.8088244E-01
        2   -1    0    0  501    0  0.00000000000E+00  0.00000000000E+00  0.22019009421E+04  0.22019009421E+04  0.25500000920E-02 0.  1.
       -2   -1    0    0    0  501  0.00000000000E+00  0.00000000000E+00 -0.14795008115E+04  0.14795008115E+04  0.25500000920E-02 0. -1.
    10030    2    1    2    0    0  0.00000000000E+00  0.00000000000E+00  0.72240013063E+03  0.36814017536E+04  0.36098278245E+04 0.  0.
        3    1    3    3  502    0 -0.14440204411E+04  0.77597464033E+02  0.14626599696E+04  0.20568399543E+04  0.10100000352E+00 0.  1.
       -3    1    3    3    0  502  0.14440204411E+04 -0.77597464033E+02 -0.74025983894E+03  0.16245617994E+04  0.10100000352E+00 0. -1.
</event>
<event>
 5   0  0.4120440E-07  0.3583674E+04  0.7818609E-02  0.8094242E-01
        2   -1    0    0  501    0  0.00000000000E+00  0.00000000000E+00  0.22866030203E+04  0.22866030203E+04  0.25500000920E-02 0.  1.
       -2   -1    0    0    0  501  0.00000000000E+00  0.00000000000E+00 -0.14041264142E+04  0.14041264142E+04  0.25500000920E-02 0. -1.
    10030    2    1    2    0    0  0.00000000000E+00  0.00000000000E+00  0.88247660608E+03  0.36907294344E+04  0.35836739246E+04 0.  0.
        2    1    3    3  502    0  0.82044197205E+03 -0.15099494693E+04 -0.81474068833E+02  0.17203809036E+04  0.25500000920E-02 0. -1.
       -2    1    3    3    0  502 -0.82044197205E+03  0.15099494693E+04  0.96395067491E+03  0.19703485309E+04  0.25500000920E-02 0.  1.
</event>
<event>
 5   0  0.4200635E-07  0.3597670E+04  0.7818609E-02  0.8091026E-01
        2   -1    0    0  501    0  0.00000000000E+00  0.00000000000E+00  0.22944772489E+04  0.22944772489E+04  0.25500000920E-02 0. -1.
       -2   -1    0    0    0  501  0.00000000000E+00  0.00000000000E+00 -0.14102592797E+04  0.14102592797E+04  0.25500000920E-02 0.  1.
    10030    2    1    2    0    0  0.00000000000E+00  0.00000000000E+00  0.88421796914E+03  0.37047365286E+04  0.35976702641E+04 0.  0.
        4    1    3    3  502    0 -0.96729601710E+03  0.97255658948E+03  0.16404762384E+04  0.21383853269E+04  0.12699999809E+01 0. -1.
       -4    1    3    3    0  502  0.96729601710E+03 -0.97255658948E+03 -0.75625826928E+03  0.15663512017E+04  0.12699999809E+01 0.  1.
</event>
<event>
 5   0  0.1298250E-07  0.3590391E+04  0.7818609E-02  0.8092696E-01
       -1   -1    0    0    0  501  0.00000000000E+00  0.00000000000E+00  0.31638675120E+04  0.31638675120E+04  0.50400001928E-02 0. -1.
        1   -1    0    0  501    0  0.00000000000E+00  0.00000000000E+00 -0.10186033575E+04  0.10186033575E+04  0.50400001928E-02 0.  1.
    10030    2    1    2    0    0  0.00000000000E+00  0.00000000000E+00  0.21452641545E+04  0.41824708695E+04  0.35903905472E+04 0.  0.
        2    1    3    3  502    0  0.36634388708E+03  0.11712403556E+04 -0.45366910221E+03  0.13083682465E+04  0.25500000920E-02 0.  1.
       -2    1    3    3    0  502 -0.36634388708E+03 -0.11712403556E+04  0.25989332567E+04  0.28741026229E+04  0.25500000920E-02 0. -1.
</event>
<event>
 5   0  0.3993751E-07  0.3591426E+04  0.7818609E-02  0.8092458E-01
        2   -1    0    0  501    0  0.00000000000E+00  0.00000000000E+00  0.24699379299E+04  0.24699379299E+04  0.25500000920E-02 0. -1.
       -2   -1    0    0    0  501  0.00000000000E+00  0.00000000000E+00 -0.13055330402E+04  0.13055330402E+04  0.25500000920E-02 0.  1.
    10030    2    1    2    0    0  0.00000000000E+00  0.00000000000E+00  0.11644048897E+04  0.37754709702E+04  0.35914262208E+04 0.  0.
        1    1    3    3  502    0 -0.16160301902E+04  0.73240275887E+03  0.29121774575E+03  0.17979919778E+04  0.50400001928E-02 0.  1.
       -1    1    3    3    0  502  0.16160301902E+04 -0.73240275887E+03  0.87318714395E+03  0.19774789923E+04  0.50400001928E-02 0. -1.
</event>
<event>
 5   0  0.4120440E-07  0.3617415E+04  0.7818609E-02  0.8086514E-01
       -2   -1    0    0    0  501  0.00000000000E+00  0.00000000000E+00  0.16240659239E+04  0.16240659239E+04  0.25500000920E-02 0. -1.
        2   -1    0    0  501    0  0.00000000000E+00  0.00000000000E+00 -0.20143409937E+04  0.20143409937E+04  0.25500000920E-02 0.  1.
    10030    2    1    2    0    0  0.00000000000E+00  0.00000000000E+00 -0.39027506977E+03  0.36384069175E+04  0.36174148598E+04 0.  0.
        2    1    3    3  502    0  0.78441822990E+03  0.12589249681E+04 -0.12361405543E+04  0.19308670344E+04  0.25500000920E-02 0.  1.
       -2    1    3    3    0  502 -0.78441822990E+03 -0.12589249681E+04  0.84586548449E+03  0.17075398831E+04  0.25500000920E-02 0. -1.
</event>
<event>
 5   0  0.1298250E-07  0.3618094E+04  0.7818609E-02  0.8086359E-01
        1   -1    0    0  501    0  0.00000000000E+00  0.00000000000E+00  0.27392875598E+04  0.27392875598E+04  0.50400001928E-02 0.  1.
       -1   -1    0    0    0  501  0.00000000000E+00  0.00000000000E+00 -0.11947091422E+04  0.11947091422E+04  0.50400001928E-02 0. -1.
    10030    2    1    2    0    0  0.00000000000E+00  0.00000000000E+00  0.15445784176E+04  0.39339967020E+04  0.36180944658E+04 0.  0.
        1    1    3    3  502    0  0.63988410212E+03  0.14256461297E+04 -0.21873647460E+03  0.15778986649E+04  0.50400001928E-02 0. -1.
       -1    1    3    3    0  502 -0.63988410212E+03 -0.14256461297E+04  0.17633148922E+04  0.23560980371E+04  0.50400001928E-02 0.  1.
</event>
<event>
 5   0  0.1361743E-07  0.3628880E+04  0.7818609E-02  0.8083908E-01
       -1   -1    0    0    0  501  0.00000000000E+00  0.00000000000E+00  0.15828813061E+04  0.15828813061E+04  0.50400001928E-02 0. -1.
        1   -1    0    0  501    0  0.00000000000E+00  0.00000000000E+00 -0.20798732175E+04  0.20798732175E+04  0.50400001928E-02 0.  1.
    10030    2    1    2    0    0  0.00000000000E+00  0.00000000000E+00 -0.49699191137E+03  0.36627545236E+04  0.36288799567E+04 0.  0.
        5    1    3    3  502    0  0.17396827251E+04 -0.14223721843E+03 -0.74854255582E+03  0.18992275952E+04  0.46999998093E+01 0. -1.
       -5    1    3    3    0  502 -0.17396827251E+04  0.14223721843E+03  0.25155064445E+03  0.17635269284E+04  0.46999998093E+01 0.  1.
</event>
<event>
 5   0  0.1348226E-07  0.3644734E+04  0.7818609E-02  0.8080321E-01
        1   -1    0    0  501    0  0.00000000000E+00  0.00000000000E+00  0.25562223943E+04  0.25562223943E+04  0.50400001928E-02 0. -1.
       -1   -1    0    0    0  501  0.00000000000E+00  0.00000000000E+00 -0.12991914330E+04  0.12991914330E+04  0.50400001928E-02 0.  1.
    10030    2    1    2    0    0  0.00000000000E+00  0.00000000000E+00  0.12570309613E+04  0.38554138272E+04  0.36447344130E+04 0.  0.
        4    1    3    3  502    0 -0.15225282827E+04  0.55815743910E+03 -0.25104598975E+03  0.16409319913E+04  0.12699999809E+01 0.  1.
       -4    1    3    3    0  502  0.15225282827E+04 -0.55815743910E+03  0.15080769511E+04  0.22144818359E+04  0.12699999809E+01 0. -1.
</event>
<event>
 5   0  0.1370997E-07  0.3569613E+04  0.7818609E-02  0.8097488E-01
       -1   -1    0    0    0  501  0.00000000000E+00  0.00000000000E+00  0.15774678642E+04  0.15774678642E+04  0.50400001928E-02 0.  1.
        1   -1    0    0  501    0  0.00000000000E+00  0.00000000000E+00 -0.20193976144E+04  0.20193976144E+04  0.50400001928E-02 0. -1.
    10030    2    1    2    0    0  0.00000000000E+00  0.00000000000E+00 -0.44192975020E+03  0.35968654786E+04  0.35696133358E+04 0.  0.
        3    1    3    3  502    0  0.10248963793E+03  0.16910960417E+03 -0.20083257213E+04  0.20180372636E+04  0.10100000352E+00 0. -1.
       -3    1    3    3    0  502 -0.10248963793E+03 -0.16910960417E+03  0.15663959711E+04  0.15788282150E+04  0.10100000352E+00 0.  1.
</event>
<event>
 5   0  0.4115358E-07  0.3363241E+04  0.7818609E-02  0.8146988E-01
       -2   -1    0    0    0  501  0.00000000000E+00  0.00000000000E+00  0.16349339897E+04  0.16349339897E+04  0.25500000920E-02 0.  1.
        2   -1    0    0  501    0  0.00000000000E+00  0.00000000000E+00 -0.17296400404E+04  0.17296400404E+04  0.25500000920E-02 0. -1.
    10030    2    1    2    0    0  0.00000000000E+00  0.00000000000E+00 -0.94706050750E+02  0.33645740301E+04  0.33632408727E+04 0.  0.
        3    1    3    3  502    0  0.33287483869E+03 -0.16470818510E+04 -0.11189991202E+03  0.16841038812E+04  0.10100000352E+00 0.  1.
       -3    1    3    3    0  502 -0.33287483869E+03  0.16470818510E+04  0.17193861271E+02  0.16804701489E+04  0.10100000352E+00 0. -1.
</event>
<event>
 5   0  0.1298250E-07  0.3649458E+04  0.7818609E-02  0.8079256E-01
        1   -1    0    0  501    0  0.00000000000E+00  0.00000000000E+00  0.14212595369E+04  0.14212595369E+04  0.50400001928E-02 0. -1.
       -1   -1    0    0    0  501  0.00000000000E+00  0.00000000000E+00 -0.23427358160E+04  0.23427358160E+04  0.50400001928E-02 0.  1.
    10030    2    1    2    0    0  0.00000000000E+00  0.00000000000E+00 -0.92147627912E+03  0.37639953529E+04  0.36494578342E+04 0.  0.
        2    1    3    3  502    0 -0.54203338153E+03  0.13690034345E+03  0.13307549182E+04  0.14434162750E+04  0.25500000920E-02 0. -1.
       -2    1    3    3    0  502  0.54203338153E+03 -0.13690034345E+03 -0.22522311973E+04  0.23205790779E+04  0.25500000920E-02 0.  1.
</event>
<event>
 5   0  0.3993751E-07  0.3799577E+04  0.7818609E-02  0.8046246E-01
        2   -1    0    0  501    0  0.00000000000E+00  0.00000000000E+00  0.19079116884E+04  0.19079116884E+04  0.25500000920E-02 0. -1.
       -2   -1    0    0    0  501  0.00000000000E+00  0.00000000000E+00 -0.18916995201E+04  0.18916995201E+04  0.25500000920E-02 0.  1.
    10030    2    1    2    0    0  0.00000000000E+00  0.00000000000E+00  0.16212168307E+02  0.37996112084E+04  0.37995766212E+04 0.  0.
        1    1    3    3  502    0 -0.86167854762E+03  0.20691138568E+03 -0.16723536136E+04  0.18926354244E+04  0.50400001928E-02 0.  1.
       -1    1    3    3    0  502  0.86167854762E+03 -0.20691138568E+03  0.16885657819E+04  0.19069757840E+04  0.50400001928E-02 0. -1.
</event>
<event>
 5   0  0.1298250E-07  0.3460498E+04  0.7818609E-02  0.8123216E-01
        1   -1    0    0  501    0  0.00000000000E+00  0.00000000000E+00  0.22272371034E+04  0.22272371034E+04  0.50400001928E-02 0.  1.
       -1   -1    0    0    0  501  0.00000000000E+00  0.00000000000E+00 -0.13441597313E+04  0.13441597313E+04  0.50400001928E-02 0. -1.
    10030    2    1    2    0    0  0.00000000000E+00  0.00000000000E+00  0.88307737208E+03  0.35713968347E+04  0.34604984765E+04 0.  0.
        2    1    3    3  502    0 -0.80257358793E+03  0.45768265791E+03 -0.10682738947E+04  0.14123763286E+04  0.25500000920E-02 0. -1.
       -2    1    3    3    0  502  0.80257358793E+03 -0.45768265791E+03  0.19513512668E+04  0.21590205061E+04  0.25500000920E-02 0.  1.
</event>
<event>
 5   0  0.1370997E-07  0.3580764E+04  0.7818609E-02  0.8094912E-01
       -1   -1    0    0    0  501  0.00000000000E+00  0.00000000000E+00  0.15948615629E+04  0.15948615629E+04  0.50400001928E-02 0.  1.
        1   -1    0    0  501    0  0.00000000000E+00  0.00000000000E+00 -0.20098725882E+04  0.20098725882E+04  0.50400001928E-02 0. -1.
    10030    2    1    2    0    0  0.00000000000E+00  0.00000000000E+00 -0.41501102524E+03  0.36047341511E+04  0.35807644644E+04 0.  0.
        3    1    3    3  502    0 -0.73931606666E+03 -0.12512011696E+04  0.84514022773E+03  0.16811765606E+04  0.10100000352E+00 0.  1.
       -3    1    3    3    0  502  0.73931606666E+03  0.12512011696E+04 -0.12601512530E+04  0.19235575905E+04  0.10100000352E+00 0. -1.
</event>
<event>
 5   0  0.3993751E-07  0.3593709E+04  0.7818609E-02  0.8091934E-01
       -2   -1    0    0    0  501  0.00000000000E+00  0.00000000000E+00  0.13325128696E+04  0.13325128696E+04  0.25500000920E-02 0.  1.
        2   -1    0    0  501    0  0.00000000000E+00  0.00000000000E+00 -0.24230053579E+04  0.24230053579E+04  0.25500000920E-02 0. -1.
    10030    2    1    2    0    0  0.00000000000E+00  0.00000000000E+00 -0.10904924883E+04  0.37555182275E+04  0.35937088488E+04 0.  0.
        1    1    3    3  502    0 -0.17176450544E+04  0.26079443519E+03 -0.65936385543E+02  0.17385815705E+04  0.50400001928E-02 0. -1.
       -1    1    3    3    0  502  0.17176450544E+04 -0.26079443519E+03 -0.10245561028E+04  0.20169366570E+04  0.50400001928E-02 0.  1.
</event>
<event>
 5   0  0.1348226E-07  0.3536575E+04  0.7818609E-02  0.8105176E-01
       -1   -1    0    0    0  501  0.00000000000E+00  0.00000000000E+00  0.16854622450E+04  0.16854622450E+04  0.50400001928E-02 0. -1.
        1   -1    0    0  501    0  0.00000000000E+00  0.00000000000E+00 -0.18551833383E+04  0.18551833383E+04  0.50400001928E-02 0.  1.
    10030    2    1    2    0    0  0.00000000000E+00  0.00000000000E+00 -0.16972109333E+03  0.35406455833E+04  0.35365754476E+04 0.  0.
        4    1    3    3  502    0 -0.12253142311E+04 -0.34868902809E+03  0.11428708345E+04  0.17114714021E+04  0.12699999809E+01 0. -1.
       -4    1    3    3    0  502  0.12253142311E+04  0.34868902809E+03 -0.13125919278E+04  0.18291741811E+04  0.12699999809E+01 0.  1.
</event>
<event>
 5   0  0.4120440E-07  0.3603482E+04  0.7818609E-02  0.8089695E-01
       -2   -1    0    0    0  501  0.00000000000E+00  0.00000000000E+00  0.18002957424E+04  0.18002957424E+04  0.25500000920E-02 0.  1.
        2   -1    0    0  501    0  0.00000000000E+00  0.00000000000E+00 -0.18031876192E+04  0.18031876192E+04  0.25500000920E-02 0. -1.
    10030    2    1    2    0    0  0.00000000000E+00  0.00000000000E+00 -0.28918768162E+01  0.36034833616E+04  0.36034822012E+04 0.  0.
        2    1    3    3  502    0 -0.17528838868E+04 -0.29249301104E+03  0.29539908574E+03  0.18015034560E+04  0.25500000920E-02 0.  1.
       -2    1    3    3    0  502  0.17528838868E+04  0.29249301104E+03 -0.29829096255E+03  0.18019799056E+04  0.25500000920E-02 0. -1.
</event>
<event>
 5   0  0.1361743E-07  0.3610837E+04  0.7818609E-02  0.8088014E-01
        1   -1    0    0  501    0  0.00000000000E+00  0.00000000000E+00  0.10199321144E+04  0.10199321144E+04  0.50400001928E-02 0.  1.
       -1   -1    0    0    0  501  0.00000000000E+00  0.00000000000E+00 -0.31958370107E+04  0.31958370107E+04  0.50400001928E-02 0. -1.
    10030    2    1    2    0    0  0.00000000000E+00  0.00000000000E+00 -0.21759048964E+04  0.42157691251E+04  0.36108374649E+04 0.  0.
        5    1    3    3  502    0 -0.67225130631E+03 -0.12102930426E+04  0.26496687579E+03  0.14095959006E+04  0.46999998093E+01 0.  1.
       -5    1    3    3    0  502  0.67225130631E+03  0.12102930426E+04 -0.24408717722E+04  0.28061732245E+04  0.46999998093E+01 0. -1.
</event>
<event>
 5   0  0.4115358E-07  0.3564604E+04  0.7818609E-02  0.8098648E-01
        2   -1    0    0  501    0  0.00000000000E+00  0.00000000000E+00  0.27883170903E+04  0.27883170903E+04  0.25500000920E-02 0. -1.
       -2   -1    0    0    0  501  0.00000000000E+00  0.00000000000E+00 -0.11392534462E+04  0.11392534462E+04  0.25500000920E-02 0.  1.
    10030    2    1    2    0    0  0.00000000000E+00  0.00000000000E+00  0.16490636441E+04  0.39275705365E+04  0.35646036830E+04 0.  0.
        3    1    3    3  502    0 -0.10352530641E+04  0.10826797228E+03 -0.76955047078E+03  0.12944801265E+04  0.10100000352E+00 0.  1.
       -3    1    3    3    0  502  0.10352530641E+04 -0.10826797228E+03  0.24186141149E+04  0.26330904101E+04  0.10100000352E+00 0. -1.
</event>
<event>
 5   0  0.1298250E-07  0.3631702E+04  0.7818609E-02  0.8083268E-01
        1   -1    0    0  501    0  0.00000000000E+00  0.00000000000E+00  0.28678393946E+04  0.28678393946E+04  0.50400001928E-02 0. -1.
       -1   -1    0    0    0  501  0.00000000000E+00  0.00000000000E+00 -0.11497555808E+04  0.11497555809E+04  0.50400001928E-02 0.  1.
    10030    2    1    2    0    0  0.00000000000E+00  0.00000000000E+00  0.17180838138E+04  0.40175949755E+04  0.36317017218E+04 0.  0.
        2    1    3    3  502    0  0.73163576329E+03 -0.14593821469E+03 -0.97238145701E+03  0.12256078290E+04  0.25500000920E-02 0.  1.
       -2    1    3    3    0  502 -0.73163576329E+03  0.14593821469E+03  0.26904652708E+04  0.27919871465E+04  0.25500000920E-02 0. -1.
</event>
<event>
 5   0  0.4120440E-07  0.3604396E+04  0.7818609E-02  0.8089486E-01
       -2   -1    0    0    0  501  0.00000000000E+00  0.00000000000E+00  0.14058818483E+04  0.14058818483E+04  0.25500000920E-02 0. -1.
        2   -1    0    0  501    0  0.00000000000E+00  0.00000000000E+00 -0.23102348739E+04  0.23102348739E+04  0.25500000920E-02 0.  1.
    10030    2    1    2    0    0  0.00000000000E+00  0.00000000000E+00 -0.90435302556E+03  0.37161167222E+04  0.36043958021E+04 0.  0.
        2    1    3    3  502    0 -0.12965685912E+04  0.10336403159E+03  0.83394389252E+03  0.15450684938E+04  0.25500000920E-02 0. -1.
       -2    1    3    3    0  502  0.12965685912E+04 -0.10336403159E+03 -0.17382969181E+04  0.21710482284E+04  0.25500000920E-02 0.  1.
</event>
<event>
 5   0  0.3993751E-07  0.3590172E+04  0.7818609E-02  0.8092747E-01
        2   -1    0    0  501    0  0.00000000000E+00  0.00000000000E+00  0.23627786625E+04  0.23627786625E+04  0.25500000920E-02 0.  1.
       -2   -1    0    0    0  501  0.00000000000E+00  0.00000000000E+00 -0.13637900158E+04  0.13637900158E+04  0.25500000920E-02 0. -1.
    10030    2    1    2    0    0  0.00000000000E+00  0.00000000000E+00  0.99898864674E+03  0.37265686783E+04  0.35901721126E+04 0.  0.
        1    1    3    3  502    0 -0.86539563574E+03 -0.31499114800E+03  0.20988791096E+04  0.22920345867E+04  0.50400001928E-02 0.  1.
       -1    1    3    3    0  502  0.86539563574E+03  0.31499114800E+03 -0.10998904629E+04  0.14345340916E+04  0.50400001928E-02 0. -1.
</event>
<event>
 5   0  0.1370997E-07  0.3580413E+04  0.7818609E-02  0.8094993E-01
       -1   -1    0    0    0  501  0.00000000000E+00  0.00000000000E+00  0.20036884924E+04  0.20036884924E+04  0.50400001928E-02 0. -1.
        1   -1    0    0  501    0  0.00000000000E+00  0.00000000000E+00 -0.15994702688E+04  0.15994702688E+04  0.50400001928E-02 0.  1.
    10030    2    1    2    0    0  0.00000000000E+00  0.00000000000E+00  0.40421822355E+03  0.36031587612E+04  0.35804134798E+04 0.  0.
        3    1    3    3  502    0 -0.95639018776E+03 -0.15128015024E+04  0.16198624033E+03  0.17970782201E+04  0.10100000352E+00 0.  1.
       -3    1    3    3    0  502  0.95639018776E+03  0.15128015024E+04  0.24223198322E+03  0.18060805411E+04  0.10100000352E+00 0. -1.
</event>
<event>
 5   0  0.1348226E-07  0.3593507E+04  0.7818609E-02  0.8091981E-01
       -1   -1    0    0    0  501  0.00000000000E+00  0.00000000000E+00  0.11785688530E+04  0.11785688530E+04  0.50400001928E-02 0. -1.
        1   -1    0    0  501    0  0.00000000000E+00  0.00000000000E+00 -0.27391896440E+04  0.27391896440E+04  0.50400001928E-02 0.  1.
    10030    2    1    2    0    0  0.00000000000E+00  0.00000000000E+00 -0.15606207909E+04  0.39177584970E+04  0.35935072544E+04 0.  0.
        4    1    3    3  502    0 -0.15281032939E+03  0.50061309182E+03 -0.26542287295E+04  0.27053458607E+04  0.12699999809E+01 0.  1.
       -4    1    3    3    0  502  0.15281032939E+03 -0.50061309182E+03  0.10936079386E+04  0.12124126363E+04  0.12699999809E+01 0. -1.
</event>
<event>
 5   0  0.4120440E-07  0.3614637E+04  0.7818609E-02  0.8087147E-01
        2   -1    0    0  501    0  0.00000000000E+00  0.00000000000E+00  0.26478972675E+04  0.26478972675E+04  0.25500000920E-02 0.  1.
       -2   -1    0    0    0  501  0.00000000000E+00  0.00000000000E+00 -0.12335827216E+04  0.12335827216E+04  0.25500000920E-02 0. -1.
    10030    2    1    2    0    0  0.00000000000E+00  0.00000000000E+00  0.14143145458E+04  0.38814799891E+04  0.36146370871E+04 0.  0.
        2    1    3    3  502    0  0.14832390386E+04 -0.74199689212E+03 -0.64085972220E+02  0.16597181825E+04  0.25500000920E-02 0. -1.
       -2    1    3    3    0  502 -0.14832390386E+04  0.74199689212E+03  0.14784005181E+04  0.22217618066E+04  0.25500000920E-02 0.  1.
</event>
<event>
 5   0  0.4200635E-07  0.3606211E+04  0.7818609E-02  0.8089070E-01
        2   -1    0    0  501    0  0.00000000000E+00  0.00000000000E+00  0.23093752102E+04  0.23093752102E+04  0.25500000920E-02 0.  1.
       -2   -1    0    0    0  501  0.00000000000E+00  0.00000000000E+00 -0.14078224103E+04  0.14078224103E+04  0.25500000920E-02 0. -1.
    10030    2    1    2    0    0  0.00000000000E+00  0.00000000000E+00  0.90155279990E+03  0.37171976205E+04  0.36062114051E+04 0.  0.
        4    1    3    3  502    0 -0.65321845572E+03 -0.16799160777E+04  0.50102273620E+03  0.18707853361E+04  0.12699999809E+01 0.  1.
       -4    1    3    3    0  502  0.65321845572E+03  0.16799160777E+04  0.40053006370E+03  0.18464122843E+04  0.12699999809E+01 0. -1.
</event>
<event>
 5   0  0.4115358E-07  0.3612216E+04  0.7818609E-02  0.8087699E-01
        2   -1    0    0  501    0  0.00000000000E+00  0.00000000000E+00  0.22945632303E+04  0.22945632303E+04  0.25500000920E-02 0.  1.
       -2   -1    0    0    0  501  0.00000000000E+00  0.00000000000E+00 -0.14216327500E+04  0.14216327501E+04  0.25500000920E-02 0. -1.
    10030    2    1    2    0    0  0.00000000000E+00  0.00000000000E+00  0.87293048020E+03  0.37161959803E+04  0.36122160706E+04 0.  0.
        3    1    3    3  502    0  0.79244000675E+03  0.93051457381E+03  0.18044823403E+04  0.21794437509E+04  0.10100000352E+00 0.  1.
       -3    1    3    3    0  502 -0.79244000675E+03 -0.93051457381E+03 -0.93155186014E+03  0.15367522294E+04  0.10100000352E+00 0. -1.
</event>
<event>
 5   0  0.3880259E-07  0.3571394E+04  0.7818609E-02  0.8097076E-01
       -2   -1    0    0    0  501  0.00000000000E+00  0.00000000000E+00  0.21454856132E+04  0.21454856132E+04  0.25500000920E-02 0. -1.
        2   -1    0    0  501    0  0.00000000000E+00  0.00000000000E+00 -0.14862435654E+04  0.14862435654E+04  0.25500000920E-02 0.  1.
    10030    2    1    2    0    0  0.00000000000E+00  0.00000000000E+00  0.65924204776E+03  0.36317291786E+04  0.35713942304E+04 0.  0.
        5    1    3    3  502    0 -0.17034114636E+04 -0.49877457605E+03  0.13059691282E+03  0.17797371536E+04  0.46999998093E+01 0.  1.
       -5    1    3    3    0  502  0.17034114636E+04  0.49877457605E+03  0.52864513493E+03  0.18519920250E+04  0.46999998093E+01 0. -1.
</event>
<event>
 5   0  0.1348226E-07  0.3618286E+04  0.7818609E-02  0.8086316E-01
        1   -1    0    0  501    0  0.00000000000E+00  0.00000000000E+00  0.32657735837E+04  0.32657735837E+04  0.50400001928E-02 0. -1.
       -1   -1    0    0    0  501  0.00000000000E+00  0.00000000000E+00 -0.10022121521E+04  0.10022121522E+04  0.50400001928E-02 0.  1.
    10030    2    1    2    0    0  0.00000000000E+00  0.00000000000E+00  0.22635614315E+04  0.42679857358E+04  0.36182857663E+04 0.  0.
        4    1    3    3  502    0 -0.45973248118E+03  0.10698004729E+04 -0.50146051287E+03  0.12677899136E+04  0.12699999809E+01 0.  1.
       -4    1    3    3    0  502  0.45973248118E+03 -0.10698004729E+04  0.27650219444E+04  0.30001958223E+04  0.12699999809E+01 0. -1.
</event>
<event>
 5   0  0.1361743E-07  0.3613087E+04  0.7818609E-02  0.8087501E-01
        1   -1    0    0  501    0  0.00000000000E+00  0.00000000000E+00  0.30620455459E+04  0.30620455459E+04  0.50400001928E-02 0.  1.
       -1   -1    0    0    0  501  0.00000000000E+00  0.00000000000E+00 -0.10658229881E+04  0.10658229881E+04  0.50400001928E-02 0. -1.
    10030    2    1    2    0    0  0.00000000000E+00  0.00000000000E+00  0.19962225578E+04  0.41278685341E+04  0.36130865108E+04 0.  0.
        5    1    3    3  502    0 -0.19465671446E+03  0.11407577569E+04 -0.58674656252E+03  0.12975026455E+04  0.46999998093E+01 0. -1.
       -5    1    3    3    0  502  0.19465671446E+03 -0.11407577569E+04  0.25829691203E+04  0.28303658886E+04  0.46999998093E+01 0.  1.
</event>
<event>
 5   0  0.1298250E-07  0.3314899E+04  0.7818609E-02  0.8159115E-01
        1   -1    0    0  501    0  0.00000000000E+00  0.00000000000E+00  0.26355731725E+04  0.26355731725E+04  0.50400001928E-02 0.  1.
       -1   -1    0    0    0  501  0.00000000000E+00  0.00000000000E+00 -0.10423306285E+04  0.10423306285E+04  0.50400001928E-02 0. -1.
    10030    2    1    2    0    0  0.00000000000E+00  0.00000000000E+00  0.15932425440E+04  0.36779038011E+04  0.33148988772E+04 0.  0.
        1    1    3    3  502    0 -0.11631373000E+04 -0.11031071526E+04  0.12639396420E+04  0.20413909933E+04  0.50400001928E-02 0. -1.
       -1    1    3    3    0  502  0.11631373000E+04  0.11031071526E+04  0.32930290197E+03  0.16365128078E+04  0.50400001928E-02 0.  1.
</event>
<event>
 5   0  0.4200635E-07  0.3539837E+04  0.7818609E-02  0.8104413E-01
        2   -1    0    0  501    0  0.00000000000E+00  0.00000000000E+00  0.13955057923E+04  0.13955057923E+04  0.25500000920E-02 0. -1.
       -2   -1    0    0    0  501  0.00000000000E+00  0.00000000000E+00 -0.22447859058E+04  0.22447859058E+04  0.25500000920E-02 0.  1.
    10030    2    1    2    0    0  0.00000000000E+00  0.00000000000E+00 -0.84928011357E+03  0.36402916981E+04  0.35398371341E+04 0.  0.
        4    1    3    3  502    0 -0.82424492799E+03  0.23148503225E+03  0.11683989582E+04  0.14484898204E+04  0.12699999809E+01 0. -1.
       -4    1    3    3    0  502  0.82424492799E+03 -0.23148503225E+03 -0.20176790717E+04  0.21918018777E+04  0.12699999809E+01 0.  1.
</event>
<event>
 5   0  0.4200635E-07  0.3280183E+04  0.7818609E-02  0.8167956E-01
        2   -1    0    0  501    0  0.00000000000E+00  0.00000000000E+00  0.14417504554E+04  0.14417504554E+04  0.25500000920E-02 0. -1.
       -2   -1    0    0    0  501  0.00000000000E+00  0.00000000000E+00 -0.18657180119E+04  0.18657180119E+04  0.25500000920E-02 0.  1.
    10030    2    1    2    0    0  0.00000000000E+00  0.00000000000E+00 -0.42396755649E+03  0.33074684672E+04  0.32801827956E+04 0.  0.
        4    1    3    3  502    0 -0.10381468249E+04  0.36606349692E+03  0.10139202144E+04  0.14965918374E+04  0.12699999809E+01 0. -1.
       -4    1    3    3    0  502  0.10381468249E+04 -0.36606349692E+03 -0.14378877709E+04  0.18108766298E+04  0.12699999809E+01 0.  1.
</event>
<event>
 5   0  0.4120440E-07  0.3594966E+04  0.7818609E-02  0.8091646E-01
       -2   -1    0    0    0  501  0.00000000000E+00  0.00000000000E+00  0.12878145809E+04  0.12878145809E+04  0.25500000920E-02 0. -1.
        2   -1    0    0  501    0  0.00000000000E+00  0.00000000000E+00 -0.25088587973E+04  0.25088587974E+04  0.25500000920E-02 0.  1.
    10030    2    1    2    0    0  0.00000000000E+00  0.00000000000E+00 -0.12210442164E+04  0.37966733783E+04  0.35949658917E+04 0.  0.
        2    1    3    3  502    0 -0.17844125118E+04 -0.32676182780E+02 -0.83641376674E+03  0.19709854729E+04  0.25500000920E-02 0. -1.
       -2    1    3    3    0  502  0.17844125118E+04  0.32676182780E+02 -0.38463044969E+03  0.18256879054E+04  0.25500000920E-02 0.  1.
</event>
<event>
 5   0  0.1298250E-07  0.3512449E+04  0.7818609E-02  0.8110846E-01
        1   -1    0    0  501    0  0.00000000000E+00  0.00000000000E+00  0.25086158576E+04  0.25086158576E+04  0.50400001928E-02 0.  1.
       -1   -1    0    0    0  501  0.00000000000E+00  0.00000000000E+00 -0.12294924916E+04  0.12294924916E+04  0.50400001928E-02 0. -1.
    10030    2    1    2    0    0  0.00000000000E+00  0.00000000000E+00  0.12791233660E+04  0.37381083493E+04  0.35124489242E+04 0.  0.
        2    1    3    3  502    0 -0.16482060568E+04 -0.44351029789E+03  0.19942210669E+03  0.17184451597E+04  0.25500000920E-02 0. -1.
       -2    1    3    3    0  502  0.16482060568E+04  0.44351029789E+03  0.10797012593E+04  0.20196631896E+04  0.25500000920E-02 0.  1.
</event>
<event>
 5   0  0.1370997E-07  0.3597541E+04  0.7818609E-02  0.8091055E-01
       -1   -1    0    0    0  501  0.00000000000E+00  0.00000000000E+00  0.14823096455E+04  0.14823096455E+04  0.50400001928E-02 0.  1.
        1   -1    0    0  501    0  0.00000000000E+00  0.00000000000E+00 -0.21827934332E+04  0.21827934332E+04  0.50400001928E-02 0. -1.
    10030    2    1    2    0    0  0.00000000000E+00  0.00000000000E+00 -0.70048378767E+03  0.36651030787E+04  0.35975412493E+04 0.  0.
        3    1    3    3  502    0 -0.14879130742E+03  0.17721822775E+04 -0.62513674022E+03  0.18850901389E+04  0.10100000352E+00 0. -1.
       -3    1    3    3    0  502  0.14879130742E+03 -0.17721822775E+04 -0.75347047448E+02  0.17800129397E+04  0.10100000352E+00 0.  1.
</event>
<event>
 5   0  0.3880259E-07  0.3601635E+04  0.7818609E-02  0.8090117E-01
        2   -1    0    0  501    0  0.00000000000E+00  0.00000000000E+00  0.28757181592E+04  0.28757181592E+04  0.25500000920E-02 0. -1.
       -2   -1    0    0    0  501  0.00000000000E+00  0.00000000000E+00 -0.11276984096E+04  0.11276984096E+04  0.25500000920E-02 0.  1.
    10030    2    1    2    0    0  0.00000000000E+00  0.00000000000E+00  0.17480197496E+04  0.40034165688E+04  0.36016345148E+04 0.  0.
        5    1    3    3  502    0 -0.14623192309E+03 -0.36205332109E+03  0.28280897281E+04  0.28549220624E+04  0.46999998093E+01 0. -1.
       -5    1    3    3    0  502  0.14623192309E+03  0.36205332109E+03 -0.10800699785E+04  0.11484945064E+04  0.46999998093E+01 0.  1.
</event>
<event>
 5   0  0.3993751E-07  0.3607781E+04  0.7818609E-02  0.8088712E-01
       -2   -1    0    0    0  501  0.00000000000E+00  0.00000000000E+00  0.11817671058E+04  0.11817671058E+04  0.25500000920E-02 0.  1.
        2   -1    0    0  501    0  0.00000000000E+00  0.00000000000E+00 -0.27535210764E+04  0.27535210764E+04  0.25500000920E-02 0. -1.
    10030    2    1    2    0    0  0.00000000000E+00  0.00000000000E+00 -0.15717539707E+04  0.39352881822E+04  0.36077808321E+04 0.  0.
        1    1    3    3  502    0  0.15049047035E+04 -0.22082881322E+03  0.27196242526E+03  0.15451430653E+04  0.50400001928E-02 0.  1.
       -1    1    3    3    0  502 -0.15049047035E+04  0.22082881322E+03 -0.18437163959E+04  0.23901451169E+04  0.50400001928E-02 0. -1.
</event>
<event>
 5   0  0.1348226E-07  0.3593757E+04  0.7818609E-02  0.8091923E-01
       -1   -1    0    0    0  501  0.00000000000E+00  0.00000000000E+00  0.24094280108E+04  0.24094280108E+04  0.50400001928E-02 0. -1.
        1   -1    0    0  501    0  0.00000000000E+00  0.00000000000E+00 -0.13400579617E+04  0.13400579617E+04  0.50400001928E-02 0.  1.
    10030    2    1    2    0    0  0.00000000000E+00  0.00000000000E+00  0.10693700491E+04  0.37494859725E+04  0.35937574704E+04 0.  0.
        4    1    3    3  502    0  0.13214844838E+04  0.23992825297E+03  0.17800964350E+04  0.22299398508E+04  0.12699999809E+01 0. -1.
       -4    1    3    3    0  502 -0.13214844838E+04 -0.23992825297E+03 -0.71072638585E+03  0.15195461217E+04  0.12699999809E+01 0.  1.
</event>
<event>
 5   0  0.1348226E-07  0.3638618E+04  0.7818609E-02  0.8081703E-01
       -1   -1    0    0    0  501  0.00000000000E+00  0.00000000000E+00  0.12520685395E+04  0.12520685396E+04  0.50400001928E-02 0.  1.
        1   -1    0    0  501    0  0.00000000000E+00  0.00000000000E+00 -0.26435338766E+04  0.26435338766E+04  0.50400001928E-02 0. -1.
    10030    2    1    2    0    0  0.00000000000E+00  0.00000000000E+00 -0.13914653371E+04  0.38956024162E+04  0.36386181994E+04 0.  0.
        4    1    3    3  502    0  0.17464858799E+04  0.14596354482E+03 -0.12184417220E+04  0.21345069988E+04  0.12699999809E+01 0. -1.
       -4    1    3    3    0  502 -0.17464858799E+04 -0.14596354482E+03 -0.17302361506E+03  0.17610954174E+04  0.12699999809E+01 0.  1.
</event>
<event>
 5   0  0.1361743E-07  0.3586823E+04  0.7818609E-02  0.8093517E-01
       -1   -1    0    0    0  501  0.00000000000E+00  0.00000000000E+00  0.13431850886E+04  0.13431850886E+04  0.50400001928E-02 0. -1.
        1   -1    0    0  501    0  0.00000000000E+00  0.00000000000E+00 -0.23945507798E+04  0.23945507798E+04  0.50400001928E-02 0.  1.
    10030    2    1    2    0    0  0.00000000000E+00  0.00000000000E+00 -0.10513656912E+04  0.37377358685E+04  0.35868230519E+04 0.  0.
        5    1    3    3  502    0  0.11595038975E+04  0.10188552301E+04  0.42585563754E+03  0.16012152829E+04  0.46999998093E+01 0. -1.
       -5    1    3    3    0  502 -0.11595038975E+04 -0.10188552301E+04 -0.14772213288E+04  0.21365205855E+04  0.46999998093E+01 0.  1.
</event>
<event>
 5   0  0.4200635E-07  0.3563105E+04  0.7818609E-02  0.8098996E-01
        2   -1    0    0  501    0  0.00000000000E+00  0.00000000000E+00  0.11011416630E+04  0.11011416630E+04  0.25500000920E-02 0. -1.
       -2   -1    0    0    0  501  0.00000000000E+00  0.00000000000E+00 -0.28823979675E+04  0.28823979675E+04  0.25500000920E-02 0.  1.
    10030    2    1    2    0    0  0.00000000000E+00  0.00000000000E+00 -0.17812563045E+04  0.39835396305E+04  0.35631045404E+04 0.  0.
        4    1    3    3  502    0 -0.11515926324E+04 -0.45955540127E+02  0.62822286925E+03  0.13126092675E+04  0.12699999809E+01 0. -1.
       -4    1    3    3    0  502  0.11515926324E+04  0.45955540127E+02 -0.24094791737E+04  0.26709303630E+04  0.12699999809E+01 0.  1.
</event>
<event>
 5   0  0.1298250E-07  0.3626973E+04  0.7818609E-02  0.8084341E-01
       -3   -1    0    0    0  501  0.00000000000E+00  0.00000000000E+00  0.18325404214E+04  0.18325404242E+04  0.10100000352E+00 0.  1.
        3   -1    0    0  501    0  0.00000000000E+00  0.00000000000E+00 -0.17946308273E+04  0.17946308302E+04  0.10100000352E+00 0. -1.
    10030    2    1    2    0    0  0.00000000000E+00  0.00000000000E+00  0.37909594072E+02  0.36271712544E+04  0.36269731418E+04 0.  0.
        2    1    3    3  502    0 -0.21929481903E+03  0.95117533818E+03  0.15474062985E+04  0.18295603281E+04  0.25500000920E-02 0.  1.
       -2    1    3    3    0  502  0.21929481903E+03 -0.95117533818E+03 -0.15094967044E+04  0.17976109263E+04  0.25500000920E-02 0. -1.
</event>
<event>
 5   0  0.4115358E-07  0.3601492E+04  0.7818609E-02  0.8090150E-01
       -2   -1    0    0    0  501  0.00000000000E+00  0.00000000000E+00  0.11530750241E+04  0.11530750241E+04  0.25500000920E-02 0. -1.
        2   -1    0    0  501    0  0.00000000000E+00  0.00000000000E+00 -0.28122066928E+04  0.28122066928E+04  0.25500000920E-02 0.  1.
    10030    2    1    2    0    0  0.00000000000E+00  0.00000000000E+00 -0.16591316687E+04  0.39652817169E+04  0.36014915244E+04 0.  0.
        3    1    3    3  502    0 -0.21966085415E+03 -0.17847167652E+04 -0.72384316795E+03  0.19384049538E+04  0.10100000352E+00 0. -1.
       -3    1    3    3    0  502  0.21966085415E+03  0.17847167652E+04 -0.93528850079E+03  0.20268767631E+04  0.10100000352E+00 0.  1.
</event>
<event>
 5   0  0.4115358E-07  0.3591503E+04  0.7818609E-02  0.8092441E-01
        2   -1    0    0  501    0  0.00000000000E+00  0.00000000000E+00  0.19004214029E+04  0.19004214029E+04  0.25500000920E-02 0.  1.
       -2   -1    0    0    0  501  0.00000000000E+00  0.00000000000E+00 -0.16968467253E+04  0.16968467253E+04  0.25500000920E-02 0. -1.
    10030    2    1    2    0    0  0.00000000000E+00  0.00000000000E+00  0.20357467765E+03  0.35972681283E+04  0.35915032141E+04 0.  0.
        3    1    3    3  502    0  0.28528722267E+03 -0.31305188985E+03 -0.16461022003E+04  0.16997184324E+04  0.10100000352E+00 0. -1.
       -3    1    3    3    0  502 -0.28528722267E+03  0.31305188985E+03  0.18496768780E+04  0.18975496959E+04  0.10100000352E+00 0.  1.
</event>
<event>
 5   0  0.1361743E-07  0.3612074E+04  0.7818609E-02  0.8087732E-01
        1   -1    0    0  501    0  0.00000000000E+00  0.00000000000E+00  0.14299651248E+04  0.14299651249E+04  0.50400001928E-02 0. -1.
       -1   -1    0    0    0  501  0.00000000000E+00  0.00000000000E+00 -0.22810137814E+04  0.22810137814E+04  0.50400001928E-02 0.  1.
    10030    2    1    2    0    0  0.00000000000E+00  0.00000000000E+00 -0.85104865654E+03  0.37109789062E+04  0.36120742831E+04 0.  0.
        5    1    3    3  502    0  0.55314781752E+03 -0.10424800876E+03  0.13375380250E+04  0.14511616773E+04  0.46999998093E+01 0. -1.
       -5    1    3    3    0  502 -0.55314781752E+03  0.10424800876E+03 -0.21885866816E+04  0.22598172289E+04  0.46999998093E+01 0.  1.
</event>
<event>
 5   0  0.4115358E-07  0.3602343E+04  0.7818609E-02  0.8089955E-01
        2   -1    0    0  501    0  0.00000000000E+00  0.00000000000E+00  0.19454548672E+04  0.19454548672E+04  0.25500000920E-02 0.  1.
       -2   -1    0    0    0  501  0.00000000000E+00  0.00000000000E+00 -0.16675888334E+04  0.16675888334E+04  0.25500000920E-02 0. -1.
    10030    2    1    2    0    0  0.00000000000E+00  0.00000000000E+00  0.27786603380E+03  0.36130437007E+04  0.36023430223E+04 0.  0.
        3    1    3    3  502    0  0.30556451416E+03 -0.51673802728E+02 -0.16406483708E+04  0.16696607263E+04  0.10100000352E+00 0. -1.
       -3    1    3    3    0  502 -0.30556451416E+03  0.51673802728E+02  0.19185144046E+04  0.19433829744E+04  0.10100000352E+00 0.  1.
</event>
<event>
 5   0  0.4120440E-07  0.3599262E+04  0.7818609E-02  0.8090661E-01
       -2   -1    0    0    0  501  0.00000000000E+00  0.00000000000E+00  0.17524702637E+04  0.17524702637E+04  0.25500000920E-02 0. -1.
        2   -1    0    0  501    0  0.00000000000E+00  0.00000000000E+00 -0.18480604548E+04  0.18480604548E+04  0.25500000920E-02 0.  1.
    10030    2    1    2    0    0  0.00000000000E+00  0.00000000000E+00 -0.95590191133E+02  0.36005307185E+04  0.35992615868E+04 0.  0.
        2    1    3    3  502    0  0.10992221945E+04 -0.86879226347E+03  0.10820196167E+04  0.17702700023E+04  0.25500000920E-02 0. -1.
       -2    1    3    3    0  502 -0.10992221945E+04  0.86879226347E+03 -0.11776098078E+04  0.18302607163E+04  0.25500000920E-02 0.  1.
</event>
<event>
 5   0  0.3993751E-07  0.3565081E+04  0.7818609E-02  0.8098537E-01
        2   -1    0    0  501    0  0.00000000000E+00  0.00000000000E+00  0.27147424662E+04  0.27147424662E+04  0.25500000920E-02 0.  1.
       -2   -1    0    0    0  501  0.00000000000E+00  0.00000000000E+00 -0.11704427868E+04  0.11704427868E+04  0.25500000920E-02 0. -1.
    10030    2    1    2    0    0  0.00000000000E+00  0.00000000000E+00  0.15442996793E+04  0.38851852530E+04  0.35650810580E+04 0.  0.
        1    1    3    3  502    0 -0.14727890192E+04  0.10039122358E+04  0.79660255475E+03  0.19523121939E+04  0.50400001928E-02 0. -1.
       -1    1    3    3    0  502  0.14727890192E+04 -0.10039122358E+04  0.74769712459E+03  0.19328730591E+04  0.50400001928E-02 0.  1.
</event>
<event>
 5   0  0.1298250E-07  0.3601033E+04  0.7818609E-02  0.8090255E-01
       -1   -1    0    0    0  501  0.00000000000E+00  0.00000000000E+00  0.20843467349E+04  0.20843467349E+04  0.50400001928E-02 0.  1.
        1   -1    0    0  501    0  0.00000000000E+00  0.00000000000E+00 -0.15553358038E+04  0.15553358038E+04  0.50400001928E-02 0. -1.
    10030    2    1    2    0    0  0.00000000000E+00  0.00000000000E+00  0.52901093104E+03  0.36396825387E+04  0.36010326876E+04 0.  0.
        1    1    3    3  502    0 -0.12539275234E+04  0.12560745673E+04  0.57074513885E+03  0.18643517817E+04  0.50400001928E-02 0.  1.
       -1    1    3    3    0  502  0.12539275234E+04 -0.12560745673E+04 -0.41734207806E+02  0.17753307570E+04  0.50400001928E-02 0. -1.
</event>
<event>
 5   0  0.4200635E-07  0.3626240E+04  0.7818609E-02  0.8084507E-01
       -2   -1    0    0    0  501  0.00000000000E+00  0.00000000000E+00  0.20493304616E+04  0.20493304616E+04  0.25500000920E-02 0. -1.
        2   -1    0    0  501    0  0.00000000000E+00  0.00000000000E+00 -0.16041356043E+04  0.16041356043E+04  0.25500000920E-02 0.  1.
    10030    2    1    2    0    0  0.00000000000E+00  0.00000000000E+00  0.44519485728E+03  0.36534660659E+04  0.36262399029E+04 0.  0.
        4    1    3    3  502    0  0.46719599120E+03 -0.97076960837E+03 -0.12466853890E+04  0.16476928715E+04  0.12699999809E+01 0.  1.
       -4    1    3    3    0  502 -0.46719599120E+03  0.97076960837E+03  0.16918802463E+04  0.20057731944E+04  0.12699999809E+01 0. -1.
</event>
<event>
 5   0  0.4200635E-07  0.3697056E+04  0.7818609E-02  0.8068615E-01
       -2   -1    0    0    0  501  0.00000000000E+00  0.00000000000E+00  0.25540186653E+04  0.25540186653E+04  0.25500000920E-02 0. -1.
        2   -1    0    0  501    0  0.00000000000E+00  0.00000000000E+00 -0.13379132840E+04  0.13379132840E+04  0.25500000920E-02 0.  1.
    10030    2    1    2    0    0  0.00000000000E+00  0.00000000000E+00  0.12161053813E+04  0.38919319494E+04  0.36970558557E+04 0.  0.
        4    1    3    3  502    0  0.18452843986E+04 -0.81940576589E+02  0.53166678235E+03  0.19220977994E+04  0.12699999809E+01 0. -1.
       -4    1    3    3    0  502 -0.18452843986E+04  0.81940576589E+02  0.68443859894E+03  0.19698341500E+04  0.12699999809E+01 0.  1.
</event>
<event>
 5   0  0.3880259E-07  0.3166752E+04  0.7818609E-02  0.8197653E-01
        2   -1    0    0  501    0  0.00000000000E+00  0.00000000000E+00  0.20718670422E+04  0.20718670422E+04  0.25500000920E-02 0. -1.
       -2   -1    0    0    0  501  0.00000000000E+00  0.00000000000E+00 -0.12100581121E+04  0.12100581121E+04  0.25500000920E-02 0.  1.
    10030    2    1    2    0    0  0.00000000000E+00  0.00000000000E+00  0.86180893008E+03  0.32819251544E+04  0.31667519775E+04 0.  0.
        5    1    3    3  502    0  0.53802097542E+03 -0.65946161957E+03 -0.95283365311E+03  0.12776033258E+04  0.46999998093E+01 0.  1.
       -5    1    3    3    0  502 -0.53802097542E+03  0.65946161957E+03  0.18146425832E+04  0.20043218286E+04  0.46999998093E+01 0. -1.
</event>
<event>
 5   0  0.1348226E-07  0.3626072E+04  0.7818609E-02  0.8084545E-01
        1   -1    0    0  501    0  0.00000000000E+00  0.00000000000E+00  0.27563143106E+04  0.27563143106E+04  0.50400001928E-02 0. -1.
       -1   -1    0    0    0  501  0.00000000000E+00  0.00000000000E+00 -0.11925709044E+04  0.11925709044E+04  0.50400001928E-02 0.  1.
    10030    2    1    2    0    0  0.00000000000E+00  0.00000000000E+00  0.15637434062E+04  0.39488852150E+04  0.36260723933E+04 0.  0.
        4    1    3    3  502    0 -0.83082739400E+03  0.13369487128E+04  0.17616270882E+04  0.23624219839E+04  0.12699999809E+01 0. -1.
       -4    1    3    3    0  502  0.83082739400E+03 -0.13369487128E+04 -0.19788368195E+03  0.15864632312E+04  0.12699999809E+01 0.  1.
</event>
<event>
 5   0  0.1298250E-07  0.3174627E+04  0.7818609E-02  0.8195550E-01
       -1   -1    0    0    0  501  0.00000000000E+00  0.00000000000E+00  0.14165525152E+04  0.14165525152E+04  0.50400001928E-02 0. -1.
        1   -1    0    0  501    0  0.00000000000E+00  0.00000000000E+00 -0.17786589386E+04  0.17786589386E+04  0.50400001928E-02 0.  1.
    10030    2    1    2    0    0  0.00000000000E+00  0.00000000000E+00 -0.36210642336E+03  0.31952114538E+04  0.31746267770E+04 0.  0.
        2    1    3    3  502    0  0.14778519206E+04  0.56270689803E+03 -0.31934296196E+03  0.16132778061E+04  0.25500000920E-02 0.  1.
       -2    1    3    3    0  502 -0.14778519206E+04 -0.56270689803E+03 -0.42763461397E+02  0.15819336478E+04  0.25500000920E-02 0. -1.
</event>
<event>
 5   0  0.4115358E-07  0.3607535E+04  0.7818609E-02  0.8088768E-01
       -2   -1    0    0    0  501  0.00000000000E+00  0.00000000000E+00  0.31255176476E+04  0.31255176476E+04  0.25500000920E-02 0.  1.
        2   -1    0    0  501    0  0.00000000000E+00  0.00000000000E+00 -0.10409721991E+04  0.10409721991E+04  0.25500000920E-02 0. -1.
    10030    2    1    2    0    0  0.00000000000E+00  0.00000000000E+00  0.20845454485E+04  0.41664898467E+04  0.36075348807E+04 0.  0.
        3    1    3    3  502    0 -0.68063838071E+03  0.84665356987E+03  0.27053420474E+04  0.29152986942E+04  0.10100000352E+00 0.  1.
       -3    1    3    3    0  502  0.68063838071E+03 -0.84665356987E+03 -0.62079659891E+03  0.12511911525E+04  0.10100000352E+00 0. -1.
</event>
<event>
 5   0  0.3993751E-07  0.3600934E+04  0.7818609E-02  0.8090278E-01
       -2   -1    0    0    0  501  0.00000000000E+00  0.00000000000E+00  0.23632420113E+04  0.23632420113E+04  0.25500000920E-02 0.  1.
        2   -1    0    0  501    0  0.00000000000E+00  0.00000000000E+00 -0.13717096630E+04  0.13717096630E+04  0.25500000920E-02 0. -1.
    10030    2    1    2    0    0  0.00000000000E+00  0.00000000000E+00  0.99153234826E+03  0.37349516743E+04  0.36009342693E+04 0.  0.
        1    1    3    3  502    0  0.15048651086E+04  0.79832279047E+03 -0.10880224121E+03  0.17069786761E+04  0.50400001928E-02 0. -1.
       -1    1    3    3    0  502 -0.15048651086E+04 -0.79832279047E+03  0.11003345895E+04  0.20279729982E+04  0.50400001928E-02 0.  1.
</event>
<event>
 5   0  0.4200635E-07  0.3612316E+04  0.7818609E-02  0.8087676E-01
        2   -1    0    0  501    0  0.00000000000E+00  0.00000000000E+00  0.20013505228E+04  0.20013505228E+04  0.25500000920E-02 0.  1.
       -2   -1    0    0    0  501  0.00000000000E+00  0.00000000000E+00 -0.16300028462E+04  0.16300028462E+04  0.25500000920E-02 0. -1.
    10030    2    1    2    0    0  0.00000000000E+00  0.00000000000E+00  0.37134767661E+03  0.36313533689E+04  0.36123161812E+04 0.  0.
        4    1    3    3  502    0  0.34135524622E+03 -0.17707729294E+04  0.28642810115E+03  0.18259799675E+04  0.12699999809E+01 0.  1.
       -4    1    3    3    0  502 -0.34135524622E+03  0.17707729294E+04  0.84919575462E+02  0.18053734015E+04  0.12699999809E+01 0. -1.
</event>
<event>
 5   0  0.1370997E-07  0.3570221E+04  0.7818609E-02  0.8097347E-01
       -1   -1    0    0    0  501  0.00000000000E+00  0.00000000000E+00  0.15536412189E+04  0.15536412189E+04  0.50400001928E-02 0. -1.
        1   -1    0    0  501    0  0.00000000000E+00  0.00000000000E+00 -0.20510652670E+04  0.20510652670E+04  0.50400001928E-02 0.  1.
    10030    2    1    2    0    0  0.00000000000E+00  0.00000000000E+00 -0.49742404812E+03  0.36047064859E+04  0.35702210248E+04 0.  0.
        3    1    3    3  502    0 -0.11320009257E+04  0.26010708216E+03  0.11199396681E+04  0.16134889712E+04  0.10100000352E+00 0. -1.
       -3    1    3    3    0  502  0.11320009257E+04 -0.26010708216E+03 -0.16173637162E+04  0.19912175146E+04  0.10100000352E+00 0.  1.
</event>
<event>
 5   0  0.1298250E-07  0.3610261E+04  0.7818609E-02  0.8088145E-01
        1   -1    0    0  501    0  0.00000000000E+00  0.00000000000E+00  0.31772251532E+04  0.31772251532E+04  0.50400001928E-02 0. -1.
       -1   -1    0    0    0  501  0.00000000000E+00  0.00000000000E+00 -0.10255793136E+04  0.10255793136E+04  0.50400001928E-02 0.  1.
    10030    2    1    2    0    0  0.00000000000E+00  0.00000000000E+00  0.21516458396E+04  0.42028044668E+04  0.36102611494E+04 0.  0.
        1    1    3    3  502    0 -0.12873480304E+04  0.64999313095E+03 -0.18806815244E+03  0.14543471565E+04  0.50400001928E-02 0.  1.
       -1    1    3    3    0  502  0.12873480304E+04 -0.64999313095E+03  0.23397139920E+04  0.27484573102E+04  0.50400001928E-02 0. -1.
</event>
<event>
 5   0  0.1298250E-07  0.3543347E+04  0.7818609E-02  0.8103594E-01
       -1   -1    0    0    0  501  0.00000000000E+00  0.00000000000E+00  0.12126428401E+04  0.12126428401E+04  0.50400001928E-02 0. -1.
        1   -1    0    0  501    0  0.00000000000E+00  0.00000000000E+00 -0.25884176379E+04  0.25884176379E+04  0.50400001928E-02 0.  1.
    10030    2    1    2    0    0  0.00000000000E+00  0.00000000000E+00 -0.13757747978E+04  0.38010604781E+04  0.35433465063E+04 0.  0.
        2    1    3    3  502    0 -0.91662348826E+03  0.94460537406E+03 -0.19600352353E+04  0.23609777753E+04  0.25500000920E-02 0.  1.
       -2    1    3    3    0  502  0.91662348826E+03 -0.94460537406E+03  0.58426043752E+03  0.14400827028E+04  0.25500000920E-02 0. -1.
</event>
<event>
 5   0  0.3993751E-07  0.3598991E+04  0.7818609E-02  0.8090723E-01
        2   -1    0    0  501    0  0.00000000000E+00  0.00000000000E+00  0.21446211065E+04  0.21446211065E+04  0.25500000920E-02 0.  1.
       -2   -1    0    0    0  501  0.00000000000E+00  0.00000000000E+00 -0.15099095945E+04  0.15099095945E+04  0.25500000920E-02 0. -1.
    10030    2    1    2    0    0  0.00000000000E+00  0.00000000000E+00  0.63471151200E+03  0.36545307011E+04  0.35989909616E+04 0.  0.
        1    1    3    3  502    0 -0.10610750460E+04  0.10200756484E+04  0.13685851210E+04  0.20098407437E+04  0.50400001928E-02 0.  1.
       -1    1    3    3    0  502  0.10610750460E+04 -0.10200756484E+04 -0.73387360903E+03  0.16446899573E+04  0.50400001928E-02 0. -1.
</event>
<event>
 5   0  0.4200635E-07  0.3613905E+04  0.7818609E-02  0.8087314E-01
        2   -1    0    0  501    0  0.00000000000E+00  0.00000000000E+00  0.17082689463E+04  0.17082689463E+04  0.25500000920E-02 0. -1.
       -2   -1    0    0    0  501  0.00000000000E+00  0.00000000000E+00 -0.19113369793E+04  0.19113369793E+04  0.25500000920E-02 0.  1.
    10030    2    1    2    0    0  0.00000000000E+00  0.00000000000E+00 -0.20306803298E+03  0.36196059256E+04  0.36139051496E+04 0.  0.
        4    1    3    3  502    0  0.17463194246E+04  0.45615787263E+03 -0.18748580355E+03  0.18146250513E+04  0.12699999809E+01 0. -1.
       -4    1    3    3    0  502 -0.17463194246E+04 -0.45615787263E+03 -0.15582229438E+02  0.18049808742E+04  0.12699999809E+01 0.  1.
</event>
<event>
 5   0  0.1361743E-07  0.3620796E+04  0.7818609E-02  0.8085745E-01
       -1   -1    0    0    0  501  0.00000000000E+00  0.00000000000E+00  0.23910845839E+04  0.23910845839E+04  0.50400001928E-02 0. -1.
        1   -1    0    0  501    0  0.00000000000E+00  0.00000000000E+00 -0.13707337495E+04  0.13707337495E+04  0.50400001928E-02 0.  1.
    10030    2    1    2    0    0  0.00000000000E+00  0.00000000000E+00  0.10203508344E+04  0.37618183334E+04  0.36207956789E+04 0.  0.
        5    1    3    3  502    0 -0.16978184200E+03 -0.17683209176E+04  0.14768305125E+03  0.17825871971E+04  0.46999998093E+01 0. -1.
       -5    1    3    3    0  502  0.16978184200E+03  0.17683209176E+04  0.87266778311E+03  0.19792311364E+04  0.46999998093E+01 0.  1.
</event>
<event>
 5   0  0.3993751E-07  0.3591491E+04  0.7818609E-02  0.8092444E-01
       -2   -1    0    0    0  501  0.00000000000E+00  0.00000000000E+00  0.12461387142E+04  0.12461387142E+04  0.25500000920E-02 0. -1.
        2   -1    0    0  501    0  0.00000000000E+00  0.00000000000E+00 -0.25877544797E+04  0.25877544797E+04  0.25500000920E-02 0.  1.
    10030    2    1    2    0    0  0.00000000000E+00  0.00000000000E+00 -0.13416157655E+04  0.38338931940E+04  0.35914905207E+04 0.  0.
        1    1    3    3  502    0  0.53036145816E+03 -0.53384064908E+02  0.11597391503E+04  0.12763729986E+04  0.50400001928E-02 0. -1.
       -1    1    3    3    0  502 -0.53036145816E+03  0.53384064908E+02 -0.25013549158E+04  0.25575201954E+04  0.50400001928E-02 0.  1.
</event>
<event>
 5   0  0.1370997E-07  0.3621271E+04  0.7818609E-02  0.8085637E-01
        1   -1    0    0  501    0  0.00000000000E+00  0.00000000000E+00  0.11946489739E+04  0.11946489739E+04  0.50400001928E-02 0. -1.
       -1   -1    0    0    0  501  0.00000000000E+00  0.00000000000E+00 -0.27442377297E+04  0.27442377297E+04  0.50400001928E-02 0.  1.
    10030    2    1    2    0    0  0.00000000000E+00  0.00000000000E+00 -0.15495887559E+04  0.39388867036E+04  0.36212709305E+04 0.  0.
        3    1    3    3  502    0  0.14476643315E+04  0.61814896726E+03 -0.17480111416E+04  0.23523144186E+04  0.10100000352E+00 0.  1.
       -3    1    3    3    0  502 -0.14476643315E+04 -0.61814896726E+03  0.19842238575E+03  0.15865722851E+04  0.10100000352E+00 0. -1.
</event>
<event>
 5   0  0.1298250E-07  0.3611107E+04  0.7818609E-02  0.8087952E-01
        3   -1    0    0  501    0  0.00000000000E+00  0.00000000000E+00  0.19801726901E+04  0.19801726927E+04  0.10100000352E+00 0. -1.
       -3   -1    0    0    0  501  0.00000000000E+00  0.00000000000E+00 -0.16463329532E+04  0.16463329563E+04  0.10100000352E+00 0.  1.
    10030    2    1    2    0    0  0.00000000000E+00  0.00000000000E+00  0.33383973692E+03  0.36265056490E+04  0.36111070674E+04 0.  0.
        3    1    3    3  502    0 -0.16450400562E+04  0.21414512699E+03  0.88270642666E+03  0.18791449034E+04  0.10100000352E+00 0. -1.
       -3    1    3    3    0  502  0.16450400562E+04 -0.21414512699E+03 -0.54886668974E+03  0.17473607456E+04  0.10100000352E+00 0.  1.
</event>
<event>
 5   0  0.1361743E-07  0.3586772E+04  0.7818609E-02  0.8093528E-01
       -1   -1    0    0    0  501  0.00000000000E+00  0.00000000000E+00  0.14667707148E+04  0.14667707148E+04  0.50400001928E-02 0.  1.
        1   -1    0    0  501    0  0.00000000000E+00  0.00000000000E+00 -0.21927306943E+04  0.21927306943E+04  0.50400001928E-02 0. -1.
    10030    2    1    2    0    0  0.00000000000E+00  0.00000000000E+00 -0.72595997956E+03  0.36595014091E+04  0.35867719012E+04 0.  0.
        5    1    3    3  502    0 -0.16062408021E+03  0.21861473039E+03  0.14457094252E+04  0.14709487848E+04  0.46999998093E+01 0.  1.
       -5    1    3    3    0  502  0.16062408021E+03 -0.21861473039E+03 -0.21716694048E+04  0.21885526242E+04  0.46999998093E+01 0. -1.
</event>
<event>
 5   0  0.3880259E-07  0.3575315E+04  0.7818609E-02  0.8096170E-01
        2   -1    0    0  501    0  0.00000000000E+00  0.00000000000E+00  0.18546279835E+04  0.18546279835E+04  0.25500000920E-02 0.  1.
       -2   -1    0    0    0  501  0.00000000000E+00  0.00000000000E+00 -0.17231055270E+04  0.17231055270E+04  0.25500000920E-02 0. -1.
    10030    2    1    2    0    0  0.00000000000E+00  0.00000000000E+00  0.13152245644E+03  0.35777335105E+04  0.35753152191E+04 0.  0.
        5    1    3    3  502    0  0.35357051021E+03 -0.12751617712E+04 -0.11369868458E+04  0.17446520644E+04  0.46999998093E+01 0. -1.
       -5    1    3    3    0  502 -0.35357051021E+03  0.12751617712E+04  0.12685093022E+04  0.18330814461E+04  0.46999998093E+01 0.  1.
</event>
<event>
 5   0  0.3880259E-07  0.3428452E+04  0.7818609E-02  0.8130958E-01
        2   -1    0    0  501    0  0.00000000000E+00  0.00000000000E+00  0.20960349806E+04  0.20960349806E+04  0.25500000920E-02 0.  1.
       -2   -1    0    0    0  501  0.00000000000E+00  0.00000000000E+00 -0.14019664660E+04  0.14019664660E+04  0.25500000920E-02 0. -1.
    10030    2    1    2    0    0  0.00000000000E+00  0.00000000000E+00  0.69406851460E+03  0.34980014466E+04  0.34284519856E+04 0.  0.
        5    1    3    3  502    0  0.85525330162E+03 -0.11646761799E+04 -0.59396584299E+03  0.15622888103E+04  0.46999998093E+01 0. -1.
       -5    1    3    3    0  502 -0.85525330162E+03  0.11646761799E+04  0.12880343576E+04  0.19357126363E+04  0.46999998093E+01 0.  1.
</event>
<event>
 5   0  0.4200635E-07  0.3577728E+04  0.7818609E-02  0.8095612E-01
        2   -1    0    0  501    0  0.00000000000E+00  0.00000000000E+00  0.21372716681E+04  0.21372716681E+04  0.25500000920E-02 0. -1.
       -2   -1    0    0    0  501  0.00000000000E+00  0.00000000000E+00 -0.14972522281E+04  0.14972522281E+04  0.25500000920E-02 0.  1.
    10030    2    1    2    0    0  0.00000000000E+00  0.00000000000E+00  0.64001943999E+03  0.36345238961E+04  0.35777281993E+04 0.  0.
        4    1    3    3  502    0 -0.91965592996E+03 -0.15069356781E+04  0.61340411582E+03  0.18689270691E+04  0.12699999809E+01 0. -1.
       -4    1    3    3    0  502  0.91965592996E+03  0.15069356781E+04  0.26615324175E+02  0.17655968271E+04  0.12699999809E+01 0.  1.
</event>
<event>
 5   0  0.1298250E-07  0.3598874E+04  0.7818609E-02  0.8090750E-01
       -1   -1    0    0    0  501  0.00000000000E+00  0.00000000000E+00  0.13470401471E+04  0.13470401471E+04  0.50400001928E-02 0. -1.
        1   -1    0    0  501    0  0.00000000000E+00  0.00000000000E+00 -0.24037694435E+04  0.24037694435E+04  0.50400001928E-02 0.  1.
    10030    2    1    2    0    0  0.00000000000E+00  0.00000000000E+00 -0.10567292965E+04  0.37508095906E+04  0.35988742377E+04 0.  0.
        1    1    3    3  502    0  0.17726513291E+04 -0.11130491192E+02 -0.20619076404E+03  0.17846375693E+04  0.50400001928E-02 0. -1.
       -1    1    3    3    0  502 -0.17726513291E+04  0.11130491192E+02 -0.85053853242E+03  0.19661720213E+04  0.50400001928E-02 0.  1.
</event>
<event>
 5   0  0.3880259E-07  0.3608032E+04  0.7818609E-02  0.8088654E-01
        2   -1    0    0  501    0  0.00000000000E+00  0.00000000000E+00  0.21578898856E+04  0.21578898856E+04  0.25500000920E-02 0.  1.
       -2   -1    0    0    0  501  0.00000000000E+00  0.00000000000E+00 -0.15081740622E+04  0.15081740622E+04  0.25500000920E-02 0. -1.
    10030    2    1    2    0    0  0.00000000000E+00  0.00000000000E+00  0.64971582337E+03  0.36660639478E+04  0.36080319038E+04 0.  0.
        5    1    3    3  502    0 -0.16135015247E+04  0.80659893625E+03  0.30300736739E+03  0.18291595253E+04  0.46999998093E+01 0.  1.
       -5    1    3    3    0  502  0.16135015247E+04 -0.80659893625E+03  0.34670845598E+03  0.18369044226E+04  0.46999998093E+01 0. -1.
</event>
<event>
 5   0  0.1361743E-07  0.3568989E+04  0.7818609E-02  0.8097632E-01
        1   -1    0    0  501    0  0.00000000000E+00  0.00000000000E+00  0.15904834735E+04  0.15904834735E+04  0.50400001928E-02 0.  1.
       -1   -1    0    0    0  501  0.00000000000E+00  0.00000000000E+00 -0.20021716082E+04  0.20021716082E+04  0.50400001928E-02 0. -1.
    10030    2    1    2    0    0  0.00000000000E+00  0.00000000000E+00 -0.41168813473E+03  0.35926550817E+04  0.35689891308E+04 0.  0.
        5    1    3    3  502    0 -0.12920591995E+04  0.11657672479E+04 -0.60339132717E+03  0.18418831219E+04  0.46999998093E+01 0. -1.
       -5    1    3    3    0  502  0.12920591995E+04 -0.11657672479E+04  0.19170319244E+03  0.17507719598E+04  0.46999998093E+01 0.  1.
</event>
<event>
 5   0  0.4115358E-07  0.3608142E+04  0.7818609E-02  0.8088629E-01
        2   -1    0    0  501    0  0.00000000000E+00  0.00000000000E+00  0.19936081500E+04  0.19936081500E+04  0.25500000920E-02 0.  1.
       -2   -1    0    0    0  501  0.00000000000E+00  0.00000000000E+00 -0.16325534992E+04  0.16325534992E+04  0.25500000920E-02 0. -1.
    10030    2    1    2    0    0  0.00000000000E+00  0.00000000000E+00  0.36105465088E+03  0.36261616492E+04  0.36081418826E+04 0.  0.
        3    1    3    3  502    0  0.17251039082E+04  0.74302403165E+02  0.70579195220E+03  0.18653810955E+04  0.10100000352E+00 0.  1.
       -3    1    3    3    0  502 -0.17251039082E+04 -0.74302403165E+02 -0.34473730131E+03  0.17607805537E+04  0.10100000352E+00 0. -1.
</event>
<event>
 5   0  0.3880259E-07  0.3638185E+04  0.7818609E-02  0.8081800E-01
        2   -1    0    0  501    0  0.00000000000E+00  0.00000000000E+00  0.20449258588E+04  0.20449258588E+04  0.25500000920E-02 0.  1.
       -2   -1    0    0    0  501  0.00000000000E+00  0.00000000000E+00 -0.16181996991E+04  0.16181996991E+04  0.25500000920E-02 0. -1.
    10030    2    1    2    0    0  0.00000000000E+00  0.00000000000E+00  0.42672615975E+03  0.36631255579E+04  0.36381854869E+04 0.  0.
        5    1    3    3  502    0  0.66598932406E+03 -0.14890715350E+04 -0.59726501166E+03  0.17371307954E+04  0.46999998093E+01 0. -1.
       -5    1    3    3    0  502 -0.66598932406E+03  0.14890715350E+04  0.10239911714E+04  0.19259947625E+04  0.46999998093E+01 0.  1.
</event>
<event>
 5   0  0.1348226E-07  0.3617159E+04  0.7818609E-02  0.8086573E-01
        1   -1    0    0  501    0  0.00000000000E+00  0.00000000000E+00  0.23527607884E+04  0.23527607884E+04  0.50400001928E-02 0. -1.
       -1   -1    0    0    0  501  0.00000000000E+00  0.00000000000E+00 -0.13902641301E+04  0.13902641301E+04  0.50400001928E-02 0.  1.
    10030    2    1    2    0    0  0.00000000000E+00  0.00000000000E+00  0.96249665834E+03  0.37430249186E+04  0.36171585151E+04 0.  0.
        4    1    3    3  502    0  0.72612603169E+03 -0.12606518046E+04  0.15930920403E+04  0.21574164754E+04  0.12699999809E+01 0. -1.
       -4    1    3    3    0  502 -0.72612603169E+03  0.12606518046E+04 -0.63059538201E+03  0.15856084432E+04  0.12699999809E+01 0.  1.
</event>
<event>
 5   0  0.4115358E-07  0.3584112E+04  0.7818609E-02  0.8094141E-01
        2   -1    0    0  501    0  0.00000000000E+00  0.00000000000E+00  0.15348770113E+04  0.15348770113E+04  0.25500000920E-02 0. -1.
       -2   -1    0    0    0  501  0.00000000000E+00  0.00000000000E+00 -0.20923273926E+04  0.20923273926E+04  0.25500000920E-02 0.  1.
    10030    2    1    2    0    0  0.00000000000E+00  0.00000000000E+00 -0.55745038125E+03  0.36272044039E+04  0.35841122834E+04 0.  0.
        3    1    3    3  502    0 -0.37294444454E+03  0.16191300393E+04  0.40076038078E+03  0.17091748114E+04  0.10100000352E+00 0. -1.
       -3    1    3    3    0  502  0.37294444454E+03 -0.16191300393E+04 -0.95821076203E+03  0.19180295925E+04  0.10100000352E+00 0.  1.
</event>
<event>
 5   0  0.4120440E-07  0.3626398E+04  0.7818609E-02  0.8084472E-01
       -2   -1    0    0    0  501  0.00000000000E+00  0.00000000000E+00  0.22086959718E+04  0.22086959718E+04  0.25500000920E-02 0.  1.
        2   -1    0    0  501    0  0.00000000000E+00  0.00000000000E+00 -0.14885208699E+04  0.14885208700E+04  0.25500000920E-02 0. -1.
    10030    2    1    2    0    0  0.00000000000E+00  0.00000000000E+00  0.72017510184E+03  0.36972168417E+04  0.36263976888E+04 0.  0.
        2    1    3    3  502    0  0.14859341453E+04 -0.71132575274E+03 -0.41213766163E+03  0.16981878762E+04  0.25500000920E-02 0. -1.
       -2    1    3    3    0  502 -0.14859341453E+04  0.71132575274E+03  0.11323127635E+04  0.19990289655E+04  0.25500000920E-02 0.  1.
</event>
<event>
 5   0  0.4200635E-07  0.3613949E+04  0.7818609E-02  0.8087304E-01
        2   -1    0    0  501    0  0.00000000000E+00  0.00000000000E+00  0.16558674816E+04  0.16558674816E+04  0.25500000920E-02 0.  1.
       -2   -1    0    0    0  501  0.00000000000E+00  0.00000000000E+00 -0.19718710843E+04  0.19718710843E+04  0.25500000920E-02 0. -1.
    10030    2    1    2    0    0  0.00000000000E+00  0.00000000000E+00 -0.31600360273E+03  0.36277385658E+04  0.36139492007E+04 0.  0.
        4    1    3    3  502    0 -0.15928196462E+03 -0.14023764624E+04  0.97463189966E+03  0.17152082787E+04  0.12699999809E+01 0.  1.
       -4    1    3    3    0  502  0.15928196462E+03  0.14023764624E+04 -0.12906355024E+04  0.19125302872E+04  0.12699999809E+01 0. -1.
</event>
<event>
 5   0  0.3880259E-07  0.3595460E+04  0.7818609E-02  0.8091532E-01
       -2   -1    0    0    0  501  0.00000000000E+00  0.00000000000E+00  0.13349422884E+04  0.13349422884E+04  0.25500000920E-02 0. -1.
        2   -1    0    0  501    0  0.00000000000E+00  0.00000000000E+00 -0.24209538178E+04  0.24209538178E+04  0.25500000920E-02 0.  1.
    10030    2    1    2    0    0  0.00000000000E+00  0.00000000000E+00 -0.10860115294E+04  0.37558961062E+04  0.35954602652E+04 0.  0.
        5    1    3    3  502    0 -0.10364422625E+04  0.40260417817E+03 -0.20186644091E+04  0.23046324597E+04  0.46999998093E+01 0.  1.
       -5    1    3    3    0  502  0.10364422625E+04 -0.40260417817E+03  0.93265287971E+03  0.14512636465E+04  0.46999998093E+01 0. -1.
</event>
<event>
 5   0  0.3993751E-07  0.3599524E+04  0.7818609E-02  0.8090601E-01
       -2   -1    0    0    0  501  0.00000000000E+00  0.00000000000E+00  0.21659620572E+04  0.21659620572E+04  0.25500000920E-02 0. -1.
        2   -1    0    0  501    0  0.00000000000E+00  0.00000000000E+00 -0.14954755301E+04  0.14954755301E+04  0.25500000920E-02 0.  1.
    10030    2    1    2    0    0  0.00000000000E+00  0.00000000000E+00  0.67048652702E+03  0.36614375873E+04  0.35995239995E+04 0.  0.
        1    1    3    3  502    0 -0.16445816500E+04 -0.63874808979E+03  0.69702264194E+03  0.18969682362E+04  0.50400001928E-02 0. -1.
       -1    1    3    3    0  502  0.16445816500E+04  0.63874808979E+03 -0.26536114927E+02  0.17644693511E+04  0.50400001928E-02 0.  1.
</event>
<event>
 5   0  0.3993751E-07  0.3601283E+04  0.7818609E-02  0.8090198E-01
       -2   -1    0    0    0  501  0.00000000000E+00  0.00000000000E+00  0.19419883842E+04  0.19419883842E+04  0.25500000920E-02 0.  1.
        2   -1    0    0  501    0  0.00000000000E+00  0.00000000000E+00 -0.16695828012E+04  0.16695828012E+04  0.25500000920E-02 0. -1.
    10030    2    1    2    0    0  0.00000000000E+00  0.00000000000E+00  0.27240558295E+03  0.36115711854E+04  0.36012833303E+04 0.  0.
        1    1    3    3  502    0 -0.26309887683E+03  0.17021804538E+04  0.66274658792E+03  0.18455005706E+04  0.50400001928E-02 0.  1.
       -1    1    3    3    0  502  0.26309887683E+03 -0.17021804538E+04 -0.39034100496E+03  0.17660706148E+04  0.50400001928E-02 0. -1.
</event>
<event>
 5   0  0.1298250E-07  0.3602977E+04  0.7818609E-02  0.8089810E-01
        1   -1    0    0  501    0  0.00000000000E+00  0.00000000000E+00  0.19568532733E+04  0.19568532733E+04  0.50400001928E-02 0. -1.
       -1   -1    0    0    0  501  0.00000000000E+00  0.00000000000E+00 -0.16584593547E+04  0.16584593547E+04  0.50400001928E-02 0.  1.
    10030    2    1    2    0    0  0.00000000000E+00  0.00000000000E+00  0.29839391853E+03  0.36153126280E+04  0.36029774448E+04 0.  0.
        1    1    3    3  502    0  0.11601043275E+04  0.66231747159E+03 -0.10635994157E+04  0.17075567929E+04  0.50400001928E-02 0.  1.
       -1    1    3    3    0  502 -0.11601043275E+04 -0.66231747159E+03  0.13619933342E+04  0.19077558351E+04  0.50400001928E-02 0. -1.
</event>
<event>
 5   0  0.1298250E-07  0.3298224E+04  0.7818609E-02  0.8163347E-01
        1   -1    0    0  501    0  0.00000000000E+00  0.00000000000E+00  0.13742602011E+04  0.13742602011E+04  0.50400001928E-02 0.  1.
       -1   -1    0    0    0  501  0.00000000000E+00  0.00000000000E+00 -0.19789345428E+04  0.19789345428E+04  0.50400001928E-02 0. -1.
    10030    2    1    2    0    0  0.00000000000E+00  0.00000000000E+00 -0.60467434174E+03  0.33531947439E+04  0.32982243603E+04 0.  0.
        2    1    3    3  502    0 -0.10310067104E+04 -0.12572656894E+04 -0.22284474177E+02  0.16260960760E+04  0.25500000920E-02 0.  1.
       -2    1    3    3    0  502  0.10310067104E+04  0.12572656894E+04 -0.58238986756E+03  0.17270986679E+04  0.25500000920E-02 0. -1.
</event>
<event>
 5   0  0.3993751E-07  0.3596510E+04  0.7818609E-02  0.8091292E-01
       -2   -1    0    0    0  501  0.00000000000E+00  0.00000000000E+00  0.20298304928E+04  0.20298304928E+04  0.25500000920E-02 0. -1.
        2   -1    0    0  501    0  0.00000000000E+00  0.00000000000E+00 -0.15930989029E+04  0.15930989029E+04  0.25500000920E-02 0.  1.
    10030    2    1    2    0    0  0.00000000000E+00  0.00000000000E+00  0.43673158988E+03  0.36229293957E+04  0.35965098254E+04 0.  0.
        1    1    3    3  502    0  0.12504604113E+04 -0.12249044460E+04 -0.19658073915E+03  0.17614443304E+04  0.50400001928E-02 0.  1.
       -1    1    3    3    0  502 -0.12504604113E+04  0.12249044460E+04  0.63331232903E+03  0.18614850653E+04  0.50400001928E-02 0. -1.
</event>
<event>
 5   0  0.1361743E-07  0.3591342E+04  0.7818609E-02  0.8092478E-01
       -1   -1    0    0    0  501  0.00000000000E+00  0.00000000000E+00  0.18970716915E+04  0.18970716915E+04  0.50400001928E-02 0.  1.
        1   -1    0    0  501    0  0.00000000000E+00  0.00000000000E+00 -0.16996901596E+04  0.16996901596E+04  0.50400001928E-02 0. -1.
    10030    2    1    2    0    0  0.00000000000E+00  0.00000000000E+00  0.19738153188E+03  0.35967618512E+04  0.35913418585E+04 0.  0.
        5    1    3    3  502    0  0.15608855235E+04  0.64098266889E+03 -0.51639374249E+03  0.17646265856E+04  0.46999998093E+01 0.  1.
       -5    1    3    3    0  502 -0.15608855235E+04 -0.64098266889E+03  0.71377527437E+03  0.18321352656E+04  0.46999998093E+01 0. -1.
</event>
<event>
 5   0  0.3880259E-07  0.3568903E+04  0.7818609E-02  0.8097652E-01
        2   -1    0    0  501    0  0.00000000000E+00  0.00000000000E+00  0.15448553234E+04  0.15448553234E+04  0.25500000920E-02 0. -1.
       -2   -1    0    0    0  501  0.00000000000E+00  0.00000000000E+00 -0.20612069994E+04  0.20612069994E+04  0.25500000920E-02 0.  1.
    10030    2    1    2    0    0  0.00000000000E+00  0.00000000000E+00 -0.51635167598E+03  0.36060623228E+04  0.35689026917E+04 0.  0.
        5    1    3    3  502    0  0.19853884055E+03  0.11789868288E+04  0.10803119891E+04  0.16113732335E+04  0.46999998093E+01 0. -1.
       -5    1    3    3    0  502 -0.19853884055E+03 -0.11789868288E+04 -0.15966636651E+04  0.19946890893E+04  0.46999998093E+01 0.  1.
</event>
<event>
 5   0  0.1370997E-07  0.3548423E+04  0.7818609E-02  0.8102409E-01
        1   -1    0    0  501    0  0.00000000000E+00  0.00000000000E+00  0.22753182443E+04  0.22753182443E+04  0.50400001928E-02 0. -1.
       -1   -1    0    0    0  501  0.00000000000E+00  0.00000000000E+00 -0.13834667155E+04  0.13834667155E+04  0.50400001928E-02 0.  1.
    10030    2    1    2    0    0  0.00000000000E+00  0.00000000000E+00  0.89185152884E+03  0.36587849599E+04  0.35484233447E+04 0.  0.
        3    1    3    3  502    0  0.15697221305E+04  0.30922280285E+03 -0.34485638412E+03  0.16366344261E+04  0.10100000352E+00 0.  1.
       -3    1    3    3    0  502 -0.15697221305E+04 -0.30922280285E+03  0.12367079130E+04  0.20221505337E+04  0.10100000352E+00 0. -1.
</event>
<event>
 5   0  0.4120440E-07  0.3606662E+04  0.7818609E-02  0.8088967E-01
       -2   -1    0    0    0  501  0.00000000000E+00  0.00000000000E+00  0.13567575839E+04  0.13567575839E+04  0.25500000920E-02 0.  1.
        2   -1    0    0  501    0  0.00000000000E+00  0.00000000000E+00 -0.23968923870E+04  0.23968923870E+04  0.25500000920E-02 0. -1.
    10030    2    1    2    0    0  0.00000000000E+00  0.00000000000E+00 -0.10401348031E+04  0.37536499709E+04  0.36066615721E+04 0.  0.
        2    1    3    3  502    0  0.10219372822E+04 -0.13244391014E+04 -0.12209422317E+04  0.20710371014E+04  0.25500000920E-02 0. -1.
       -2    1    3    3    0  502 -0.10219372822E+04  0.13244391014E+04  0.18080742864E+03  0.16826128695E+04  0.25500000920E-02 0.  1.
</event>
<event>
 5   0  0.1348226E-07  0.3605983E+04  0.7818609E-02  0.8089122E-01
       -1   -1    0    0    0  501  0.00000000000E+00  0.00000000000E+00  0.12720937111E+04  0.12720937111E+04  0.50400001928E-02 0. -1.
        1   -1    0    0  501    0  0.00000000000E+00  0.00000000000E+00 -0.25554557012E+04  0.25554557012E+04  0.50400001928E-02 0.  1.
    10030    2    1    2    0    0  0.00000000000E+00  0.00000000000E+00 -0.12833619902E+04  0.38275494123E+04  0.36059834312E+04 0.  0.
        4    1    3    3  502    0  0.16311959487E+04 -0.76774150386E+03 -0.66658025669E+03  0.19221233289E+04  0.12699999809E+01 0. -1.
       -4    1    3    3    0  502 -0.16311959487E+04  0.76774150386E+03 -0.61678173346E+03  0.19054260834E+04  0.12699999809E+01 0.  1.
</event>
<event>
 5   0  0.1361743E-07  0.3601273E+04  0.7818609E-02  0.8090200E-01
       -1   -1    0    0    0  501  0.00000000000E+00  0.00000000000E+00  0.18383432663E+04  0.18383432663E+04  0.50400001928E-02 0. -1.
        1   -1    0    0  501    0  0.00000000000E+00  0.00000000000E+00 -0.17637031479E+04  0.17637031479E+04  0.50400001928E-02 0.  1.
    10030    2    1    2    0    0  0.00000000000E+00  0.00000000000E+00  0.74640118407E+02  0.36020464142E+04  0.36012730003E+04 0.  0.
        5    1    3    3  502    0  0.14226998037E+04  0.60641245933E+03 -0.88508128713E+03  0.17819095873E+04  0.46999998093E+01 0.  1.
       -5    1    3    3    0  502 -0.14226998037E+04 -0.60641245933E+03  0.95972140553E+03  0.18201368269E+04  0.46999998093E+01 0. -1.
</event>
<event>
 5   0  0.1298250E-07  0.3575651E+04  0.7818609E-02  0.8096092E-01
        1   -1    0    0  501    0  0.00000000000E+00  0.00000000000E+00  0.24230766333E+04  0.24230766333E+04  0.50400001928E-02 0.  1.
       -1   -1    0    0    0  501  0.00000000000E+00  0.00000000000E+00 -0.13191165401E+04  0.13191165402E+04  0.50400001928E-02 0. -1.
    10030    2    1    2    0    0  0.00000000000E+00  0.00000000000E+00  0.11039600932E+04  0.37421931735E+04  0.35756512498E+04 0.  0.
        1    1    3    3  502    0 -0.10333450911E+04  0.66154811191E+03 -0.80892077767E+03  0.14696260770E+04  0.50400001928E-02 0. -1.
       -1    1    3    3    0  502  0.10333450911E+04 -0.66154811191E+03  0.19128808709E+04  0.22725670965E+04  0.50400001928E-02 0.  1.
</event>
<event>
 5   0  0.1298250E-07  0.3615839E+04  0.7818609E-02  0.8086873E-01
       -1   -1    0    0    0  501  0.00000000000E+00  0.00000000000E+00  0.17941182962E+04  0.17941182962E+04  0.50400001928E-02 0.  1.
        1   -1    0    0  501    0  0.00000000000E+00  0.00000000000E+00 -0.18218269665E+04  0.18218269665E+04  0.50400001928E-02 0. -1.
    10030    2    1    2    0    0  0.00000000000E+00  0.00000000000E+00 -0.27708670234E+02  0.36159452627E+04  0.36158390966E+04 0.  0.
        2    1    3    3  502    0 -0.85773627118E+02  0.43864621143E+03  0.17379977393E+04  0.17945483431E+04  0.25500000920E-02 0.  1.
       -2    1    3    3    0  502  0.85773627118E+02 -0.43864621143E+03 -0.17657064096E+04  0.18213969196E+04  0.25500000920E-02 0. -1.
</event>
<event>
 5   0  0.4115358E-07  0.3605552E+04  0.7818609E-02  0.8089221E-01
        2   -1    0    0  501    0  0.00000000000E+00  0.00000000000E+00  0.13075954641E+04  0.13075954642E+04  0.25500000920E-02 0. -1.
       -2   -1    0    0    0  501  0.00000000000E+00  0.00000000000E+00 -0.24854798162E+04  0.24854798162E+04  0.25500000920E-02 0.  1.
    10030    2    1    2    0    0  0.00000000000E+00  0.00000000000E+00 -0.11778843521E+04  0.37930752804E+04  0.36055524592E+04 0.  0.
        3    1    3    3  502    0  0.18260895493E+03  0.66427343781E+03 -0.23415396940E+04  0.24407813051E+04  0.10100000352E+00 0.  1.
       -3    1    3    3    0  502 -0.18260895493E+03 -0.66427343781E+03  0.11636553419E+04  0.13522939753E+04  0.10100000352E+00 0. -1.
</event>
<event>
 5   0  0.3993751E-07  0.3594673E+04  0.7818609E-02  0.8091713E-01
       -2   -1    0    0    0  501  0.00000000000E+00  0.00000000000E+00  0.17533540231E+04  0.17533540231E+04  0.25500000920E-02 0.  1.
        2   -1    0    0  501    0  0.00000000000E+00  0.00000000000E+00 -0.18424227573E+04  0.18424227573E+04  0.25500000920E-02 0. -1.
    10030    2    1    2    0    0  0.00000000000E+00  0.00000000000E+00 -0.89068734206E+02  0.35957767805E+04  0.35946734783E+04 0.  0.
        1    1    3    3  502    0  0.17640485117E+04  0.12275553921E+03  0.27725253959E+03  0.17899176083E+04  0.50400001928E-02 0.  1.
       -1    1    3    3    0  502 -0.17640485117E+04 -0.12275553921E+03 -0.36632127379E+03  0.18058591721E+04  0.50400001928E-02 0. -1.
</event>
<event>
 5   0  0.1298250E-07  0.3587135E+04  0.7818609E-02  0.8093445E-01
       -1   -1    0    0    0  501  0.00000000000E+00  0.00000000000E+00  0.14533529708E+04  0.14533529708E+04  0.50400001928E-02 0.  1.
        1   -1    0    0  501    0  0.00000000000E+00  0.00000000000E+00 -0.22134222613E+04  0.22134222613E+04  0.50400001928E-02 0. -1.
    10030    2    1    2    0    0  0.00000000000E+00  0.00000000000E+00 -0.76006929048E+03  0.36667752321E+04  0.35871346889E+04 0.  0.
        2    1    3    3  502    0  0.10570964888E+04  0.16397257222E+03  0.10915609087E+04  0.15283472146E+04  0.25500000920E-02 0.  1.
       -2    1    3    3    0  502 -0.10570964888E+04 -0.16397257222E+03 -0.18516301992E+04  0.21384280174E+04  0.25500000920E-02 0. -1.
</event>
<event>
 5   0  0.1348226E-07  0.3587883E+04  0.7818609E-02  0.8093273E-01
        1   -1    0    0  501    0  0.00000000000E+00  0.00000000000E+00  0.20741184461E+04  0.20741184461E+04  0.50400001928E-02 0.  1.
       -1   -1    0    0    0  501  0.00000000000E+00  0.00000000000E+00 -0.15516117390E+04  0.15516117390E+04  0.50400001928E-02 0. -1.
    10030    2    1    2    0    0  0.00000000000E+00  0.00000000000E+00  0.52250670707E+03  0.36257301851E+04  0.35878832361E+04 0.  0.
        4    1    3    3  502    0  0.14277611191E+04  0.79783156128E+03 -0.48353388373E+03  0.17055332430E+04  0.12699999809E+01 0.  1.
       -4    1    3    3    0  502 -0.14277611191E+04 -0.79783156128E+03  0.10060405908E+04  0.19201969421E+04  0.12699999809E+01 0. -1.
</event>
<event>
 5   0  0.1370997E-07  0.3598150E+04  0.7818609E-02  0.8090916E-01
        1   -1    0    0  501    0  0.00000000000E+00  0.00000000000E+00  0.18897367107E+04  0.18897367107E+04  0.50400001928E-02 0. -1.
       -1   -1    0    0    0  501  0.00000000000E+00  0.00000000000E+00 -0.17127625276E+04  0.17127625276E+04  0.50400001928E-02 0.  1.
    10030    2    1    2    0    0  0.00000000000E+00  0.00000000000E+00  0.17697418310E+03  0.36024992383E+04  0.35981496495E+04 0.  0.
        3    1    3    3  502    0 -0.29539689957E+03  0.54156811145E+03  0.17805344358E+04  0.18843721062E+04  0.10100000352E+00 0. -1.
       -3    1    3    3    0  502  0.29539689957E+03 -0.54156811145E+03 -0.16035602527E+04  0.17181271320E+04  0.10100000352E+00 0.  1.
</event>
<event>
 5   0  0.1348226E-07  0.3604329E+04  0.7818609E-02  0.8089501E-01
        1   -1    0    0  501    0  0.00000000000E+00  0.00000000000E+00  0.14815772558E+04  0.14815772558E+04  0.50400001928E-02 0. -1.
       -1   -1    0    0    0  501  0.00000000000E+00  0.00000000000E+00 -0.21921215334E+04  0.21921215334E+04  0.50400001928E-02 0.  1.
    10030    2    1    2    0    0  0.00000000000E+00  0.00000000000E+00 -0.71054427756E+03  0.36736987892E+04  0.36043292890E+04 0.  0.
        4    1    3    3  502    0  0.10350787995E+03 -0.43985688126E+03  0.14228984838E+04  0.14929265438E+04  0.12699999809E+01 0. -1.
       -4    1    3    3    0  502 -0.10350787995E+03  0.43985688126E+03 -0.21334427614E+04  0.21807722453E+04  0.12699999809E+01 0.  1.
</event>
<event>
 5   0  0.4120440E-07  0.3556094E+04  0.7818609E-02  0.8100623E-01
       -2   -1    0    0    0  501  0.00000000000E+00  0.00000000000E+00  0.15174301840E+04  0.15174301840E+04  0.25500000920E-02 0.  1.
        2   -1    0    0  501    0  0.00000000000E+00  0.00000000000E+00 -0.20834250255E+04  0.20834250255E+04  0.25500000920E-02 0. -1.
    10030    2    1    2    0    0  0.00000000000E+00  0.00000000000E+00 -0.56599484152E+03  0.36008552096E+04  0.35560944981E+04 0.  0.
        2    1    3    3  502    0  0.27849126219E+03  0.66504982435E+03  0.13627613200E+04  0.15417415695E+04  0.25500000920E-02 0.  1.
       -2    1    3    3    0  502 -0.27849126219E+03 -0.66504982435E+03 -0.19287561615E+04  0.20591136400E+04  0.25500000920E-02 0. -1.
</event>
<event>
 5   0  0.3993751E-07  0.3564443E+04  0.7818609E-02  0.8098685E-01
        2   -1    0    0  501    0  0.00000000000E+00  0.00000000000E+00  0.22045915967E+04  0.22045915967E+04  0.25500000920E-02 0.  1.
       -2   -1    0    0    0  501  0.00000000000E+00  0.00000000000E+00 -0.14407720632E+04  0.14407720632E+04  0.25500000920E-02 0. -1.
    10030    2    1    2    0    0  0.00000000000E+00  0.00000000000E+00  0.76381953348E+03  0.36453636599E+04  0.35644432852E+04 0.  0.
        1    1    3    3  502    0 -0.37966214915E+03  0.16429833058E+04 -0.20805417819E+03  0.16990656349E+04  0.50400001928E-02 0. -1.
       -1    1    3    3    0  502  0.37966214915E+03 -0.16429833058E+04  0.97187371166E+03  0.19462980250E+04  0.50400001928E-02 0.  1.
</event>
<event>
 5   0  0.1298250E-07  0.3611737E+04  0.7818609E-02  0.8087808E-01
       -1   -1    0    0    0  501  0.00000000000E+00  0.00000000000E+00  0.16111880795E+04  0.16111880795E+04  0.50400001928E-02 0.  1.
        1   -1    0    0  501    0  0.00000000000E+00  0.00000000000E+00 -0.20240722842E+04  0.20240722843E+04  0.50400001928E-02 0. -1.
    10030    2    1    2    0    0  0.00000000000E+00  0.00000000000E+00 -0.41288420478E+03  0.36352603637E+04  0.36117370538E+04 0.  0.
        1    1    3    3  502    0  0.98476964535E+03 -0.26038322825E+03  0.12944407548E+04  0.16471634854E+04  0.50400001928E-02 0.  1.
       -1    1    3    3    0  502 -0.98476964535E+03  0.26038322825E+03 -0.17073249596E+04  0.19880968783E+04  0.50400001928E-02 0. -1.
</event>
<event>
 5   0  0.4120440E-07  0.3573888E+04  0.7818609E-02  0.8096499E-01
        2   -1    0    0  501    0  0.00000000000E+00  0.00000000000E+00  0.17717580848E+04  0.17717580848E+04  0.25500000920E-02 0.  1.
       -2   -1    0    0    0  501  0.00000000000E+00  0.00000000000E+00 -0.18022602650E+04  0.18022602650E+04  0.25500000920E-02 0. -1.
    10030    2    1    2    0    0  0.00000000000E+00  0.00000000000E+00 -0.30502180135E+02  0.35740183498E+04  0.35738881882E+04 0.  0.
        2    1    3    3  502    0  0.49777218258E+03  0.52569082588E+03 -0.16490306415E+04  0.18009525387E+04  0.25500000920E-02 0. -1.
       -2    1    3    3    0  502 -0.49777218258E+03 -0.52569082588E+03  0.16185284614E+04  0.17730658111E+04  0.25500000920E-02 0.  1.
</event>
<event>
 5   0  0.1370997E-07  0.3598263E+04  0.7818609E-02  0.8090890E-01
       -1   -1    0    0    0  501  0.00000000000E+00  0.00000000000E+00  0.20274643548E+04  0.20274643548E+04  0.50400001928E-02 0. -1.
        1   -1    0    0  501    0  0.00000000000E+00  0.00000000000E+00 -0.15965135095E+04  0.15965135095E+04  0.50400001928E-02 0.  1.
    10030    2    1    2    0    0  0.00000000000E+00  0.00000000000E+00  0.43095084526E+03  0.36239778643E+04  0.35982630434E+04 0.  0.
        3    1    3    3  502    0  0.90355483444E+03  0.28660976317E+03  0.17555593517E+04  0.19951303573E+04  0.10100000352E+00 0. -1.
       -3    1    3    3    0  502 -0.90355483444E+03 -0.28660976317E+03 -0.13246085065E+04  0.16288475069E+04  0.10100000352E+00 0.  1.
</event>
<event>
 5   0  0.3993751E-07  0.3602596E+04  0.7818609E-02  0.8089897E-01
        2   -1    0    0  501    0  0.00000000000E+00  0.00000000000E+00  0.29961866891E+04  0.29961866891E+04  0.25500000920E-02 0. -1.
       -2   -1    0    0    0  501  0.00000000000E+00  0.00000000000E+00 -0.10829347224E+04  0.10829347224E+04  0.25500000920E-02 0.  1.
    10030    2    1    2    0    0  0.00000000000E+00  0.00000000000E+00  0.19132519666E+04  0.40791214115E+04  0.36025960642E+04 0.  0.
        1    1    3    3  502    0  0.96778739901E+02 -0.10398494350E+04 -0.70516382659E+03  0.12601226108E+04  0.50400001928E-02 0.  1.
       -1    1    3    3    0  502 -0.96778739901E+02  0.10398494350E+04  0.26184157932E+04  0.28189988007E+04  0.50400001928E-02 0. -1.
</event>
<event>
 5   0  0.1370997E-07  0.3581660E+04  0.7818609E-02  0.8094706E-01
        1   -1    0    0  501    0  0.00000000000E+00  0.00000000000E+00  0.20650176606E+04  0.20650176607E+04  0.50400001928E-02 0. -1.
       -1   -1    0    0    0  501  0.00000000000E+00  0.00000000000E+00 -0.15530481126E+04  0.15530481126E+04  0.50400001928E-02 0.  1.
    10030    2    1    2    0    0  0.00000000000E+00  0.00000000000E+00  0.51196954804E+03  0.36180657733E+04  0.35816598277E+04 0.  0.
        3    1    3    3  502    0 -0.20768199022E+03 -0.43871738156E+03  0.19973007281E+04  0.20554354669E+04  0.10100000352E+00 0. -1.
       -3    1    3    3    0  502  0.20768199022E+03  0.43871738156E+03 -0.14853311800E+04  0.15626303064E+04  0.10100000352E+00 0.  1.
</event>
<event>
 5   0  0.3880259E-07  0.3634647E+04  0.7818609E-02  0.8082601E-01
        2   -1    0    0  501    0  0.00000000000E+00  0.00000000000E+00  0.21632396235E+04  0.21632396235E+04  0.25500000920E-02 0. -1.
       -2   -1    0    0    0  501  0.00000000000E+00  0.00000000000E+00 -0.15267217800E+04  0.15267217800E+04  0.25500000920E-02 0.  1.
    10030    2    1    2    0    0  0.00000000000E+00  0.00000000000E+00  0.63651784347E+03  0.36899614035E+04  0.36346471898E+04 0.  0.
        5    1    3    3  502    0  0.17851362986E+04 -0.33999882472E+03  0.29975649558E+03  0.18417890357E+04  0.46999998093E+01 0. -1.
       -5    1    3    3    0  502 -0.17851362986E+04  0.33999882472E+03  0.33676134789E+03  0.18481723678E+04  0.46999998093E+01 0.  1.
</event>
<event>
 5   0  0.3993751E-07  0.3597993E+04  0.7818609E-02  0.8090952E-01
        2   -1    0    0  501    0  0.00000000000E+00  0.00000000000E+00  0.17969751194E+04  0.17969751194E+04  0.25500000920E-02 0.  1.
       -2   -1    0    0    0  501  0.00000000000E+00  0.00000000000E+00 -0.18010198486E+04  0.18010198486E+04  0.25500000920E-02 0. -1.
    10030    2    1    2    0    0  0.00000000000E+00  0.00000000000E+00 -0.40447292039E+01  0.35979949680E+04  0.35979926945E+04 0.  0.
        1    1    3    3  502    0  0.94124586103E+03  0.12953147297E+04 -0.82214716464E+03  0.17999194371E+04  0.50400001928E-02 0. -1.
       -1    1    3    3    0  502 -0.94124586103E+03 -0.12953147297E+04  0.81810243544E+03  0.17980755309E+04  0.50400001928E-02 0.  1.
</event>
<event>
 5   0  0.1298250E-07  0.3417838E+04  0.7818609E-02  0.8133542E-01
        1   -1    0    0  501    0  0.00000000000E+00  0.00000000000E+00  0.14800139897E+04  0.14800139897E+04  0.50400001928E-02 0.  1.
       -1   -1    0    0    0  501  0.00000000000E+00  0.00000000000E+00 -0.19732275271E+04  0.19732275271E+04  0.50400001928E-02 0. -1.
    10030    2    1    2    0    0  0.00000000000E+00  0.00000000000E+00 -0.49321353736E+03  0.34532415168E+04  0.34178381149E+04 0.  0.
        2    1    3    3  502    0 -0.16813260872E+03  0.14832746434E+03 -0.19583026562E+04  0.19710958637E+04  0.25500000920E-02 0. -1.
       -2    1    3    3    0  502  0.16813260872E+03 -0.14832746434E+03  0.14650891188E+04  0.14821456531E+04  0.25500000920E-02 0.  1.
</event>
<event>
 5   0  0.4120440E-07  0.3546199E+04  0.7818609E-02  0.8102928E-01
        2   -1    0    0  501    0  0.00000000000E+00  0.00000000000E+00  0.26692311355E+04  0.26692311355E+04  0.25500000920E-02 0.  1.
       -2   -1    0    0    0  501  0.00000000000E+00  0.00000000000E+00 -0.11778231050E+04  0.11778231050E+04  0.25500000920E-02 0. -1.
    10030    2    1    2    0    0  0.00000000000E+00  0.00000000000E+00  0.14914080305E+04  0.38470542405E+04  0.35461991506E+04 0.  0.
        2    1    3    3  502    0  0.66447691420E+03 -0.39284769450E+03  0.24773809769E+04  0.25948555615E+04  0.25500000920E-02 0.  1.
       -2    1    3    3    0  502 -0.66447691420E+03  0.39284769450E+03 -0.98597294636E+03  0.12521986789E+04  0.25500000920E-02 0. -1.
</event>
<event>
 5   0  0.3993751E-07  0.3590388E+04  0.7818609E-02  0.8092697E-01
        2   -1    0    0  501    0  0.00000000000E+00  0.00000000000E+00  0.23203517563E+04  0.23203517563E+04  0.25500000920E-02 0. -1.
       -2   -1    0    0    0  501  0.00000000000E+00  0.00000000000E+00 -0.13888936298E+04  0.13888936298E+04  0.25500000920E-02 0.  1.
    10030    2    1    2    0    0  0.00000000000E+00  0.00000000000E+00  0.93145812650E+03  0.37092453860E+04  0.35903881534E+04 0.  0.
        1    1    3    3  502    0 -0.90701906694E+03 -0.10483512582E+04 -0.71264302806E+03  0.15587122999E+04  0.50400001928E-02 0. -1.
       -1    1    3    3    0  502  0.90701906694E+03  0.10483512582E+04  0.16441011546E+04  0.21505330862E+04  0.50400001928E-02 0.  1.
</event>
<event>
 5   0  0.1298250E-07  0.3604772E+04  0.7818609E-02  0.8089399E-01
        1   -1    0    0  501    0  0.00000000000E+00  0.00000000000E+00  0.21375066619E+04  0.21375066619E+04  0.50400001928E-02 0.  1.
       -1   -1    0    0    0  501  0.00000000000E+00  0.00000000000E+00 -0.15198063159E+04  0.15198063159E+04  0.50400001928E-02 0. -1.
    10030    2    1    2    0    0  0.00000000000E+00  0.00000000000E+00  0.61770034598E+03  0.36573129777E+04  0.36047724616E+04 0.  0.
        2    1    3    3  502    0 -0.13082749393E+04 -0.84411470755E+03 -0.61239487745E+03  0.16730631913E+04  0.25500000920E-02 0. -1.
       -2    1    3    3    0  502  0.13082749393E+04  0.84411470755E+03  0.12300952234E+04  0.19842497864E+04  0.25500000920E-02 0.  1.
</event>
<event>
 5   0  0.1348226E-07  0.3613440E+04  0.7818609E-02  0.8087420E-01
        1   -1    0    0  501    0  0.00000000000E+00  0.00000000000E+00  0.26527697052E+04  0.26527697052E+04  0.50400001928E-02 0. -1.
       -1   -1    0    0    0  501  0.00000000000E+00  0.00000000000E+00 -0.12305016428E+04  0.12305016428E+04  0.50400001928E-02 0.  1.
    10030    2    1    2    0    0  0.00000000000E+00  0.00000000000E+00  0.14222680624E+04  0.38832713480E+04  0.36134401782E+04 0.  0.
        4    1    3    3  502    0  0.16995897440E+03  0.43554055302E+03 -0.11643664003E+04  0.12547240148E+04  0.12699999809E+01 0.  1.
       -4    1    3    3    0  502 -0.16995897440E+03 -0.43554055302E+03  0.25866344627E+04  0.26285473332E+04  0.12699999809E+01 0. -1.
</event>
<event>
 5   0  0.3880259E-07  0.3603114E+04  0.7818609E-02  0.8089779E-01
        2   -1    0    0  501    0  0.00000000000E+00  0.00000000000E+00  0.21577712623E+04  0.21577712623E+04  0.25500000920E-02 0. -1.
       -2   -1    0    0    0  501  0.00000000000E+00  0.00000000000E+00 -0.15041478061E+04  0.15041478061E+04  0.25500000920E-02 0.  1.
    10030    2    1    2    0    0  0.00000000000E+00  0.00000000000E+00  0.65362345617E+03  0.36619190684E+04  0.36031136037E+04 0.  0.
        5    1    3    3  502    0  0.86451306503E+02  0.16306874216E+04  0.11001306534E+04  0.19689908176E+04  0.46999998093E+01 0. -1.
       -5    1    3    3    0  502 -0.86451306503E+02 -0.16306874216E+04 -0.44650719720E+03  0.16929282508E+04  0.46999998093E+01 0.  1.
</event>
<event>
 5   0  0.1361743E-07  0.3538750E+04  0.7818609E-02  0.8104668E-01
       -1   -1    0    0    0  501  0.00000000000E+00  0.00000000000E+00  0.21523730175E+04  0.21523730175E+04  0.50400001928E-02 0. -1.
        1   -1    0    0  501    0  0.00000000000E+00  0.00000000000E+00 -0.14545288616E+04  0.14545288616E+04  0.50400001928E-02 0.  1.
    10030    2    1    2    0    0  0.00000000000E+00  0.00000000000E+00  0.69784415591E+03  0.36069018791E+04  0.35387504433E+04 0.  0.
        5    1    3    3  502    0  0.14408875102E+04 -0.17818103946E+03  0.13797152459E+04  0.20028833091E+04  0.46999998093E+01 0. -1.
       -5    1    3    3    0  502 -0.14408875102E+04  0.17818103946E+03 -0.68187109004E+03  0.16040185701E+04  0.46999998093E+01 0.  1.
</event>
<event>
 5   0  0.1370997E-07  0.3604119E+04  0.7818609E-02  0.8089549E-01
       -1   -1    0    0    0  501  0.00000000000E+00  0.00000000000E+00  0.12548345046E+04  0.12548345046E+04  0.50400001928E-02 0.  1.
        1   -1    0    0  501    0  0.00000000000E+00  0.00000000000E+00 -0.25879259487E+04  0.25879259488E+04  0.50400001928E-02 0. -1.
    10030    2    1    2    0    0  0.00000000000E+00  0.00000000000E+00 -0.13330914442E+04  0.38427604533E+04  0.36041191855E+04 0.  0.
        3    1    3    3  502    0 -0.28016980440E+03 -0.10084534530E+04 -0.22306286661E+04  0.24639760028E+04  0.10100000352E+00 0. -1.
       -3    1    3    3    0  502  0.28016980440E+03  0.10084534530E+04  0.89753722191E+03  0.13787844505E+04  0.10100000352E+00 0.  1.
</event>
<event>
 5   0  0.4115358E-07  0.3600515E+04  0.7818609E-02  0.8090374E-01
       -2   -1    0    0    0  501  0.00000000000E+00  0.00000000000E+00  0.16007864531E+04  0.16007864531E+04  0.25500000920E-02 0. -1.
        2   -1    0    0  501    0  0.00000000000E+00  0.00000000000E+00 -0.20245846654E+04  0.20245846654E+04  0.25500000920E-02 0.  1.
    10030    2    1    2    0    0  0.00000000000E+00  0.00000000000E+00 -0.42379821225E+03  0.36253711185E+04  0.36005153551E+04 0.  0.
        3    1    3    3  502    0 -0.77493438090E+03 -0.10664355753E+04  0.10225823399E+04  0.16683772904E+04  0.10100000352E+00 0. -1.
       -3    1    3    3    0  502  0.77493438090E+03  0.10664355753E+04 -0.14463805522E+04  0.19569938281E+04  0.10100000352E+00 0.  1.
</event>
<event>
 5   0  0.3880259E-07  0.3602669E+04  0.7818609E-02  0.8089880E-01
       -2   -1    0    0    0  501  0.00000000000E+00  0.00000000000E+00  0.94497280402E+03  0.94497280402E+03  0.25500000920E-02 0.  1.
        2   -1    0    0  501    0  0.00000000000E+00  0.00000000000E+00 -0.34337568811E+04  0.34337568811E+04  0.25500000920E-02 0. -1.
    10030    2    1    2    0    0  0.00000000000E+00  0.00000000000E+00 -0.24887840771E+04  0.43787296851E+04  0.36026694926E+04 0.  0.
        5    1    3    3  502    0  0.68405066649E+03  0.15635705827E+04 -0.54396581195E+03  0.17912563122E+04  0.46999998093E+01 0.  1.
       -5    1    3    3    0  502 -0.68405066649E+03 -0.15635705827E+04 -0.19448182652E+04  0.25874733730E+04  0.46999998093E+01 0. -1.
</event>
<event>
 5   0  0.1361743E-07  0.3578856E+04  0.7818609E-02  0.8095352E-01
        1   -1    0    0  501    0  0.00000000000E+00  0.00000000000E+00  0.19232090074E+04  0.19232090074E+04  0.50400001928E-02 0. -1.
       -1   -1    0    0    0  501  0.00000000000E+00  0.00000000000E+00 -0.16649533080E+04  0.16649533080E+04  0.50400001928E-02 0.  1.
    10030    2    1    2    0    0  0.00000000000E+00  0.00000000000E+00  0.25825569935E+03  0.35881623154E+04  0.35788563530E+04 0.  0.
        5    1    3    3  502    0  0.10919814455E+04 -0.42689724101E+03 -0.12261883472E+04  0.16965331369E+04  0.46999998093E+01 0.  1.
       -5    1    3    3    0  502 -0.10919814455E+04  0.42689724101E+03  0.14844440466E+04  0.18916291785E+04  0.46999998093E+01 0. -1.
</event>
<event>
 5   0  0.1298250E-07  0.3597165E+04  0.7818609E-02  0.8091141E-01
       -1   -1    0    0    0  501  0.00000000000E+00  0.00000000000E+00  0.12976570701E+04  0.12976570701E+04  0.50400001928E-02 0. -1.
        1   -1    0    0  501    0  0.00000000000E+00  0.00000000000E+00 -0.24928768566E+04  0.24928768566E+04  0.50400001928E-02 0.  1.
    10030    2    1    2    0    0  0.00000000000E+00  0.00000000000E+00 -0.11952197865E+04  0.37905339267E+04  0.35971651493E+04 0.  0.
        2    1    3    3  502    0  0.58695131864E+03 -0.12478490795E+04 -0.18143489599E+04  0.22789254757E+04  0.25500000920E-02 0.  1.
       -2    1    3    3    0  502 -0.58695131864E+03  0.12478490795E+04  0.61912917339E+03  0.15116084510E+04  0.25500000920E-02 0. -1.
</event>
<event>
 5   0  0.4200635E-07  0.3588520E+04  0.7818609E-02  0.8093126E-01
        2   -1    0    0  501    0  0.00000000000E+00  0.00000000000E+00  0.11026445246E+04  0.11026445246E+04  0.25500000920E-02 0.  1.
       -2   -1    0    0    0  501  0.00000000000E+00  0.00000000000E+00 -0.29196799798E+04  0.29196799798E+04  0.25500000920E-02 0. -1.
    10030    2    1    2    0    0  0.00000000000E+00  0.00000000000E+00 -0.18170354552E+04  0.40223245044E+04  0.35885201091E+04 0.  0.
        4    1    3    3  502    0 -0.53927128378E+03 -0.16234755139E+04 -0.15151248695E+04  0.22851895424E+04  0.12699999809E+01 0.  1.
       -4    1    3    3    0  502  0.53927128378E+03  0.16234755139E+04 -0.30191058572E+03  0.17371349620E+04  0.12699999809E+01 0. -1.
</event>
<event>
 5   0  0.3880259E-07  0.3578524E+04  0.7818609E-02  0.8095429E-01
        2   -1    0    0  501    0  0.00000000000E+00  0.00000000000E+00  0.22874794006E+04  0.22874794006E+04  0.25500000920E-02 0. -1.
       -2   -1    0    0    0  501  0.00000000000E+00  0.00000000000E+00 -0.13995573312E+04  0.13995573312E+04  0.25500000920E-02 0.  1.
    10030    2    1    2    0    0  0.00000000000E+00  0.00000000000E+00  0.88792206940E+03  0.36870367318E+04  0.35785240338E+04 0.  0.
        5    1    3    3  502    0  0.65529053509E+03 -0.11884077486E+03 -0.12670916674E+04  0.14314580674E+04  0.46999998093E+01 0.  1.
       -5    1    3    3    0  502 -0.65529053509E+03  0.11884077486E+03  0.21550137368E+04  0.22555786644E+04  0.46999998093E+01 0. -1.
</event>
<event>
 5   0  0.1298250E-07  0.3611194E+04  0.7818609E-02  0.8087932E-01
       -1   -1    0    0    0  501  0.00000000000E+00  0.00000000000E+00  0.20216155328E+04  0.20216155328E+04  0.50400001928E-02 0. -1.
        1   -1    0    0  501    0  0.00000000000E+00  0.00000000000E+00 -0.16126605623E+04  0.16126605623E+04  0.50400001928E-02 0.  1.
    10030    2    1    2    0    0  0.00000000000E+00  0.00000000000E+00  0.40895497050E+03  0.36342760951E+04  0.36111935102E+04 0.  0.
        1    1    3    3  502    0 -0.67091601537E+03  0.66605791865E+03  0.17526270102E+04  0.19913470033E+04  0.50400001928E-02 0. -1.
       -1    1    3    3    0  502  0.67091601537E+03 -0.66605791865E+03 -0.13436720397E+04  0.16429290919E+04  0.50400001928E-02 0.  1.
</event>
<event>
 5   0  0.4120440E-07  0.3592288E+04  0.7818609E-02  0.8092260E-01
        2   -1    0    0  501    0  0.00000000000E+00  0.00000000000E+00  0.19386025796E+04  0.19386025797E+04  0.25500000920E-02 0. -1.
       -2   -1    0    0    0  501  0.00000000000E+00  0.00000000000E+00 -0.16641541813E+04  0.16641541813E+04  0.25500000920E-02 0.  1.
    10030    2    1    2    0    0  0.00000000000E+00  0.00000000000E+00  0.27444839837E+03  0.36027567609E+04  0.35922881782E+04 0.  0.
        2    1    3    3  502    0 -0.43032854367E+03 -0.83751143640E+03 -0.13967839505E+04  0.16845217321E+04  0.25500000920E-02 0.  1.
       -2    1    3    3    0  502  0.43032854367E+03  0.83751143640E+03  0.16712323489E+04  0.19182350288E+04  0.25500000920E-02 0. -1.
</event>
<event>
 5   0  0.1298250E-07  0.3619901E+04  0.7818609E-02  0.8085948E-01
        1   -1    0    0  501    0  0.00000000000E+00  0.00000000000E+00  0.19395559159E+04  0.19395559159E+04  0.50400001928E-02 0. -1.
       -1   -1    0    0    0  501  0.00000000000E+00  0.00000000000E+00 -0.16890057384E+04  0.16890057384E+04  0.50400001928E-02 0.  1.
    10030    2    1    2    0    0  0.00000000000E+00  0.00000000000E+00  0.25055017744E+03  0.36285616543E+04  0.36199011433E+04 0.  0.
        2    1    3    3  502    0 -0.32628891174E+03  0.76195414682E+03  0.17381250417E+04  0.19256472253E+04  0.25500000920E-02 0. -1.
       -2    1    3    3    0  502  0.32628891174E+03 -0.76195414682E+03 -0.14875748642E+04  0.17029144290E+04  0.25500000920E-02 0.  1.
</event>
<event>
 5   0  0.3993751E-07  0.3520938E+04  0.7818609E-02  0.8108846E-01
       -2   -1    0    0    0  501  0.00000000000E+00  0.00000000000E+00  0.11544139381E+04  0.11544139381E+04  0.25500000920E-02 0.  1.
        2   -1    0    0  501    0  0.00000000000E+00  0.00000000000E+00 -0.26846958776E+04  0.26846958776E+04  0.25500000920E-02 0. -1.
    10030    2    1    2    0    0  0.00000000000E+00  0.00000000000E+00 -0.15302819394E+04  0.38391098157E+04  0.35209375687E+04 0.  0.
        1    1    3    3  502    0 -0.11730027084E+04  0.28787960622E+02  0.66589348803E+03  0.13491398141E+04  0.50400001928E-02 0.  1.
       -1    1    3    3    0  502  0.11730027084E+04 -0.28787960622E+02 -0.21961754275E+04  0.24899700016E+04  0.50400001928E-02 0. -1.
</event>
<event>
 5   0  0.1370997E-07  0.3627563E+04  0.7818609E-02  0.8084207E-01
       -1   -1    0    0    0  501  0.00000000000E+00  0.00000000000E+00  0.15321603730E+04  0.15321603730E+04  0.50400001928E-02 0. -1.
        1   -1    0    0  501    0  0.00000000000E+00  0.00000000000E+00 -0.21471665561E+04  0.21471665561E+04  0.50400001928E-02 0.  1.
    10030    2    1    2    0    0  0.00000000000E+00  0.00000000000E+00 -0.61500618304E+03  0.36793269291E+04  0.36275631002E+04 0.  0.
        3    1    3    3  502    0 -0.42939949856E+03 -0.14002237313E+04  0.77771468762E+03  0.16582673405E+04  0.10100000352E+00 0. -1.
       -3    1    3    3    0  502  0.42939949856E+03  0.14002237313E+04 -0.13927208707E+04  0.20210595886E+04  0.10100000352E+00 0.  1.
</event>
<event>
 5   0  0.1370997E-07  0.3583565E+04  0.7818609E-02  0.8094267E-01
       -1   -1    0    0    0  501  0.00000000000E+00  0.00000000000E+00  0.21567263841E+04  0.21567263841E+04  0.50400001928E-02 0. -1.
        1   -1    0    0  501    0  0.00000000000E+00  0.00000000000E+00 -0.14885911401E+04  0.14885911401E+04  0.50400001928E-02 0.  1.
    10030    2    1    2    0    0  0.00000000000E+00  0.00000000000E+00  0.66813524392E+03  0.36453175242E+04  0.35835645869E+04 0.  0.
        3    1    3    3  502    0  0.98227962677E+02 -0.16704998685E+04  0.98562472702E+03  0.19420799819E+04  0.10100000352E+00 0. -1.
       -3    1    3    3    0  502 -0.98227962677E+02  0.16704998685E+04 -0.31748948311E+03  0.17032375423E+04  0.10100000352E+00 0.  1.
</event>
<event>
 5   0  0.4200635E-07  0.3661686E+04  0.7818609E-02  0.8076506E-01
       -2   -1    0    0    0  501  0.00000000000E+00  0.00000000000E+00  0.13241578401E+04  0.13241578401E+04  0.25500000920E-02 0. -1.
        2   -1    0    0  501    0  0.00000000000E+00  0.00000000000E+00 -0.25314096211E+04  0.25314096211E+04  0.25500000920E-02 0.  1.
    10030    2    1    2    0    0  0.00000000000E+00  0.00000000000E+00 -0.12072517811E+04  0.38555674612E+04  0.36616858938E+04 0.  0.
        4    1    3    3  502    0  0.57424214027E+03 -0.96287019643E+03 -0.21277164117E+04  0.24050055701E+04  0.12699999809E+01 0.  1.
       -4    1    3    3    0  502 -0.57424214027E+03  0.96287019643E+03  0.92046463059E+03  0.14505618911E+04  0.12699999809E+01 0. -1.
</event>
<event>
 5   0  0.3993751E-07  0.3604308E+04  0.7818609E-02  0.8089506E-01
       -2   -1    0    0    0  501  0.00000000000E+00  0.00000000000E+00  0.12227846835E+04  0.12227846835E+04  0.25500000920E-02 0. -1.
        2   -1    0    0  501    0  0.00000000000E+00  0.00000000000E+00 -0.26560351637E+04  0.26560351637E+04  0.25500000920E-02 0.  1.
    10030    2    1    2    0    0  0.00000000000E+00  0.00000000000E+00 -0.14332504802E+04  0.38788198473E+04  0.36043080429E+04 0.  0.
        1    1    3    3  502    0 -0.11925937505E+04  0.64218632857E+03 -0.19958900861E+04  0.24121070395E+04  0.50400001928E-02 0.  1.
       -1    1    3    3    0  502  0.11925937505E+04 -0.64218632857E+03  0.56263960589E+03  0.14667128077E+04  0.50400001928E-02 0. -1.
</event>
<event>
 5   0  0.1298250E-07  0.3617232E+04  0.7818609E-02  0.8086556E-01
       -4   -1    0    0    0  501  0.00000000000E+00  0.00000000000E+00  0.16842689323E+04  0.16842694111E+04  0.12699999809E+01 0.  1.
        4   -1    0    0  501    0  0.00000000000E+00  0.00000000000E+00 -0.19421425686E+04  0.19421429839E+04  0.12699999809E+01 0. -1.
    10030    2    1    2    0    0  0.00000000000E+00  0.00000000000E+00 -0.25787363631E+03  0.36264123950E+04  0.36172320974E+04 0.  0.
        2    1    3    3  502    0  0.50737986914E+03 -0.16840111511E+04 -0.55162769235E+03  0.18432636816E+04  0.25500000920E-02 0. -1.
       -2    1    3    3    0  502 -0.50737986914E+03  0.16840111511E+04  0.29375405604E+03  0.17831487134E+04  0.25500000920E-02 0.  1.
</event>
<event>
 5   0  0.1348226E-07  0.3618122E+04  0.7818609E-02  0.8086353E-01
       -1   -1    0    0    0  501  0.00000000000E+00  0.00000000000E+00  0.16234975985E+04  0.16234975985E+04  0.50400001928E-02 0. -1.
        1   -1    0    0  501    0  0.00000000000E+00  0.00000000000E+00 -0.20158344097E+04  0.20158344097E+04  0.50400001928E-02 0.  1.
    10030    2    1    2    0    0  0.00000000000E+00  0.00000000000E+00 -0.39233681120E+03  0.36393320083E+04  0.36181223436E+04 0.  0.
        4    1    3    3  502    0  0.92150277719E+02 -0.16810289875E+04  0.46979324623E+03  0.17478722600E+04  0.12699999809E+01 0.  1.
       -4    1    3    3    0  502 -0.92150277719E+02  0.16810289875E+04 -0.86213005743E+03  0.18914597482E+04  0.12699999809E+01 0. -1.
</event>
<event>
 5   0  0.1361743E-07  0.3585063E+04  0.7818609E-02  0.8093922E-01
       -1   -1    0    0    0  501  0.00000000000E+00  0.00000000000E+00  0.20805159210E+04  0.20805159210E+04  0.50400001928E-02 0. -1.
        1   -1    0    0  501    0  0.00000000000E+00  0.00000000000E+00 -0.15444096736E+04  0.15444096736E+04  0.50400001928E-02 0.  1.
    10030    2    1    2    0    0  0.00000000000E+00  0.00000000000E+00  0.53610624739E+03  0.36249255946E+04  0.35850628527E+04 0.  0.
        5    1    3    3  502    0  0.10665458483E+04 -0.12223381010E+04 -0.50299819738E+03  0.16984286138E+04  0.46999998093E+01 0.  1.
       -5    1    3    3    0  502 -0.10665458483E+04  0.12223381010E+04  0.10391044448E+04  0.19264969808E+04  0.46999998093E+01 0. -1.
</event>
<event>
 5   0  0.4120440E-07  0.3539374E+04  0.7818609E-02  0.8104522E-01
       -2   -1    0    0    0  501  0.00000000000E+00  0.00000000000E+00  0.29422212056E+04  0.29422212056E+04  0.25500000920E-02 0.  1.
        2   -1    0    0  501    0  0.00000000000E+00  0.00000000000E+00 -0.10644312737E+04  0.10644312737E+04  0.25500000920E-02 0. -1.
    10030    2    1    2    0    0  0.00000000000E+00  0.00000000000E+00  0.18777899319E+04  0.40066524793E+04  0.35393741059E+04 0.  0.
        2    1    3    3  502    0 -0.16922779378E+04 -0.19839190356E+03  0.14801727452E+04  0.22570058312E+04  0.25500000920E-02 0.  1.
       -2    1    3    3    0  502  0.16922779378E+04  0.19839190356E+03  0.39761718676E+03  0.17496466482E+04  0.25500000920E-02 0. -1.
</event>
<event>
 5   0  0.1348226E-07  0.3628748E+04  0.7818609E-02  0.8083938E-01
        1   -1    0    0  501    0  0.00000000000E+00  0.00000000000E+00  0.21691609143E+04  0.21691609143E+04  0.50400001928E-02 0.  1.
       -1   -1    0    0    0  501  0.00000000000E+00  0.00000000000E+00 -0.15176157298E+04  0.15176157298E+04  0.50400001928E-02 0. -1.
    10030    2    1    2    0    0  0.00000000000E+00  0.00000000000E+00  0.65154518447E+03  0.36867766441E+04  0.36287478413E+04 0.  0.
        4    1    3    3  502    0  0.52680828047E+03 -0.75513469260E+03 -0.12626206427E+04  0.15626797077E+04  0.12699999809E+01 0. -1.
       -4    1    3    3    0  502 -0.52680828047E+03  0.75513469260E+03  0.19141658272E+04  0.21240969364E+04  0.12699999809E+01 0.  1.
</event>
<event>
 5   0  0.3880259E-07  0.3581254E+04  0.7818609E-02  0.8094799E-01
       -2   -1    0    0    0  501  0.00000000000E+00  0.00000000000E+00  0.14747686643E+04  0.14747686643E+04  0.25500000920E-02 0.  1.
        2   -1    0    0  501    0  0.00000000000E+00  0.00000000000E+00 -0.21741340288E+04  0.21741340288E+04  0.25500000920E-02 0. -1.
    10030    2    1    2    0    0  0.00000000000E+00  0.00000000000E+00 -0.69936536448E+03  0.36489026932E+04  0.35812538239E+04 0.  0.
        5    1    3    3  502    0  0.67962551379E+03 -0.12847750605E+04 -0.14152800312E+04  0.20286886039E+04  0.46999998093E+01 0. -1.
       -5    1    3    3    0  502 -0.67962551379E+03  0.12847750605E+04  0.71591466671E+03  0.16202140892E+04  0.46999998093E+01 0.  1.
</event>
<event>
 5   0  0.1361743E-07  0.3557900E+04  0.7818609E-02  0.8100204E-01
        1   -1    0    0  501    0  0.00000000000E+00  0.00000000000E+00  0.18358567385E+04  0.18358567385E+04  0.50400001928E-02 0.  1.
       -1   -1    0    0    0  501  0.00000000000E+00  0.00000000000E+00 -0.17238076682E+04  0.17238076682E+04  0.50400001928E-02 0. -1.
    10030    2    1    2    0    0  0.00000000000E+00  0.00000000000E+00  0.11204907028E+03  0.35596644067E+04  0.35579004615E+04 0.  0.
        5    1    3    3  502    0  0.10196186379E+04  0.59303803502E+03 -0.12762983835E+04  0.17378941083E+04  0.46999998093E+01 0. -1.
       -5    1    3    3    0  502 -0.10196186379E+04 -0.59303803502E+03  0.13883474538E+04  0.18217702984E+04  0.46999998093E+01 0.  1.
</event>
<event>
 5   0  0.1298250E-07  0.3580440E+04  0.7818609E-02  0.8094987E-01
       -1   -1    0    0    0  501  0.00000000000E+00  0.00000000000E+00  0.21403347587E+04  0.21403347587E+04  0.50400001928E-02 0. -1.
        1   -1    0    0  501    0  0.00000000000E+00  0.00000000000E+00 -0.14973769696E+04  0.14973769696E+04  0.50400001928E-02 0.  1.
    10030    2    1    2    0    0  0.00000000000E+00  0.00000000000E+00  0.64295778910E+03  0.36377117283E+04  0.35804401824E+04 0.  0.
        1    1    3    3  502    0  0.77214031181E+03 -0.91468450369E+03  0.16739517763E+04  0.20579025613E+04  0.50400001928E-02 0. -1.
       -1    1    3    3    0  502 -0.77214031181E+03  0.91468450369E+03 -0.10309939872E+04  0.15798091670E+04  0.50400001928E-02 0.  1.
</event>
<event>
 5   0  0.4120440E-07  0.3587624E+04  0.7818609E-02  0.8093333E-01
       -2   -1    0    0    0  501  0.00000000000E+00  0.00000000000E+00  0.17227542452E+04  0.17227542452E+04  0.25500000920E-02 0. -1.
        2   -1    0    0  501    0  0.00000000000E+00  0.00000000000E+00 -0.18678002810E+04  0.18678002810E+04  0.25500000920E-02 0.  1.
    10030    2    1    2    0    0  0.00000000000E+00  0.00000000000E+00 -0.14504603586E+03  0.35905545262E+04  0.35876236499E+04 0.  0.
        2    1    3    3  502    0 -0.16494177521E+04 -0.88026838827E+02  0.62764354842E+03  0.17669929454E+04  0.25500000920E-02 0. -1.
       -2    1    3    3    0  502  0.16494177521E+04  0.88026838827E+02 -0.77268958427E+03  0.18235615808E+04  0.25500000920E-02 0.  1.
</event>
<event>
 5   0  0.1361743E-07  0.3532967E+04  0.7818609E-02  0.8106021E-01
       -1   -1    0    0    0  501  0.00000000000E+00  0.00000000000E+00  0.13755418950E+04  0.13755418951E+04  0.50400001928E-02 0.  1.
        1   -1    0    0  501    0  0.00000000000E+00  0.00000000000E+00 -0.22685338471E+04  0.22685338471E+04  0.50400001928E-02 0. -1.
    10030    2    1    2    0    0  0.00000000000E+00  0.00000000000E+00 -0.89299195202E+03  0.36440757421E+04  0.35329666554E+04 0.  0.
        5    1    3    3  502    0 -0.13641267888E+03  0.36742734312E+03  0.13301225503E+04  0.13866720450E+04  0.46999998093E+01 0.  1.
       -5    1    3    3    0  502  0.13641267888E+03 -0.36742734312E+03 -0.22231145023E+04  0.22574036972E+04  0.46999998093E+01 0. -1.
</event>
<event>
 5   0  0.3993751E-07  0.3171415E+04  0.7818609E-02  0.8196407E-01
       -2   -1    0    0    0  501  0.00000000000E+00  0.00000000000E+00  0.13937116623E+04  0.13937116623E+04  0.25500000920E-02 0.  1.
        2   -1    0    0  501    0  0.00000000000E+00  0.00000000000E+00 -0.18041526297E+04  0.18041526297E+04  0.25500000920E-02 0. -1.
    10030    2    1    2    0    0  0.00000000000E+00  0.00000000000E+00 -0.41044096743E+03  0.31978642919E+04  0.31714151797E+04 0.  0.
        1    1    3    3  502    0  0.11326032993E+04  0.97418739559E+03 -0.74129063327E+03  0.16677359258E+04  0.50400001928E-02 0. -1.
       -1    1    3    3    0  502 -0.11326032993E+04 -0.97418739559E+03  0.33084966584E+03  0.15301283661E+04  0.50400001928E-02 0.  1.
</event>
<event>
 5   0  0.1298250E-07  0.3604567E+04  0.7818609E-02  0.8089446E-01
        1   -1    0    0  501    0  0.00000000000E+00  0.00000000000E+00  0.22817257141E+04  0.22817257141E+04  0.50400001928E-02 0.  1.
       -1   -1    0    0    0  501  0.00000000000E+00  0.00000000000E+00 -0.14235827974E+04  0.14235827974E+04  0.50400001928E-02 0. -1.
    10030    2    1    2    0    0  0.00000000000E+00  0.00000000000E+00  0.85814291673E+03  0.37053085115E+04  0.36045668117E+04 0.  0.
        1    1    3    3  502    0  0.13393199226E+04  0.31357608968E+03  0.16261426504E+04  0.21298938327E+04  0.50400001928E-02 0.  1.
       -1    1    3    3    0  502 -0.13393199226E+04 -0.31357608968E+03 -0.76799973371E+03  0.15754146788E+04  0.50400001928E-02 0. -1.
</event>
<event>
 5   0  0.1298250E-07  0.3634317E+04  0.7818609E-02  0.8082676E-01
        1   -1    0    0  501    0  0.00000000000E+00  0.00000000000E+00  0.24737601784E+04  0.24737601784E+04  0.50400001928E-02 0.  1.
       -1   -1    0    0    0  501  0.00000000000E+00  0.00000000000E+00 -0.13348360194E+04  0.13348360194E+04  0.50400001928E-02 0. -1.
    10030    2    1    2    0    0  0.00000000000E+00  0.00000000000E+00  0.11389241590E+04  0.38085961978E+04  0.36343165462E+04 0.  0.
        2    1    3    3  502    0  0.15414989034E+04 -0.66860329241E+03 -0.15568488367E+03  0.16874498555E+04  0.25500000920E-02 0. -1.
       -2    1    3    3    0  502 -0.15414989034E+04  0.66860329241E+03  0.12946090427E+04  0.21211463423E+04  0.25500000920E-02 0.  1.
</event>
<event>
 5   0  0.4200635E-07  0.3570256E+04  0.7818609E-02  0.8097339E-01
        2   -1    0    0  501    0  0.00000000000E+00  0.00000000000E+00  0.28083323464E+04  0.28083323464E+04  0.25500000920E-02 0.  1.
       -2   -1    0    0    0  501  0.00000000000E+00  0.00000000000E+00 -0.11347239270E+04  0.11347239270E+04  0.25500000920E-02 0. -1.
    10030    2    1    2    0    0  0.00000000000E+00  0.00000000000E+00  0.16736084194E+04  0.39430562733E+04  0.35702559619E+04 0.  0.
        4    1    3    3  502    0  0.40485249068E+03 -0.16494169402E+04  0.14439315410E+04  0.22292199734E+04  0.12699999809E+01 0.  1.
       -4    1    3    3    0  502 -0.40485249068E+03  0.16494169402E+04  0.22967687838E+03  0.17138362999E+04  0.12699999809E+01 0. -1.
</event>
<event>
 5   0  0.4120440E-07  0.3651046E+04  0.7818609E-02  0.8078898E-01
       -2   -1    0    0    0  501  0.00000000000E+00  0.00000000000E+00  0.17204061991E+04  0.17204061991E+04  0.25500000920E-02 0.  1.
        2   -1    0    0  501    0  0.00000000000E+00  0.00000000000E+00 -0.19370627873E+04  0.19370627873E+04  0.25500000920E-02 0. -1.
    10030    2    1    2    0    0  0.00000000000E+00  0.00000000000E+00 -0.21665658813E+03  0.36574689864E+04  0.36510463308E+04 0.  0.
        2    1    3    3  502    0 -0.13477144636E+04  0.23166886390E+03  0.11031502112E+04  0.17569704398E+04  0.25500000920E-02 0.  1.
       -2    1    3    3    0  502  0.13477144636E+04 -0.23166886390E+03 -0.13198067993E+04  0.19004985466E+04  0.25500000920E-02 0. -1.
</event>
<event>
 5   0  0.4200635E-07  0.3588802E+04  0.7818609E-02  0.8093062E-01
       -2   -1    0    0    0  501  0.00000000000E+00  0.00000000000E+00  0.25536789951E+04  0.25536789951E+04  0.25500000920E-02 0.  1.
        2   -1    0    0  501    0  0.00000000000E+00  0.00000000000E+00 -0.12608769719E+04  0.12608769719E+04  0.25500000920E-02 0. -1.
    10030    2    1    2    0    0  0.00000000000E+00  0.00000000000E+00  0.12928020233E+04  0.38145559670E+04  0.35888020500E+04 0.  0.
        4    1    3    3  502    0 -0.45252838434E+03  0.38293728605E+03  0.24465902804E+04  0.25173852539E+04  0.12699999809E+01 0.  1.
       -4    1    3    3    0  502  0.45252838434E+03 -0.38293728605E+03 -0.11537882571E+04  0.12971707131E+04  0.12699999809E+01 0. -1.
</event>
<event>
 5   0  0.1298250E-07  0.3598431E+04  0.7818609E-02  0.8090851E-01
       -1   -1    0    0    0  501  0.00000000000E+00  0.00000000000E+00  0.28260869688E+04  0.28260869688E+04  0.50400001928E-02 0.  1.
        1   -1    0    0  501    0  0.00000000000E+00  0.00000000000E+00 -0.11454623361E+04  0.11454623361E+04  0.50400001928E-02 0. -1.
    10030    2    1    2    0    0  0.00000000000E+00  0.00000000000E+00  0.16806246327E+04  0.39715493049E+04  0.35984308699E+04 0.  0.
        2    1    3    3  502    0 -0.11283647050E+03 -0.48634440525E+03 -0.10674786387E+04  0.11784623854E+04  0.25500000920E-02 0. -1.
       -2    1    3    3    0  502  0.11283647050E+03  0.48634440525E+03  0.27481032714E+04  0.27930869195E+04  0.25500000920E-02 0.  1.
</event>
<event>
 5   0  0.3993751E-07  0.3574623E+04  0.7818609E-02  0.8096329E-01
        2   -1    0    0  501    0  0.00000000000E+00  0.00000000000E+00  0.29013800362E+04  0.29013800362E+04  0.25500000920E-02 0. -1.
       -2   -1    0    0    0  501  0.00000000000E+00  0.00000000000E+00 -0.11010217283E+04  0.11010217283E+04  0.25500000920E-02 0.  1.
    10030    2    1    2    0    0  0.00000000000E+00  0.00000000000E+00  0.18003583080E+04  0.40024017645E+04  0.35746230357E+04 0.  0.
        1    1    3    3  502    0 -0.15922905566E+04 -0.15212318741E+02 -0.86612077785E+01  0.15923867771E+04  0.50400001928E-02 0.  1.
       -1    1    3    3    0  502  0.15922905566E+04  0.15212318741E+02  0.18090195158E+04  0.24100149874E+04  0.50400001928E-02 0. -1.
</event>
<event>
 5   0  0.1348226E-07  0.3596172E+04  0.7818609E-02  0.8091369E-01
        1   -1    0    0  501    0  0.00000000000E+00  0.00000000000E+00  0.18165928082E+04  0.18165928082E+04  0.50400001928E-02 0.  1.
       -1   -1    0    0    0  501  0.00000000000E+00  0.00000000000E+00 -0.17797672875E+04  0.17797672875E+04  0.50400001928E-02 0. -1.
    10030    2    1    2    0    0  0.00000000000E+00  0.00000000000E+00  0.36825520650E+02  0.35963600957E+04  0.35961715502E+04 0.  0.
        4    1    3    3  502    0 -0.11251371497E+02  0.80948109604E+03  0.16240263216E+04  0.18146209920E+04  0.12699999809E+01 0.  1.
       -4    1    3    3    0  502  0.11251371497E+02 -0.80948109604E+03 -0.15872008010E+04  0.17817391037E+04  0.12699999809E+01 0. -1.
</event>
<event>
 5   0  0.1298250E-07  0.3554980E+04  0.7818609E-02  0.8100883E-01
       -1   -1    0    0    0  501  0.00000000000E+00  0.00000000000E+00  0.16680703461E+04  0.16680703461E+04  0.50400001928E-02 0.  1.
        1   -1    0    0  501    0  0.00000000000E+00  0.00000000000E+00 -0.18940869308E+04  0.18940869308E+04  0.50400001928E-02 0. -1.
    10030    2    1    2    0    0  0.00000000000E+00  0.00000000000E+00 -0.22601658470E+03  0.35621572769E+04  0.35549797424E+04 0.  0.
        2    1    3    3  502    0 -0.10756531748E+04 -0.28027104194E+03 -0.15028518700E+04  0.18692633182E+04  0.25500000920E-02 0. -1.
       -2    1    3    3    0  502  0.10756531748E+04  0.28027104194E+03  0.12768352853E+04  0.16928939587E+04  0.25500000920E-02 0.  1.
</event>
<event>
 5   0  0.1298250E-07  0.3591710E+04  0.7818609E-02  0.8092393E-01
       -1   -1    0    0    0  501  0.00000000000E+00  0.00000000000E+00  0.27309697523E+04  0.27309697523E+04  0.50400001928E-02 0.  1.
        1   -1    0    0  501    0  0.00000000000E+00  0.00000000000E+00 -0.11809342357E+04  0.11809342357E+04  0.50400001928E-02 0. -1.
    10030    2    1    2    0    0  0.00000000000E+00  0.00000000000E+00  0.15500355166E+04  0.39119039879E+04  0.35917102762E+04 0.  0.
        1    1    3    3  502    0 -0.39425355311E+03 -0.10765640059E+04 -0.73047858253E+03  0.13594207893E+04  0.50400001928E-02 0. -1.
       -1    1    3    3    0  502  0.39425355311E+03  0.10765640059E+04  0.22805140991E+04  0.25524831986E+04  0.50400001928E-02 0.  1.
</event>
<event>
 5   0  0.3993751E-07  0.3593137E+04  0.7818609E-02  0.8092065E-01
        2   -1    0    0  501    0  0.00000000000E+00  0.00000000000E+00  0.18065711867E+04  0.18065711867E+04  0.25500000920E-02 0. -1.
       -2   -1    0    0    0  501  0.00000000000E+00  0.00000000000E+00 -0.17866216283E+04  0.17866216283E+04  0.25500000920E-02 0.  1.
    10030    2    1    2    0    0  0.00000000000E+00  0.00000000000E+00  0.19949558369E+02  0.35931928150E+04  0.35931374342E+04 0.  0.
        1    1    3    3  502    0  0.94791791224E+03  0.12143147925E+04 -0.91445840614E+03  0.17914639154E+04  0.50400001928E-02 0.  1.
       -1    1    3    3    0  502 -0.94791791224E+03 -0.12143147925E+04  0.93440796450E+03  0.18017288996E+04  0.50400001928E-02 0. -1.
</event>
<event>
 5   0  0.1370997E-07  0.3618175E+04  0.7818609E-02  0.8086341E-01
       -1   -1    0    0    0  501  0.00000000000E+00  0.00000000000E+00  0.15434925448E+04  0.15434925448E+04  0.50400001928E-02 0.  1.
        1   -1    0    0  501    0  0.00000000000E+00  0.00000000000E+00 -0.21203840526E+04  0.21203840526E+04  0.50400001928E-02 0. -1.
    10030    2    1    2    0    0  0.00000000000E+00  0.00000000000E+00 -0.57689150783E+03  0.36638765974E+04  0.36181746654E+04 0.  0.
        3    1    3    3  502    0 -0.63878096588E+03 -0.16377568634E+04 -0.72105183593E+03  0.19000537956E+04  0.10100000352E+00 0.  1.
       -3    1    3    3    0  502  0.63878096588E+03  0.16377568634E+04  0.14416032810E+03  0.17638228018E+04  0.10100000352E+00 0. -1.
</event>
<event>
 5   0  0.1361743E-07  0.3605951E+04  0.7818609E-02  0.8089130E-01
       -1   -1    0    0    0  501  0.00000000000E+00  0.00000000000E+00  0.36921753522E+04  0.36921753522E+04  0.50400001928E-02 0. -1.
        1   -1    0    0  501    0  0.00000000000E+00  0.00000000000E+00 -0.88043519968E+03  0.88043519969E+03  0.50400001928E-02 0.  1.
    10030    2    1    2    0    0  0.00000000000E+00  0.00000000000E+00  0.28117401525E+04  0.45726105518E+04  0.36059512717E+04 0.  0.
        5    1    3    3  502    0  0.13188690342E+04 -0.65759618972E+03  0.27229891820E+04  0.30962138901E+04  0.46999998093E+01 0. -1.
       -5    1    3    3    0  502 -0.13188690342E+04  0.65759618972E+03  0.88750970442E+02  0.14763966617E+04  0.46999998093E+01 0.  1.
</event>
<event>
 5   0  0.1370997E-07  0.3585734E+04  0.7818609E-02  0.8093767E-01
        1   -1    0    0  501    0  0.00000000000E+00  0.00000000000E+00  0.29978841704E+04  0.29978841704E+04  0.50400001928E-02 0. -1.
       -1   -1    0    0    0  501  0.00000000000E+00  0.00000000000E+00 -0.10722137578E+04  0.10722137578E+04  0.50400001928E-02 0.  1.
    10030    2    1    2    0    0  0.00000000000E+00  0.00000000000E+00  0.19256704126E+04  0.40700979282E+04  0.35857343191E+04 0.  0.
        3    1    3    3  502    0  0.54621436786E+03  0.75886536319E+03  0.26992289612E+04  0.28565825334E+04  0.10100000352E+00 0. -1.
       -3    1    3    3    0  502 -0.54621436786E+03 -0.75886536319E+03 -0.77355854857E+03  0.12135153948E+04  0.10100000352E+00 0.  1.
</event>
<event>
 5   0  0.4120440E-07  0.3590116E+04  0.7818609E-02  0.8092759E-01
       -2   -1    0    0    0  501  0.00000000000E+00  0.00000000000E+00  0.17250784543E+04  0.17250784543E+04  0.25500000920E-02 0.  1.
        2   -1    0    0  501    0  0.00000000000E+00  0.00000000000E+00 -0.18678767429E+04  0.18678767429E+04  0.25500000920E-02 0. -1.
    10030    2    1    2    0    0  0.00000000000E+00  0.00000000000E+00 -0.14279828853E+03  0.35929551972E+04  0.35901163906E+04 0.  0.
        2    1    3    3  502    0 -0.74636329358E+03 -0.54477824295E+03  0.14687759806E+04  0.17352649311E+04  0.25500000920E-02 0.  1.
       -2    1    3    3    0  502  0.74636329358E+03  0.54477824295E+03 -0.16115742691E+04  0.18576902661E+04  0.25500000920E-02 0. -1.
</event>
<event>
 5   0  0.4120440E-07  0.3572695E+04  0.7818609E-02  0.8096775E-01
        2   -1    0    0  501    0  0.00000000000E+00  0.00000000000E+00  0.21303132037E+04  0.21303132037E+04  0.25500000920E-02 0.  1.
       -2   -1    0    0    0  501  0.00000000000E+00  0.00000000000E+00 -0.14979196322E+04  0.14979196322E+04  0.25500000920E-02 0. -1.
    10030    2    1    2    0    0  0.00000000000E+00  0.00000000000E+00  0.63239357149E+03  0.36282328359E+04  0.35726953245E+04 0.  0.
        2    1    3    3  502    0  0.55398872011E+03  0.16043776163E+04  0.88172581871E+03  0.19126869731E+04  0.25500000920E-02 0.  1.
       -2    1    3    3    0  502 -0.55398872011E+03 -0.16043776163E+04 -0.24933224722E+03  0.17155458628E+04  0.25500000920E-02 0. -1.
</event>
<event>
 5   0  0.4200635E-07  0.3600493E+04  0.7818609E-02  0.8090379E-01
        2   -1    0    0  501    0  0.00000000000E+00  0.00000000000E+00  0.25117668102E+04  0.25117668102E+04  0.25500000920E-02 0.  1.
       -2   -1    0    0    0  501  0.00000000000E+00  0.00000000000E+00 -0.12902818962E+04  0.12902818962E+04  0.25500000920E-02 0. -1.
    10030    2    1    2    0    0  0.00000000000E+00  0.00000000000E+00  0.12214849141E+04  0.38020487064E+04  0.36004928788E+04 0.  0.
        4    1    3    3  502    0 -0.11657947320E+04  0.12289580741E+04 -0.32860132028E+02  0.16942540265E+04  0.12699999809E+01 0.  1.
       -4    1    3    3    0  502  0.11657947320E+04 -0.12289580741E+04  0.12543450461E+04  0.21077946799E+04  0.12699999809E+01 0. -1.
</event>
<event>
 5   0  0.1370997E-07  0.3356695E+04  0.7818609E-02  0.8148617E-01
        1   -1    0    0  501    0  0.00000000000E+00  0.00000000000E+00  0.25426976514E+04  0.25426976514E+04  0.50400001928E-02 0. -1.
       -1   -1    0    0    0  501  0.00000000000E+00  0.00000000000E+00 -0.11078193977E+04  0.11078193977E+04  0.50400001928E-02 0.  1.
    10030    2    1    2    0    0  0.00000000000E+00  0.00000000000E+00  0.14348782536E+04  0.36505170491E+04  0.33566946723E+04 0.  0.
        3    1    3    3  502    0  0.11059951883E+04 -0.46770242620E+03  0.19926287152E+04  0.23264866478E+04  0.10100000352E+00 0. -1.
       -3    1    3    3    0  502 -0.11059951883E+04  0.46770242620E+03 -0.55775046154E+03  0.13240304013E+04  0.10100000352E+00 0.  1.
</event>
<event>
 5   0  0.1348226E-07  0.3608967E+04  0.7818609E-02  0.8088441E-01
       -1   -1    0    0    0  501  0.00000000000E+00  0.00000000000E+00  0.17808939151E+04  0.17808939151E+04  0.50400001928E-02 0.  1.
        1   -1    0    0  501    0  0.00000000000E+00  0.00000000000E+00 -0.18283850855E+04  0.18283850855E+04  0.50400001928E-02 0. -1.
    10030    2    1    2    0    0  0.00000000000E+00  0.00000000000E+00 -0.47491170402E+02  0.36092790005E+04  0.36089665408E+04 0.  0.
        4    1    3    3  502    0  0.12169635137E+04  0.10684029718E+04 -0.81985040632E+03  0.18151147087E+04  0.12699999809E+01 0. -1.
       -4    1    3    3    0  502 -0.12169635137E+04 -0.10684029718E+04  0.77235923592E+03  0.17941642919E+04  0.12699999809E+01 0.  1.
</event>
<event>
 5   0  0.3880259E-07  0.3586225E+04  0.7818609E-02  0.8093654E-01
        2   -1    0    0  501    0  0.00000000000E+00  0.00000000000E+00  0.22281177224E+04  0.22281177224E+04  0.25500000920E-02 0.  1.
       -2   -1    0    0    0  501  0.00000000000E+00  0.00000000000E+00 -0.14430349579E+04  0.14430349579E+04  0.25500000920E-02 0. -1.
    10030    2    1    2    0    0  0.00000000000E+00  0.00000000000E+00  0.78508276449E+03  0.36711526802E+04  0.35862246241E+04 0.  0.
        5    1    3    3  502    0 -0.16267100431E+04  0.59189892170E+03 -0.86186946474E+02  0.17331994050E+04  0.46999998093E+01 0. -1.
       -5    1    3    3    0  502  0.16267100431E+04 -0.59189892170E+03  0.87126971096E+03  0.19379532752E+04  0.46999998093E+01 0.  1.
</event>
<event>
 5   0  0.1361743E-07  0.3588957E+04  0.7818609E-02  0.8093026E-01
       -1   -1    0    0    0  501  0.00000000000E+00  0.00000000000E+00  0.18954972889E+04  0.18954972889E+04  0.50400001928E-02 0. -1.
        1   -1    0    0  501    0  0.00000000000E+00  0.00000000000E+00 -0.16988438268E+04  0.16988438268E+04  0.50400001928E-02 0.  1.
    10030    2    1    2    0    0  0.00000000000E+00  0.00000000000E+00  0.19665346207E+03  0.35943411158E+04  0.35889574353E+04 0.  0.
        5    1    3    3  502    0 -0.13439382470E+04 -0.95750975681E+03  0.80446370688E+03  0.18358046987E+04  0.46999998093E+01 0. -1.
       -5    1    3    3    0  502  0.13439382470E+04  0.95750975681E+03 -0.60781024482E+03  0.17585364170E+04  0.46999998093E+01 0.  1.
</event>
<event>
 5   0  0.1298250E-07  0.3633420E+04  0.7818609E-02  0.8082879E-01
        1   -1    0    0  501    0  0.00000000000E+00  0.00000000000E+00  0.29190995083E+04  0.29190995083E+04  0.50400001928E-02 0. -1.
       -1   -1    0    0    0  501  0.00000000000E+00  0.00000000000E+00 -0.11306348776E+04  0.11306348776E+04  0.50400001928E-02 0.  1.
    10030    2    1    2    0    0  0.00000000000E+00  0.00000000000E+00  0.17884646307E+04  0.40497343859E+04  0.36334202704E+04 0.  0.
        2    1    3    3  502    0 -0.17764332192E+04 -0.22269977288E+03  0.12379955934E+04  0.21766817086E+04  0.25500000920E-02 0.  1.
       -2    1    3    3    0  502  0.17764332192E+04  0.22269977288E+03  0.55046903728E+03  0.18730526774E+04  0.25500000920E-02 0. -1.
</event>
<event>
 5   0  0.4115358E-07  0.3606120E+04  0.7818609E-02  0.8089091E-01
        2   -1    0    0  501    0  0.00000000000E+00  0.00000000000E+00  0.15959694255E+04  0.15959694255E+04  0.25500000920E-02 0. -1.
       -2   -1    0    0    0  501  0.00000000000E+00  0.00000000000E+00 -0.20370221450E+04  0.20370221450E+04  0.25500000920E-02 0.  1.
    10030    2    1    2    0    0  0.00000000000E+00  0.00000000000E+00 -0.44105271956E+03  0.36329915705E+04  0.36061198330E+04 0.  0.
        3    1    3    3  502    0  0.65260269458E+03 -0.16496057158E+04  0.10426669132E+03  0.17770652345E+04  0.10100000352E+00 0. -1.
       -3    1    3    3    0  502 -0.65260269458E+03  0.16496057158E+04 -0.54531941088E+03  0.18559263360E+04  0.10100000352E+00 0.  1.
</event>
<event>
 5   0  0.1370997E-07  0.3591766E+04  0.7818609E-02  0.8092380E-01
        1   -1    0    0  501    0  0.00000000000E+00  0.00000000000E+00  0.25587622601E+04  0.25587622601E+04  0.50400001928E-02 0. -1.
       -1   -1    0    0    0  501  0.00000000000E+00  0.00000000000E+00 -0.12604515413E+04  0.12604515414E+04  0.50400001928E-02 0.  1.
    10030    2    1    2    0    0  0.00000000000E+00  0.00000000000E+00  0.12983107188E+04  0.38192138015E+04  0.35917660473E+04 0.  0.
        3    1    3    3  502    0 -0.10933358462E+04 -0.13147748348E+04  0.12327062930E+04  0.21079803020E+04  0.10100000352E+00 0. -1.
       -3    1    3    3    0  502  0.10933358462E+04  0.13147748348E+04  0.65604425726E+02  0.17112334994E+04  0.10100000352E+00 0.  1.
</event>
<event>
 5   0  0.1370997E-07  0.3598285E+04  0.7818609E-02  0.8090885E-01
        1   -1    0    0  501    0  0.00000000000E+00  0.00000000000E+00  0.24246966469E+04  0.24246966469E+04  0.50400001928E-02 0. -1.
       -1   -1    0    0    0  501  0.00000000000E+00  0.00000000000E+00 -0.13349765251E+04  0.13349765251E+04  0.50400001928E-02 0.  1.
    10030    2    1    2    0    0  0.00000000000E+00  0.00000000000E+00  0.10897201218E+04  0.37596731720E+04  0.35982846492E+04 0.  0.
        3    1    3    3  502    0  0.97932544226E+03 -0.11590577849E+04 -0.46514976524E+03  0.15870909189E+04  0.10100000352E+00 0.  1.
       -3    1    3    3    0  502 -0.97932544226E+03  0.11590577849E+04  0.15548698870E+04  0.21725822531E+04  0.10100000352E+00 0. -1.
</event>
<event>
 5   0  0.1370997E-07  0.3581680E+04  0.7818609E-02  0.8094701E-01
        1   -1    0    0  501    0  0.00000000000E+00  0.00000000000E+00  0.12380389414E+04  0.12380389414E+04  0.50400001928E-02 0.  1.
       -1   -1    0    0    0  501  0.00000000000E+00  0.00000000000E+00 -0.25904735451E+04  0.25904735451E+04  0.50400001928E-02 0. -1.
    10030    2    1    2    0    0  0.00000000000E+00  0.00000000000E+00 -0.13524346037E+04  0.38285124865E+04  0.35816795644E+04 0.  0.
        3    1    3    3  502    0  0.13575116545E+04  0.19452427608E+03  0.55486029945E+03  0.14793740393E+04  0.10100000352E+00 0.  1.
       -3    1    3    3    0  502 -0.13575116545E+04 -0.19452427608E+03 -0.19072949032E+04  0.23491384472E+04  0.10100000352E+00 0. -1.
</event>
<event>
 5   0  0.1298250E-07  0.3640835E+04  0.7818609E-02  0.8081202E-01
       -4   -1    0    0    0  501  0.00000000000E+00  0.00000000000E+00  0.21341837029E+04  0.21341840808E+04  0.12699999809E+01 0.  1.
        4   -1    0    0  501    0  0.00000000000E+00  0.00000000000E+00 -0.15527798282E+04  0.15527803476E+04  0.12699999809E+01 0. -1.
    10030    2    1    2    0    0  0.00000000000E+00  0.00000000000E+00  0.58140387473E+03  0.36869644284E+04  0.36408345514E+04 0.  0.
        3    1    3    3  502    0 -0.10270762325E+04 -0.98357385801E+02 -0.12280869768E+04  0.16039817317E+04  0.10100000352E+00 0. -1.
       -3    1    3    3    0  502  0.10270762325E+04  0.98357385801E+02  0.18094908515E+04  0.20829826967E+04  0.10100000352E+00 0.  1.
</event>
<event>
 5   0  0.1348226E-07  0.3463508E+04  0.7818609E-02  0.8122493E-01
        1   -1    0    0  501    0  0.00000000000E+00  0.00000000000E+00  0.95391620876E+03  0.95391620877E+03  0.50400001928E-02 0.  1.
       -1   -1    0    0    0  501  0.00000000000E+00  0.00000000000E+00 -0.31438526481E+04  0.31438526481E+04  0.50400001928E-02 0. -1.
    10030    2    1    2    0    0  0.00000000000E+00  0.00000000000E+00 -0.21899364393E+04  0.40977688569E+04  0.34635080476E+04 0.  0.
        4    1    3    3  502    0  0.43225135893E+03  0.16086936221E+04 -0.16552183523E+04  0.23482942350E+04  0.12699999809E+01 0. -1.
       -4    1    3    3    0  502 -0.43225135893E+03 -0.16086936221E+04 -0.53471808702E+03  0.17494746219E+04  0.12699999809E+01 0.  1.
</event>
<event>
 5   0  0.1348226E-07  0.3601800E+04  0.7818609E-02  0.8090080E-01
        1   -1    0    0  501    0  0.00000000000E+00  0.00000000000E+00  0.21652423759E+04  0.21652423759E+04  0.50400001928E-02 0.  1.
       -1   -1    0    0    0  501  0.00000000000E+00  0.00000000000E+00 -0.14978647486E+04  0.14978647486E+04  0.50400001928E-02 0. -1.
    10030    2    1    2    0    0  0.00000000000E+00  0.00000000000E+00  0.66737762731E+03  0.36631071244E+04  0.36017996762E+04 0.  0.
        4    1    3    3  502    0  0.10937188964E+04 -0.10325026979E+04 -0.67360177761E+03  0.16480363507E+04  0.12699999809E+01 0. -1.
       -4    1    3    3    0  502 -0.10937188964E+04  0.10325026979E+04  0.13409794049E+04  0.20150707737E+04  0.12699999809E+01 0.  1.
</event>
<event>
 5   0  0.4115358E-07  0.3619121E+04  0.7818609E-02  0.8086126E-01
       -2   -1    0    0    0  501  0.00000000000E+00  0.00000000000E+00  0.13744921196E+04  0.13744921196E+04  0.25500000920E-02 0.  1.
        2   -1    0    0  501    0  0.00000000000E+00  0.00000000000E+00 -0.23823410558E+04  0.23823410558E+04  0.25500000920E-02 0. -1.
    10030    2    1    2    0    0  0.00000000000E+00  0.00000000000E+00 -0.10078489362E+04  0.37568331755E+04  0.36191208919E+04 0.  0.
        3    1    3    3  502    0  0.48299903222E+03  0.17126926312E+04 -0.16293625305E+03  0.17869393797E+04  0.10100000352E+00 0.  1.
       -3    1    3    3    0  502 -0.48299903222E+03 -0.17126926312E+04 -0.84491268317E+03  0.19698937957E+04  0.10100000352E+00 0. -1.
</event>
<event>
 5   0  0.4200635E-07  0.3607557E+04  0.7818609E-02  0.8088763E-01
        2   -1    0    0  501    0  0.00000000000E+00  0.00000000000E+00  0.18010820035E+04  0.18010820035E+04  0.25500000920E-02 0.  1.
       -2   -1    0    0    0  501  0.00000000000E+00  0.00000000000E+00 -0.18064787779E+04  0.18064787779E+04  0.25500000920E-02 0. -1.
    10030    2    1    2    0    0  0.00000000000E+00  0.00000000000E+00 -0.53967743856E+01  0.36075607813E+04  0.36075567446E+04 0.  0.
        4    1    3    3  502    0 -0.12689039674E+04  0.23172759657E+02 -0.12844800476E+04  0.18056978875E+04  0.12699999809E+01 0. -1.
       -4    1    3    3    0  502  0.12689039674E+04 -0.23172759657E+02  0.12790832732E+04  0.18018628938E+04  0.12699999809E+01 0.  1.
</event>
<event>
 5   0  0.4200635E-07  0.3607718E+04  0.7818609E-02  0.8088726E-01
        2   -1    0    0  501    0  0.00000000000E+00  0.00000000000E+00  0.28559274981E+04  0.28559274981E+04  0.25500000920E-02 0.  1.
       -2   -1    0    0    0  501  0.00000000000E+00  0.00000000000E+00 -0.11393520903E+04  0.11393520903E+04  0.25500000920E-02 0. -1.
    10030    2    1    2    0    0  0.00000000000E+00  0.00000000000E+00  0.17165754078E+04  0.39952795884E+04  0.36077178187E+04 0.  0.
        4    1    3    3  502    0  0.15936261426E+04  0.67478845990E+03  0.14217939827E+04  0.22397507651E+04  0.12699999809E+01 0. -1.
       -4    1    3    3    0  502 -0.15936261426E+04 -0.67478845990E+03  0.29478142508E+03  0.17555288233E+04  0.12699999809E+01 0.  1.
</event>
<event>
 5   0  0.1361743E-07  0.3592434E+04  0.7818609E-02  0.8092227E-01
       -1   -1    0    0    0  501  0.00000000000E+00  0.00000000000E+00  0.27008073672E+04  0.27008073672E+04  0.50400001928E-02 0.  1.
        1   -1    0    0  501    0  0.00000000000E+00  0.00000000000E+00 -0.11946043556E+04  0.11946043556E+04  0.50400001928E-02 0. -1.
    10030    2    1    2    0    0  0.00000000000E+00  0.00000000000E+00  0.15062030116E+04  0.38954117228E+04  0.35924344083E+04 0.  0.
        5    1    3    3  502    0  0.26513504169E+03 -0.12369100565E+04  0.21358471346E+04  0.24823593919E+04  0.46999998093E+01 0.  1.
       -5    1    3    3    0  502 -0.26513504169E+03  0.12369100565E+04 -0.62964412301E+03  0.14130523309E+04  0.46999998093E+01 0. -1.
</event>
<event>
 5   0  0.1370997E-07  0.3432516E+04  0.7818609E-02  0.8129972E-01
       -1   -1    0    0    0  501  0.00000000000E+00  0.00000000000E+00  0.11059638468E+04  0.11059638468E+04  0.50400001928E-02 0.  1.
        1   -1    0    0  501    0  0.00000000000E+00  0.00000000000E+00 -0.26633247192E+04  0.26633247192E+04  0.50400001928E-02 0. -1.
    10030    2    1    2    0    0  0.00000000000E+00  0.00000000000E+00 -0.15573608724E+04  0.37692885659E+04  0.34325156091E+04 0.  0.
        3    1    3    3  502    0 -0.89003969696E+03  0.53156058205E+03  0.72329253347E+03  0.12640725508E+04  0.10100000352E+00 0.  1.
       -3    1    3    3    0  502  0.89003969696E+03 -0.53156058205E+03 -0.22806534059E+04  0.25052160151E+04  0.10100000352E+00 0. -1.
</event>
<event>
 5   0  0.4200635E-07  0.3619891E+04  0.7818609E-02  0.8085950E-01
       -2   -1    0    0    0  501  0.00000000000E+00  0.00000000000E+00  0.13814624325E+04  0.13814624325E+04  0.25500000920E-02 0.  1.
        2   -1    0    0  501    0  0.00000000000E+00  0.00000000000E+00 -0.23713301169E+04  0.23713301169E+04  0.25500000920E-02 0. -1.
    10030    2    1    2    0    0  0.00000000000E+00  0.00000000000E+00 -0.98986768431E+03  0.37527925494E+04  0.36198914191E+04 0.  0.
        4    1    3    3  502    0  0.63123754094E+03  0.10616963952E+04  0.87660476978E+03  0.15146278764E+04  0.12699999809E+01 0.  1.
       -4    1    3    3    0  502 -0.63123754094E+03 -0.10616963952E+04 -0.18664724541E+04  0.22381646730E+04  0.12699999809E+01 0. -1.
</event>
<event>
 5   0  0.3880259E-07  0.3349694E+04  0.7818609E-02  0.8150365E-01
       -2   -1    0    0    0  501  0.00000000000E+00  0.00000000000E+00  0.12569780825E+04  0.12569780825E+04  0.25500000920E-02 0.  1.
        2   -1    0    0  501    0  0.00000000000E+00  0.00000000000E+00 -0.22316313831E+04  0.22316313831E+04  0.25500000920E-02 0. -1.
    10030    2    1    2    0    0  0.00000000000E+00  0.00000000000E+00 -0.97465330058E+03  0.34886094655E+04  0.33496935601E+04 0.  0.
        5    1    3    3  502    0  0.13724791894E+04  0.47965839742E+03 -0.13532636901E+04  0.19862316100E+04  0.46999998093E+01 0. -1.
       -5    1    3    3    0  502 -0.13724791894E+04 -0.47965839742E+03  0.37861038956E+03  0.15023778555E+04  0.46999998093E+01 0.  1.
</event>
<event>
 5   0  0.1361743E-07  0.3631183E+04  0.7818609E-02  0.8083386E-01
        1   -1    0    0  501    0  0.00000000000E+00  0.00000000000E+00  0.23633033167E+04  0.23633033167E+04  0.50400001928E-02 0. -1.
       -1   -1    0    0    0  501  0.00000000000E+00  0.00000000000E+00 -0.13948159830E+04  0.13948159830E+04  0.50400001928E-02 0.  1.
    10030    2    1    2    0    0  0.00000000000E+00  0.00000000000E+00  0.96848733367E+03  0.37581192997E+04  0.36311834098E+04 0.  0.
        5    1    3    3  502    0 -0.15733384949E+04 -0.65283067349E+03  0.11345141337E+04  0.20466378081E+04  0.46999998093E+01 0. -1.
       -5    1    3    3    0  502  0.15733384949E+04  0.65283067349E+03 -0.16602680006E+03  0.17114814916E+04  0.46999998093E+01 0.  1.
</event>
<event>
 5   0  0.1370997E-07  0.3599034E+04  0.7818609E-02  0.8090713E-01
       -1   -1    0    0    0  501  0.00000000000E+00  0.00000000000E+00  0.11378646935E+04  0.11378646935E+04  0.50400001928E-02 0.  1.
        1   -1    0    0  501    0  0.00000000000E+00  0.00000000000E+00 -0.28459112206E+04  0.28459112206E+04  0.50400001928E-02 0. -1.
    10030    2    1    2    0    0  0.00000000000E+00  0.00000000000E+00 -0.17080465271E+04  0.39837759142E+04  0.35990342587E+04 0.  0.
        3    1    3    3  502    0 -0.11768190067E+04  0.61641686885E+03  0.48956949882E+03  0.14158216820E+04  0.10100000352E+00 0.  1.
       -3    1    3    3    0  502  0.11768190067E+04 -0.61641686885E+03 -0.21976160260E+04  0.25679542322E+04  0.10100000352E+00 0. -1.
</event>
<event>
 5   0  0.4120440E-07  0.3620367E+04  0.7818609E-02  0.8085842E-01
        2   -1    0    0  501    0  0.00000000000E+00  0.00000000000E+00  0.18378069674E+04  0.18378069674E+04  0.25500000920E-02 0.  1.
       -2   -1    0    0    0  501  0.00000000000E+00  0.00000000000E+00 -0.17829748094E+04  0.17829748094E+04  0.25500000920E-02 0. -1.
    10030    2    1    2    0    0  0.00000000000E+00  0.00000000000E+00  0.54832157992E+02  0.36207817768E+04  0.36203665712E+04 0.  0.
        2    1    3    3  502    0  0.15867084586E+04  0.29483538844E+02 -0.84345959945E+03  0.17972025783E+04  0.25500000920E-02 0. -1.
       -2    1    3    3    0  502 -0.15867084586E+04 -0.29483538844E+02  0.89829175744E+03  0.18235791985E+04  0.25500000920E-02 0.  1.
</event>
<event>
 5   0  0.3880259E-07  0.3608314E+04  0.7818609E-02  0.8088590E-01
       -2   -1    0    0    0  501  0.00000000000E+00  0.00000000000E+00  0.29385941181E+04  0.29385941181E+04  0.25500000920E-02 0.  1.
        2   -1    0    0  501    0  0.00000000000E+00  0.00000000000E+00 -0.11076666063E+04  0.11076666063E+04  0.25500000920E-02 0. -1.
    10030    2    1    2    0    0  0.00000000000E+00  0.00000000000E+00  0.18309275118E+04  0.40462607243E+04  0.36083140517E+04 0.  0.
        5    1    3    3  502    0  0.53264233413E+03 -0.15447826063E+04  0.57853245767E+02  0.16350627649E+04  0.46999998093E+01 0. -1.
       -5    1    3    3    0  502 -0.53264233413E+03  0.15447826063E+04  0.17730742660E+04  0.24111979595E+04  0.46999998093E+01 0.  1.
</event>
<event>
 5   0  0.3993751E-07  0.3573315E+04  0.7818609E-02  0.8096632E-01
        2   -1    0    0  501    0  0.00000000000E+00  0.00000000000E+00  0.15231548072E+04  0.15231548072E+04  0.25500000920E-02 0. -1.
       -2   -1    0    0    0  501  0.00000000000E+00  0.00000000000E+00 -0.20957452959E+04  0.20957452959E+04  0.25500000920E-02 0.  1.
    10030    2    1    2    0    0  0.00000000000E+00  0.00000000000E+00 -0.57259048866E+03  0.36189001031E+04  0.35733147201E+04 0.  0.
        1    1    3    3  502    0  0.42191168055E+03  0.97912628430E+03  0.11656774336E+04  0.15797156788E+04  0.50400001928E-02 0. -1.
       -1    1    3    3    0  502 -0.42191168055E+03 -0.97912628430E+03 -0.17382679222E+04  0.20391844243E+04  0.50400001928E-02 0.  1.
</event>
<event>
 5   0  0.4200635E-07  0.3551865E+04  0.7818609E-02  0.8101608E-01
        2   -1    0    0  501    0  0.00000000000E+00  0.00000000000E+00  0.11760955477E+04  0.11760955477E+04  0.25500000920E-02 0.  1.
       -2   -1    0    0    0  501  0.00000000000E+00  0.00000000000E+00 -0.26817002329E+04  0.26817002329E+04  0.25500000920E-02 0. -1.
    10030    2    1    2    0    0  0.00000000000E+00  0.00000000000E+00 -0.15056046851E+04  0.38577957806E+04  0.35518646957E+04 0.  0.
        4    1    3    3  502    0 -0.22187048031E+03  0.16464345518E+04 -0.14345275490E+04  0.21949588026E+04  0.12699999809E+01 0.  1.
       -4    1    3    3    0  502  0.22187048031E+03 -0.16464345518E+04 -0.71077136094E+02  0.16628369780E+04  0.12699999809E+01 0. -1.
</event>
<event>
 5   0  0.3880259E-07  0.3598960E+04  0.7818609E-02  0.8090730E-01
       -2   -1    0    0    0  501  0.00000000000E+00  0.00000000000E+00  0.12647898833E+04  0.12647898833E+04  0.25500000920E-02 0.  1.
        2   -1    0    0  501    0  0.00000000000E+00  0.00000000000E+00 -0.25602101681E+04  0.25602101681E+04  0.25500000920E-02 0. -1.
    10030    2    1    2    0    0  0.00000000000E+00  0.00000000000E+00 -0.12954202848E+04  0.38250000513E+04  0.35989598051E+04 0.  0.
        5    1    3    3  502    0  0.37403994087E+03  0.16911509823E+04 -0.11664300319E+04  0.20881759101E+04  0.46999998093E+01 0.  1.
       -5    1    3    3    0  502 -0.37403994087E+03 -0.16911509823E+04 -0.12899025290E+03  0.17368241412E+04  0.46999998093E+01 0. -1.
</event>
<event>
 5   0  0.4115358E-07  0.3604553E+04  0.7818609E-02  0.8089450E-01
       -2   -1    0    0    0  501  0.00000000000E+00  0.00000000000E+00  0.17865778043E+04  0.17865778043E+04  0.25500000920E-02 0.  1.
        2   -1    0    0  501    0  0.00000000000E+00  0.00000000000E+00 -0.18181132235E+04  0.18181132235E+04  0.25500000920E-02 0. -1.
    10030    2    1    2    0    0  0.00000000000E+00  0.00000000000E+00 -0.31535419239E+02  0.36046910278E+04  0.36045530824E+04 0.  0.
        3    1    3    3  502    0 -0.88121713360E+03  0.13994699874E+04 -0.73213361810E+03  0.18086125973E+04  0.10100000352E+00 0. -1.
       -3    1    3    3    0  502  0.88121713360E+03 -0.13994699874E+04  0.70059819887E+03  0.17960784305E+04  0.10100000352E+00 0.  1.
</event>
<event>
 5   0  0.1348226E-07  0.3618224E+04  0.7818609E-02  0.8086330E-01
        1   -1    0    0  501    0  0.00000000000E+00  0.00000000000E+00  0.16245292824E+04  0.16245292824E+04  0.50400001928E-02 0. -1.
       -1   -1    0    0    0  501  0.00000000000E+00  0.00000000000E+00 -0.20146676565E+04  0.20146676565E+04  0.50400001928E-02 0.  1.
    10030    2    1    2    0    0  0.00000000000E+00  0.00000000000E+00 -0.39013837411E+03  0.36391969388E+04  0.36182242065E+04 0.  0.
        4    1    3    3  502    0 -0.11703325554E+04 -0.24576934121E+03 -0.15604370363E+04  0.19659720792E+04  0.12699999809E+01 0.  1.
       -4    1    3    3    0  502  0.11703325554E+04  0.24576934121E+03  0.11702986621E+04  0.16732248596E+04  0.12699999809E+01 0. -1.
</event>
<event>
 5   0  0.3880259E-07  0.3597646E+04  0.7818609E-02  0.8091031E-01
        2   -1    0    0  501    0  0.00000000000E+00  0.00000000000E+00  0.21269337535E+04  0.21269337535E+04  0.25500000920E-02 0. -1.
       -2   -1    0    0    0  501  0.00000000000E+00  0.00000000000E+00 -0.15213278825E+04  0.15213278825E+04  0.25500000920E-02 0.  1.
    10030    2    1    2    0    0  0.00000000000E+00  0.00000000000E+00  0.60560587099E+03  0.36482616360E+04  0.35976456876E+04 0.  0.
        5    1    3    3  502    0 -0.55966300658E+03 -0.70829603432E+03 -0.12749908217E+04  0.15622194591E+04  0.46999998093E+01 0.  1.
       -5    1    3    3    0  502  0.55966300658E+03  0.70829603432E+03  0.18805966927E+04  0.20860421768E+04  0.46999998093E+01 0. -1.
</event>
<event>
 5   0  0.1361743E-07  0.3587659E+04  0.7818609E-02  0.8093324E-01
       -1   -1    0    0    0  501  0.00000000000E+00  0.00000000000E+00  0.15561818894E+04  0.15561818894E+04  0.50400001928E-02 0. -1.
        1   -1    0    0  501    0  0.00000000000E+00  0.00000000000E+00 -0.20677682694E+04  0.20677682694E+04  0.50400001928E-02 0.  1.
    10030    2    1    2    0    0  0.00000000000E+00  0.00000000000E+00 -0.51158638002E+03  0.36239501589E+04  0.35876585860E+04 0.  0.
        5    1    3    3  502    0  0.68751304322E+03  0.16744144279E+03 -0.19208274360E+04  0.20470249022E+04  0.46999998093E+01 0.  1.
       -5    1    3    3    0  502 -0.68751304322E+03 -0.16744144279E+03  0.14092410560E+04  0.15769252567E+04  0.46999998093E+01 0. -1.
</event>
<event>
 5   0  0.1361743E-07  0.3737445E+04  0.7818609E-02  0.8059714E-01
        1   -1    0    0  501    0  0.00000000000E+00  0.00000000000E+00  0.35183150721E+04  0.35183150721E+04  0.50400001928E-02 0.  1.
       -1   -1    0    0    0  501  0.00000000000E+00  0.00000000000E+00 -0.99255572926E+03  0.99255572928E+03  0.50400001928E-02 0. -1.
    10030    2    1    2    0    0  0.00000000000E+00  0.00000000000E+00  0.25257593428E+04  0.45108708013E+04  0.37374450001E+04 0.  0.
        5    1    3    3  502    0  0.12195588485E+04 -0.11887742141E+04  0.33456037946E+03  0.17356441612E+04  0.46999998093E+01 0. -1.
       -5    1    3    3    0  502 -0.12195588485E+04  0.11887742141E+04  0.21911989633E+04  0.27752266401E+04  0.46999998093E+01 0.  1.
</event>
<event>
 5   0  0.1361743E-07  0.3602815E+04  0.7818609E-02  0.8089847E-01
       -1   -1    0    0    0  501  0.00000000000E+00  0.00000000000E+00  0.13159281778E+04  0.13159281778E+04  0.50400001928E-02 0. -1.
        1   -1    0    0  501    0  0.00000000000E+00  0.00000000000E+00 -0.24659918584E+04  0.24659918585E+04  0.50400001928E-02 0.  1.
    10030    2    1    2    0    0  0.00000000000E+00  0.00000000000E+00 -0.11500636806E+04  0.37819200363E+04  0.36028145513E+04 0.  0.
        5    1    3    3  502    0 -0.13417590256E+04  0.11426452713E+04 -0.96652060178E+03  0.20100098663E+04  0.46999998093E+01 0.  1.
       -5    1    3    3    0  502  0.13417590256E+04 -0.11426452713E+04 -0.18354307886E+03  0.17719101700E+04  0.46999998093E+01 0. -1.
</event>
<event>
 5   0  0.1298250E-07  0.3678946E+04  0.7818609E-02  0.8072644E-01
        1   -1    0    0  501    0  0.00000000000E+00  0.00000000000E+00  0.19453311046E+04  0.19453311046E+04  0.50400001928E-02 0. -1.
       -1   -1    0    0    0  501  0.00000000000E+00  0.00000000000E+00 -0.17393755055E+04  0.17393755055E+04  0.50400001928E-02 0.  1.
    10030    2    1    2    0    0  0.00000000000E+00  0.00000000000E+00  0.20595559916E+03  0.36847066101E+04  0.36789461934E+04 0.  0.
        1    1    3    3  502    0  0.15663446120E+04  0.69670318597E+03 -0.56502265231E+03  0.18050156150E+04  0.50400001928E-02 0.  1.
       -1    1    3    3    0  502 -0.15663446120E+04 -0.69670318597E+03  0.77097825147E+03  0.18796909951E+04  0.50400001928E-02 0. -1.
</event>
<event>
 5   0  0.4115358E-07  0.3594317E+04  0.7818609E-02  0.8091795E-01
        2   -1    0    0  501    0  0.00000000000E+00  0.00000000000E+00  0.19367857344E+04  0.19367857344E+04  0.25500000920E-02 0.  1.
       -2   -1    0    0    0  501  0.00000000000E+00  0.00000000000E+00 -0.16675975170E+04  0.16675975170E+04  0.25500000920E-02 0. -1.
    10030    2    1    2    0    0  0.00000000000E+00  0.00000000000E+00  0.26918821742E+03  0.36043832515E+04  0.35943172268E+04 0.  0.
        3    1    3    3  502    0  0.14554482934E+04  0.49740303072E+03  0.10667345976E+04  0.18718072074E+04  0.10100000352E+00 0.  1.
       -3    1    3    3    0  502 -0.14554482934E+04 -0.49740303072E+03 -0.79754638021E+03  0.17325760441E+04  0.10100000352E+00 0. -1.
</event>
<event>
 5   0  0.3880259E-07  0.3641844E+04  0.7818609E-02  0.8080974E-01
       -2   -1    0    0    0  501  0.00000000000E+00  0.00000000000E+00  0.27416655764E+04  0.27416655764E+04  0.25500000920E-02 0. -1.
        2   -1    0    0  501    0  0.00000000000E+00  0.00000000000E+00 -0.12093947758E+04  0.12093947759E+04  0.25500000920E-02 0.  1.
    10030    2    1    2    0    0  0.00000000000E+00  0.00000000000E+00  0.15322708006E+04  0.39510603523E+04  0.36418435031E+04 0.  0.
        5    1    3    3  502    0  0.10796193368E+04 -0.13040077545E+04  0.38584490622E+02  0.16933768007E+04  0.46999998093E+01 0. -1.
       -5    1    3    3    0  502 -0.10796193368E+04  0.13040077545E+04  0.14936863100E+04  0.22576835515E+04  0.46999998093E+01 0.  1.
</event>
<event>
 5   0  0.1348226E-07  0.3599690E+04  0.7818609E-02  0.8090563E-01
        1   -1    0    0  501    0  0.00000000000E+00  0.00000000000E+00  0.15370269040E+04  0.15370269040E+04  0.50400001928E-02 0.  1.
       -1   -1    0    0    0  501  0.00000000000E+00  0.00000000000E+00 -0.21076029033E+04  0.21076029033E+04  0.50400001928E-02 0. -1.
    10030    2    1    2    0    0  0.00000000000E+00  0.00000000000E+00 -0.57057599928E+03  0.36446298073E+04  0.35996901896E+04 0.  0.
        4    1    3    3  502    0  0.59801286605E+03 -0.81206244619E+03 -0.17946626865E+04  0.20586113221E+04  0.12699999809E+01 0. -1.
       -4    1    3    3    0  502 -0.59801286605E+03  0.81206244619E+03  0.12240866872E+04  0.15860184851E+04  0.12699999809E+01 0.  1.
</event>
<event>
 5   0  0.4120440E-07  0.3651090E+04  0.7818609E-02  0.8078888E-01
       -2   -1    0    0    0  501  0.00000000000E+00  0.00000000000E+00  0.14145730890E+04  0.14145730890E+04  0.25500000920E-02 0.  1.
        2   -1    0    0  501    0  0.00000000000E+00  0.00000000000E+00 -0.23559150313E+04  0.23559150313E+04  0.25500000920E-02 0. -1.
    10030    2    1    2    0    0  0.00000000000E+00  0.00000000000E+00 -0.94134194229E+03  0.37704881203E+04  0.36510897022E+04 0.  0.
        2    1    3    3  502    0 -0.66019917339E+03 -0.77384707242E+03  0.10947882095E+04  0.14944107413E+04  0.25500000920E-02 0.  1.
       -2    1    3    3    0  502  0.66019917339E+03  0.77384707242E+03 -0.20361301518E+04  0.22760773790E+04  0.25500000920E-02 0. -1.
</event>
<event>
 5   0  0.4120440E-07  0.3591312E+04  0.7818609E-02  0.8092485E-01
        2   -1    0    0  501    0  0.00000000000E+00  0.00000000000E+00  0.21654000864E+04  0.21654000864E+04  0.25500000920E-02 0.  1.
       -2   -1    0    0    0  501  0.00000000000E+00  0.00000000000E+00 -0.14890459976E+04  0.14890459976E+04  0.25500000920E-02 0. -1.
    10030    2    1    2    0    0  0.00000000000E+00  0.00000000000E+00  0.67635408880E+03  0.36544460840E+04  0.35913119229E+04 0.  0.
        2    1    3    3  502    0  0.11014246655E+04  0.72287513783E+03  0.15797475298E+04  0.20570092408E+04  0.25500000920E-02 0.  1.
       -2    1    3    3    0  502 -0.11014246655E+04 -0.72287513783E+03 -0.90339344103E+03  0.15974368432E+04  0.25500000920E-02 0. -1.
</event>
<event>
 5   0  0.1298250E-07  0.3557418E+04  0.7818609E-02  0.8100316E-01
        1   -1    0    0  501    0  0.00000000000E+00  0.00000000000E+00  0.17710866158E+04  0.17710866158E+04  0.50400001928E-02 0.  1.
       -1   -1    0    0    0  501  0.00000000000E+00  0.00000000000E+00 -0.17863644859E+04  0.17863644859E+04  0.50400001928E-02 0. -1.
    10030    2    1    2    0    0  0.00000000000E+00  0.00000000000E+00 -0.15277870051E+02  0.35574511017E+04  0.35574182953E+04 0.  0.
        1    1    3    3  502    0 -0.17933244259E+03  0.10155561322E+04 -0.14568906685E+04  0.17849495238E+04  0.50400001928E-02 0. -1.
       -1    1    3    3    0  502  0.17933244259E+03 -0.10155561322E+04  0.14416127984E+04  0.17725015778E+04  0.50400001928E-02 0.  1.
</event>
<event>
 5   0  0.3880259E-07  0.3530889E+04  0.7818609E-02  0.8106508E-01
       -2   -1    0    0    0  501  0.00000000000E+00  0.00000000000E+00  0.10613848693E+04  0.10613848693E+04  0.25500000920E-02 0.  1.
        2   -1    0    0  501    0  0.00000000000E+00  0.00000000000E+00 -0.29365356242E+04  0.29365356242E+04  0.25500000920E-02 0. -1.
    10030    2    1    2    0    0  0.00000000000E+00  0.00000000000E+00 -0.18751507549E+04  0.39979204935E+04  0.35308891117E+04 0.  0.
        5    1    3    3  502    0  0.13764870331E+04 -0.80942046588E+03 -0.85062127784E+02  0.15991046553E+04  0.46999998093E+01 0.  1.
       -5    1    3    3    0  502 -0.13764870331E+04  0.80942046588E+03 -0.17900886271E+04  0.23988158383E+04  0.46999998093E+01 0. -1.
</event>
<event>
 5   0  0.1370997E-07  0.3383343E+04  0.7818609E-02  0.8142007E-01
        1   -1    0    0  501    0  0.00000000000E+00  0.00000000000E+00  0.22181492024E+04  0.22181492024E+04  0.50400001928E-02 0.  1.
       -1   -1    0    0    0  501  0.00000000000E+00  0.00000000000E+00 -0.12901535914E+04  0.12901535914E+04  0.50400001928E-02 0. -1.
    10030    2    1    2    0    0  0.00000000000E+00  0.00000000000E+00  0.92799561108E+03  0.35083027938E+04  0.33833434113E+04 0.  0.
        3    1    3    3  502    0 -0.33046513346E+03 -0.44047210601E+03  0.21226153991E+04  0.21928791629E+04  0.10100000352E+00 0.  1.
       -3    1    3    3    0  502  0.33046513346E+03  0.44047210601E+03 -0.11946197880E+04  0.13154236309E+04  0.10100000352E+00 0. -1.
</event>
<event>
 5   0  0.4200635E-07  0.3475644E+04  0.7818609E-02  0.8119586E-01
        2   -1    0    0  501    0  0.00000000000E+00  0.00000000000E+00  0.17818155348E+04  0.17818155348E+04  0.25500000920E-02 0. -1.
       -2   -1    0    0    0  501  0.00000000000E+00  0.00000000000E+00 -0.16949143441E+04  0.16949143441E+04  0.25500000920E-02 0.  1.
    10030    2    1    2    0    0  0.00000000000E+00  0.00000000000E+00  0.86901190724E+02  0.34767298788E+04  0.34756436574E+04 0.  0.
        4    1    3    3  502    0  0.69416375703E+03 -0.36781775165E+03  0.15940543546E+04  0.17771224264E+04  0.12699999809E+01 0. -1.
       -4    1    3    3    0  502 -0.69416375703E+03  0.36781775165E+03 -0.15071531639E+04  0.16996074524E+04  0.12699999809E+01 0.  1.
</event>
<event>
 5   0  0.3880259E-07  0.3571397E+04  0.7818609E-02  0.8097075E-01
       -2   -1    0    0    0  501  0.00000000000E+00  0.00000000000E+00  0.11257395425E+04  0.11257395425E+04  0.25500000920E-02 0. -1.
        2   -1    0    0  501    0  0.00000000000E+00  0.00000000000E+00 -0.28325556980E+04  0.28325556980E+04  0.25500000920E-02 0.  1.
    10030    2    1    2    0    0  0.00000000000E+00  0.00000000000E+00 -0.17068161555E+04  0.39582952405E+04  0.35713974607E+04 0.  0.
        5    1    3    3  502    0  0.16372426048E+04 -0.99316259973E+02 -0.71055141720E+02  0.16417971829E+04  0.46999998093E+01 0. -1.
       -5    1    3    3    0  502 -0.16372426048E+04  0.99316259973E+02 -0.16357610137E+04  0.23164980576E+04  0.46999998093E+01 0.  1.
</event>
<event>
 5   0  0.1298250E-07  0.3607698E+04  0.7818609E-02  0.8088731E-01
       -1   -1    0    0    0  501  0.00000000000E+00  0.00000000000E+00  0.12961863142E+04  0.12961863142E+04  0.50400001928E-02 0. -1.
        1   -1    0    0  501    0  0.00000000000E+00  0.00000000000E+00 -0.25103427363E+04  0.25103427363E+04  0.50400001928E-02 0.  1.
    10030    2    1    2    0    0  0.00000000000E+00  0.00000000000E+00 -0.12141564221E+04  0.38065290505E+04  0.36076983792E+04 0.  0.
        1    1    3    3  502    0 -0.39668725227E+03 -0.12739364263E+04 -0.18878988202E+04  0.23118037870E+04  0.50400001928E-02 0. -1.
       -1    1    3    3    0  502  0.39668725227E+03  0.12739364263E+04  0.67374239811E+03  0.14947252635E+04  0.50400001928E-02 0.  1.
</event>
<event>
 5   0  0.1298250E-07  0.3588581E+04  0.7818609E-02  0.8093112E-01
        1   -1    0    0  501    0  0.00000000000E+00  0.00000000000E+00  0.25580238399E+04  0.25580238399E+04  0.50400001928E-02 0.  1.
       -1   -1    0    0    0  501  0.00000000000E+00  0.00000000000E+00 -0.12585804034E+04  0.12585804034E+04  0.50400001928E-02 0. -1.
    10030    2    1    2    0    0  0.00000000000E+00  0.00000000000E+00  0.12994434365E+04  0.38166042432E+04  0.35885811548E+04 0.  0.
        1    1    3    3  502    0 -0.39877637953E+03  0.17312017781E+04  0.91750713644E+03  0.19994753169E+04  0.50400001928E-02 0.  1.
       -1    1    3    3    0  502  0.39877637953E+03 -0.17312017781E+04  0.38193630007E+03  0.18171289263E+04  0.50400001928E-02 0. -1.
</event>
<event>
 5   0  0.1370997E-07  0.3659069E+04  0.7818609E-02  0.8077094E-01
       -1   -1    0    0    0  501  0.00000000000E+00  0.00000000000E+00  0.18686995073E+04  0.18686995073E+04  0.50400001928E-02 0.  1.
        1   -1    0    0  501    0  0.00000000000E+00  0.00000000000E+00 -0.17911902676E+04  0.17911902676E+04  0.50400001928E-02 0. -1.
    10030    2    1    2    0    0  0.00000000000E+00  0.00000000000E+00  0.77509239649E+02  0.36598897749E+04  0.36590689366E+04 0.  0.
        3    1    3    3  502    0 -0.16495219412E+04  0.79036020872E+03  0.78819395682E+02  0.18307933803E+04  0.10100000352E+00 0.  1.
       -3    1    3    3    0  502  0.16495219412E+04 -0.79036020872E+03 -0.13101560330E+01  0.18290963946E+04  0.10100000352E+00 0. -1.
</event>
<event>
 5   0  0.4200635E-07  0.3624396E+04  0.7818609E-02  0.8084926E-01
        2   -1    0    0  501    0  0.00000000000E+00  0.00000000000E+00  0.20339332196E+04  0.20339332196E+04  0.25500000920E-02 0. -1.
       -2   -1    0    0    0  501  0.00000000000E+00  0.00000000000E+00 -0.16146362718E+04  0.16146362719E+04  0.25500000920E-02 0.  1.
    10030    2    1    2    0    0  0.00000000000E+00  0.00000000000E+00  0.41929694773E+03  0.36485694914E+04  0.36243964192E+04 0.  0.
        4    1    3    3  502    0 -0.13400188432E+04  0.12138073212E+04  0.33327644888E+03  0.18384921858E+04  0.12699999809E+01 0.  1.
       -4    1    3    3    0  502  0.13400188432E+04 -0.12138073212E+04  0.86020498848E+02  0.18100773056E+04  0.12699999809E+01 0. -1.
</event>
<event>
 5   0  0.3993751E-07  0.3649179E+04  0.7818609E-02  0.8079319E-01
       -2   -1    0    0    0  501  0.00000000000E+00  0.00000000000E+00  0.12037235707E+04  0.12037235707E+04  0.25500000920E-02 0. -1.
        2   -1    0    0  501    0  0.00000000000E+00  0.00000000000E+00 -0.27656909938E+04  0.27656909938E+04  0.25500000920E-02 0.  1.
    10030    2    1    2    0    0  0.00000000000E+00  0.00000000000E+00 -0.15619674231E+04  0.39694145645E+04  0.36491793261E+04 0.  0.
        1    1    3    3  502    0  0.11489223734E+04 -0.33496268023E+03  0.71716188898E+03  0.13951859347E+04  0.50400001928E-02 0. -1.
       -1    1    3    3    0  502 -0.11489223734E+04  0.33496268023E+03 -0.22791293121E+04  0.25742286298E+04  0.50400001928E-02 0.  1.
</event>
<event>
 5   0  0.3880259E-07  0.3599427E+04  0.7818609E-02  0.8090623E-01
        2   -1    0    0  501    0  0.00000000000E+00  0.00000000000E+00  0.20930669044E+04  0.20930669044E+04  0.25500000920E-02 0.  1.
       -2   -1    0    0    0  501  0.00000000000E+00  0.00000000000E+00 -0.15474746932E+04  0.15474746932E+04  0.25500000920E-02 0. -1.
    10030    2    1    2    0    0  0.00000000000E+00  0.00000000000E+00  0.54559221117E+03  0.36405415976E+04  0.35994266575E+04 0.  0.
        5    1    3    3  502    0  0.15418881525E+04 -0.79523113415E+03  0.75694368351E+03  0.18928279007E+04  0.46999998093E+01 0. -1.
       -5    1    3    3    0  502 -0.15418881525E+04  0.79523113415E+03 -0.21135147234E+03  0.17477136969E+04  0.46999998093E+01 0.  1.
</event>
<event>
 5   0  0.1298250E-07  0.3589831E+04  0.7818609E-02  0.8092825E-01
        1   -1    0    0  501    0  0.00000000000E+00  0.00000000000E+00  0.20910826500E+04  0.20910826500E+04  0.50400001928E-02 0.  1.
       -1   -1    0    0    0  501  0.00000000000E+00  0.00000000000E+00 -0.15406951278E+04  0.15406951278E+04  0.50400001928E-02 0. -1.
    10030    2    1    2    0    0  0.00000000000E+00  0.00000000000E+00  0.55038752224E+03  0.36317777778E+04  0.35898305535E+04 0.  0.
        2    1    3    3  502    0 -0.17090531408E+04 -0.33909169429E+03 -0.16097629749E+03  0.17497883253E+04  0.25500000920E-02 0. -1.
       -2    1    3    3    0  502  0.17090531408E+04  0.33909169429E+03  0.71136381973E+03  0.18819894525E+04  0.25500000920E-02 0.  1.
</event>
<event>
 5   0  0.1298250E-07  0.3594233E+04  0.7818609E-02  0.8091814E-01
       -3   -1    0    0    0  501  0.00000000000E+00  0.00000000000E+00  0.22466567394E+04  0.22466567416E+04  0.10100000352E+00 0.  1.
        3   -1    0    0  501    0  0.00000000000E+00  0.00000000000E+00 -0.14375263155E+04  0.14375263190E+04  0.10100000352E+00 0. -1.
    10030    2    1    2    0    0  0.00000000000E+00  0.00000000000E+00  0.80913042391E+03  0.36841830606E+04  0.35942332675E+04 0.  0.
        5    1    3    3  502    0 -0.12537132203E+04 -0.47830880828E+03  0.16299023806E+04  0.21112034518E+04  0.46999998093E+01 0.  1.
       -5    1    3    3    0  502  0.12537132203E+04  0.47830880828E+03 -0.82077195672E+03  0.15729796088E+04  0.46999998093E+01 0. -1.
</event>
<event>
 5   0  0.4200635E-07  0.3497481E+04  0.7818609E-02  0.8114387E-01
        2   -1    0    0  501    0  0.00000000000E+00  0.00000000000E+00  0.15095502446E+04  0.15095502446E+04  0.25500000920E-02 0.  1.
       -2   -1    0    0    0  501  0.00000000000E+00  0.00000000000E+00 -0.20258311243E+04  0.20258311243E+04  0.25500000920E-02 0. -1.
    10030    2    1    2    0    0  0.00000000000E+00  0.00000000000E+00 -0.51628087969E+03  0.35353813689E+04  0.34974813047E+04 0.  0.
        4    1    3    3  502    0  0.35206665403E+03 -0.78076088790E+03 -0.17993108594E+04  0.19927517845E+04  0.12699999809E+01 0. -1.
       -4    1    3    3    0  502 -0.35206665403E+03  0.78076088790E+03  0.12830299797E+04  0.15426295844E+04  0.12699999809E+01 0.  1.
</event>
<event>
 5   0  0.1370997E-07  0.3591117E+04  0.7818609E-02  0.8092529E-01
        1   -1    0    0  501    0  0.00000000000E+00  0.00000000000E+00  0.27218036892E+04  0.27218036892E+04  0.50400001928E-02 0.  1.
       -1   -1    0    0    0  501  0.00000000000E+00  0.00000000000E+00 -0.11845199548E+04  0.11845199548E+04  0.50400001928E-02 0. -1.
    10030    2    1    2    0    0  0.00000000000E+00  0.00000000000E+00  0.15372837344E+04  0.39063236440E+04  0.35911172540E+04 0.  0.
        3    1    3    3  502    0 -0.83549316702E+03 -0.89438681833E+03 -0.66046875148E+03  0.13907536068E+04  0.10100000352E+00 0. -1.
       -3    1    3    3    0  502  0.83549316702E+03  0.89438681833E+03  0.21977524859E+04  0.25155700372E+04  0.10100000352E+00 0.  1.
</event>
<event>
 5   0  0.4200635E-07  0.3563506E+04  0.7818609E-02  0.8098903E-01
        2   -1    0    0  501    0  0.00000000000E+00  0.00000000000E+00  0.30025105966E+04  0.30025105966E+04  0.25500000920E-02 0.  1.
       -2   -1    0    0    0  501  0.00000000000E+00  0.00000000000E+00 -0.10573297552E+04  0.10573297552E+04  0.25500000920E-02 0. -1.
    10030    2    1    2    0    0  0.00000000000E+00  0.00000000000E+00  0.19451808414E+04  0.40598403518E+04  0.35635060230E+04 0.  0.
        4    1    3    3  502    0  0.13342070170E+04 -0.11730415964E+04  0.11275798822E+04  0.21041798770E+04  0.12699999809E+01 0.  1.
       -4    1    3    3    0  502 -0.13342070170E+04  0.11730415964E+04  0.81760095925E+03  0.19556604748E+04  0.12699999809E+01 0. -1.
</event>
<event>
 5   0  0.1370997E-07  0.3614845E+04  0.7818609E-02  0.8087100E-01
       -1   -1    0    0    0  501  0.00000000000E+00  0.00000000000E+00  0.13734771207E+04  0.13734771207E+04  0.50400001928E-02 0.  1.
        1   -1    0    0  501    0  0.00000000000E+00  0.00000000000E+00 -0.23784709765E+04  0.23784709765E+04  0.50400001928E-02 0. -1.
    10030    2    1    2    0    0  0.00000000000E+00  0.00000000000E+00 -0.10049938559E+04  0.37519480972E+04  0.36148446542E+04 0.  0.
        3    1    3    3  502    0 -0.17095593693E+04  0.41149708642E+02 -0.11099188309E+04  0.20386776001E+04  0.10100000352E+00 0.  1.
       -3    1    3    3    0  502  0.17095593693E+04 -0.41149708642E+02  0.10492497503E+03  0.17132704971E+04  0.10100000352E+00 0. -1.
</event>
<event>
 5   0  0.1370997E-07  0.3521671E+04  0.7818609E-02  0.8108673E-01
       -1   -1    0    0    0  501  0.00000000000E+00  0.00000000000E+00  0.14038252197E+04  0.14038252197E+04  0.50400001928E-02 0.  1.
        1   -1    0    0  501    0  0.00000000000E+00  0.00000000000E+00 -0.22086382115E+04  0.22086382115E+04  0.50400001928E-02 0. -1.
    10030    2    1    2    0    0  0.00000000000E+00  0.00000000000E+00 -0.80481299175E+03  0.36124634312E+04  0.35216712070E+04 0.  0.
        3    1    3    3  502    0  0.38869307309E+03 -0.10553535337E+04  0.98739943734E+03  0.14965998280E+04  0.10100000352E+00 0.  1.
       -3    1    3    3    0  502 -0.38869307309E+03  0.10553535337E+04 -0.17922124291E+04  0.21158636032E+04  0.10100000352E+00 0. -1.
</event>
<event>
 5   0  0.3993751E-07  0.3588215E+04  0.7818609E-02  0.8093196E-01
        2   -1    0    0  501    0  0.00000000000E+00  0.00000000000E+00  0.21665730851E+04  0.21665730851E+04  0.25500000920E-02 0. -1.
       -2   -1    0    0    0  501  0.00000000000E+00  0.00000000000E+00 -0.14856744499E+04  0.14856744499E+04  0.25500000920E-02 0.  1.
    10030    2    1    2    0    0  0.00000000000E+00  0.00000000000E+00  0.68089863516E+03  0.36522475350E+04  0.35882153093E+04 0.  0.
        1    1    3    3  502    0  0.39340152171E+03  0.15195300272E+04  0.12249128342E+04  0.19910167534E+04  0.50400001928E-02 0. -1.
       -1    1    3    3    0  502 -0.39340152171E+03 -0.15195300272E+04 -0.54401419909E+03  0.16612307816E+04  0.50400001928E-02 0.  1.
</event>
<event>
 5   0  0.3993751E-07  0.3639195E+04  0.7818609E-02  0.8081572E-01
       -2   -1    0    0    0  501  0.00000000000E+00  0.00000000000E+00  0.12649974665E+04  0.12649974665E+04  0.25500000920E-02 0.  1.
        2   -1    0    0  501    0  0.00000000000E+00  0.00000000000E+00 -0.26173451951E+04  0.26173451951E+04  0.25500000920E-02 0. -1.
    10030    2    1    2    0    0  0.00000000000E+00  0.00000000000E+00 -0.13523477285E+04  0.38823426616E+04  0.36391949883E+04 0.  0.
        1    1    3    3  502    0  0.37193085744E+03  0.13540120481E+04 -0.19107560058E+04  0.23712169245E+04  0.50400001928E-02 0. -1.
       -1    1    3    3    0  502 -0.37193085744E+03 -0.13540120481E+04  0.55840827726E+03  0.15111257371E+04  0.50400001928E-02 0.  1.
</event>
<event>
 5   0  0.4200635E-07  0.3570139E+04  0.7818609E-02  0.8097366E-01
        2   -1    0    0  501    0  0.00000000000E+00  0.00000000000E+00  0.19893171168E+04  0.19893171168E+04  0.25500000920E-02 0.  1.
       -2   -1    0    0    0  501  0.00000000000E+00  0.00000000000E+00 -0.16017928704E+04  0.16017928704E+04  0.25500000920E-02 0. -1.
    10030    2    1    2    0    0  0.00000000000E+00  0.00000000000E+00  0.38752424641E+03  0.35911099872E+04  0.35701394789E+04 0.  0.
        4    1    3    3  502    0 -0.60684187467E+03  0.15214500157E+04  0.90744019099E+03  0.18725694979E+04  0.12699999809E+01 0. -1.
       -4    1    3    3    0  502  0.60684187467E+03 -0.15214500157E+04 -0.51991594458E+03  0.17185404893E+04  0.12699999809E+01 0.  1.
</event>
<event>
 5   0  0.4200635E-07  0.3590417E+04  0.7818609E-02  0.8092690E-01
        2   -1    0    0  501    0  0.00000000000E+00  0.00000000000E+00  0.25180128892E+04  0.25180128892E+04  0.25500000920E-02 0.  1.
       -2   -1    0    0    0  501  0.00000000000E+00  0.00000000000E+00 -0.12798878260E+04  0.12798878260E+04  0.25500000920E-02 0. -1.
    10030    2    1    2    0    0  0.00000000000E+00  0.00000000000E+00  0.12381250632E+04  0.37979007152E+04  0.35904172697E+04 0.  0.
        4    1    3    3  502    0 -0.12843905133E+04 -0.36986351295E+02  0.19452037958E+04  0.23312757025E+04  0.12699999809E+01 0.  1.
       -4    1    3    3    0  502  0.12843905133E+04  0.36986351295E+02 -0.70707873265E+03  0.14666250127E+04  0.12699999809E+01 0. -1.
</event>
<event>
 5   0  0.1298250E-07  0.3588476E+04  0.7818609E-02  0.8093137E-01
        1   -1    0    0  501    0  0.00000000000E+00  0.00000000000E+00  0.18373597975E+04  0.18373597975E+04  0.50400001928E-02 0.  1.
       -1   -1    0    0    0  501  0.00000000000E+00  0.00000000000E+00 -0.17521278679E+04  0.17521278679E+04  0.50400001928E-02 0. -1.
    10030    2    1    2    0    0  0.00000000000E+00  0.00000000000E+00  0.85231929610E+02  0.35894876654E+04  0.35884756121E+04 0.  0.
        1    1    3    3  502    0  0.11632966441E+04  0.13659315166E+04  0.26446189198E+02  0.17943598834E+04  0.50400001928E-02 0.  1.
       -1    1    3    3    0  502 -0.11632966441E+04 -0.13659315166E+04  0.58785740412E+02  0.17951277820E+04  0.50400001928E-02 0. -1.
</event>
<event>
 5   0  0.1370997E-07  0.3592638E+04  0.7818609E-02  0.8092180E-01
        1   -1    0    0  501    0  0.00000000000E+00  0.00000000000E+00  0.22932610723E+04  0.22932610723E+04  0.50400001928E-02 0.  1.
       -1   -1    0    0    0  501  0.00000000000E+00  0.00000000000E+00 -0.14070623786E+04  0.14070623786E+04  0.50400001928E-02 0. -1.
    10030    2    1    2    0    0  0.00000000000E+00  0.00000000000E+00  0.88619869369E+03  0.37003234508E+04  0.35926376823E+04 0.  0.
        3    1    3    3  502    0 -0.95307876244E+02 -0.78013681712E+03  0.21067749978E+04  0.22485991075E+04  0.10100000352E+00 0.  1.
       -3    1    3    3    0  502  0.95307876244E+02  0.78013681712E+03 -0.12205763041E+04  0.14517243433E+04  0.10100000352E+00 0. -1.
</event>
<event>
 5   0  0.4120440E-07  0.3630716E+04  0.7818609E-02  0.8083492E-01
        2   -1    0    0  501    0  0.00000000000E+00  0.00000000000E+00  0.19124014911E+04  0.19124014911E+04  0.25500000920E-02 0.  1.
       -2   -1    0    0    0  501  0.00000000000E+00  0.00000000000E+00 -0.17232391698E+04  0.17232391698E+04  0.25500000920E-02 0. -1.
    10030    2    1    2    0    0  0.00000000000E+00  0.00000000000E+00  0.18916232128E+03  0.36356406610E+04  0.36307162698E+04 0.  0.
        2    1    3    3  502    0  0.17749536657E+04  0.32863466072E+03  0.28736215358E+03  0.18278507222E+04  0.25500000920E-02 0. -1.
       -2    1    3    3    0  502 -0.17749536657E+04 -0.32863466072E+03 -0.98199832308E+02  0.18077899387E+04  0.25500000920E-02 0.  1.
</event>
<event>
 5   0  0.1298250E-07  0.3656516E+04  0.7818609E-02  0.8077667E-01
        1   -1    0    0  501    0  0.00000000000E+00  0.00000000000E+00  0.18952806317E+04  0.18952806317E+04  0.50400001928E-02 0. -1.
       -1   -1    0    0    0  501  0.00000000000E+00  0.00000000000E+00 -0.17636050101E+04  0.17636050101E+04  0.50400001928E-02 0.  1.
    10030    2    1    2    0    0  0.00000000000E+00  0.00000000000E+00  0.13167562161E+03  0.36588856418E+04  0.36565155094E+04 0.  0.
        2    1    3    3  502    0 -0.51726469292E+03  0.32008935568E+02 -0.16885639089E+04  0.17663055820E+04  0.25500000920E-02 0.  1.
       -2    1    3    3    0  502  0.51726469292E+03 -0.32008935568E+02  0.18202395305E+04  0.18925800598E+04  0.25500000920E-02 0. -1.
</event>
<event>
 5   0  0.1348226E-07  0.3617016E+04  0.7818609E-02  0.8086605E-01
        1   -1    0    0  501    0  0.00000000000E+00  0.00000000000E+00  0.20414573438E+04  0.20414573438E+04  0.50400001928E-02 0. -1.
       -1   -1    0    0    0  501  0.00000000000E+00  0.00000000000E+00 -0.16021399344E+04  0.16021399344E+04  0.50400001928E-02 0.  1.
    10030    2    1    2    0    0  0.00000000000E+00  0.00000000000E+00  0.43931740942E+03  0.36435972782E+04  0.36170155293E+04 0.  0.
        4    1    3    3  502    0  0.86964105275E+03 -0.86826784045E+03  0.15562610493E+04  0.19829560433E+04  0.12699999809E+01 0.  1.
       -4    1    3    3    0  502 -0.86964105275E+03  0.86826784045E+03 -0.11169436399E+04  0.16606412349E+04  0.12699999809E+01 0. -1.
</event>
<event>
 5   0  0.1348226E-07  0.3600847E+04  0.7818609E-02  0.8090298E-01
        1   -1    0    0  501    0  0.00000000000E+00  0.00000000000E+00  0.14518643822E+04  0.14518643822E+04  0.50400001928E-02 0.  1.
       -1   -1    0    0    0  501  0.00000000000E+00  0.00000000000E+00 -0.22326636505E+04  0.22326636505E+04  0.50400001928E-02 0. -1.
    10030    2    1    2    0    0  0.00000000000E+00  0.00000000000E+00 -0.78079926823E+03  0.36845280327E+04  0.36008470291E+04 0.  0.
        4    1    3    3  502    0  0.87091234522E+03 -0.47092282182E+03 -0.19290965283E+04  0.21683338409E+04  0.12699999809E+01 0. -1.
       -4    1    3    3    0  502 -0.87091234522E+03  0.47092282182E+03  0.11482972600E+04  0.15161941919E+04  0.12699999809E+01 0.  1.
</event>
<event>
 5   0  0.4120440E-07  0.3619168E+04  0.7818609E-02  0.8086115E-01
        2   -1    0    0  501    0  0.00000000000E+00  0.00000000000E+00  0.19077643910E+04  0.19077643910E+04  0.25500000920E-02 0. -1.
       -2   -1    0    0    0  501  0.00000000000E+00  0.00000000000E+00 -0.17164565973E+04  0.17164565973E+04  0.25500000920E-02 0.  1.
    10030    2    1    2    0    0  0.00000000000E+00  0.00000000000E+00  0.19130779367E+03  0.36242209883E+04  0.36191682884E+04 0.  0.
        2    1    3    3  502    0  0.98958158094E+03 -0.14500068988E+04 -0.34405257507E+03  0.17889001890E+04  0.25500000920E-02 0. -1.
       -2    1    3    3    0  502 -0.98958158094E+03  0.14500068988E+04  0.53536036874E+03  0.18353207993E+04  0.25500000920E-02 0.  1.
</event>
<event>
 5   0  0.1298250E-07  0.3593608E+04  0.7818609E-02  0.8091957E-01
       -1   -1    0    0    0  501  0.00000000000E+00  0.00000000000E+00  0.10086660964E+04  0.10086660964E+04  0.50400001928E-02 0.  1.
        1   -1    0    0  501    0  0.00000000000E+00  0.00000000000E+00 -0.32007668186E+04  0.32007668186E+04  0.50400001928E-02 0. -1.
    10030    2    1    2    0    0  0.00000000000E+00  0.00000000000E+00 -0.21921007222E+04  0.42094329149E+04  0.35936081992E+04 0.  0.
        1    1    3    3  502    0  0.17492599465E+04 -0.39284065280E+03 -0.12359825195E+04  0.21775874098E+04  0.50400001928E-02 0. -1.
       -1    1    3    3    0  502 -0.17492599465E+04  0.39284065280E+03 -0.95611820272E+03  0.20318455051E+04  0.50400001928E-02 0.  1.
</event>
<event>
 5   0  0.4120440E-07  0.3604832E+04  0.7818609E-02  0.8089386E-01
       -2   -1    0    0    0  501  0.00000000000E+00  0.00000000000E+00  0.17797975122E+04  0.17797975122E+04  0.25500000920E-02 0.  1.
        2   -1    0    0  501    0  0.00000000000E+00  0.00000000000E+00 -0.18253214588E+04  0.18253214588E+04  0.25500000920E-02 0. -1.
    10030    2    1    2    0    0  0.00000000000E+00  0.00000000000E+00 -0.45523946655E+02  0.36051189710E+04  0.36048315308E+04 0.  0.
        2    1    3    3  502    0  0.10682459659E+04 -0.51026036976E+03  0.13364591620E+04  0.17853958049E+04  0.25500000920E-02 0.  1.
       -2    1    3    3    0  502 -0.10682459659E+04  0.51026036976E+03 -0.13819831087E+04  0.18197231661E+04  0.25500000920E-02 0. -1.
</event>
<event>
 5   0  0.4120440E-07  0.3587744E+04  0.7818609E-02  0.8093305E-01
       -2   -1    0    0    0  501  0.00000000000E+00  0.00000000000E+00  0.14199862229E+04  0.14199862229E+04  0.25500000920E-02 0. -1.
        2   -1    0    0  501    0  0.00000000000E+00  0.00000000000E+00 -0.22662030146E+04  0.22662030146E+04  0.25500000920E-02 0.  1.
    10030    2    1    2    0    0  0.00000000000E+00  0.00000000000E+00 -0.84621679172E+03  0.36861892375E+04  0.35877441709E+04 0.  0.
        2    1    3    3  502    0  0.35032318933E+03  0.15778262401E+04  0.37652394663E+03  0.16595277230E+04  0.25500000920E-02 0. -1.
       -2    1    3    3    0  502 -0.35032318933E+03 -0.15778262401E+04 -0.12227407384E+04  0.20266615145E+04  0.25500000920E-02 0.  1.
</event>
<event>
 5   0  0.4120440E-07  0.3624831E+04  0.7818609E-02  0.8084827E-01
       -2   -1    0    0    0  501  0.00000000000E+00  0.00000000000E+00  0.24518587389E+04  0.24518587390E+04  0.25500000920E-02 0. -1.
        2   -1    0    0  501    0  0.00000000000E+00  0.00000000000E+00 -0.13397390142E+04  0.13397390142E+04  0.25500000920E-02 0.  1.
    10030    2    1    2    0    0  0.00000000000E+00  0.00000000000E+00  0.11121197247E+04  0.37915977532E+04  0.36248314774E+04 0.  0.
        2    1    3    3  502    0  0.13991005412E+04  0.11359856759E+04  0.75700486795E+03  0.19547383841E+04  0.25500000920E-02 0. -1.
       -2    1    3    3    0  502 -0.13991005412E+04 -0.11359856759E+04  0.35511485679E+03  0.18368593691E+04  0.25500000920E-02 0.  1.
</event>
<event>
 5   0  0.3993751E-07  0.3571286E+04  0.7818609E-02  0.8097101E-01
       -2   -1    0    0    0  501  0.00000000000E+00  0.00000000000E+00  0.20115115998E+04  0.20115115998E+04  0.25500000920E-02 0. -1.
        2   -1    0    0  501    0  0.00000000000E+00  0.00000000000E+00 -0.15851364234E+04  0.15851364234E+04  0.25500000920E-02 0.  1.
    10030    2    1    2    0    0  0.00000000000E+00  0.00000000000E+00  0.42637517638E+03  0.35966480231E+04  0.35712856524E+04 0.  0.
        1    1    3    3  502    0  0.81130553700E+03 -0.15403615927E+04  0.61298261856E+03  0.18457188847E+04  0.50400001928E-02 0.  1.
       -1    1    3    3    0  502 -0.81130553700E+03  0.15403615927E+04 -0.18660744218E+03  0.17509291385E+04  0.50400001928E-02 0. -1.
</event>
<event>
 5   0  0.1298250E-07  0.3603014E+04  0.7818609E-02  0.8089802E-01
        1   -1    0    0  501    0  0.00000000000E+00  0.00000000000E+00  0.23270769753E+04  0.23270769753E+04  0.50400001928E-02 0. -1.
       -1   -1    0    0    0  501  0.00000000000E+00  0.00000000000E+00 -0.13946368874E+04  0.13946368874E+04  0.50400001928E-02 0.  1.
    10030    2    1    2    0    0  0.00000000000E+00  0.00000000000E+00  0.93244008792E+03  0.37217138627E+04  0.36030139547E+04 0.  0.
        2    1    3    3  502    0 -0.57607615542E+03 -0.10943739603E+04  0.18193022986E+04  0.21998588490E+04  0.25500000920E-02 0. -1.
       -2    1    3    3    0  502  0.57607615542E+03  0.10943739603E+04 -0.88686221067E+03  0.15218550137E+04  0.25500000920E-02 0.  1.
</event>
<event>
 5   0  0.4200635E-07  0.3531037E+04  0.7818609E-02  0.8106474E-01
        2   -1    0    0  501    0  0.00000000000E+00  0.00000000000E+00  0.13640908325E+04  0.13640908325E+04  0.25500000920E-02 0. -1.
       -2   -1    0    0    0  501  0.00000000000E+00  0.00000000000E+00 -0.22850797306E+04  0.22850797306E+04  0.25500000920E-02 0.  1.
    10030    2    1    2    0    0  0.00000000000E+00  0.00000000000E+00 -0.92098889808E+03  0.36491705631E+04  0.35310374181E+04 0.  0.
        4    1    3    3  502    0 -0.31801727390E+03 -0.17361679710E+04 -0.41863644215E+03  0.18140210289E+04  0.12699999809E+01 0.  1.
       -4    1    3    3    0  502  0.31801727390E+03  0.17361679710E+04 -0.50235245593E+03  0.18351495342E+04  0.12699999809E+01 0. -1.
</event>
<event>
 5   0  0.3880259E-07  0.3588517E+04  0.7818609E-02  0.8093127E-01
       -2   -1    0    0    0  501  0.00000000000E+00  0.00000000000E+00  0.20990103514E+04  0.20990103514E+04  0.25500000920E-02 0. -1.
        2   -1    0    0  501    0  0.00000000000E+00  0.00000000000E+00 -0.15337531293E+04  0.15337531293E+04  0.25500000920E-02 0.  1.
    10030    2    1    2    0    0  0.00000000000E+00  0.00000000000E+00  0.56525722215E+03  0.36327634807E+04  0.35885170725E+04 0.  0.
        5    1    3    3  502    0  0.86314510129E+03 -0.13996135090E+04  0.10093970648E+04  0.19294667566E+04  0.46999998093E+01 0. -1.
       -5    1    3    3    0  502 -0.86314510129E+03  0.13996135090E+04 -0.44413984268E+03  0.17032967241E+04  0.46999998093E+01 0.  1.
</event>
<event>
 5   0  0.1361743E-07  0.3582594E+04  0.7818609E-02  0.8094490E-01
        1   -1    0    0  501    0  0.00000000000E+00  0.00000000000E+00  0.21913683229E+04  0.21913683229E+04  0.50400001928E-02 0.  1.
       -1   -1    0    0    0  501  0.00000000000E+00  0.00000000000E+00 -0.14642654892E+04  0.14642654892E+04  0.50400001928E-02 0. -1.
    10030    2    1    2    0    0  0.00000000000E+00  0.00000000000E+00  0.72710283369E+03  0.36556338122E+04  0.35825940376E+04 0.  0.
        5    1    3    3  502    0  0.13786719092E+04  0.93070329124E+03 -0.31466322838E+03  0.16929205199E+04  0.46999998093E+01 0. -1.
       -5    1    3    3    0  502 -0.13786719092E+04 -0.93070329124E+03  0.10417660621E+04  0.19627132922E+04  0.46999998093E+01 0.  1.
</event>
<event>
 5   0  0.3880259E-07  0.3590194E+04  0.7818609E-02  0.8092742E-01
        2   -1    0    0  501    0  0.00000000000E+00  0.00000000000E+00  0.21407509147E+04  0.21407509147E+04  0.25500000920E-02 0. -1.
       -2   -1    0    0    0  501  0.00000000000E+00  0.00000000000E+00 -0.15052534271E+04  0.15052534271E+04  0.25500000920E-02 0.  1.
    10030    2    1    2    0    0  0.00000000000E+00  0.00000000000E+00  0.63549748765E+03  0.36460043418E+04  0.35901936721E+04 0.  0.
        5    1    3    3  502    0 -0.26108918638E+03 -0.13387845252E+03 -0.14807299752E+04  0.15095278575E+04  0.46999998093E+01 0.  1.
       -5    1    3    3    0  502  0.26108918638E+03  0.13387845252E+03  0.21162274628E+04  0.21364764842E+04  0.46999998093E+01 0. -1.
</event>
<event>
 5   0  0.1361743E-07  0.3501258E+04  0.7818609E-02  0.8113492E-01
       -1   -1    0    0    0  501  0.00000000000E+00  0.00000000000E+00  0.13607657244E+04  0.13607657244E+04  0.50400001928E-02 0. -1.
        1   -1    0    0  501    0  0.00000000000E+00  0.00000000000E+00 -0.22521897609E+04  0.22521897609E+04  0.50400001928E-02 0.  1.
    10030    2    1    2    0    0  0.00000000000E+00  0.00000000000E+00 -0.89142403645E+03  0.36129554853E+04  0.35012584203E+04 0.  0.
        5    1    3    3  502    0 -0.56107637945E+03  0.60405207451E+03  0.11478984519E+04  0.14132864389E+04  0.46999998093E+01 0. -1.
       -5    1    3    3    0  502  0.56107637945E+03 -0.60405207451E+03 -0.20393224884E+04  0.21996690465E+04  0.46999998093E+01 0.  1.
</event>
<event>
 5   0  0.3880259E-07  0.3598608E+04  0.7818609E-02  0.8090811E-01
       -2   -1    0    0    0  501  0.00000000000E+00  0.00000000000E+00  0.27813309331E+04  0.27813309331E+04  0.25500000920E-02 0.  1.
        2   -1    0    0  501    0  0.00000000000E+00  0.00000000000E+00 -0.11640093062E+04  0.11640093062E+04  0.25500000920E-02 0. -1.
    10030    2    1    2    0    0  0.00000000000E+00  0.00000000000E+00  0.16173216268E+04  0.39453402393E+04  0.35986081142E+04 0.  0.
        5    1    3    3  502    0  0.15122128413E+04 -0.58577505339E+02 -0.25838515844E+03  0.15352537189E+04  0.46999998093E+01 0.  1.
       -5    1    3    3    0  502 -0.15122128413E+04  0.58577505339E+02  0.18757067853E+04  0.24100865204E+04  0.46999998093E+01 0. -1.
</event>
<event>
 5   0  0.4120440E-07  0.3644872E+04  0.7818609E-02  0.8080290E-01
       -2   -1    0    0    0  501  0.00000000000E+00  0.00000000000E+00  0.10633499128E+04  0.10633499128E+04  0.25500000920E-02 0.  1.
        2   -1    0    0  501    0  0.00000000000E+00  0.00000000000E+00 -0.31234054883E+04  0.31234054883E+04  0.25500000920E-02 0. -1.
    10030    2    1    2    0    0  0.00000000000E+00  0.00000000000E+00 -0.20600555755E+04  0.41867554011E+04  0.36448719887E+04 0.  0.
        2    1    3    3  502    0 -0.16521789904E+04 -0.72662615005E+03 -0.74036249191E+03  0.19508504806E+04  0.25500000920E-02 0. -1.
       -2    1    3    3    0  502  0.16521789904E+04  0.72662615005E+03 -0.13196930836E+04  0.22359049204E+04  0.25500000920E-02 0.  1.
</event>
<event>
 5   0  0.1298250E-07  0.3602234E+04  0.7818609E-02  0.8089980E-01
        1   -1    0    0  501    0  0.00000000000E+00  0.00000000000E+00  0.15471343196E+04  0.15471343196E+04  0.50400001928E-02 0.  1.
       -1   -1    0    0    0  501  0.00000000000E+00  0.00000000000E+00 -0.20967941578E+04  0.20967941578E+04  0.50400001928E-02 0. -1.
    10030    2    1    2    0    0  0.00000000000E+00  0.00000000000E+00 -0.54965983829E+03  0.36439284774E+04  0.36022338640E+04 0.  0.
        1    1    3    3  502    0  0.16611412551E+04  0.23140242965E+03 -0.93900001708E+03  0.19221494182E+04  0.50400001928E-02 0. -1.
       -1    1    3    3    0  502 -0.16611412551E+04 -0.23140242965E+03  0.38934017879E+03  0.17217790592E+04  0.50400001928E-02 0.  1.
</event>
<event>
 5   0  0.1370997E-07  0.3592854E+04  0.7818609E-02  0.8092130E-01
        1   -1    0    0  501    0  0.00000000000E+00  0.00000000000E+00  0.10734095247E+04  0.10734095247E+04  0.50400001928E-02 0. -1.
       -1   -1    0    0    0  501  0.00000000000E+00  0.00000000000E+00 -0.30064482578E+04  0.30064482578E+04  0.50400001928E-02 0.  1.
    10030    2    1    2    0    0  0.00000000000E+00  0.00000000000E+00 -0.19330387331E+04  0.40798577826E+04  0.35928541276E+04 0.  0.
        3    1    3    3  502    0 -0.23011133735E+02 -0.16048527936E+03  0.10650849576E+04  0.10773537090E+04  0.10100000352E+00 0. -1.
       -3    1    3    3    0  502  0.23011133735E+02  0.16048527936E+03 -0.29981236907E+04  0.30025040736E+04  0.10100000352E+00 0.  1.
</event>
<event>
 5   0  0.4200635E-07  0.3613959E+04  0.7818609E-02  0.8087302E-01
        2   -1    0    0  501    0  0.00000000000E+00  0.00000000000E+00  0.18670240783E+04  0.18670240783E+04  0.25500000920E-02 0. -1.
       -2   -1    0    0    0  501  0.00000000000E+00  0.00000000000E+00 -0.17488662711E+04  0.17488662711E+04  0.25500000920E-02 0.  1.
    10030    2    1    2    0    0  0.00000000000E+00  0.00000000000E+00  0.11815780718E+03  0.36158903494E+04  0.36139592902E+04 0.  0.
        4    1    3    3  502    0 -0.85114819732E+02 -0.16655985646E+04  0.75494367328E+03  0.18306842092E+04  0.12699999809E+01 0. -1.
       -4    1    3    3    0  502  0.85114819732E+02  0.16655985646E+04 -0.63678586609E+03  0.17852061402E+04  0.12699999809E+01 0.  1.
</event>
<event>
 5   0  0.4200635E-07  0.3594305E+04  0.7818609E-02  0.8091798E-01
        2   -1    0    0  501    0  0.00000000000E+00  0.00000000000E+00  0.18291886001E+04  0.18291886001E+04  0.25500000920E-02 0. -1.
       -2   -1    0    0    0  501  0.00000000000E+00  0.00000000000E+00 -0.17656771909E+04  0.17656771909E+04  0.25500000920E-02 0.  1.
    10030    2    1    2    0    0  0.00000000000E+00  0.00000000000E+00  0.63511409216E+02  0.35948657911E+04  0.35943047111E+04 0.  0.
        4    1    3    3  502    0  0.11670790809E+04  0.12728249188E+04  0.52942570424E+03  0.18062253581E+04  0.12699999809E+01 0. -1.
       -4    1    3    3    0  502 -0.11670790809E+04 -0.12728249188E+04 -0.46591429502E+03  0.17886404329E+04  0.12699999809E+01 0.  1.
</event>
<event>
 5   0  0.3993751E-07  0.3598136E+04  0.7818609E-02  0.8090919E-01
       -2   -1    0    0    0  501  0.00000000000E+00  0.00000000000E+00  0.18235427766E+04  0.18235427766E+04  0.25500000920E-02 0. -1.
        2   -1    0    0  501    0  0.00000000000E+00  0.00000000000E+00 -0.17749218490E+04  0.17749218490E+04  0.25500000920E-02 0.  1.
    10030    2    1    2    0    0  0.00000000000E+00  0.00000000000E+00  0.48620927620E+02  0.35984646256E+04  0.35981361379E+04 0.  0.
        1    1    3    3  502    0 -0.57660573769E+03  0.15156511837E+04  0.80346645611E+03  0.18097599381E+04  0.50400001928E-02 0. -1.
       -1    1    3    3    0  502  0.57660573769E+03 -0.15156511837E+04 -0.75484552849E+03  0.17887046875E+04  0.50400001928E-02 0.  1.
</event>
<event>
 5   0  0.3880259E-07  0.3604485E+04  0.7818609E-02  0.8089465E-01
        2   -1    0    0  501    0  0.00000000000E+00  0.00000000000E+00  0.19539342909E+04  0.19539342909E+04  0.25500000920E-02 0.  1.
       -2   -1    0    0    0  501  0.00000000000E+00  0.00000000000E+00 -0.16623274022E+04  0.16623274022E+04  0.25500000920E-02 0. -1.
    10030    2    1    2    0    0  0.00000000000E+00  0.00000000000E+00  0.29160688864E+03  0.36162616931E+04  0.36044852692E+04 0.  0.
        5    1    3    3  502    0 -0.13266311538E+04 -0.67407711939E+03 -0.87424163890E+03  0.17258767958E+04  0.46999998093E+01 0. -1.
       -5    1    3    3    0  502  0.13266311538E+04  0.67407711939E+03  0.11658485275E+04  0.18903848974E+04  0.46999998093E+01 0.  1.
</event>
<event>
 5   0  0.1370997E-07  0.3541148E+04  0.7818609E-02  0.8104107E-01
        1   -1    0    0  501    0  0.00000000000E+00  0.00000000000E+00  0.19227054722E+04  0.19227054722E+04  0.50400001928E-02 0. -1.
       -1   -1    0    0    0  501  0.00000000000E+00  0.00000000000E+00 -0.16304794855E+04  0.16304794855E+04  0.50400001928E-02 0.  1.
    10030    2    1    2    0    0  0.00000000000E+00  0.00000000000E+00  0.29222598669E+03  0.35531849577E+04  0.35411477400E+04 0.  0.
        3    1    3    3  502    0 -0.14443609806E+04 -0.20528925001E+03 -0.86059677115E+03  0.16937972521E+04  0.10100000352E+00 0.  1.
       -3    1    3    3    0  502  0.14443609806E+04  0.20528925001E+03  0.11528227578E+04  0.18593877056E+04  0.10100000352E+00 0. -1.
</event>
<event>
 5   0  0.1298250E-07  0.3563513E+04  0.7818609E-02  0.8098901E-01
        1   -1    0    0  501    0  0.00000000000E+00  0.00000000000E+00  0.14644824087E+04  0.14644824087E+04  0.50400001928E-02 0. -1.
       -1   -1    0    0    0  501  0.00000000000E+00  0.00000000000E+00 -0.21677662153E+04  0.21677662154E+04  0.50400001928E-02 0.  1.
    10030    2    1    2    0    0  0.00000000000E+00  0.00000000000E+00 -0.70328380668E+03  0.36322486240E+04  0.35635125865E+04 0.  0.
        1    1    3    3  502    0 -0.23603128756E+03 -0.13299138874E+04 -0.15360685975E+04  0.20454555612E+04  0.50400001928E-02 0.  1.
       -1    1    3    3    0  502  0.23603128756E+03  0.13299138874E+04  0.83278479078E+03  0.15867930629E+04  0.50400001928E-02 0. -1.
</event>
<event>
 5   0  0.4120440E-07  0.3593217E+04  0.7818609E-02  0.8092047E-01
        2   -1    0    0  501    0  0.00000000000E+00  0.00000000000E+00  0.30523137766E+04  0.30523137766E+04  0.25500000920E-02 0. -1.
       -2   -1    0    0    0  501  0.00000000000E+00  0.00000000000E+00 -0.10574937079E+04  0.10574937079E+04  0.25500000920E-02 0.  1.
    10030    2    1    2    0    0  0.00000000000E+00  0.00000000000E+00  0.19948200687E+04  0.41098074845E+04  0.35932172844E+04 0.  0.
        2    1    3    3  502    0 -0.44178885771E+03  0.78716441305E+03 -0.77929947204E+03  0.11925237419E+04  0.25500000920E-02 0.  1.
       -2    1    3    3    0  502  0.44178885771E+03 -0.78716441305E+03  0.27741195408E+04  0.29172837425E+04  0.25500000920E-02 0. -1.
</event>
<event>
 5   0  0.1361743E-07  0.3532946E+04  0.7818609E-02  0.8106026E-01
       -1   -1    0    0    0  501  0.00000000000E+00  0.00000000000E+00  0.27263536770E+04  0.27263536770E+04  0.50400001928E-02 0.  1.
        1   -1    0    0  501    0  0.00000000000E+00  0.00000000000E+00 -0.11445424378E+04  0.11445424379E+04  0.50400001928E-02 0. -1.
    10030    2    1    2    0    0  0.00000000000E+00  0.00000000000E+00  0.15818112392E+04  0.38708961149E+04  0.35329463534E+04 0.  0.
        5    1    3    3  502    0  0.54085457855E+03  0.13086559476E+04 -0.36619355346E+03  0.14626085850E+04  0.46999998093E+01 0. -1.
       -5    1    3    3    0  502 -0.54085457855E+03 -0.13086559476E+04  0.19480047926E+04  0.24082875299E+04  0.46999998093E+01 0.  1.
</event>
<event>
 5   0  0.1370997E-07  0.3607590E+04  0.7818609E-02  0.8088755E-01
       -1   -1    0    0    0  501  0.00000000000E+00  0.00000000000E+00  0.16514900319E+04  0.16514900319E+04  0.50400001928E-02 0.  1.
        1   -1    0    0  501    0  0.00000000000E+00  0.00000000000E+00 -0.19701459662E+04  0.19701459662E+04  0.50400001928E-02 0. -1.
    10030    2    1    2    0    0  0.00000000000E+00  0.00000000000E+00 -0.31865593433E+03  0.36216359980E+04  0.36075900124E+04 0.  0.
        3    1    3    3  502    0  0.76669075156E+02 -0.15120770864E+04  0.82501050309E+03  0.17242092689E+04  0.10100000352E+00 0.  1.
       -3    1    3    3    0  502 -0.76669075156E+02  0.15120770864E+04 -0.11436664374E+04  0.18974267292E+04  0.10100000352E+00 0. -1.
</event>
<event>
 5   0  0.1298250E-07  0.3410400E+04  0.7818609E-02  0.8135359E-01
       -1   -1    0    0    0  501  0.00000000000E+00  0.00000000000E+00  0.13904213083E+04  0.13904213083E+04  0.50400001928E-02 0.  1.
        1   -1    0    0  501    0  0.00000000000E+00  0.00000000000E+00 -0.20912416105E+04  0.20912416105E+04  0.50400001928E-02 0. -1.
    10030    2    1    2    0    0  0.00000000000E+00  0.00000000000E+00 -0.70082030218E+03  0.34816629187E+04  0.34103999155E+04 0.  0.
        2    1    3    3  502    0 -0.51058113883E+02  0.35739430603E+03 -0.20517780195E+04  0.20832980254E+04  0.25500000920E-02 0. -1.
       -2    1    3    3    0  502  0.51058113883E+02 -0.35739430603E+03  0.13509577174E+04  0.13983648934E+04  0.25500000920E-02 0.  1.
</event>
<event>
 5   0  0.4120440E-07  0.3588559E+04  0.7818609E-02  0.8093117E-01
        2   -1    0    0  501    0  0.00000000000E+00  0.00000000000E+00  0.10875704017E+04  0.10875704017E+04  0.25500000920E-02 0.  1.
       -2   -1    0    0    0  501  0.00000000000E+00  0.00000000000E+00 -0.29602123225E+04  0.29602123225E+04  0.25500000920E-02 0. -1.
    10030    2    1    2    0    0  0.00000000000E+00  0.00000000000E+00 -0.18726419208E+04  0.40477827242E+04  0.35885592121E+04 0.  0.
        2    1    3    3  502    0 -0.13716339992E+04 -0.82655704901E+03 -0.18491139094E+04  0.24461804171E+04  0.25500000920E-02 0. -1.
       -2    1    3    3    0  502  0.13716339992E+04  0.82655704901E+03 -0.23528011406E+02  0.16016023071E+04  0.25500000920E-02 0.  1.
</event>
<event>
 5   0  0.4115358E-07  0.3149782E+04  0.7818609E-02  0.8202207E-01
       -2   -1    0    0    0  501  0.00000000000E+00  0.00000000000E+00  0.14546330811E+04  0.14546330811E+04  0.25500000920E-02 0. -1.
        2   -1    0    0  501    0  0.00000000000E+00  0.00000000000E+00 -0.17050911078E+04  0.17050911078E+04  0.25500000920E-02 0.  1.
    10030    2    1    2    0    0  0.00000000000E+00  0.00000000000E+00 -0.25045802666E+03  0.31597241889E+04  0.31497821713E+04 0.  0.
        3    1    3    3  502    0 -0.78614837638E+03 -0.12281259208E+04 -0.72205175575E+03  0.16271697192E+04  0.10100000352E+00 0.  1.
       -3    1    3    3    0  502  0.78614837638E+03  0.12281259208E+04  0.47159372909E+03  0.15325544697E+04  0.10100000352E+00 0. -1.
</event>
<event>
 5   0  0.1361743E-07  0.3600131E+04  0.7818609E-02  0.8090462E-01
       -1   -1    0    0    0  501  0.00000000000E+00  0.00000000000E+00  0.28410914041E+04  0.28410914041E+04  0.50400001928E-02 0.  1.
        1   -1    0    0  501    0  0.00000000000E+00  0.00000000000E+00 -0.11404895778E+04  0.11404895778E+04  0.50400001928E-02 0. -1.
    10030    2    1    2    0    0  0.00000000000E+00  0.00000000000E+00  0.17006018263E+04  0.39815809818E+04  0.36001306286E+04 0.  0.
        5    1    3    3  502    0 -0.10315377087E+04 -0.14015591645E+04  0.34135158330E+03  0.17734094647E+04  0.46999998093E+01 0. -1.
       -5    1    3    3    0  502  0.10315377087E+04  0.14015591645E+04  0.13592502430E+04  0.22081715171E+04  0.46999998093E+01 0.  1.
</event>
<event>
 5   0  0.1298250E-07  0.3570784E+04  0.7818609E-02  0.8097217E-01
        1   -1    0    0  501    0  0.00000000000E+00  0.00000000000E+00  0.10075644589E+04  0.10075644589E+04  0.50400001928E-02 0. -1.
       -1   -1    0    0    0  501  0.00000000000E+00  0.00000000000E+00 -0.31636938478E+04  0.31636938478E+04  0.50400001928E-02 0.  1.
    10030    2    1    2    0    0  0.00000000000E+00  0.00000000000E+00 -0.21561293889E+04  0.41712583067E+04  0.35707844964E+04 0.  0.
        1    1    3    3  502    0 -0.56397031873E+03  0.15364795431E+03 -0.30487509094E+04  0.31042796784E+04  0.50400001928E-02 0.  1.
       -1    1    3    3    0  502  0.56397031873E+03 -0.15364795431E+03  0.89262152054E+03  0.10669786283E+04  0.50400001928E-02 0. -1.
</event>
<event>
 5   0  0.1361743E-07  0.3600742E+04  0.7818609E-02  0.8090322E-01
       -1   -1    0    0    0  501  0.00000000000E+00  0.00000000000E+00  0.20000141394E+04  0.20000141394E+04  0.50400001928E-02 0.  1.
        1   -1    0    0  501    0  0.00000000000E+00  0.00000000000E+00 -0.16206567410E+04  0.16206567411E+04  0.50400001928E-02 0. -1.
    10030    2    1    2    0    0  0.00000000000E+00  0.00000000000E+00  0.37935739833E+03  0.36206708804E+04  0.36007423663E+04 0.  0.
        5    1    3    3  502    0  0.82525959481E+03  0.97230940377E+03 -0.10881319428E+04  0.16764522631E+04  0.46999998093E+01 0. -1.
       -5    1    3    3    0  502 -0.82525959481E+03 -0.97230940377E+03  0.14674893412E+04  0.19442186173E+04  0.46999998093E+01 0.  1.
</event>
<event>
 5   0  0.3880259E-07  0.3595122E+04  0.7818609E-02  0.8091610E-01
       -2   -1    0    0    0  501  0.00000000000E+00  0.00000000000E+00  0.14407141729E+04  0.14407141729E+04  0.25500000920E-02 0. -1.
        2   -1    0    0  501    0  0.00000000000E+00  0.00000000000E+00 -0.22427949098E+04  0.22427949098E+04  0.25500000920E-02 0.  1.
    10030    2    1    2    0    0  0.00000000000E+00  0.00000000000E+00 -0.80208073689E+03  0.36835090828E+04  0.35951224811E+04 0.  0.
        5    1    3    3  502    0 -0.13208721666E+04  0.43836572012E+03 -0.15666997407E+04  0.20955758045E+04  0.46999998093E+01 0.  1.
       -5    1    3    3    0  502  0.13208721666E+04 -0.43836572012E+03  0.76461900377E+03  0.15879332782E+04  0.46999998093E+01 0. -1.
</event>
<event>
 5   0  0.4120440E-07  0.3574377E+04  0.7818609E-02  0.8096386E-01
        2   -1    0    0  501    0  0.00000000000E+00  0.00000000000E+00  0.24710948632E+04  0.24710948632E+04  0.25500000920E-02 0. -1.
       -2   -1    0    0    0  501  0.00000000000E+00  0.00000000000E+00 -0.12925617286E+04  0.12925617286E+04  0.25500000920E-02 0.  1.
    10030    2    1    2    0    0  0.00000000000E+00  0.00000000000E+00  0.11785331346E+04  0.37636565918E+04  0.35743769515E+04 0.  0.
        2    1    3    3  502    0 -0.12727655392E+04 -0.11918937361E+04  0.10018042451E+04  0.20110083395E+04  0.25500000920E-02 0. -1.
       -2    1    3    3    0  502  0.12727655392E+04  0.11918937361E+04  0.17672888952E+03  0.17526482523E+04  0.25500000920E-02 0.  1.
</event>
<event>
 5   0  0.4120440E-07  0.3723464E+04  0.7818609E-02  0.8062782E-01
       -2   -1    0    0    0  501  0.00000000000E+00  0.00000000000E+00  0.14868754722E+04  0.14868754722E+04  0.25500000920E-02 0. -1.
        2   -1    0    0  501    0  0.00000000000E+00  0.00000000000E+00 -0.23310936978E+04  0.23310936978E+04  0.25500000920E-02 0.  1.
    10030    2    1    2    0    0  0.00000000000E+00  0.00000000000E+00 -0.84421822556E+03  0.38179691700E+04  0.37234640015E+04 0.  0.
        2    1    3    3  502    0  0.93404165719E+03  0.14554508016E+03  0.12224782317E+04  0.15453382201E+04  0.25500000920E-02 0. -1.
       -2    1    3    3    0  502 -0.93404165719E+03 -0.14554508016E+03 -0.20666964572E+04  0.22726309498E+04  0.25500000920E-02 0.  1.
</event>
<event>
 5   0  0.3880259E-07  0.3579229E+04  0.7818609E-02  0.8095266E-01
        2   -1    0    0  501    0  0.00000000000E+00  0.00000000000E+00  0.14137454284E+04  0.14137454284E+04  0.25500000920E-02 0.  1.
       -2   -1    0    0    0  501  0.00000000000E+00  0.00000000000E+00 -0.22654148936E+04  0.22654148936E+04  0.25500000920E-02 0. -1.
    10030    2    1    2    0    0  0.00000000000E+00  0.00000000000E+00 -0.85166946517E+03  0.36791603220E+04  0.35792289389E+04 0.  0.
        5    1    3    3  502    0 -0.24548098771E+03  0.55458154497E+03  0.13048831772E+04  0.14389453782E+04  0.46999998093E+01 0.  1.
       -5    1    3    3    0  502  0.24548098771E+03 -0.55458154497E+03 -0.21565526423E+04  0.22402149438E+04  0.46999998093E+01 0. -1.
</event>
<event>
 5   0  0.3993751E-07  0.3624815E+04  0.7818609E-02  0.8084831E-01
        2   -1    0    0  501    0  0.00000000000E+00  0.00000000000E+00  0.27092034596E+04  0.27092034596E+04  0.25500000920E-02 0.  1.
       -2   -1    0    0    0  501  0.00000000000E+00  0.00000000000E+00 -0.12124677025E+04  0.12124677025E+04  0.25500000920E-02 0. -1.
    10030    2    1    2    0    0  0.00000000000E+00  0.00000000000E+00  0.14967357571E+04  0.39216711621E+04  0.36248154128E+04 0.  0.
        1    1    3    3  502    0 -0.87062871109E+03  0.13615307261E+04 -0.13922258757E+03  0.16220798992E+04  0.50400001928E-02 0. -1.
       -1    1    3    3    0  502  0.87062871109E+03 -0.13615307261E+04  0.16359583447E+04  0.22995912628E+04  0.50400001928E-02 0.  1.
</event>
<event>
 5   0  0.4120440E-07  0.3606631E+04  0.7818609E-02  0.8088975E-01
       -2   -1    0    0    0  501  0.00000000000E+00  0.00000000000E+00  0.99640578988E+03  0.99640578989E+03  0.25500000920E-02 0.  1.
        2   -1    0    0  501    0  0.00000000000E+00  0.00000000000E+00 -0.32636762712E+04  0.32636762712E+04  0.25500000920E-02 0. -1.
    10030    2    1    2    0    0  0.00000000000E+00  0.00000000000E+00 -0.22672704813E+04  0.42600820611E+04  0.36066305233E+04 0.  0.
        2    1    3    3  502    0  0.11535100141E+04 -0.13285014439E+04 -0.16008283755E+04  0.23786872276E+04  0.25500000920E-02 0. -1.
       -2    1    3    3    0  502 -0.11535100141E+04  0.13285014439E+04 -0.66644210587E+03  0.18813948335E+04  0.25500000920E-02 0.  1.
</event>
<event>
 5   0  0.3993751E-07  0.3592227E+04  0.7818609E-02  0.8092275E-01
        2   -1    0    0  501    0  0.00000000000E+00  0.00000000000E+00  0.92826067960E+03  0.92826067961E+03  0.25500000920E-02 0. -1.
       -2   -1    0    0    0  501  0.00000000000E+00  0.00000000000E+00 -0.34753415594E+04  0.34753415594E+04  0.25500000920E-02 0.  1.
    10030    2    1    2    0    0  0.00000000000E+00  0.00000000000E+00 -0.25470808798E+04  0.44036022390E+04  0.35922265618E+04 0.  0.
        1    1    3    3  502    0 -0.13696647974E+04  0.90063433494E+03 -0.21734483624E+04  0.27223154936E+04  0.50400001928E-02 0.  1.
       -1    1    3    3    0  502  0.13696647974E+04 -0.90063433494E+03 -0.37363251739E+03  0.16812867455E+04  0.50400001928E-02 0. -1.
</event>
<event>
 5   0  0.1348226E-07  0.3597028E+04  0.7818609E-02  0.8091173E-01
        1   -1    0    0  501    0  0.00000000000E+00  0.00000000000E+00  0.22022623094E+04  0.22022623094E+04  0.50400001928E-02 0.  1.
       -1   -1    0    0    0  501  0.00000000000E+00  0.00000000000E+00 -0.14687863402E+04  0.14687863402E+04  0.50400001928E-02 0. -1.
    10030    2    1    2    0    0  0.00000000000E+00  0.00000000000E+00  0.73347596915E+03  0.36710486496E+04  0.35970281053E+04 0.  0.
        4    1    3    3  502    0 -0.17800482070E+04  0.12473866663E+03  0.59612944738E+03  0.18813567671E+04  0.12699999809E+01 0.  1.
       -4    1    3    3    0  502  0.17800482070E+04 -0.12473866663E+03  0.13734652177E+03  0.17896918825E+04  0.12699999809E+01 0. -1.
</event>
<event>
 5   0  0.1348226E-07  0.3568880E+04  0.7818609E-02  0.8097658E-01
        1   -1    0    0  501    0  0.00000000000E+00  0.00000000000E+00  0.15182160402E+04  0.15182160402E+04  0.50400001928E-02 0. -1.
       -1   -1    0    0    0  501  0.00000000000E+00  0.00000000000E+00 -0.20973469932E+04  0.20973469932E+04  0.50400001928E-02 0.  1.
    10030    2    1    2    0    0  0.00000000000E+00  0.00000000000E+00 -0.57913095305E+03  0.36155630334E+04  0.35688798506E+04 0.  0.
        4    1    3    3  502    0  0.70082285484E+03 -0.10522370983E+03  0.13695375627E+04  0.15420309502E+04  0.12699999809E+01 0. -1.
       -4    1    3    3    0  502 -0.70082285484E+03  0.10522370983E+03 -0.19486685157E+04  0.20735320832E+04  0.12699999809E+01 0.  1.
</event>
<event>
 5   0  0.1348226E-07  0.3627794E+04  0.7818609E-02  0.8084155E-01
        1   -1    0    0  501    0  0.00000000000E+00  0.00000000000E+00  0.23350098573E+04  0.23350098573E+04  0.50400001928E-02 0.  1.
       -1   -1    0    0    0  501  0.00000000000E+00  0.00000000000E+00 -0.14090828610E+04  0.14090828610E+04  0.50400001928E-02 0. -1.
    10030    2    1    2    0    0  0.00000000000E+00  0.00000000000E+00  0.92592699636E+03  0.37440927183E+04  0.36277940240E+04 0.  0.
        4    1    3    3  502    0  0.10558364669E+03  0.12716689356E+04  0.17934499738E+04  0.22010802370E+04  0.12699999809E+01 0.  1.
       -4    1    3    3    0  502 -0.10558364669E+03 -0.12716689356E+04 -0.86752297741E+03  0.15430124813E+04  0.12699999809E+01 0. -1.
</event>
<event>
 5   0  0.4200635E-07  0.3587774E+04  0.7818609E-02  0.8093298E-01
        2   -1    0    0  501    0  0.00000000000E+00  0.00000000000E+00  0.18319948487E+04  0.18319948487E+04  0.25500000920E-02 0.  1.
       -2   -1    0    0    0  501  0.00000000000E+00  0.00000000000E+00 -0.17565713693E+04  0.17565713693E+04  0.25500000920E-02 0. -1.
    10030    2    1    2    0    0  0.00000000000E+00  0.00000000000E+00  0.75423479371E+02  0.35885662180E+04  0.35877735157E+04 0.  0.
        4    1    3    3  502    0  0.14695641965E+04  0.22829067553E+03  0.10410747086E+04  0.18153715108E+04  0.12699999809E+01 0.  1.
       -4    1    3    3    0  502 -0.14695641965E+04 -0.22829067553E+03 -0.96565122927E+03  0.17731947072E+04  0.12699999809E+01 0. -1.
</event>
<event>
 5   0  0.1361743E-07  0.3452867E+04  0.7818609E-02  0.8125051E-01
       -1   -1    0    0    0  501  0.00000000000E+00  0.00000000000E+00  0.13924548107E+04  0.13924548107E+04  0.50400001928E-02 0.  1.
        1   -1    0    0  501    0  0.00000000000E+00  0.00000000000E+00 -0.21405171261E+04  0.21405171261E+04  0.50400001928E-02 0. -1.
    10030    2    1    2    0    0  0.00000000000E+00  0.00000000000E+00 -0.74806231539E+03  0.35329719369E+04  0.34528674285E+04 0.  0.
        5    1    3    3  502    0 -0.29692540473E+03 -0.50927468687E+03 -0.20343360489E+04  0.21180346202E+04  0.46999998093E+01 0. -1.
       -5    1    3    3    0  502  0.29692540473E+03  0.50927468687E+03  0.12862737335E+04  0.14149373167E+04  0.46999998093E+01 0.  1.
</event>
<event>
 5   0  0.1298250E-07  0.3635088E+04  0.7818609E-02  0.8082501E-01
       -1   -1    0    0    0  501  0.00000000000E+00  0.00000000000E+00  0.31970064082E+04  0.31970064082E+04  0.50400001928E-02 0. -1.
        1   -1    0    0  501    0  0.00000000000E+00  0.00000000000E+00 -0.10333000263E+04  0.10333000263E+04  0.50400001928E-02 0.  1.
    10030    2    1    2    0    0  0.00000000000E+00  0.00000000000E+00  0.21637063819E+04  0.42303064345E+04  0.36350883377E+04 0.  0.
        2    1    3    3  502    0 -0.14349980942E+04  0.70273452558E+03  0.73746289147E+02  0.15995292617E+04  0.25500000920E-02 0.  1.
       -2    1    3    3    0  502  0.14349980942E+04 -0.70273452558E+03  0.20899600927E+04  0.26307771728E+04  0.25500000920E-02 0. -1.
</event>
<event>
 5   0  0.1348226E-07  0.3601547E+04  0.7818609E-02  0.8090137E-01
       -1   -1    0    0    0  501  0.00000000000E+00  0.00000000000E+00  0.22343362849E+04  0.22343362849E+04  0.50400001928E-02 0. -1.
        1   -1    0    0  501    0  0.00000000000E+00  0.00000000000E+00 -0.14513417248E+04  0.14513417249E+04  0.50400001928E-02 0.  1.
    10030    2    1    2    0    0  0.00000000000E+00  0.00000000000E+00  0.78299456002E+03  0.36856780097E+04  0.36015471551E+04 0.  0.
        4    1    3    3  502    0  0.96988264208E+03 -0.15164818480E+04  0.44157220346E+03  0.18534770456E+04  0.12699999809E+01 0. -1.
       -4    1    3    3    0  502 -0.96988264208E+03  0.15164818480E+04  0.34142235656E+03  0.18322009642E+04  0.12699999809E+01 0.  1.
</event>
<event>
 5   0  0.1348226E-07  0.3630370E+04  0.7818609E-02  0.8083570E-01
       -1   -1    0    0    0  501  0.00000000000E+00  0.00000000000E+00  0.21944446053E+04  0.21944446054E+04  0.50400001928E-02 0.  1.
        1   -1    0    0  501    0  0.00000000000E+00  0.00000000000E+00 -0.15014718563E+04  0.15014718563E+04  0.50400001928E-02 0. -1.
    10030    2    1    2    0    0  0.00000000000E+00  0.00000000000E+00  0.69297274903E+03  0.36959164617E+04  0.36303701272E+04 0.  0.
        4    1    3    3  502    0 -0.53304240328E+03  0.10201666915E+04  0.17754022471E+04  0.21158754770E+04  0.12699999809E+01 0.  1.
       -4    1    3    3    0  502  0.53304240328E+03 -0.10201666915E+04 -0.10824294981E+04  0.15800409847E+04  0.12699999809E+01 0. -1.
</event>
<event>
 5   0  0.4115358E-07  0.3594671E+04  0.7818609E-02  0.8091713E-01
       -2   -1    0    0    0  501  0.00000000000E+00  0.00000000000E+00  0.32957263004E+04  0.32957263004E+04  0.25500000920E-02 0.  1.
        2   -1    0    0  501    0  0.00000000000E+00  0.00000000000E+00 -0.98018303732E+03  0.98018303733E+03  0.25500000920E-02 0. -1.
    10030    2    1    2    0    0  0.00000000000E+00  0.00000000000E+00  0.23155432630E+04  0.42759093377E+04  0.35946710644E+04 0.  0.
        3    1    3    3  502    0 -0.39108557902E+03  0.87220304006E+03 -0.65276344730E+03  0.11574913397E+04  0.10100000352E+00 0. -1.
       -3    1    3    3    0  502  0.39108557902E+03 -0.87220304006E+03  0.29683067103E+04  0.31184179980E+04  0.10100000352E+00 0.  1.
</event>
<event>
 5   0  0.1298250E-07  0.3616370E+04  0.7818609E-02  0.8086752E-01
       -1   -1    0    0    0  501  0.00000000000E+00  0.00000000000E+00  0.19277902872E+04  0.19277902872E+04  0.50400001928E-02 0. -1.
        1   -1    0    0  501    0  0.00000000000E+00  0.00000000000E+00 -0.16960003026E+04  0.16960003026E+04  0.50400001928E-02 0.  1.
    10030    2    1    2    0    0  0.00000000000E+00  0.00000000000E+00  0.23178998463E+03  0.36237905897E+04  0.36163699536E+04 0.  0.
        2    1    3    3  502    0 -0.10313529026E+04  0.13970782102E+04  0.62092975041E+03  0.18441990376E+04  0.25500000920E-02 0. -1.
       -2    1    3    3    0  502  0.10313529026E+04 -0.13970782102E+04 -0.38913976578E+03  0.17795915522E+04  0.25500000920E-02 0.  1.
</event>
<event>
 5   0  0.4115358E-07  0.3602544E+04  0.7818609E-02  0.8089909E-01
       -2   -1    0    0    0  501  0.00000000000E+00  0.00000000000E+00  0.18572036006E+04  0.18572036006E+04  0.25500000920E-02 0. -1.
        2   -1    0    0  501    0  0.00000000000E+00  0.00000000000E+00 -0.17470250891E+04  0.17470250891E+04  0.25500000920E-02 0.  1.
    10030    2    1    2    0    0  0.00000000000E+00  0.00000000000E+00  0.11017851146E+03  0.36042286897E+04  0.36025442597E+04 0.  0.
        3    1    3    3  502    0 -0.10017059450E+03  0.15853544054E+03  0.18474105365E+04  0.18569042341E+04  0.10100000352E+00 0. -1.
       -3    1    3    3    0  502  0.10017059450E+03 -0.15853544054E+03 -0.17372320251E+04  0.17473244556E+04  0.10100000352E+00 0.  1.
</event>
<event>
 5   0  0.1298250E-07  0.3617116E+04  0.7818609E-02  0.8086582E-01
        3   -1    0    0  501    0  0.00000000000E+00  0.00000000000E+00  0.22944452529E+04  0.22944452551E+04  0.10100000352E+00 0.  1.
       -3   -1    0    0    0  501  0.00000000000E+00  0.00000000000E+00 -0.14255651347E+04  0.14255651383E+04  0.10100000352E+00 0. -1.
    10030    2    1    2    0    0  0.00000000000E+00  0.00000000000E+00  0.86888011818E+03  0.37200103934E+04  0.36171155176E+04 0.  0.
        2    1    3    3  502    0  0.40942111614E+03  0.55684730035E+03  0.21532623294E+04  0.22614692625E+04  0.25500000920E-02 0.  1.
       -2    1    3    3    0  502 -0.40942111614E+03 -0.55684730035E+03 -0.12843822112E+04  0.14585411309E+04  0.25500000920E-02 0. -1.
</event>
<event>
 5   0  0.4115358E-07  0.3587976E+04  0.7818609E-02  0.8093252E-01
        2   -1    0    0  501    0  0.00000000000E+00  0.00000000000E+00  0.11386675806E+04  0.11386675806E+04  0.25500000920E-02 0.  1.
       -2   -1    0    0    0  501  0.00000000000E+00  0.00000000000E+00 -0.28264544895E+04  0.28264544895E+04  0.25500000920E-02 0. -1.
    10030    2    1    2    0    0  0.00000000000E+00  0.00000000000E+00 -0.16877869088E+04  0.39651220701E+04  0.35879755268E+04 0.  0.
        3    1    3    3  502    0  0.45997019719E+03 -0.70612242892E+03 -0.25940991425E+04  0.27275505198E+04  0.10100000352E+00 0. -1.
       -3    1    3    3    0  502 -0.45997019719E+03  0.70612242892E+03  0.90631223366E+03  0.12375715503E+04  0.10100000352E+00 0.  1.
</event>
<event>
 5   0  0.1370997E-07  0.3601018E+04  0.7818609E-02  0.8090259E-01
       -1   -1    0    0    0  501  0.00000000000E+00  0.00000000000E+00  0.11338828571E+04  0.11338828571E+04  0.50400001928E-02 0. -1.
        1   -1    0    0  501    0  0.00000000000E+00  0.00000000000E+00 -0.28590536324E+04  0.28590536324E+04  0.50400001928E-02 0.  1.
    10030    2    1    2    0    0  0.00000000000E+00  0.00000000000E+00 -0.17251707753E+04  0.39929364895E+04  0.36010175792E+04 0.  0.
        3    1    3    3  502    0 -0.10509393110E+04  0.12976016198E+04 -0.11579593625E+03  0.16738136420E+04  0.10100000352E+00 0.  1.
       -3    1    3    3    0  502  0.10509393110E+04 -0.12976016198E+04 -0.16093748391E+04  0.23191228475E+04  0.10100000352E+00 0. -1.
</event>
<event>
 5   0  0.1361743E-07  0.3489820E+04  0.7818609E-02  0.8116207E-01
       -1   -1    0    0    0  501  0.00000000000E+00  0.00000000000E+00  0.11420817853E+04  0.11420817853E+04  0.50400001928E-02 0. -1.
        1   -1    0    0  501    0  0.00000000000E+00  0.00000000000E+00 -0.26659309749E+04  0.26659309749E+04  0.50400001928E-02 0.  1.
    10030    2    1    2    0    0  0.00000000000E+00  0.00000000000E+00 -0.15238491896E+04  0.38080127602E+04  0.34898201714E+04 0.  0.
        5    1    3    3  502    0  0.59796041547E+03  0.12639742282E+04 -0.19008867254E+04  0.23597838759E+04  0.46999998093E+01 0.  1.
       -5    1    3    3    0  502 -0.59796041547E+03 -0.12639742282E+04  0.37703753581E+03  0.14482288843E+04  0.46999998093E+01 0. -1.
</event>
<event>
 5   0  0.3880259E-07  0.3569074E+04  0.7818609E-02  0.8097613E-01
        2   -1    0    0  501    0  0.00000000000E+00  0.00000000000E+00  0.12738861991E+04  0.12738861991E+04  0.25500000920E-02 0. -1.
       -2   -1    0    0    0  501  0.00000000000E+00  0.00000000000E+00 -0.24998880860E+04  0.24998880860E+04  0.25500000920E-02 0.  1.
    10030    2    1    2    0    0  0.00000000000E+00  0.00000000000E+00 -0.12260018869E+04  0.37737742851E+04  0.35690743517E+04 0.  0.
        5    1    3    3  502    0  0.50541673083E+02  0.10446801068E+04  0.91583166848E+03  0.13902088768E+04  0.46999998093E+01 0. -1.
       -5    1    3    3    0  502 -0.50541673083E+02 -0.10446801068E+04 -0.21418335554E+04  0.23835654082E+04  0.46999998093E+01 0.  1.
</event>
<event>
 5   0  0.1370997E-07  0.3624873E+04  0.7818609E-02  0.8084818E-01
       -1   -1    0    0    0  501  0.00000000000E+00  0.00000000000E+00  0.15470458779E+04  0.15470458779E+04  0.50400001928E-02 0. -1.
        1   -1    0    0  501    0  0.00000000000E+00  0.00000000000E+00 -0.21233538805E+04  0.21233538805E+04  0.50400001928E-02 0.  1.
    10030    2    1    2    0    0  0.00000000000E+00  0.00000000000E+00 -0.57630800262E+03  0.36703997584E+04  0.36248728905E+04 0.  0.
        3    1    3    3  502    0 -0.16399470945E+04  0.22094258885E+03  0.46051296471E+03  0.17176478979E+04  0.10100000352E+00 0. -1.
       -3    1    3    3    0  502  0.16399470945E+04 -0.22094258885E+03 -0.10368209673E+04  0.19527518605E+04  0.10100000352E+00 0.  1.
</event>
<event>
 5   0  0.1298250E-07  0.3674307E+04  0.7818609E-02  0.8073680E-01
        1   -1    0    0  501    0  0.00000000000E+00  0.00000000000E+00  0.16651415086E+04  0.16651415086E+04  0.50400001928E-02 0. -1.
       -1   -1    0    0    0  501  0.00000000000E+00  0.00000000000E+00 -0.20269349405E+04  0.20269349405E+04  0.50400001928E-02 0.  1.
    10030    2    1    2    0    0  0.00000000000E+00  0.00000000000E+00 -0.36179343193E+03  0.36920764491E+04  0.36743072842E+04 0.  0.
        2    1    3    3  502    0  0.11442130503E+04  0.15511604441E+03  0.12549465098E+04  0.17053372787E+04  0.25500000920E-02 0. -1.
       -2    1    3    3    0  502 -0.11442130503E+04 -0.15511604441E+03 -0.16167399417E+04  0.19867391704E+04  0.25500000920E-02 0.  1.
</event>
<event>
 5   0  0.4120440E-07  0.3563601E+04  0.7818609E-02  0.8098881E-01
       -2   -1    0    0    0  501  0.00000000000E+00  0.00000000000E+00  0.14072720290E+04  0.14072720290E+04  0.25500000920E-02 0. -1.
        2   -1    0    0  501    0  0.00000000000E+00  0.00000000000E+00 -0.22560046646E+04  0.22560046646E+04  0.25500000920E-02 0.  1.
    10030    2    1    2    0    0  0.00000000000E+00  0.00000000000E+00 -0.84873263563E+03  0.36632766936E+04  0.35636005735E+04 0.  0.
        2    1    3    3  502    0 -0.11815466411E+04 -0.98393060000E+03  0.50117288126E+03  0.16172031869E+04  0.25500000920E-02 0. -1.
       -2    1    3    3    0  502  0.11815466411E+04  0.98393060000E+03 -0.13499055169E+04  0.20460735068E+04  0.25500000920E-02 0.  1.
</event>
<event>
 5   0  0.4120440E-07  0.3598441E+04  0.7818609E-02  0.8090849E-01
        2   -1    0    0  501    0  0.00000000000E+00  0.00000000000E+00  0.14501797092E+04  0.14501797092E+04  0.25500000920E-02 0.  1.
       -2   -1    0    0    0  501  0.00000000000E+00  0.00000000000E+00 -0.22322710063E+04  0.22322710063E+04  0.25500000920E-02 0. -1.
    10030    2    1    2    0    0  0.00000000000E+00  0.00000000000E+00 -0.78209129708E+03  0.36824507154E+04  0.35984408394E+04 0.  0.
        2    1    3    3  502    0  0.10201281667E+04 -0.13045176868E+04  0.32877219515E+03  0.16883480175E+04  0.25500000920E-02 0. -1.
       -2    1    3    3    0  502 -0.10201281667E+04  0.13045176868E+04 -0.11108634922E+04  0.19941026980E+04  0.25500000920E-02 0.  1.
</event>
<event>
 5   0  0.4200635E-07  0.3572029E+04  0.7818609E-02  0.8096929E-01
        2   -1    0    0  501    0  0.00000000000E+00  0.00000000000E+00  0.16802804074E+04  0.16802804074E+04  0.25500000920E-02 0. -1.
       -2   -1    0    0    0  501  0.00000000000E+00  0.00000000000E+00 -0.18984017539E+04  0.18984017539E+04  0.25500000920E-02 0.  1.
    10030    2    1    2    0    0  0.00000000000E+00  0.00000000000E+00 -0.21812134653E+03  0.35786821612E+04  0.35720287078E+04 0.  0.
        4    1    3    3  502    0  0.15424605529E+04 -0.11564745397E+03 -0.10036330145E+04  0.18438654320E+04  0.12699999809E+01 0.  1.
       -4    1    3    3    0  502 -0.15424605529E+04  0.11564745397E+03  0.78551166792E+03  0.17348167292E+04  0.12699999809E+01 0. -1.
</event>
<event>
 5   0  0.3993751E-07  0.3550053E+04  0.7818609E-02  0.8102029E-01
        2   -1    0    0  501    0  0.00000000000E+00  0.00000000000E+00  0.22124137885E+04  0.22124137885E+04  0.25500000920E-02 0. -1.
       -2   -1    0    0    0  501  0.00000000000E+00  0.00000000000E+00 -0.14241094108E+04  0.14241094108E+04  0.25500000920E-02 0.  1.
    10030    2    1    2    0    0  0.00000000000E+00  0.00000000000E+00  0.78830437768E+03  0.36365231993E+04  0.35500531245E+04 0.  0.
        1    1    3    3  502    0 -0.12276322774E+04  0.92382957153E+03 -0.51641869771E+03  0.16208733316E+04  0.50400001928E-02 0.  1.
       -1    1    3    3    0  502  0.12276322774E+04 -0.92382957153E+03  0.13047230754E+04  0.20156498677E+04  0.50400001928E-02 0. -1.
</event>
<event>
 5   0  0.3880259E-07  0.3605204E+04  0.7818609E-02  0.8089301E-01
       -2   -1    0    0    0  501  0.00000000000E+00  0.00000000000E+00  0.13273309368E+04  0.13273309368E+04  0.25500000920E-02 0.  1.
        2   -1    0    0  501    0  0.00000000000E+00  0.00000000000E+00 -0.24480512061E+04  0.24480512061E+04  0.25500000920E-02 0. -1.
    10030    2    1    2    0    0  0.00000000000E+00  0.00000000000E+00 -0.11207202693E+04  0.37753821430E+04  0.36052040724E+04 0.  0.
        5    1    3    3  502    0  0.75007890264E+03 -0.30177868924E+03 -0.22475161337E+04  0.23885224719E+04  0.46999998093E+01 0. -1.
       -5    1    3    3    0  502 -0.75007890264E+03  0.30177868924E+03  0.11267958644E+04  0.13868596711E+04  0.46999998093E+01 0.  1.
</event>
<event>
 5   0  0.4200635E-07  0.3805904E+04  0.7818609E-02  0.8044889E-01
        2   -1    0    0  501    0  0.00000000000E+00  0.00000000000E+00  0.10937414831E+04  0.10937414831E+04  0.25500000920E-02 0.  1.
       -2   -1    0    0    0  501  0.00000000000E+00  0.00000000000E+00 -0.33108614469E+04  0.33108614469E+04  0.25500000920E-02 0. -1.
    10030    2    1    2    0    0  0.00000000000E+00  0.00000000000E+00 -0.22171199638E+04  0.44046029300E+04  0.38059041024E+04 0.  0.
        4    1    3    3  502    0  0.12366343489E+04 -0.10943604043E+04 -0.22030182415E+04  0.27532127039E+04  0.12699999809E+01 0. -1.
       -4    1    3    3    0  502 -0.12366343489E+04  0.10943604043E+04 -0.14101722325E+02  0.16513902261E+04  0.12699999809E+01 0.  1.
</event>
<event>
 5   0  0.4115358E-07  0.3607592E+04  0.7818609E-02  0.8088755E-01
       -2   -1    0    0    0  501  0.00000000000E+00  0.00000000000E+00  0.11837285761E+04  0.11837285761E+04  0.25500000920E-02 0.  1.
        2   -1    0    0  501    0  0.00000000000E+00  0.00000000000E+00 -0.27486707850E+04  0.27486707850E+04  0.25500000920E-02 0. -1.
    10030    2    1    2    0    0  0.00000000000E+00  0.00000000000E+00 -0.15649422089E+04  0.39323993612E+04  0.36075920804E+04 0.  0.
        3    1    3    3  502    0 -0.15814478236E+04 -0.86100817354E+03 -0.66625150507E+03  0.19199487941E+04  0.10100000352E+00 0. -1.
       -3    1    3    3    0  502  0.15814478236E+04  0.86100817354E+03 -0.89869070386E+03  0.20124505671E+04  0.10100000352E+00 0.  1.
</event>
<event>
 5   0  0.1370997E-07  0.3570739E+04  0.7818609E-02  0.8097227E-01
        1   -1    0    0  501    0  0.00000000000E+00  0.00000000000E+00  0.23340198112E+04  0.23340198112E+04  0.50400001928E-02 0.  1.
       -1   -1    0    0    0  501  0.00000000000E+00  0.00000000000E+00 -0.13656882402E+04  0.13656882402E+04  0.50400001928E-02 0. -1.
    10030    2    1    2    0    0  0.00000000000E+00  0.00000000000E+00  0.96833157097E+03  0.36997080515E+04  0.35707385279E+04 0.  0.
        3    1    3    3  502    0  0.29231679025E+03  0.25866071215E+03 -0.13209383860E+04  0.13774007041E+04  0.10100000352E+00 0. -1.
       -3    1    3    3    0  502 -0.29231679025E+03 -0.25866071215E+03  0.22892699569E+04  0.23223073474E+04  0.10100000352E+00 0.  1.
</event>
<event>
 5   0  0.3880259E-07  0.3636253E+04  0.7818609E-02  0.8082238E-01
       -2   -1    0    0    0  501  0.00000000000E+00  0.00000000000E+00  0.23842870998E+04  0.23842870998E+04  0.25500000920E-02 0. -1.
        2   -1    0    0  501    0  0.00000000000E+00  0.00000000000E+00 -0.13864038270E+04  0.13864038270E+04  0.25500000920E-02 0.  1.
    10030    2    1    2    0    0  0.00000000000E+00  0.00000000000E+00  0.99788327284E+03  0.37706909268E+04  0.36362534344E+04 0.  0.
        5    1    3    3  502    0  0.70479552559E+03  0.14894195750E+04  0.12957617566E+04  0.20962175515E+04  0.46999998093E+01 0. -1.
       -5    1    3    3    0  502 -0.70479552559E+03 -0.14894195750E+04 -0.29787848378E+03  0.16744733753E+04  0.46999998093E+01 0.  1.
</event>
<event>
 5   0  0.1348226E-07  0.3583750E+04  0.7818609E-02  0.8094224E-01
       -1   -1    0    0    0  501  0.00000000000E+00  0.00000000000E+00  0.26078449369E+04  0.26078449369E+04  0.50400001928E-02 0.  1.
        1   -1    0    0  501    0  0.00000000000E+00  0.00000000000E+00 -0.12312139895E+04  0.12312139895E+04  0.50400001928E-02 0. -1.
    10030    2    1    2    0    0  0.00000000000E+00  0.00000000000E+00  0.13766309474E+04  0.38390589263E+04  0.35837495273E+04 0.  0.
        4    1    3    3  502    0 -0.57200008631E+03 -0.11196932906E+04 -0.67931822477E+03  0.14291158201E+04  0.12699999809E+01 0. -1.
       -4    1    3    3    0  502  0.57200008631E+03  0.11196932906E+04  0.20559491722E+04  0.24099431062E+04  0.12699999809E+01 0.  1.
</event>
<event>
 5   0  0.3993751E-07  0.3608108E+04  0.7818609E-02  0.8088637E-01
       -2   -1    0    0    0  501  0.00000000000E+00  0.00000000000E+00  0.12452962244E+04  0.12452962244E+04  0.25500000920E-02 0.  1.
        2   -1    0    0  501    0  0.00000000000E+00  0.00000000000E+00 -0.26135236609E+04  0.26135236609E+04  0.25500000920E-02 0. -1.
    10030    2    1    2    0    0  0.00000000000E+00  0.00000000000E+00 -0.13682274365E+04  0.38588198853E+04  0.36081081732E+04 0.  0.
        1    1    3    3  502    0  0.14379552430E+04 -0.60027369503E+02  0.47926477036E+03  0.15169091226E+04  0.50400001928E-02 0.  1.
       -1    1    3    3    0  502 -0.14379552430E+04  0.60027369503E+02 -0.18474922069E+04  0.23419107627E+04  0.50400001928E-02 0. -1.
</event>
<event>
 5   0  0.4120440E-07  0.3603676E+04  0.7818609E-02  0.8089650E-01
       -2   -1    0    0    0  501  0.00000000000E+00  0.00000000000E+00  0.21992472807E+04  0.21992472807E+04  0.25500000920E-02 0. -1.
        2   -1    0    0  501    0  0.00000000000E+00  0.00000000000E+00 -0.14762416173E+04  0.14762416173E+04  0.25500000920E-02 0.  1.
    10030    2    1    2    0    0  0.00000000000E+00  0.00000000000E+00  0.72300566342E+03  0.36754888981E+04  0.36036761023E+04 0.  0.
        2    1    3    3  502    0 -0.41527631796E+03 -0.37347374507E+03 -0.13857267991E+04  0.14940467932E+04  0.25500000920E-02 0.  1.
       -2    1    3    3    0  502  0.41527631796E+03  0.37347374507E+03  0.21087324625E+04  0.21814421049E+04  0.25500000920E-02 0. -1.
</event>
<event>
 5   0  0.1361743E-07  0.3598320E+04  0.7818609E-02  0.8090877E-01
        1   -1    0    0  501    0  0.00000000000E+00  0.00000000000E+00  0.25782609181E+04  0.25782609181E+04  0.50400001928E-02 0. -1.
       -1   -1    0    0    0  501  0.00000000000E+00  0.00000000000E+00 -0.12554884654E+04  0.12554884654E+04  0.50400001928E-02 0.  1.
    10030    2    1    2    0    0  0.00000000000E+00  0.00000000000E+00  0.13227724527E+04  0.38337493836E+04  0.35983200767E+04 0.  0.
        5    1    3    3  502    0 -0.13989272862E+04  0.45768803584E+03  0.17637196493E+04  0.22972167903E+04  0.46999998093E+01 0. -1.
       -5    1    3    3    0  502  0.13989272862E+04 -0.45768803584E+03 -0.44094719658E+03  0.15365325933E+04  0.46999998093E+01 0.  1.
</event>
<event>
 5   0  0.4200635E-07  0.3585299E+04  0.7818609E-02  0.8093867E-01
       -2   -1    0    0    0  501  0.00000000000E+00  0.00000000000E+00  0.14697566047E+04  0.14697566047E+04  0.25500000920E-02 0. -1.
        2   -1    0    0  501    0  0.00000000000E+00  0.00000000000E+00 -0.21864790584E+04  0.21864790584E+04  0.25500000920E-02 0.  1.
    10030    2    1    2    0    0  0.00000000000E+00  0.00000000000E+00 -0.71672245363E+03  0.36562356631E+04  0.35852988925E+04 0.  0.
        4    1    3    3  502    0  0.19032238786E+03  0.59898380435E+03 -0.20704428876E+04  0.21637327869E+04  0.12699999809E+01 0.  1.
       -4    1    3    3    0  502 -0.19032238786E+03 -0.59898380435E+03  0.13537204340E+04  0.14925028762E+04  0.12699999809E+01 0. -1.
</event>
<event>
 5   0  0.3880259E-07  0.3448534E+04  0.7818609E-02  0.8126096E-01
       -2   -1    0    0    0  501  0.00000000000E+00  0.00000000000E+00  0.17283345808E+04  0.17283345809E+04  0.25500000920E-02 0.  1.
        2   -1    0    0  501    0  0.00000000000E+00  0.00000000000E+00 -0.17202088742E+04  0.17202088742E+04  0.25500000920E-02 0. -1.
    10030    2    1    2    0    0  0.00000000000E+00  0.00000000000E+00  0.81257066060E+01  0.34485434551E+04  0.34485338819E+04 0.  0.
        5    1    3    3  502    0 -0.53904679006E+03 -0.14259554106E+04  0.80976610070E+03  0.17261701836E+04  0.46999998093E+01 0.  1.
       -5    1    3    3    0  502  0.53904679006E+03  0.14259554106E+04 -0.80164039410E+03  0.17223732715E+04  0.46999998093E+01 0. -1.
</event>
<event>
 5   0  0.1348226E-07  0.3572040E+04  0.7818609E-02  0.8096926E-01
       -1   -1    0    0    0  501  0.00000000000E+00  0.00000000000E+00  0.20297186847E+04  0.20297186847E+04  0.50400001928E-02 0.  1.
        1   -1    0    0  501    0  0.00000000000E+00  0.00000000000E+00 -0.15715811461E+04  0.15715811461E+04  0.50400001928E-02 0. -1.
    10030    2    1    2    0    0  0.00000000000E+00  0.00000000000E+00  0.45813753861E+03  0.36012998308E+04  0.35720400988E+04 0.  0.
        4    1    3    3  502    0 -0.49688779608E+03 -0.15954957386E+04  0.86459876127E+03  0.18814985423E+04  0.12699999809E+01 0. -1.
       -4    1    3    3    0  502  0.49688779608E+03  0.15954957386E+04 -0.40646122266E+03  0.17198012885E+04  0.12699999809E+01 0.  1.
</event>
<event>
 5   0  0.4115358E-07  0.3591640E+04  0.7818609E-02  0.8092409E-01
       -2   -1    0    0    0  501  0.00000000000E+00  0.00000000000E+00  0.11229929026E+04  0.11229929026E+04  0.25500000920E-02 0.  1.
        2   -1    0    0  501    0  0.00000000000E+00  0.00000000000E+00 -0.28717634461E+04  0.28717634461E+04  0.25500000920E-02 0. -1.
    10030    2    1    2    0    0  0.00000000000E+00  0.00000000000E+00 -0.17487705436E+04  0.39947563487E+04  0.35916402759E+04 0.  0.
        3    1    3    3  502    0  0.31392300862E+03 -0.47882288388E+03  0.10187560039E+04  0.11686243259E+04  0.10100000352E+00 0.  1.
       -3    1    3    3    0  502 -0.31392300862E+03  0.47882288388E+03 -0.27675265474E+04  0.28261320228E+04  0.10100000352E+00 0. -1.
</event>
<event>
 5   0  0.1298250E-07  0.3572256E+04  0.7818609E-02  0.8096877E-01
        3   -1    0    0  501    0  0.00000000000E+00  0.00000000000E+00  0.15190566431E+04  0.15190566464E+04  0.10100000352E+00 0.  1.
       -3   -1    0    0    0  501  0.00000000000E+00  0.00000000000E+00 -0.21001541524E+04  0.21001541548E+04  0.10100000352E+00 0. -1.
    10030    2    1    2    0    0  0.00000000000E+00  0.00000000000E+00 -0.58109750931E+03  0.36192108013E+04  0.35722559411E+04 0.  0.
        3    1    3    3  502    0  0.88467750692E+03 -0.16148759527E+03  0.12729533918E+04  0.15585707820E+04  0.10100000352E+00 0.  1.
       -3    1    3    3    0  502 -0.88467750692E+03  0.16148759527E+03 -0.18540509011E+04  0.20606400192E+04  0.10100000352E+00 0. -1.
</event>
<event>
 5   0  0.1370997E-07  0.3731616E+04  0.7818609E-02  0.8060991E-01
       -1   -1    0    0    0  501  0.00000000000E+00  0.00000000000E+00  0.24729894466E+04  0.24729894466E+04  0.50400001928E-02 0. -1.
        1   -1    0    0  501    0  0.00000000000E+00  0.00000000000E+00 -0.14077047174E+04  0.14077047174E+04  0.50400001928E-02 0.  1.
    10030    2    1    2    0    0  0.00000000000E+00  0.00000000000E+00  0.10652847292E+04  0.38806941640E+04  0.37316156876E+04 0.  0.
        3    1    3    3  502    0  0.42204992349E+03 -0.78318882825E+03  0.22382011431E+04  0.24085379893E+04  0.10100000352E+00 0. -1.
       -3    1    3    3    0  502 -0.42204992349E+03  0.78318882825E+03 -0.11729164139E+04  0.14721561747E+04  0.10100000352E+00 0.  1.
</event>
<event>
 5   0  0.1370997E-07  0.3590174E+04  0.7818609E-02  0.8092746E-01
       -1   -1    0    0    0  501  0.00000000000E+00  0.00000000000E+00  0.22917434345E+04  0.22917434345E+04  0.50400001928E-02 0.  1.
        1   -1    0    0  501    0  0.00000000000E+00  0.00000000000E+00 -0.14060637222E+04  0.14060637222E+04  0.50400001928E-02 0. -1.
    10030    2    1    2    0    0  0.00000000000E+00  0.00000000000E+00  0.88567971227E+03  0.36978071568E+04  0.35901739813E+04 0.  0.
        3    1    3    3  502    0 -0.38686323031E+02  0.11892459203E+04 -0.94152934856E+03  0.15173266013E+04  0.10100000352E+00 0. -1.
       -3    1    3    3    0  502  0.38686323031E+02 -0.11892459203E+04  0.18272090608E+04  0.21804805555E+04  0.10100000352E+00 0.  1.
</event>
<event>
 5   0  0.1298250E-07  0.3592812E+04  0.7818609E-02  0.8092140E-01
        1   -1    0    0  501    0  0.00000000000E+00  0.00000000000E+00  0.28862606728E+04  0.28862606728E+04  0.50400001928E-02 0. -1.
       -1   -1    0    0    0  501  0.00000000000E+00  0.00000000000E+00 -0.11180816229E+04  0.11180816230E+04  0.50400001928E-02 0.  1.
    10030    2    1    2    0    0  0.00000000000E+00  0.00000000000E+00  0.17681790499E+04  0.40043422958E+04  0.35928122786E+04 0.  0.
        1    1    3    3  502    0 -0.97952440423E+03  0.12863753908E+04  0.17566029188E+04  0.23874428829E+04  0.50400001928E-02 0. -1.
       -1    1    3    3    0  502  0.97952440423E+03 -0.12863753908E+04  0.11576131050E+02  0.16168994129E+04  0.50400001928E-02 0.  1.
</event>
<event>
 5   0  0.4115358E-07  0.3597256E+04  0.7818609E-02  0.8091120E-01
        2   -1    0    0  501    0  0.00000000000E+00  0.00000000000E+00  0.15364785164E+04  0.15364785164E+04  0.25500000920E-02 0.  1.
       -2   -1    0    0    0  501  0.00000000000E+00  0.00000000000E+00 -0.21055050115E+04  0.21055050115E+04  0.25500000920E-02 0. -1.
    10030    2    1    2    0    0  0.00000000000E+00  0.00000000000E+00 -0.56902649515E+03  0.36419835279E+04  0.35972562968E+04 0.  0.
        3    1    3    3  502    0  0.69423654997E+03 -0.13095230424E+04  0.74710067188E+03  0.16598115586E+04  0.10100000352E+00 0.  1.
       -3    1    3    3    0  502 -0.69423654997E+03  0.13095230424E+04 -0.13161271670E+04  0.19821719693E+04  0.10100000352E+00 0. -1.
</event>
<event>
 5   0  0.4115358E-07  0.3598486E+04  0.7818609E-02  0.8090838E-01
        2   -1    0    0  501    0  0.00000000000E+00  0.00000000000E+00  0.16819477027E+04  0.16819477027E+04  0.25500000920E-02 0. -1.
       -2   -1    0    0    0  501  0.00000000000E+00  0.00000000000E+00 -0.19247187357E+04  0.19247187357E+04  0.25500000920E-02 0.  1.
    10030    2    1    2    0    0  0.00000000000E+00  0.00000000000E+00 -0.24277103295E+03  0.36066664384E+04  0.35984864907E+04 0.  0.
        3    1    3    3  502    0 -0.13430785178E+04 -0.10286758477E+03  0.10741522805E+04  0.17228594768E+04  0.10100000352E+00 0. -1.
       -3    1    3    3    0  502  0.13430785178E+04  0.10286758477E+03 -0.13169233135E+04  0.18838069616E+04  0.10100000352E+00 0.  1.
</event>
<event>
 5   0  0.3880259E-07  0.3616998E+04  0.7818609E-02  0.8086609E-01
        2   -1    0    0  501    0  0.00000000000E+00  0.00000000000E+00  0.17356905756E+04  0.17356905756E+04  0.25500000920E-02 0. -1.
       -2   -1    0    0    0  501  0.00000000000E+00  0.00000000000E+00 -0.18843619270E+04  0.18843619270E+04  0.25500000920E-02 0.  1.
    10030    2    1    2    0    0  0.00000000000E+00  0.00000000000E+00 -0.14867135147E+03  0.36200525026E+04  0.36169983343E+04 0.  0.
        5    1    3    3  502    0 -0.17150976582E+03  0.14831599346E+04  0.94704951886E+03  0.17680791477E+04  0.46999998093E+01 0.  1.
       -5    1    3    3    0  502  0.17150976582E+03 -0.14831599346E+04 -0.10957208703E+04  0.18519733549E+04  0.46999998093E+01 0. -1.
</event>
<event>
 5   0  0.1298250E-07  0.3596063E+04  0.7818609E-02  0.8091394E-01
       -1   -1    0    0    0  501  0.00000000000E+00  0.00000000000E+00  0.11368653178E+04  0.11368653179E+04  0.50400001928E-02 0.  1.
        1   -1    0    0  501    0  0.00000000000E+00  0.00000000000E+00 -0.28437114561E+04  0.28437114561E+04  0.50400001928E-02 0. -1.
    10030    2    1    2    0    0  0.00000000000E+00  0.00000000000E+00 -0.17068461382E+04  0.39805767740E+04  0.35960628073E+04 0.  0.
        2    1    3    3  502    0  0.14025299850E+04 -0.10197339262E+04 -0.13796141064E+04  0.22159157749E+04  0.25500000920E-02 0. -1.
       -2    1    3    3    0  502 -0.14025299850E+04  0.10197339262E+04 -0.32723203186E+03  0.17646609991E+04  0.25500000920E-02 0.  1.
</event>
<event>
 5   0  0.1348226E-07  0.3577703E+04  0.7818609E-02  0.8095618E-01
       -1   -1    0    0    0  501  0.00000000000E+00  0.00000000000E+00  0.14164754006E+04  0.14164754006E+04  0.50400001928E-02 0.  1.
        1   -1    0    0  501    0  0.00000000000E+00  0.00000000000E+00 -0.22591214443E+04  0.22591214443E+04  0.50400001928E-02 0. -1.
    10030    2    1    2    0    0  0.00000000000E+00  0.00000000000E+00 -0.84264604370E+03  0.36755968450E+04  0.35777031475E+04 0.  0.
        4    1    3    3  502    0  0.10787251386E+04 -0.62046785177E+03  0.89889134741E+03  0.15351337228E+04  0.12699999809E+01 0.  1.
       -4    1    3    3    0  502 -0.10787251386E+04  0.62046785177E+03 -0.17415373911E+04  0.21404631221E+04  0.12699999809E+01 0. -1.
</event>
<event>
 5   0  0.4120440E-07  0.3536800E+04  0.7818609E-02  0.8105124E-01
        2   -1    0    0  501    0  0.00000000000E+00  0.00000000000E+00  0.17770132929E+04  0.17770132929E+04  0.25500000920E-02 0. -1.
       -2   -1    0    0    0  501  0.00000000000E+00  0.00000000000E+00 -0.17598279604E+04  0.17598279604E+04  0.25500000920E-02 0.  1.
    10030    2    1    2    0    0  0.00000000000E+00  0.00000000000E+00  0.17185332460E+02  0.35368412533E+04  0.35367995017E+04 0.  0.
        2    1    3    3  502    0  0.10605778780E+04  0.58051999494E+03  0.12991150795E+04  0.17746912097E+04  0.25500000920E-02 0. -1.
       -2    1    3    3    0  502 -0.10605778780E+04 -0.58051999494E+03 -0.12819297471E+04  0.17621500436E+04  0.25500000920E-02 0.  1.
</event>
<event>
 5   0  0.4115358E-07  0.3594814E+04  0.7818609E-02  0.8091681E-01
       -2   -1    0    0    0  501  0.00000000000E+00  0.00000000000E+00  0.15796640131E+04  0.15796640131E+04  0.25500000920E-02 0. -1.
        2   -1    0    0  501    0  0.00000000000E+00  0.00000000000E+00 -0.20451644904E+04  0.20451644904E+04  0.25500000920E-02 0.  1.
    10030    2    1    2    0    0  0.00000000000E+00  0.00000000000E+00 -0.46550047727E+03  0.36248285035E+04  0.35948144577E+04 0.  0.
        3    1    3    3  502    0 -0.13265096417E+04  0.68625033501E+03  0.77565215356E+03  0.16829152163E+04  0.10100000352E+00 0. -1.
       -3    1    3    3    0  502  0.13265096417E+04 -0.68625033501E+03 -0.12411526308E+04  0.19419132872E+04  0.10100000352E+00 0.  1.
</event>
<event>
 5   0  0.1298250E-07  0.3594340E+04  0.7818609E-02  0.8091789E-01
        1   -1    0    0  501    0  0.00000000000E+00  0.00000000000E+00  0.26862093061E+04  0.26862093061E+04  0.50400001928E-02 0. -1.
       -1   -1    0    0    0  501  0.00000000000E+00  0.00000000000E+00 -0.12023709475E+04  0.12023709475E+04  0.50400001928E-02 0.  1.
    10030    2    1    2    0    0  0.00000000000E+00  0.00000000000E+00  0.14838383587E+04  0.38885802536E+04  0.35943400109E+04 0.  0.
        1    1    3    3  502    0  0.56178800594E+02 -0.88389522608E+03  0.24337084225E+04  0.25898578173E+04  0.50400001928E-02 0. -1.
       -1    1    3    3    0  502 -0.56178800594E+02  0.88389522608E+03 -0.94987006380E+03  0.12987224363E+04  0.50400001928E-02 0.  1.
</event>
<event>
 5   0  0.3880259E-07  0.3636151E+04  0.7818609E-02  0.8082261E-01
       -2   -1    0    0    0  501  0.00000000000E+00  0.00000000000E+00  0.19799596510E+04  0.19799596510E+04  0.25500000920E-02 0.  1.
        2   -1    0    0  501    0  0.00000000000E+00  0.00000000000E+00 -0.16694272872E+04  0.16694272872E+04  0.25500000920E-02 0. -1.
    10030    2    1    2    0    0  0.00000000000E+00  0.00000000000E+00  0.31053236384E+03  0.36493869382E+04  0.36361510798E+04 0.  0.
        5    1    3    3  502    0  0.15493183855E+04 -0.80180844293E+03 -0.35854690066E+03  0.17809722650E+04  0.46999998093E+01 0. -1.
       -5    1    3    3    0  502 -0.15493183855E+04  0.80180844293E+03  0.66907926449E+03  0.18684146732E+04  0.46999998093E+01 0.  1.
</event>
<event>
 5   0  0.1348226E-07  0.3589210E+04  0.7818609E-02  0.8092968E-01
       -1   -1    0    0    0  501  0.00000000000E+00  0.00000000000E+00  0.13660985036E+04  0.13660985036E+04  0.50400001928E-02 0.  1.
        1   -1    0    0  501    0  0.00000000000E+00  0.00000000000E+00 -0.23575214028E+04  0.23575214028E+04  0.50400001928E-02 0. -1.
    10030    2    1    2    0    0  0.00000000000E+00  0.00000000000E+00 -0.99142289919E+03  0.37236199064E+04  0.35892096403E+04 0.  0.
        4    1    3    3  502    0  0.12347864164E+04 -0.11859382976E+04  0.62449022063E+02  0.17131983637E+04  0.12699999809E+01 0.  1.
       -4    1    3    3    0  502 -0.12347864164E+04  0.11859382976E+04 -0.10538719213E+04  0.20104215427E+04  0.12699999809E+01 0. -1.
</event>
<event>
 5   0  0.1361743E-07  0.3640060E+04  0.7818609E-02  0.8081377E-01
        1   -1    0    0  501    0  0.00000000000E+00  0.00000000000E+00  0.29802727410E+04  0.29802727410E+04  0.50400001928E-02 0.  1.
       -1   -1    0    0    0  501  0.00000000000E+00  0.00000000000E+00 -0.11114782822E+04  0.11114782823E+04  0.50400001928E-02 0. -1.
    10030    2    1    2    0    0  0.00000000000E+00  0.00000000000E+00  0.18687944587E+04  0.40917510232E+04  0.36400595747E+04 0.  0.
        5    1    3    3  502    0 -0.12273598862E+04  0.74624378357E+02 -0.57393810165E+03  0.13569849382E+04  0.46999998093E+01 0. -1.
       -5    1    3    3    0  502  0.12273598862E+04 -0.74624378357E+02  0.24427325604E+04  0.27347660850E+04  0.46999998093E+01 0.  1.
</event>
<event>
 5   0  0.4120440E-07  0.3471071E+04  0.7818609E-02  0.8120680E-01
       -2   -1    0    0    0  501  0.00000000000E+00  0.00000000000E+00  0.33164477329E+04  0.33164477329E+04  0.25500000920E-02 0. -1.
        2   -1    0    0  501    0  0.00000000000E+00  0.00000000000E+00 -0.90822601528E+03  0.90822601529E+03  0.25500000920E-02 0.  1.
    10030    2    1    2    0    0  0.00000000000E+00  0.00000000000E+00  0.24082217176E+04  0.42246737482E+04  0.34710713674E+04 0.  0.
        2    1    3    3  502    0 -0.14053080754E+03 -0.16883027873E+04  0.74551910462E+03  0.18509224578E+04  0.25500000920E-02 0.  1.
       -2    1    3    3    0  502  0.14053080754E+03  0.16883027873E+04  0.16627026130E+04  0.23737512904E+04  0.25500000920E-02 0. -1.
</event>
<event>
 5   0  0.1298250E-07  0.3553675E+04  0.7818609E-02  0.8101186E-01
        1   -1    0    0  501    0  0.00000000000E+00  0.00000000000E+00  0.22096293737E+04  0.22096293737E+04  0.50400001928E-02 0.  1.
       -1   -1    0    0    0  501  0.00000000000E+00  0.00000000000E+00 -0.14288145845E+04  0.14288145845E+04  0.50400001928E-02 0. -1.
    10030    2    1    2    0    0  0.00000000000E+00  0.00000000000E+00  0.78081478922E+03  0.36384439583E+04  0.35536745352E+04 0.  0.
        1    1    3    3  502    0 -0.98056436185E+03  0.14157599669E+04  0.83818164109E+03  0.19153149128E+04  0.50400001928E-02 0. -1.
       -1    1    3    3    0  502  0.98056436185E+03 -0.14157599669E+04 -0.57366851871E+02  0.17231290455E+04  0.50400001928E-02 0.  1.
</event>
<event>
 5   0  0.1298250E-07  0.3604160E+04  0.7818609E-02  0.8089539E-01
       -1   -1    0    0    0  501  0.00000000000E+00  0.00000000000E+00  0.15765365299E+04  0.15765365299E+04  0.50400001928E-02 0.  1.
        1   -1    0    0  501    0  0.00000000000E+00  0.00000000000E+00 -0.20598904237E+04  0.20598904237E+04  0.50400001928E-02 0. -1.
    10030    2    1    2    0    0  0.00000000000E+00  0.00000000000E+00 -0.48335389373E+03  0.36364269536E+04  0.36041600967E+04 0.  0.
        2    1    3    3  502    0  0.15055631932E+04  0.98206045760E+03 -0.37060684547E+03  0.18353508397E+04  0.25500000920E-02 0. -1.
       -2    1    3    3    0  502 -0.15055631932E+04 -0.98206045760E+03 -0.11274704826E+03  0.18010761139E+04  0.25500000920E-02 0.  1.
</event>
<event>
 5   0  0.3880259E-07  0.3585920E+04  0.7818609E-02  0.8093725E-01
        2   -1    0    0  501    0  0.00000000000E+00  0.00000000000E+00  0.19135645064E+04  0.19135645064E+04  0.25500000920E-02 0.  1.
       -2   -1    0    0    0  501  0.00000000000E+00  0.00000000000E+00 -0.16799562771E+04  0.16799562771E+04  0.25500000920E-02 0. -1.
    10030    2    1    2    0    0  0.00000000000E+00  0.00000000000E+00  0.23360822931E+03  0.35935207835E+04  0.35859195218E+04 0.  0.
        5    1    3    3  502    0 -0.26242788700E+03 -0.91795785423E+03 -0.14040319171E+04  0.16978936163E+04  0.46999998093E+01 0. -1.
       -5    1    3    3    0  502  0.26242788700E+03  0.91795785423E+03  0.16376401464E+04  0.18956271672E+04  0.46999998093E+01 0.  1.
</event>
<event>
 5   0  0.4200635E-07  0.3194299E+04  0.7818609E-02  0.8190324E-01
       -2   -1    0    0    0  501  0.00000000000E+00  0.00000000000E+00  0.98852482126E+03  0.98852482126E+03  0.25500000920E-02 0.  1.
        2   -1    0    0  501    0  0.00000000000E+00  0.00000000000E+00 -0.25804982596E+04  0.25804982596E+04  0.25500000920E-02 0. -1.
    10030    2    1    2    0    0  0.00000000000E+00  0.00000000000E+00 -0.15919734383E+04  0.35690230808E+04  0.31942990347E+04 0.  0.
        4    1    3    3  502    0 -0.92295399636E+03  0.10805273915E+04 -0.16105522171E+04  0.21478509213E+04  0.12699999809E+01 0.  1.
       -4    1    3    3    0  502  0.92295399636E+03 -0.10805273915E+04  0.18578778813E+02  0.14211721595E+04  0.12699999809E+01 0. -1.
</event>
<event>
 5   0  0.1298250E-07  0.3602093E+04  0.7818609E-02  0.8090012E-01
        1   -1    0    0  501    0  0.00000000000E+00  0.00000000000E+00  0.27230514008E+04  0.27230514008E+04  0.50400001928E-02 0.  1.
       -1   -1    0    0    0  501  0.00000000000E+00  0.00000000000E+00 -0.11912255213E+04  0.11912255213E+04  0.50400001928E-02 0. -1.
    10030    2    1    2    0    0  0.00000000000E+00  0.00000000000E+00  0.15318258795E+04  0.39142769222E+04  0.36020929053E+04 0.  0.
        2    1    3    3  502    0  0.10252455621E+04  0.13965736079E+04  0.13007277778E+04  0.21664346417E+04  0.25500000920E-02 0.  1.
       -2    1    3    3    0  502 -0.10252455621E+04 -0.13965736079E+04  0.23109810169E+03  0.17478422805E+04  0.25500000920E-02 0. -1.
</event>
<event>
 5   0  0.1370997E-07  0.3603634E+04  0.7818609E-02  0.8089660E-01
        1   -1    0    0  501    0  0.00000000000E+00  0.00000000000E+00  0.16189935564E+04  0.16189935564E+04  0.50400001928E-02 0. -1.
       -1   -1    0    0    0  501  0.00000000000E+00  0.00000000000E+00 -0.20052860219E+04  0.20052860219E+04  0.50400001928E-02 0.  1.
    10030    2    1    2    0    0  0.00000000000E+00  0.00000000000E+00 -0.38629246547E+03  0.36242795783E+04  0.36036343589E+04 0.  0.
        3    1    3    3  502    0  0.12687487894E+04 -0.12263100351E+04  0.17361452843E+03  0.17730487324E+04  0.10100000352E+00 0. -1.
       -3    1    3    3    0  502 -0.12687487894E+04  0.12263100351E+04 -0.55990699390E+03  0.18512308459E+04  0.10100000352E+00 0.  1.
</event>
<event>
 5   0  0.1298250E-07  0.3627960E+04  0.7818609E-02  0.8084117E-01
        1   -1    0    0  501    0  0.00000000000E+00  0.00000000000E+00  0.23418520524E+04  0.23418520524E+04  0.50400001928E-02 0.  1.
       -1   -1    0    0    0  501  0.00000000000E+00  0.00000000000E+00 -0.14050945714E+04  0.14050945714E+04  0.50400001928E-02 0. -1.
    10030    2    1    2    0    0  0.00000000000E+00  0.00000000000E+00  0.93675748102E+03  0.37469466239E+04  0.36279600913E+04 0.  0.
        2    1    3    3  502    0  0.16568588262E+04  0.73386429876E+03  0.38330216480E+03  0.18522036952E+04  0.25500000920E-02 0. -1.
       -2    1    3    3    0  502 -0.16568588262E+04 -0.73386429876E+03  0.55345531622E+03  0.18947429287E+04  0.25500000920E-02 0.  1.
</event>
<event>
 5   0  0.4115358E-07  0.3601508E+04  0.7818609E-02  0.8090146E-01
        2   -1    0    0  501    0  0.00000000000E+00  0.00000000000E+00  0.20463485241E+04  0.20463485241E+04  0.25500000920E-02 0. -1.
       -2   -1    0    0    0  501  0.00000000000E+00  0.00000000000E+00 -0.15846344873E+04  0.15846344873E+04  0.25500000920E-02 0.  1.
    10030    2    1    2    0    0  0.00000000000E+00  0.00000000000E+00  0.46171403675E+03  0.36309830114E+04  0.36015077089E+04 0.  0.
        3    1    3    3  502    0 -0.14735825112E+04 -0.10070703274E+04 -0.10009069919E+02  0.17848630909E+04  0.10100000352E+00 0. -1.
       -3    1    3    3    0  502  0.14735825112E+04  0.10070703274E+04  0.47172310667E+03  0.18461199206E+04  0.10100000352E+00 0.  1.
</event>
<event>
 5   0  0.1298250E-07  0.3584415E+04  0.7818609E-02  0.8094071E-01
        3   -1    0    0  501    0  0.00000000000E+00  0.00000000000E+00  0.15041647456E+04  0.15041647490E+04  0.10100000352E+00 0. -1.
       -3   -1    0    0    0  501  0.00000000000E+00  0.00000000000E+00 -0.21354090459E+04  0.21354090482E+04  0.10100000352E+00 0.  1.
    10030    2    1    2    0    0  0.00000000000E+00  0.00000000000E+00 -0.63124430025E+03  0.36395737972E+04  0.35844146048E+04 0.  0.
        5    1    3    3  502    0  0.16877184254E+04  0.58156628200E+03 -0.47735956854E+03  0.18478384863E+04  0.46999998093E+01 0. -1.
       -5    1    3    3    0  502 -0.16877184254E+04 -0.58156628200E+03 -0.15388473172E+03  0.17917353109E+04  0.46999998093E+01 0.  1.
</event>
<event>
 5   0  0.1348226E-07  0.3608827E+04  0.7818609E-02  0.8088473E-01
        1   -1    0    0  501    0  0.00000000000E+00  0.00000000000E+00  0.23212626096E+04  0.23212626097E+04  0.50400001928E-02 0.  1.
       -1   -1    0    0    0  501  0.00000000000E+00  0.00000000000E+00 -0.14026450192E+04  0.14026450192E+04  0.50400001928E-02 0. -1.
    10030    2    1    2    0    0  0.00000000000E+00  0.00000000000E+00  0.91861759042E+03  0.37239076289E+04  0.36088266446E+04 0.  0.
        4    1    3    3  502    0 -0.14107995222E+04 -0.79637006576E+03 -0.36060149755E+03  0.16596974503E+04  0.12699999809E+01 0. -1.
       -4    1    3    3    0  502  0.14107995222E+04  0.79637006576E+03  0.12792190880E+04  0.20642101786E+04  0.12699999809E+01 0.  1.
</event>
<event>
 5   0  0.1370997E-07  0.3578969E+04  0.7818609E-02  0.8095326E-01
        1   -1    0    0  501    0  0.00000000000E+00  0.00000000000E+00  0.17703599715E+04  0.17703599715E+04  0.50400001928E-02 0.  1.
       -1   -1    0    0    0  501  0.00000000000E+00  0.00000000000E+00 -0.18088152602E+04  0.18088152602E+04  0.50400001928E-02 0. -1.
    10030    2    1    2    0    0  0.00000000000E+00  0.00000000000E+00 -0.38455288750E+02  0.35791752317E+04  0.35789686406E+04 0.  0.
        3    1    3    3  502    0 -0.10242571617E+04  0.12532983113E+04 -0.78241960578E+03  0.17977874846E+04  0.10100000352E+00 0.  1.
       -3    1    3    3    0  502  0.10242571617E+04 -0.12532983113E+04  0.74396431703E+03  0.17813877471E+04  0.10100000352E+00 0. -1.
</event>
<event>
 5   0  0.3993751E-07  0.3372165E+04  0.7818609E-02  0.8144772E-01
        2   -1    0    0  501    0  0.00000000000E+00  0.00000000000E+00  0.20883535344E+04  0.20883535344E+04  0.25500000920E-02 0. -1.
       -2   -1    0    0    0  501  0.00000000000E+00  0.00000000000E+00 -0.13612992169E+04  0.13612992169E+04  0.25500000920E-02 0.  1.
    10030    2    1    2    0    0  0.00000000000E+00  0.00000000000E+00  0.72705431755E+03  0.34496527513E+04  0.33721649017E+04 0.  0.
        1    1    3    3  502    0 -0.31587661726E+03  0.11936570007E+04 -0.81101939949E+03  0.14772770691E+04  0.50400001928E-02 0.  1.
       -1    1    3    3    0  502  0.31587661726E+03 -0.11936570007E+04  0.15380737170E+04  0.19723756822E+04  0.50400001928E-02 0. -1.
</event>
<event>
 5   0  0.1298250E-07  0.3599608E+04  0.7818609E-02  0.8090582E-01
        1   -1    0    0  501    0  0.00000000000E+00  0.00000000000E+00  0.19785750927E+04  0.19785750927E+04  0.50400001928E-02 0.  1.
       -1   -1    0    0    0  501  0.00000000000E+00  0.00000000000E+00 -0.16371851469E+04  0.16371851469E+04  0.50400001928E-02 0. -1.
    10030    2    1    2    0    0  0.00000000000E+00  0.00000000000E+00  0.34138994580E+03  0.36157602397E+04  0.35996076197E+04 0.  0.
        1    1    3    3  502    0 -0.59684464043E+03  0.50441765806E+03 -0.14578863309E+04  0.16541140385E+04  0.50400001928E-02 0. -1.
       -1    1    3    3    0  502  0.59684464043E+03 -0.50441765806E+03  0.17992762767E+04  0.19616462012E+04  0.50400001928E-02 0.  1.
</event>
<event>
 5   0  0.4115358E-07  0.3609980E+04  0.7818609E-02  0.8088210E-01
        2   -1    0    0  501    0  0.00000000000E+00  0.00000000000E+00  0.20542551597E+04  0.20542551597E+04  0.25500000920E-02 0. -1.
       -2   -1    0    0    0  501  0.00000000000E+00  0.00000000000E+00 -0.15859707983E+04  0.15859707983E+04  0.25500000920E-02 0.  1.
    10030    2    1    2    0    0  0.00000000000E+00  0.00000000000E+00  0.46828436142E+03  0.36402259580E+04  0.36099798867E+04 0.  0.
        3    1    3    3  502    0 -0.17478944645E+04  0.38230675549E+03 -0.59602707472E+01  0.17892258241E+04  0.10100000352E+00 0.  1.
       -3    1    3    3    0  502  0.17478944645E+04 -0.38230675549E+03  0.47424463217E+03  0.18510001339E+04  0.10100000352E+00 0. -1.
</event>
<event>
 5   0  0.4115358E-07  0.3586579E+04  0.7818609E-02  0.8093573E-01
        2   -1    0    0  501    0  0.00000000000E+00  0.00000000000E+00  0.18761143472E+04  0.18761143472E+04  0.25500000920E-02 0.  1.
       -2   -1    0    0    0  501  0.00000000000E+00  0.00000000000E+00 -0.17141209899E+04  0.17141209899E+04  0.25500000920E-02 0. -1.
    10030    2    1    2    0    0  0.00000000000E+00  0.00000000000E+00  0.16199335730E+03  0.35902353370E+04  0.35865788612E+04 0.  0.
        3    1    3    3  502    0  0.64411263640E+02 -0.14352576623E+04  0.11552979588E+04  0.18435907224E+04  0.10100000352E+00 0.  1.
       -3    1    3    3    0  502 -0.64411263640E+02  0.14352576623E+04 -0.99330460152E+03  0.17466446146E+04  0.10100000352E+00 0. -1.
</event>
<event>
 5   0  0.4200635E-07  0.3623050E+04  0.7818609E-02  0.8085232E-01
       -2   -1    0    0    0  501  0.00000000000E+00  0.00000000000E+00  0.28353283055E+04  0.28353283055E+04  0.25500000920E-02 0. -1.
        2   -1    0    0  501    0  0.00000000000E+00  0.00000000000E+00 -0.11574046078E+04  0.11574046078E+04  0.25500000920E-02 0.  1.
    10030    2    1    2    0    0  0.00000000000E+00  0.00000000000E+00  0.16779236977E+04  0.39927329134E+04  0.36230495694E+04 0.  0.
        4    1    3    3  502    0  0.11052654436E+04 -0.11261859428E+04 -0.14161160913E+03  0.15842859398E+04  0.12699999809E+01 0.  1.
       -4    1    3    3    0  502 -0.11052654436E+04  0.11261859428E+04  0.18195353068E+04  0.24084469735E+04  0.12699999809E+01 0. -1.
</event>
<event>
 5   0  0.1361743E-07  0.3489265E+04  0.7818609E-02  0.8116339E-01
       -1   -1    0    0    0  501  0.00000000000E+00  0.00000000000E+00  0.11668716624E+04  0.11668716624E+04  0.50400001928E-02 0. -1.
        1   -1    0    0  501    0  0.00000000000E+00  0.00000000000E+00 -0.26084637928E+04  0.26084637928E+04  0.50400001928E-02 0.  1.
    10030    2    1    2    0    0  0.00000000000E+00  0.00000000000E+00 -0.14415921304E+04  0.37753354552E+04  0.34892649554E+04 0.  0.
        5    1    3    3  502    0 -0.27407413893E+03  0.66918477519E+03  0.99707436844E+03  0.12317078725E+04  0.46999998093E+01 0. -1.
       -5    1    3    3    0  502  0.27407413893E+03 -0.66918477519E+03 -0.24386664988E+04  0.25436275827E+04  0.46999998093E+01 0.  1.
</event>
<event>
 5   0  0.4200635E-07  0.3603869E+04  0.7818609E-02  0.8089606E-01
        2   -1    0    0  501    0  0.00000000000E+00  0.00000000000E+00  0.10726862969E+04  0.10726862969E+04  0.25500000920E-02 0.  1.
       -2   -1    0    0    0  501  0.00000000000E+00  0.00000000000E+00 -0.30269496946E+04  0.30269496946E+04  0.25500000920E-02 0. -1.
    10030    2    1    2    0    0  0.00000000000E+00  0.00000000000E+00 -0.19542633977E+04  0.40996359915E+04  0.36038687316E+04 0.  0.
        4    1    3    3  502    0  0.64264667806E+03 -0.14847743683E+04 -0.74635708920E+02  0.16196054395E+04  0.12699999809E+01 0.  1.
       -4    1    3    3    0  502 -0.64264667806E+03  0.14847743683E+04 -0.18796276888E+04  0.24800305520E+04  0.12699999809E+01 0. -1.
</event>
<event>
 5   0  0.1361743E-07  0.3589184E+04  0.7818609E-02  0.8092974E-01
       -1   -1    0    0    0  501  0.00000000000E+00  0.00000000000E+00  0.11475326719E+04  0.11475326720E+04  0.50400001928E-02 0. -1.
        1   -1    0    0  501    0  0.00000000000E+00  0.00000000000E+00 -0.28065092179E+04  0.28065092179E+04  0.50400001928E-02 0.  1.
    10030    2    1    2    0    0  0.00000000000E+00  0.00000000000E+00 -0.16589765460E+04  0.39540418899E+04  0.35891843205E+04 0.  0.
        5    1    3    3  502    0 -0.17919967647E+04 -0.73763448122E+02 -0.76117252652E+03  0.19483580667E+04  0.46999998093E+01 0. -1.
       -5    1    3    3    0  502  0.17919967647E+04  0.73763448122E+02 -0.89780401945E+03  0.20056838231E+04  0.46999998093E+01 0.  1.
</event>
<event>
 5   0  0.3993751E-07  0.3611883E+04  0.7818609E-02  0.8087775E-01
       -2   -1    0    0    0  501  0.00000000000E+00  0.00000000000E+00  0.13780706062E+04  0.13780706062E+04  0.25500000920E-02 0. -1.
        2   -1    0    0  501    0  0.00000000000E+00  0.00000000000E+00 -0.23666596014E+04  0.23666596014E+04  0.25500000920E-02 0.  1.
    10030    2    1    2    0    0  0.00000000000E+00  0.00000000000E+00 -0.98858899525E+03  0.37447302076E+04  0.36118826291E+04 0.  0.
        1    1    3    3  502    0 -0.11641147342E+04  0.13481723907E+04 -0.80306046666E+03  0.19538776888E+04  0.50400001928E-02 0.  1.
       -1    1    3    3    0  502  0.11641147342E+04 -0.13481723907E+04 -0.18552852859E+03  0.17908525189E+04  0.50400001928E-02 0. -1.
</event>
<event>
 5   0  0.1298250E-07  0.3597026E+04  0.7818609E-02  0.8091173E-01
       -1   -1    0    0    0  501  0.00000000000E+00  0.00000000000E+00  0.20029235232E+04  0.20029235232E+04  0.50400001928E-02 0. -1.
        1   -1    0    0  501    0  0.00000000000E+00  0.00000000000E+00 -0.16149637664E+04  0.16149637665E+04  0.50400001928E-02 0.  1.
    10030    2    1    2    0    0  0.00000000000E+00  0.00000000000E+00  0.38795975676E+03  0.36178872897E+04  0.35970259476E+04 0.  0.
        2    1    3    3  502    0 -0.17857628346E+04  0.67183623510E+02  0.39810114450E+03  0.18308323413E+04  0.25500000920E-02 0. -1.
       -2    1    3    3    0  502  0.17857628346E+04 -0.67183623510E+02 -0.10141387730E+02  0.17870549484E+04  0.25500000920E-02 0.  1.
</event>
<event>
 5   0  0.3880259E-07  0.3610684E+04  0.7818609E-02  0.8088049E-01
       -2   -1    0    0    0  501  0.00000000000E+00  0.00000000000E+00  0.12663919714E+04  0.12663919714E+04  0.25500000920E-02 0.  1.
        2   -1    0    0  501    0  0.00000000000E+00  0.00000000000E+00 -0.25736585694E+04  0.25736585694E+04  0.25500000920E-02 0. -1.
    10030    2    1    2    0    0  0.00000000000E+00  0.00000000000E+00 -0.13072665980E+04  0.38400505408E+04  0.36106844500E+04 0.  0.
        5    1    3    3  502    0  0.94636580972E+03  0.12252874943E+04  0.33395694633E+03  0.15838203881E+04  0.46999998093E+01 0.  1.
       -5    1    3    3    0  502 -0.94636580972E+03 -0.12252874943E+04 -0.16412235444E+04  0.22562301528E+04  0.46999998093E+01 0. -1.
</event>
<event>
 5   0  0.1370997E-07  0.3321410E+04  0.7818609E-02  0.8157469E-01
        1   -1    0    0  501    0  0.00000000000E+00  0.00000000000E+00  0.25110395734E+04  0.25110395734E+04  0.50400001928E-02 0.  1.
       -1   -1    0    0    0  501  0.00000000000E+00  0.00000000000E+00 -0.10983261639E+04  0.10983261639E+04  0.50400001928E-02 0. -1.
    10030    2    1    2    0    0  0.00000000000E+00  0.00000000000E+00  0.14127134094E+04  0.36093657373E+04  0.33214096177E+04 0.  0.
        3    1    3    3  502    0 -0.98870255567E+03  0.43391337573E+03 -0.66483220270E+03  0.12679966203E+04  0.10100000352E+00 0. -1.
       -3    1    3    3    0  502  0.98870255567E+03 -0.43391337573E+03  0.20775456121E+04  0.23413691170E+04  0.10100000352E+00 0.  1.
</event>
<event>
 5   0  0.1370997E-07  0.3582449E+04  0.7818609E-02  0.8094524E-01
        1   -1    0    0  501    0  0.00000000000E+00  0.00000000000E+00  0.10439931038E+04  0.10439931038E+04  0.50400001928E-02 0.  1.
       -1   -1    0    0    0  501  0.00000000000E+00  0.00000000000E+00 -0.30732814727E+04  0.30732814727E+04  0.50400001928E-02 0. -1.
    10030    2    1    2    0    0  0.00000000000E+00  0.00000000000E+00 -0.20292883689E+04  0.41172745765E+04  0.35824486953E+04 0.  0.
        3    1    3    3  502    0  0.47643702561E+03  0.87961569131E+03  0.69303636606E+03  0.12169697690E+04  0.10100000352E+00 0.  1.
       -3    1    3    3    0  502 -0.47643702561E+03 -0.87961569131E+03 -0.27223247350E+04  0.29003048075E+04  0.10100000352E+00 0. -1.
</event>
<event>
 5   0  0.1370997E-07  0.3565058E+04  0.7818609E-02  0.8098543E-01
       -1   -1    0    0    0  501  0.00000000000E+00  0.00000000000E+00  0.25803190934E+04  0.25803190934E+04  0.50400001928E-02 0. -1.
        1   -1    0    0  501    0  0.00000000000E+00  0.00000000000E+00 -0.12314020247E+04  0.12314020247E+04  0.50400001928E-02 0.  1.
    10030    2    1    2    0    0  0.00000000000E+00  0.00000000000E+00  0.13489170687E+04  0.38117211181E+04  0.35650582919E+04 0.  0.
        3    1    3    3  502    0  0.15014240036E+02  0.16483130691E+04 -0.50896766591E+02  0.16491670298E+04  0.10100000352E+00 0.  1.
       -3    1    3    3    0  502 -0.15014240036E+02 -0.16483130691E+04  0.13998138353E+04  0.21625540883E+04  0.10100000352E+00 0. -1.
</event>
<event>
 5   0  0.1298250E-07  0.3610012E+04  0.7818609E-02  0.8088202E-01
        1   -1    0    0  501    0  0.00000000000E+00  0.00000000000E+00  0.17324273215E+04  0.17324273215E+04  0.50400001928E-02 0.  1.
       -1   -1    0    0    0  501  0.00000000000E+00  0.00000000000E+00 -0.18806250802E+04  0.18806250802E+04  0.50400001928E-02 0. -1.
    10030    2    1    2    0    0  0.00000000000E+00  0.00000000000E+00 -0.14819775871E+03  0.36130524017E+04  0.36100117842E+04 0.  0.
        2    1    3    3  502    0 -0.31722516160E+03  0.59801903686E+03 -0.17487648340E+04  0.18752165251E+04  0.25500000920E-02 0. -1.
       -2    1    3    3    0  502  0.31722516160E+03 -0.59801903686E+03  0.16005670753E+04  0.17378358766E+04  0.25500000920E-02 0.  1.
</event>
<event>
 5   0  0.1361743E-07  0.3604708E+04  0.7818609E-02  0.8089414E-01
        1   -1    0    0  501    0  0.00000000000E+00  0.00000000000E+00  0.18867407909E+04  0.18867407909E+04  0.50400001928E-02 0. -1.
       -1   -1    0    0    0  501  0.00000000000E+00  0.00000000000E+00 -0.17217416619E+04  0.17217416619E+04  0.50400001928E-02 0.  1.
    10030    2    1    2    0    0  0.00000000000E+00  0.00000000000E+00  0.16499912901E+03  0.36084824528E+04  0.36047081573E+04 0.  0.
        5    1    3    3  502    0  0.17282505010E+03 -0.86399979383E+03 -0.14914361063E+04  0.17322724644E+04  0.46999998093E+01 0.  1.
       -5    1    3    3    0  502 -0.17282505010E+03  0.86399979383E+03  0.16564352353E+04  0.18762099884E+04  0.46999998093E+01 0. -1.
</event>
<event>
 5   0  0.3880259E-07  0.3629560E+04  0.7818609E-02  0.8083754E-01
        2   -1    0    0  501    0  0.00000000000E+00  0.00000000000E+00  0.12796109116E+04  0.12796109116E+04  0.25500000920E-02 0.  1.
       -2   -1    0    0    0  501  0.00000000000E+00  0.00000000000E+00 -0.25737715668E+04  0.25737715668E+04  0.25500000920E-02 0. -1.
    10030    2    1    2    0    0  0.00000000000E+00  0.00000000000E+00 -0.12941606552E+04  0.38533824785E+04  0.36295598526E+04 0.  0.
        5    1    3    3  502    0 -0.13578995494E+04 -0.12030529681E+04 -0.59755086998E+03  0.19100567433E+04  0.46999998093E+01 0.  1.
       -5    1    3    3    0  502  0.13578995494E+04  0.12030529681E+04 -0.69660978519E+03  0.19433257352E+04  0.46999998093E+01 0. -1.
</event>
<event>
 5   0  0.1298250E-07  0.3586604E+04  0.7818609E-02  0.8093567E-01
       -3   -1    0    0    0  501  0.00000000000E+00  0.00000000000E+00  0.18084963111E+04  0.18084963139E+04  0.10100000352E+00 0. -1.
        3   -1    0    0  501    0  0.00000000000E+00  0.00000000000E+00 -0.17782355056E+04  0.17782355084E+04  0.10100000352E+00 0.  1.
    10030    2    1    2    0    0  0.00000000000E+00  0.00000000000E+00  0.30260805562E+02  0.35867318224E+04  0.35866041668E+04 0.  0.
        3    1    3    3  502    0 -0.93141611815E+03 -0.44880755226E+03 -0.14501753612E+04  0.17810033106E+04  0.10100000352E+00 0.  1.
       -3    1    3    3    0  502  0.93141611815E+03  0.44880755226E+03  0.14804361667E+04  0.18057285117E+04  0.10100000352E+00 0. -1.
</event>
<event>
 5   0  0.3993751E-07  0.3614783E+04  0.7818609E-02  0.8087114E-01
       -2   -1    0    0    0  501  0.00000000000E+00  0.00000000000E+00  0.15533700114E+04  0.15533700114E+04  0.25500000920E-02 0. -1.
        2   -1    0    0  501    0  0.00000000000E+00  0.00000000000E+00 -0.21029532571E+04  0.21029532571E+04  0.25500000920E-02 0.  1.
    10030    2    1    2    0    0  0.00000000000E+00  0.00000000000E+00 -0.54958324574E+03  0.36563232685E+04  0.36147832714E+04 0.  0.
        1    1    3    3  502    0 -0.70316494261E+03 -0.63455652549E+03 -0.18318192714E+04  0.20621990117E+04  0.50400001928E-02 0.  1.
       -1    1    3    3    0  502  0.70316494261E+03  0.63455652549E+03  0.12822360257E+04  0.15941242568E+04  0.50400001928E-02 0. -1.
</event>
<event>
 5   0  0.1298250E-07  0.3697498E+04  0.7818609E-02  0.8068517E-01
        1   -1    0    0  501    0  0.00000000000E+00  0.00000000000E+00  0.17808831786E+04  0.17808831786E+04  0.50400001928E-02 0.  1.
       -1   -1    0    0    0  501  0.00000000000E+00  0.00000000000E+00 -0.19192008461E+04  0.19192008461E+04  0.50400001928E-02 0. -1.
    10030    2    1    2    0    0  0.00000000000E+00  0.00000000000E+00 -0.13831766749E+03  0.37000840247E+04  0.36974978043E+04 0.  0.
        1    1    3    3  502    0  0.17856682251E+04 -0.38788375904E+03 -0.35008224922E+03  0.18605435770E+04  0.50400001928E-02 0. -1.
       -1    1    3    3    0  502 -0.17856682251E+04  0.38788375904E+03  0.21176458174E+03  0.18395404477E+04  0.50400001928E-02 0.  1.
</event>
<event>
 5   0  0.4200635E-07  0.3618882E+04  0.7818609E-02  0.8086180E-01
        2   -1    0    0  501    0  0.00000000000E+00  0.00000000000E+00  0.23037391402E+04  0.23037391402E+04  0.25500000920E-02 0. -1.
       -2   -1    0    0    0  501  0.00000000000E+00  0.00000000000E+00 -0.14212013299E+04  0.14212013299E+04  0.25500000920E-02 0.  1.
    10030    2    1    2    0    0  0.00000000000E+00  0.00000000000E+00  0.88253781028E+03  0.37249404701E+04  0.36188822196E+04 0.  0.
        4    1    3    3  502    0  0.15307637896E+04  0.37158367493E+03  0.13577355407E+04  0.20796056401E+04  0.12699999809E+01 0.  1.
       -4    1    3    3    0  502 -0.15307637896E+04 -0.37158367493E+03 -0.47519773039E+03  0.16453348300E+04  0.12699999809E+01 0. -1.
</event>
<event>
 5   0  0.4115358E-07  0.3584054E+04  0.7818609E-02  0.8094154E-01
        2   -1    0    0  501    0  0.00000000000E+00  0.00000000000E+00  0.26797218648E+04  0.26797218648E+04  0.25500000920E-02 0. -1.
       -2   -1    0    0    0  501  0.00000000000E+00  0.00000000000E+00 -0.11983933760E+04  0.11983933760E+04  0.25500000920E-02 0.  1.
    10030    2    1    2    0    0  0.00000000000E+00  0.00000000000E+00  0.14813284888E+04  0.38781152408E+04  0.35840540913E+04 0.  0.
        3    1    3    3  502    0  0.53147527765E+03  0.17052381805E+04  0.89768302946E+03  0.19990342805E+04  0.10100000352E+00 0.  1.
       -3    1    3    3    0  502 -0.53147527765E+03 -0.17052381805E+04  0.58364545939E+03  0.18790809603E+04  0.10100000352E+00 0. -1.
</event>
<event>
 5   0  0.1370997E-07  0.3640073E+04  0.7818609E-02  0.8081374E-01
       -1   -1    0    0    0  501  0.00000000000E+00  0.00000000000E+00  0.17159554670E+04  0.17159554670E+04  0.50400001928E-02 0.  1.
        1   -1    0    0  501    0  0.00000000000E+00  0.00000000000E+00 -0.19304308954E+04  0.19304308954E+04  0.50400001928E-02 0. -1.
    10030    2    1    2    0    0  0.00000000000E+00  0.00000000000E+00 -0.21447542845E+03  0.36463863624E+04  0.36400733227E+04 0.  0.
        3    1    3    3  502    0  0.43443362473E+03  0.14491163519E+04 -0.11208535915E+04  0.18828126724E+04  0.10100000352E+00 0. -1.
       -3    1    3    3    0  502 -0.43443362473E+03 -0.14491163519E+04  0.90637816304E+03  0.17635736900E+04  0.10100000352E+00 0.  1.
</event>
<event>
 5   0  0.1361743E-07  0.3563361E+04  0.7818609E-02  0.8098936E-01
        1   -1    0    0  501    0  0.00000000000E+00  0.00000000000E+00  0.18601643129E+04  0.18601643129E+04  0.50400001928E-02 0. -1.
       -1   -1    0    0    0  501  0.00000000000E+00  0.00000000000E+00 -0.17065081905E+04  0.17065081905E+04  0.50400001928E-02 0.  1.
    10030    2    1    2    0    0  0.00000000000E+00  0.00000000000E+00  0.15365612234E+03  0.35666725034E+04  0.35633611300E+04 0.  0.
        5    1    3    3  502    0 -0.38685777432E+03 -0.12258523359E+04 -0.11580082418E+04  0.17301381636E+04  0.46999998093E+01 0.  1.
       -5    1    3    3    0  502  0.38685777432E+03  0.12258523359E+04  0.13116643642E+04  0.18365343398E+04  0.46999998093E+01 0. -1.
</event>
<event>
 5   0  0.1348226E-07  0.3588085E+04  0.7818609E-02  0.8093227E-01
       -1   -1    0    0    0  501  0.00000000000E+00  0.00000000000E+00  0.15934627975E+04  0.15934627975E+04  0.50400001928E-02 0.  1.
        1   -1    0    0  501    0  0.00000000000E+00  0.00000000000E+00 -0.20198700631E+04  0.20198700631E+04  0.50400001928E-02 0. -1.
    10030    2    1    2    0    0  0.00000000000E+00  0.00000000000E+00 -0.42640726564E+03  0.36133328606E+04  0.35880846152E+04 0.  0.
        4    1    3    3  502    0 -0.14144862268E+04 -0.91293909855E+02 -0.13207060900E+04  0.19373621378E+04  0.12699999809E+01 0. -1.
       -4    1    3    3    0  502  0.14144862268E+04  0.91293909855E+02  0.89429882440E+03  0.16759707229E+04  0.12699999809E+01 0.  1.
</event>
<event>
 5   0  0.3880259E-07  0.3644373E+04  0.7818609E-02  0.8080403E-01
        2   -1    0    0  501    0  0.00000000000E+00  0.00000000000E+00  0.16692583295E+04  0.16692583295E+04  0.25500000920E-02 0. -1.
       -2   -1    0    0    0  501  0.00000000000E+00  0.00000000000E+00 -0.19891249352E+04  0.19891249352E+04  0.25500000920E-02 0.  1.
    10030    2    1    2    0    0  0.00000000000E+00  0.00000000000E+00 -0.31986660564E+03  0.36583832647E+04  0.36443728495E+04 0.  0.
        5    1    3    3  502    0 -0.11910792417E+04 -0.40544528673E+03 -0.14830617707E+04  0.19448778744E+04  0.46999998093E+01 0.  1.
       -5    1    3    3    0  502  0.11910792417E+04  0.40544528673E+03  0.11631951650E+04  0.17135053903E+04  0.46999998093E+01 0. -1.
</event>
<event>
 5   0  0.4120440E-07  0.3611147E+04  0.7818609E-02  0.8087943E-01
        2   -1    0    0  501    0  0.00000000000E+00  0.00000000000E+00  0.20485128264E+04  0.20485128264E+04  0.25500000920E-02 0. -1.
       -2   -1    0    0    0  501  0.00000000000E+00  0.00000000000E+00 -0.15914453910E+04  0.15914453910E+04  0.25500000920E-02 0.  1.
    10030    2    1    2    0    0  0.00000000000E+00  0.00000000000E+00  0.45706743541E+03  0.36399582174E+04  0.36111473500E+04 0.  0.
        2    1    3    3  502    0 -0.19239217346E+03  0.11992117374E+04 -0.11181542648E+04  0.16508762823E+04  0.25500000920E-02 0.  1.
       -2    1    3    3    0  502  0.19239217346E+03 -0.11992117374E+04  0.15752217002E+04  0.19890819351E+04  0.25500000920E-02 0. -1.
</event>
<event>
 5   0  0.4115358E-07  0.3627279E+04  0.7818609E-02  0.8084272E-01
       -2   -1    0    0    0  501  0.00000000000E+00  0.00000000000E+00  0.27923901053E+04  0.27923901053E+04  0.25500000920E-02 0.  1.
        2   -1    0    0  501    0  0.00000000000E+00  0.00000000000E+00 -0.11779473124E+04  0.11779473124E+04  0.25500000920E-02 0. -1.
    10030    2    1    2    0    0  0.00000000000E+00  0.00000000000E+00  0.16144427929E+04  0.39703374176E+04  0.36272791013E+04 0.  0.
        3    1    3    3  502    0  0.94347129179E+03 -0.63181431467E+03  0.23551723880E+04  0.26146059730E+04  0.10100000352E+00 0.  1.
       -3    1    3    3    0  502 -0.94347129179E+03  0.63181431467E+03 -0.74072959513E+03  0.13557314446E+04  0.10100000352E+00 0. -1.
</event>
<event>
 5   0  0.4120440E-07  0.3541446E+04  0.7818609E-02  0.8104037E-01
       -2   -1    0    0    0  501  0.00000000000E+00  0.00000000000E+00  0.25134122506E+04  0.25134122506E+04  0.25500000920E-02 0. -1.
        2   -1    0    0  501    0  0.00000000000E+00  0.00000000000E+00 -0.12474914950E+04  0.12474914950E+04  0.25500000920E-02 0.  1.
    10030    2    1    2    0    0  0.00000000000E+00  0.00000000000E+00  0.12659207556E+04  0.37609037457E+04  0.35414462617E+04 0.  0.
        2    1    3    3  502    0 -0.10435242815E+04  0.13143738747E+02 -0.88619067941E+03  0.13691054029E+04  0.25500000920E-02 0.  1.
       -2    1    3    3    0  502  0.10435242815E+04 -0.13143738747E+02  0.21521114350E+04  0.23917983428E+04  0.25500000920E-02 0. -1.
</event>
<event>
 5   0  0.4115358E-07  0.3591301E+04  0.7818609E-02  0.8092487E-01
        2   -1    0    0  501    0  0.00000000000E+00  0.00000000000E+00  0.19664919670E+04  0.19664919670E+04  0.25500000920E-02 0.  1.
       -2   -1    0    0    0  501  0.00000000000E+00  0.00000000000E+00 -0.16396507593E+04  0.16396507593E+04  0.25500000920E-02 0. -1.
    10030    2    1    2    0    0  0.00000000000E+00  0.00000000000E+00  0.32684120766E+03  0.36061427263E+04  0.35913006262E+04 0.  0.
        3    1    3    3  502    0 -0.15507717992E+03  0.63099010022E+03 -0.15174636790E+04  0.16507251332E+04  0.10100000352E+00 0. -1.
       -3    1    3    3    0  502  0.15507717992E+03 -0.63099010022E+03  0.18443048866E+04  0.19554175931E+04  0.10100000352E+00 0.  1.
</event>
<event>
 5   0  0.3880259E-07  0.3600543E+04  0.7818609E-02  0.8090367E-01
       -2   -1    0    0    0  501  0.00000000000E+00  0.00000000000E+00  0.17120689869E+04  0.17120689869E+04  0.25500000920E-02 0.  1.
        2   -1    0    0  501    0  0.00000000000E+00  0.00000000000E+00 -0.18930177801E+04  0.18930177801E+04  0.25500000920E-02 0. -1.
    10030    2    1    2    0    0  0.00000000000E+00  0.00000000000E+00 -0.18094879320E+03  0.36050867670E+04  0.36005427552E+04 0.  0.
        5    1    3    3  502    0  0.16819963407E+03  0.10341288892E+04  0.13753545061E+04  0.17289695729E+04  0.46999998093E+01 0.  1.
       -5    1    3    3    0  502 -0.16819963407E+03 -0.10341288892E+04 -0.15563032993E+04  0.18761171941E+04  0.46999998093E+01 0. -1.
</event>
<event>
 5   0  0.4200635E-07  0.3605487E+04  0.7818609E-02  0.8089236E-01
        2   -1    0    0  501    0  0.00000000000E+00  0.00000000000E+00  0.25360893683E+04  0.25360893683E+04  0.25500000920E-02 0.  1.
       -2   -1    0    0    0  501  0.00000000000E+00  0.00000000000E+00 -0.12814548816E+04  0.12814548816E+04  0.25500000920E-02 0. -1.
    10030    2    1    2    0    0  0.00000000000E+00  0.00000000000E+00  0.12546344868E+04  0.38175442499E+04  0.36054869858E+04 0.  0.
        4    1    3    3  502    0 -0.14373226199E+04 -0.77101542866E+03 -0.18564416274E+03  0.16415926635E+04  0.12699999809E+01 0. -1.
       -4    1    3    3    0  502  0.14373226199E+04  0.77101542866E+03  0.14402786495E+04  0.21759515864E+04  0.12699999809E+01 0.  1.
</event>
<event>
 5   0  0.4200635E-07  0.3603854E+04  0.7818609E-02  0.8089609E-01
       -2   -1    0    0    0  501  0.00000000000E+00  0.00000000000E+00  0.16310410344E+04  0.16310410344E+04  0.25500000920E-02 0.  1.
        2   -1    0    0  501    0  0.00000000000E+00  0.00000000000E+00 -0.19907173505E+04  0.19907173505E+04  0.25500000920E-02 0. -1.
    10030    2    1    2    0    0  0.00000000000E+00  0.00000000000E+00 -0.35967631606E+03  0.36217583849E+04  0.36038544291E+04 0.  0.
        4    1    3    3  502    0 -0.14937863827E+04 -0.10071998242E+04 -0.14664635042E+03  0.18075829187E+04  0.12699999809E+01 0. -1.
       -4    1    3    3    0  502  0.14937863827E+04  0.10071998242E+04 -0.21302996564E+03  0.18141754662E+04  0.12699999809E+01 0.  1.
</event>
<event>
 5   0  0.1298250E-07  0.3549803E+04  0.7818609E-02  0.8102088E-01
       -1   -1    0    0    0  501  0.00000000000E+00  0.00000000000E+00  0.15679960829E+04  0.15679960829E+04  0.50400001928E-02 0. -1.
        1   -1    0    0  501    0  0.00000000000E+00  0.00000000000E+00 -0.20091094065E+04  0.20091094065E+04  0.50400001928E-02 0.  1.
    10030    2    1    2    0    0  0.00000000000E+00  0.00000000000E+00 -0.44111332367E+03  0.35771054894E+04  0.35498031943E+04 0.  0.
        1    1    3    3  502    0 -0.13159563978E+04 -0.32050481726E+03 -0.13764672579E+04  0.19310946872E+04  0.50400001928E-02 0. -1.
       -1    1    3    3    0  502  0.13159563978E+04  0.32050481726E+03  0.93535393419E+03  0.16460108022E+04  0.50400001928E-02 0.  1.
</event>
<event>
 5   0  0.4120440E-07  0.3526893E+04  0.7818609E-02  0.8107446E-01
       -2   -1    0    0    0  501  0.00000000000E+00  0.00000000000E+00  0.22860747728E+04  0.22860747728E+04  0.25500000920E-02 0.  1.
        2   -1    0    0  501    0  0.00000000000E+00  0.00000000000E+00 -0.13602979485E+04  0.13602979485E+04  0.25500000920E-02 0. -1.
    10030    2    1    2    0    0  0.00000000000E+00  0.00000000000E+00  0.92577682424E+03  0.36463727213E+04  0.35268925834E+04 0.  0.
        2    1    3    3  502    0 -0.14108569033E+04 -0.63190113172E+03 -0.41434048751E+03  0.16004668948E+04  0.25500000920E-02 0. -1.
       -2    1    3    3    0  502  0.14108569033E+04  0.63190113172E+03  0.13401173118E+04  0.20459058265E+04  0.25500000920E-02 0.  1.
</event>
<event>
 5   0  0.1361743E-07  0.3586269E+04  0.7818609E-02  0.8093644E-01
        1   -1    0    0  501    0  0.00000000000E+00  0.00000000000E+00  0.23643470760E+04  0.23643470760E+04  0.50400001928E-02 0. -1.
       -1   -1    0    0    0  501  0.00000000000E+00  0.00000000000E+00 -0.13599234348E+04  0.13599234348E+04  0.50400001928E-02 0.  1.
    10030    2    1    2    0    0  0.00000000000E+00  0.00000000000E+00  0.10044236412E+04  0.37242705108E+04  0.35862688113E+04 0.  0.
        5    1    3    3  502    0 -0.22952524253E+03 -0.76565867740E+02  0.23473100296E+04  0.23597522400E+04  0.46999998093E+01 0. -1.
       -5    1    3    3    0  502  0.22952524253E+03  0.76565867740E+02 -0.13428863884E+04  0.13645182708E+04  0.46999998093E+01 0.  1.
</event>
<event>
 5   0  0.1298250E-07  0.3608460E+04  0.7818609E-02  0.8088557E-01
        1   -1    0    0  501    0  0.00000000000E+00  0.00000000000E+00  0.19339934210E+04  0.19339934211E+04  0.50400001928E-02 0.  1.
       -1   -1    0    0    0  501  0.00000000000E+00  0.00000000000E+00 -0.16831734321E+04  0.16831734321E+04  0.50400001928E-02 0. -1.
    10030    2    1    2    0    0  0.00000000000E+00  0.00000000000E+00  0.25081998893E+03  0.36171668532E+04  0.36084602501E+04 0.  0.
        1    1    3    3  502    0  0.11918827308E+04 -0.12354390674E+04 -0.43122454390E+03  0.17699855199E+04  0.50400001928E-02 0. -1.
       -1    1    3    3    0  502 -0.11918827308E+04  0.12354390674E+04  0.68204453283E+03  0.18471813333E+04  0.50400001928E-02 0.  1.
</event>
<event>
 5   0  0.1361743E-07  0.3610387E+04  0.7818609E-02  0.8088117E-01
       -1   -1    0    0    0  501  0.00000000000E+00  0.00000000000E+00  0.33460370011E+04  0.33460370011E+04  0.50400001928E-02 0.  1.
        1   -1    0    0  501    0  0.00000000000E+00  0.00000000000E+00 -0.97390533349E+03  0.97390533350E+03  0.50400001928E-02 0. -1.
    10030    2    1    2    0    0  0.00000000000E+00  0.00000000000E+00  0.23721316676E+04  0.43199423346E+04  0.36103868388E+04 0.  0.
        5    1    3    3  502    0  0.11668585371E+04  0.10594178261E+04  0.13286219162E+03  0.15816445327E+04  0.46999998093E+01 0. -1.
       -5    1    3    3    0  502 -0.11668585371E+04 -0.10594178261E+04  0.22392694760E+04  0.27382978019E+04  0.46999998093E+01 0.  1.
</event>
<event>
 5   0  0.3993751E-07  0.3615009E+04  0.7818609E-02  0.8087062E-01
       -2   -1    0    0    0  501  0.00000000000E+00  0.00000000000E+00  0.12320581628E+04  0.12320581628E+04  0.25500000920E-02 0.  1.
        2   -1    0    0  501    0  0.00000000000E+00  0.00000000000E+00 -0.26517187893E+04  0.26517187893E+04  0.25500000920E-02 0. -1.
    10030    2    1    2    0    0  0.00000000000E+00  0.00000000000E+00 -0.14196606264E+04  0.38837769521E+04  0.36150085918E+04 0.  0.
        1    1    3    3  502    0  0.76788921895E+03  0.83917101741E+03 -0.22189774794E+04  0.24935362245E+04  0.50400001928E-02 0. -1.
       -1    1    3    3    0  502 -0.76788921895E+03 -0.83917101741E+03  0.79931685294E+03  0.13902407275E+04  0.50400001928E-02 0.  1.
</event>
<event>
 5   0  0.4115358E-07  0.3608941E+04  0.7818609E-02  0.8088447E-01
        2   -1    0    0  501    0  0.00000000000E+00  0.00000000000E+00  0.29588733879E+04  0.29588733879E+04  0.25500000920E-02 0. -1.
       -2   -1    0    0    0  501  0.00000000000E+00  0.00000000000E+00 -0.11004571767E+04  0.11004571767E+04  0.25500000920E-02 0.  1.
    10030    2    1    2    0    0  0.00000000000E+00  0.00000000000E+00  0.18584162112E+04  0.40593305645E+04  0.36089408167E+04 0.  0.
        3    1    3    3  502    0  0.50420025097E+03 -0.33123723855E+03  0.28420854609E+04  0.29054063018E+04  0.10100000352E+00 0. -1.
       -3    1    3    3    0  502 -0.50420025097E+03  0.33123723855E+03 -0.98366924968E+03  0.11539242628E+04  0.10100000352E+00 0.  1.
</event>
<event>
 5   0  0.3880259E-07  0.3629119E+04  0.7818609E-02  0.8083854E-01
        2   -1    0    0  501    0  0.00000000000E+00  0.00000000000E+00  0.25120948723E+04  0.25120948723E+04  0.25500000920E-02 0. -1.
       -2   -1    0    0    0  501  0.00000000000E+00  0.00000000000E+00 -0.13107091666E+04  0.13107091666E+04  0.25500000920E-02 0.  1.
    10030    2    1    2    0    0  0.00000000000E+00  0.00000000000E+00  0.12013857056E+04  0.38228040389E+04  0.36291187781E+04 0.  0.
        5    1    3    3  502    0 -0.17233721535E+04 -0.18790933816E+02  0.11986497912E+04  0.20993208641E+04  0.46999998093E+01 0. -1.
       -5    1    3    3    0  502  0.17233721535E+04  0.18790933816E+02  0.27359144508E+01  0.17234831748E+04  0.46999998093E+01 0.  1.
</event>
<event>
 5   0  0.1361743E-07  0.3493458E+04  0.7818609E-02  0.8115342E-01
        1   -1    0    0  501    0  0.00000000000E+00  0.00000000000E+00  0.24570957719E+04  0.24570957720E+04  0.50400001928E-02 0.  1.
       -1   -1    0    0    0  501  0.00000000000E+00  0.00000000000E+00 -0.12417351606E+04  0.12417351606E+04  0.50400001928E-02 0. -1.
    10030    2    1    2    0    0  0.00000000000E+00  0.00000000000E+00  0.12153606114E+04  0.36988309325E+04  0.34934580077E+04 0.  0.
        5    1    3    3  502    0 -0.10425063023E+04  0.17593510585E+03 -0.86447943423E+03  0.13656937190E+04  0.46999998093E+01 0. -1.
       -5    1    3    3    0  502  0.10425063023E+04 -0.17593510585E+03  0.20798400456E+04  0.23331372135E+04  0.46999998093E+01 0.  1.
</event>
<event>
 5   0  0.4115358E-07  0.3598239E+04  0.7818609E-02  0.8090895E-01
       -2   -1    0    0    0  501  0.00000000000E+00  0.00000000000E+00  0.15901561323E+04  0.15901561323E+04  0.25500000920E-02 0.  1.
        2   -1    0    0  501    0  0.00000000000E+00  0.00000000000E+00 -0.20355423414E+04  0.20355423414E+04  0.25500000920E-02 0. -1.
    10030    2    1    2    0    0  0.00000000000E+00  0.00000000000E+00 -0.44538620911E+03  0.36256984736E+04  0.35982385338E+04 0.  0.
        3    1    3    3  502    0  0.60378957618E+03 -0.26692962090E+03  0.14637030158E+04  0.16056898217E+04  0.10100000352E+00 0.  1.
       -3    1    3    3    0  502 -0.60378957618E+03  0.26692962090E+03 -0.19090892249E+04  0.20200086519E+04  0.10100000352E+00 0. -1.
</event>
<event>
 5   0  0.4200635E-07  0.3606134E+04  0.7818609E-02  0.8089088E-01
       -2   -1    0    0    0  501  0.00000000000E+00  0.00000000000E+00  0.12574473360E+04  0.12574473360E+04  0.25500000920E-02 0.  1.
        2   -1    0    0  501    0  0.00000000000E+00  0.00000000000E+00 -0.25854362606E+04  0.25854362606E+04  0.25500000920E-02 0. -1.
    10030    2    1    2    0    0  0.00000000000E+00  0.00000000000E+00 -0.13279889246E+04  0.38428835966E+04  0.36061336295E+04 0.  0.
        4    1    3    3  502    0  0.14586585880E+04 -0.79020561816E+03  0.88735035210E+02  0.16613203529E+04  0.12699999809E+01 0.  1.
       -4    1    3    3    0  502 -0.14586585880E+04  0.79020561816E+03 -0.14167239598E+04  0.21815632438E+04  0.12699999809E+01 0. -1.
</event>
<event>
 5   0  0.3880259E-07  0.3579968E+04  0.7818609E-02  0.8095096E-01
       -2   -1    0    0    0  501  0.00000000000E+00  0.00000000000E+00  0.20470766518E+04  0.20470766518E+04  0.25500000920E-02 0.  1.
        2   -1    0    0  501    0  0.00000000000E+00  0.00000000000E+00 -0.15651794727E+04  0.15651794727E+04  0.25500000920E-02 0. -1.
    10030    2    1    2    0    0  0.00000000000E+00  0.00000000000E+00  0.48189717906E+03  0.36122561245E+04  0.35799677957E+04 0.  0.
        5    1    3    3  502    0  0.95284599046E+02 -0.16120216021E+04  0.10201358115E+04  0.19100764290E+04  0.46999998093E+01 0.  1.
       -5    1    3    3    0  502 -0.95284599046E+02  0.16120216021E+04 -0.53823863245E+03  0.17021796956E+04  0.46999998093E+01 0. -1.
</event>
<event>
 5   0  0.1361743E-07  0.3831165E+04  0.7818609E-02  0.8039500E-01
        1   -1    0    0  501    0  0.00000000000E+00  0.00000000000E+00  0.19121429373E+04  0.19121429373E+04  0.50400001928E-02 0. -1.
       -1   -1    0    0    0  501  0.00000000000E+00  0.00000000000E+00 -0.19190278483E+04  0.19190278483E+04  0.50400001928E-02 0.  1.
    10030    2    1    2    0    0  0.00000000000E+00  0.00000000000E+00 -0.68849109486E+01  0.38311707856E+04  0.38311645993E+04 0.  0.
        5    1    3    3  502    0  0.48816751886E+03 -0.71795741045E+03 -0.17109764970E+04  0.19186539639E+04  0.46999998093E+01 0.  1.
       -5    1    3    3    0  502 -0.48816751886E+03  0.71795741045E+03  0.17040915861E+04  0.19125168218E+04  0.46999998093E+01 0. -1.
</event>
<event>
 5   0  0.4115358E-07  0.3487840E+04  0.7818609E-02  0.8116678E-01
        2   -1    0    0  501    0  0.00000000000E+00  0.00000000000E+00  0.18797655266E+04  0.18797655266E+04  0.25500000920E-02 0.  1.
       -2   -1    0    0    0  501  0.00000000000E+00  0.00000000000E+00 -0.16178912912E+04  0.16178912912E+04  0.25500000920E-02 0. -1.
    10030    2    1    2    0    0  0.00000000000E+00  0.00000000000E+00  0.26187423536E+03  0.34976568178E+04  0.34878396035E+04 0.  0.
        3    1    3    3  502    0 -0.38551688172E+03 -0.13690034251E+04  0.11429667707E+04  0.18246004201E+04  0.10100000352E+00 0.  1.
       -3    1    3    3    0  502  0.38551688172E+03  0.13690034251E+04 -0.88109253531E+03  0.16730563977E+04  0.10100000352E+00 0. -1.
</event>
<event>
 5   0  0.3993751E-07  0.3612915E+04  0.7818609E-02  0.8087540E-01
        2   -1    0    0  501    0  0.00000000000E+00  0.00000000000E+00  0.12116103580E+04  0.12116103580E+04  0.25500000920E-02 0.  1.
       -2   -1    0    0    0  501  0.00000000000E+00  0.00000000000E+00 -0.26933480428E+04  0.26933480428E+04  0.25500000920E-02 0. -1.
    10030    2    1    2    0    0  0.00000000000E+00  0.00000000000E+00 -0.14817376848E+04  0.39049584008E+04  0.36129148267E+04 0.  0.
        1    1    3    3  502    0 -0.15354355419E+04 -0.27913344719E+03 -0.17242552029E+04  0.23256254620E+04  0.50400001928E-02 0. -1.
       -1    1    3    3    0  502  0.15354355419E+04  0.27913344719E+03  0.24251751815E+03  0.15793329387E+04  0.50400001928E-02 0.  1.
</event>
<event>
 5   0  0.4200635E-07  0.3543490E+04  0.7818609E-02  0.8103560E-01
       -2   -1    0    0    0  501  0.00000000000E+00  0.00000000000E+00  0.15301808907E+04  0.15301808907E+04  0.25500000920E-02 0. -1.
        2   -1    0    0  501    0  0.00000000000E+00  0.00000000000E+00 -0.20514433984E+04  0.20514433984E+04  0.25500000920E-02 0.  1.
    10030    2    1    2    0    0  0.00000000000E+00  0.00000000000E+00 -0.52126250771E+03  0.35816242891E+04  0.35434895155E+04 0.  0.
        4    1    3    3  502    0 -0.14460400793E+04  0.52393165774E+03 -0.11496086252E+04  0.19201921511E+04  0.12699999809E+01 0. -1.
       -4    1    3    3    0  502  0.14460400793E+04 -0.52393165774E+03  0.62834611746E+03  0.16614321380E+04  0.12699999809E+01 0.  1.
</event>
<event>
 5   0  0.3993751E-07  0.3627944E+04  0.7818609E-02  0.8084121E-01
       -2   -1    0    0    0  501  0.00000000000E+00  0.00000000000E+00  0.19967122345E+04  0.19967122345E+04  0.25500000920E-02 0. -1.
        2   -1    0    0  501    0  0.00000000000E+00  0.00000000000E+00 -0.16479564670E+04  0.16479564670E+04  0.25500000920E-02 0.  1.
    10030    2    1    2    0    0  0.00000000000E+00  0.00000000000E+00  0.34875576751E+03  0.36446687015E+04  0.36279442331E+04 0.  0.
        1    1    3    3  502    0  0.82796877459E+03 -0.52105692848E+03  0.17089872411E+04  0.19691800336E+04  0.50400001928E-02 0. -1.
       -1    1    3    3    0  502 -0.82796877459E+03  0.52105692848E+03 -0.13602314736E+04  0.16754886679E+04  0.50400001928E-02 0.  1.
</event>
<event>
 5   0  0.4115358E-07  0.3691544E+04  0.7818609E-02  0.8069838E-01
        2   -1    0    0  501    0  0.00000000000E+00  0.00000000000E+00  0.22138539775E+04  0.22138539775E+04  0.25500000920E-02 0.  1.
       -2   -1    0    0    0  501  0.00000000000E+00  0.00000000000E+00 -0.15388880177E+04  0.15388880177E+04  0.25500000920E-02 0. -1.
    10030    2    1    2    0    0  0.00000000000E+00  0.00000000000E+00  0.67496595981E+03  0.37527419952E+04  0.36915435031E+04 0.  0.
        3    1    3    3  502    0  0.69968199700E+02 -0.15470175290E+04 -0.68351495176E+03  0.16927349123E+04  0.10100000352E+00 0. -1.
       -3    1    3    3    0  502 -0.69968199700E+02  0.15470175290E+04  0.13584809116E+04  0.20600070828E+04  0.10100000352E+00 0.  1.
</event>
<event>
 5   0  0.4120440E-07  0.3628240E+04  0.7818609E-02  0.8084054E-01
       -2   -1    0    0    0  501  0.00000000000E+00  0.00000000000E+00  0.10565993670E+04  0.10565993670E+04  0.25500000920E-02 0. -1.
        2   -1    0    0  501    0  0.00000000000E+00  0.00000000000E+00 -0.31147386140E+04  0.31147386140E+04  0.25500000920E-02 0.  1.
    10030    2    1    2    0    0  0.00000000000E+00  0.00000000000E+00 -0.20581392470E+04  0.41713379809E+04  0.36282397097E+04 0.  0.
        2    1    3    3  502    0  0.14972640243E+04  0.85405597095E+03 -0.16792472266E+04  0.24064667893E+04  0.25500000920E-02 0.  1.
       -2    1    3    3    0  502 -0.14972640243E+04 -0.85405597095E+03 -0.37889202042E+03  0.17648711916E+04  0.25500000920E-02 0. -1.
</event>
<event>
 5   0  0.3993751E-07  0.3581617E+04  0.7818609E-02  0.8094716E-01
       -2   -1    0    0    0  501  0.00000000000E+00  0.00000000000E+00  0.17748169462E+04  0.17748169462E+04  0.25500000920E-02 0. -1.
        2   -1    0    0  501    0  0.00000000000E+00  0.00000000000E+00 -0.18069437556E+04  0.18069437556E+04  0.25500000920E-02 0.  1.
    10030    2    1    2    0    0  0.00000000000E+00  0.00000000000E+00 -0.32126809463E+02  0.35817607018E+04  0.35816166173E+04 0.  0.
        1    1    3    3  502    0  0.14787308132E+04  0.85405746940E+03 -0.55546940010E+03  0.17957185841E+04  0.50400001928E-02 0.  1.
       -1    1    3    3    0  502 -0.14787308132E+04 -0.85405746940E+03  0.52334259064E+03  0.17860421177E+04  0.50400001928E-02 0. -1.
</event>
<event>
 5   0  0.4120440E-07  0.3645638E+04  0.7818609E-02  0.8080117E-01
        2   -1    0    0  501    0  0.00000000000E+00  0.00000000000E+00  0.20043975683E+04  0.20043975683E+04  0.25500000920E-02 0. -1.
       -2   -1    0    0    0  501  0.00000000000E+00  0.00000000000E+00 -0.16576900345E+04  0.16576900345E+04  0.25500000920E-02 0.  1.
    10030    2    1    2    0    0  0.00000000000E+00  0.00000000000E+00  0.34670753380E+03  0.36620876028E+04  0.36456384210E+04 0.  0.
        2    1    3    3  502    0  0.26114991699E+02 -0.64322196841E+03 -0.15397010378E+04  0.16688606231E+04  0.25500000920E-02 0.  1.
       -2    1    3    3    0  502 -0.26114991699E+02  0.64322196841E+03  0.18864085716E+04  0.19932269797E+04  0.25500000920E-02 0. -1.
</event>
<event>
 5   0  0.1298250E-07  0.3593468E+04  0.7818609E-02  0.8091990E-01
       -1   -1    0    0    0  501  0.00000000000E+00  0.00000000000E+00  0.12774481139E+04  0.12774481139E+04  0.50400001928E-02 0. -1.
        1   -1    0    0  501    0  0.00000000000E+00  0.00000000000E+00 -0.25271110328E+04  0.25271110328E+04  0.50400001928E-02 0.  1.
    10030    2    1    2    0    0  0.00000000000E+00  0.00000000000E+00 -0.12496629189E+04  0.38045591466E+04  0.35934680866E+04 0.  0.
        1    1    3    3  502    0  0.33015618171E+03  0.15642337116E+04  0.24335264926E+03  0.16171118454E+04  0.50400001928E-02 0. -1.
       -1    1    3    3    0  502 -0.33015618171E+03 -0.15642337116E+04 -0.14930155682E+04  0.21874473012E+04  0.50400001928E-02 0.  1.
</event>
<event>
 5   0  0.1298250E-07  0.3562110E+04  0.7818609E-02  0.8099226E-01
        1   -1    0    0  501    0  0.00000000000E+00  0.00000000000E+00  0.15662551679E+04  0.15662551679E+04  0.50400001928E-02 0.  1.
       -1   -1    0    0    0  501  0.00000000000E+00  0.00000000000E+00 -0.20253128650E+04  0.20253128650E+04  0.50400001928E-02 0. -1.
    10030    2    1    2    0    0  0.00000000000E+00  0.00000000000E+00 -0.45905769705E+03  0.35915680329E+04  0.35621099036E+04 0.  0.
        2    1    3    3  502    0 -0.14055753888E+04  0.35132142299E+03 -0.12739951113E+04  0.19292828874E+04  0.25500000920E-02 0.  1.
       -2    1    3    3    0  502  0.14055753888E+04 -0.35132142299E+03  0.81493741425E+03  0.16622851455E+04  0.25500000920E-02 0. -1.
</event>
<event>
 5   0  0.1348226E-07  0.3639231E+04  0.7818609E-02  0.8081564E-01
       -1   -1    0    0    0  501  0.00000000000E+00  0.00000000000E+00  0.12839827945E+04  0.12839827945E+04  0.50400001928E-02 0.  1.
        1   -1    0    0  501    0  0.00000000000E+00  0.00000000000E+00 -0.25786953487E+04  0.25786953487E+04  0.50400001928E-02 0. -1.
    10030    2    1    2    0    0  0.00000000000E+00  0.00000000000E+00 -0.12947125541E+04  0.38626781432E+04  0.36392309408E+04 0.  0.
        4    1    3    3  502    0 -0.18128414202E+04 -0.11559830418E+03 -0.75989398734E+03  0.19690600468E+04  0.12699999809E+01 0.  1.
       -4    1    3    3    0  502  0.18128414202E+04  0.11559830418E+03 -0.53481856680E+03  0.18936180964E+04  0.12699999809E+01 0. -1.
</event>
<event>
 5   0  0.1298250E-07  0.3596297E+04  0.7818609E-02  0.8091340E-01
        3   -1    0    0  501    0  0.00000000000E+00  0.00000000000E+00  0.19209611345E+04  0.19209611371E+04  0.10100000352E+00 0. -1.
       -3   -1    0    0    0  501  0.00000000000E+00  0.00000000000E+00 -0.16831874552E+04  0.16831874582E+04  0.10100000352E+00 0.  1.
    10030    2    1    2    0    0  0.00000000000E+00  0.00000000000E+00  0.23777367932E+03  0.36041485953E+04  0.35962968141E+04 0.  0.
        4    1    3    3  502    0  0.22513425257E+03 -0.12266943108E+04 -0.11792681192E+04  0.17164321348E+04  0.12699999809E+01 0.  1.
       -4    1    3    3    0  502 -0.22513425257E+03  0.12266943108E+04  0.14170417985E+04  0.18877164605E+04  0.12699999809E+01 0. -1.
</event>
<event>
 5   0  0.4115358E-07  0.3513527E+04  0.7818609E-02  0.8110592E-01
       -2   -1    0    0    0  501  0.00000000000E+00  0.00000000000E+00  0.12270789682E+04  0.12270789682E+04  0.25500000920E-02 0.  1.
        2   -1    0    0  501    0  0.00000000000E+00  0.00000000000E+00 -0.25150937029E+04  0.25150937029E+04  0.25500000920E-02 0. -1.
    10030    2    1    2    0    0  0.00000000000E+00  0.00000000000E+00 -0.12880147347E+04  0.37421726711E+04  0.35135273363E+04 0.  0.
        3    1    3    3  502    0  0.10287436108E+04 -0.14157402935E+04 -0.48044079225E+03  0.18147885168E+04  0.10100000352E+00 0. -1.
       -3    1    3    3    0  502 -0.10287436108E+04  0.14157402935E+04 -0.80757394246E+03  0.19273841543E+04  0.10100000352E+00 0.  1.
</event>
<event>
 5   0  0.4115358E-07  0.3599523E+04  0.7818609E-02  0.8090601E-01
       -2   -1    0    0    0  501  0.00000000000E+00  0.00000000000E+00  0.14296071922E+04  0.14296071922E+04  0.25500000920E-02 0. -1.
        2   -1    0    0  501    0  0.00000000000E+00  0.00000000000E+00 -0.22657563540E+04  0.22657563541E+04  0.25500000920E-02 0.  1.
    10030    2    1    2    0    0  0.00000000000E+00  0.00000000000E+00 -0.83614916188E+03  0.36953635462E+04  0.35995230681E+04 0.  0.
        3    1    3    3  502    0  0.95666667379E+03 -0.10358135771E+04  0.73019656850E+03  0.15878626925E+04  0.10100000352E+00 0. -1.
       -3    1    3    3    0  502 -0.95666667379E+03  0.10358135771E+04 -0.15663457304E+04  0.21075008538E+04  0.10100000352E+00 0.  1.
</event>
<event>
 5   0  0.1370997E-07  0.3587164E+04  0.7818609E-02  0.8093438E-01
       -1   -1    0    0    0  501  0.00000000000E+00  0.00000000000E+00  0.12145552420E+04  0.12145552421E+04  0.50400001928E-02 0.  1.
        1   -1    0    0  501    0  0.00000000000E+00  0.00000000000E+00 -0.26486540210E+04  0.26486540210E+04  0.50400001928E-02 0. -1.
    10030    2    1    2    0    0  0.00000000000E+00  0.00000000000E+00 -0.14340987790E+04  0.38632092631E+04  0.35871641310E+04 0.  0.
        3    1    3    3  502    0  0.28485127997E+03  0.12277485771E+04  0.65725048056E+03  0.14214376612E+04  0.10100000352E+00 0.  1.
       -3    1    3    3    0  502 -0.28485127997E+03 -0.12277485771E+04 -0.20913492596E+04  0.24417716019E+04  0.10100000352E+00 0. -1.
</event>
<event>
 5   0  0.1348226E-07  0.3580235E+04  0.7818609E-02  0.8095034E-01
        1   -1    0    0  501    0  0.00000000000E+00  0.00000000000E+00  0.25457461888E+04  0.25457461888E+04  0.50400001928E-02 0.  1.
       -1   -1    0    0    0  501  0.00000000000E+00  0.00000000000E+00 -0.12587749099E+04  0.12587749099E+04  0.50400001928E-02 0. -1.
    10030    2    1    2    0    0  0.00000000000E+00  0.00000000000E+00  0.12869712789E+04  0.38045210987E+04  0.35802354277E+04 0.  0.
        4    1    3    3  502    0  0.88760928112E+03 -0.93242385331E+03 -0.67832549550E+03  0.14551259632E+04  0.12699999809E+01 0. -1.
       -4    1    3    3    0  502 -0.88760928112E+03  0.93242385331E+03  0.19652967744E+04  0.23493951354E+04  0.12699999809E+01 0.  1.
</event>
<event>
 5   0  0.1298250E-07  0.3604238E+04  0.7818609E-02  0.8089522E-01
        3   -1    0    0  501    0  0.00000000000E+00  0.00000000000E+00  0.23671499378E+04  0.23671499400E+04  0.10100000352E+00 0. -1.
       -3   -1    0    0    0  501  0.00000000000E+00  0.00000000000E+00 -0.13719590334E+04  0.13719590371E+04  0.10100000352E+00 0.  1.
    10030    2    1    2    0    0  0.00000000000E+00  0.00000000000E+00  0.99519090442E+03  0.37391089771E+04  0.36042379231E+04 0.  0.
        2    1    3    3  502    0  0.16821205000E+04 -0.32696095775E+03 -0.81132421769E+02  0.17155218781E+04  0.25500000920E-02 0.  1.
       -2    1    3    3    0  502 -0.16821205000E+04  0.32696095775E+03  0.10763233262E+04  0.20235870989E+04  0.25500000920E-02 0. -1.
</event>
<event>
 5   0  0.4200635E-07  0.3589984E+04  0.7818609E-02  0.8092790E-01
        2   -1    0    0  501    0  0.00000000000E+00  0.00000000000E+00  0.27553955880E+04  0.27553955880E+04  0.25500000920E-02 0.  1.
       -2   -1    0    0    0  501  0.00000000000E+00  0.00000000000E+00 -0.11693407128E+04  0.11693407128E+04  0.25500000920E-02 0. -1.
    10030    2    1    2    0    0  0.00000000000E+00  0.00000000000E+00  0.15860548752E+04  0.39247363007E+04  0.35899839781E+04 0.  0.
        4    1    3    3  502    0 -0.14220144166E+04 -0.10209734856E+04  0.35918254161E+03  0.17870438076E+04  0.12699999809E+01 0.  1.
       -4    1    3    3    0  502  0.14220144166E+04  0.10209734856E+04  0.12268723336E+04  0.21376924931E+04  0.12699999809E+01 0. -1.
</event>
<event>
 5   0  0.4200635E-07  0.3590941E+04  0.7818609E-02  0.8092570E-01
        2   -1    0    0  501    0  0.00000000000E+00  0.00000000000E+00  0.27375179620E+04  0.27375179620E+04  0.25500000920E-02 0. -1.
       -2   -1    0    0    0  501  0.00000000000E+00  0.00000000000E+00 -0.11776049479E+04  0.11776049479E+04  0.25500000920E-02 0.  1.
    10030    2    1    2    0    0  0.00000000000E+00  0.00000000000E+00  0.15599130140E+04  0.39151229099E+04  0.35909412120E+04 0.  0.
        4    1    3    3  502    0  0.12448933482E+04 -0.26930713353E+03  0.21596757447E+04  0.25072867239E+04  0.12699999809E+01 0. -1.
       -4    1    3    3    0  502 -0.12448933482E+04  0.26930713353E+03 -0.59976273065E+03  0.14078361860E+04  0.12699999809E+01 0.  1.
</event>
<event>
 5   0  0.4115358E-07  0.3612581E+04  0.7818609E-02  0.8087616E-01
       -2   -1    0    0    0  501  0.00000000000E+00  0.00000000000E+00  0.22367134114E+04  0.22367134114E+04  0.25500000920E-02 0. -1.
        2   -1    0    0  501    0  0.00000000000E+00  0.00000000000E+00 -0.14586964995E+04  0.14586964995E+04  0.25500000920E-02 0.  1.
    10030    2    1    2    0    0  0.00000000000E+00  0.00000000000E+00  0.77801691199E+03  0.36954099109E+04  0.36125813616E+04 0.  0.
        3    1    3    3  502    0  0.31868505294E+03 -0.69377402396E+02 -0.14283265352E+04  0.14650904710E+04  0.10100000352E+00 0.  1.
       -3    1    3    3    0  502 -0.31868505294E+03  0.69377402396E+02  0.22063434472E+04  0.22303194399E+04  0.10100000352E+00 0. -1.
</event>
<event>
 5   0  0.1298250E-07  0.3613829E+04  0.7818609E-02  0.8087331E-01
       -1   -1    0    0    0  501  0.00000000000E+00  0.00000000000E+00  0.14943088115E+04  0.14943088115E+04  0.50400001928E-02 0. -1.
        1   -1    0    0  501    0  0.00000000000E+00  0.00000000000E+00 -0.21849167267E+04  0.21849167267E+04  0.50400001928E-02 0.  1.
    10030    2    1    2    0    0  0.00000000000E+00  0.00000000000E+00 -0.69060791512E+03  0.36792255382E+04  0.36138291698E+04 0.  0.
        1    1    3    3  502    0  0.41502323431E+03  0.11789480425E+04  0.98321497919E+03  0.15902435245E+04  0.50400001928E-02 0. -1.
       -1    1    3    3    0  502 -0.41502323431E+03 -0.11789480425E+04 -0.16738228943E+04  0.20889820137E+04  0.50400001928E-02 0.  1.
</event>
<event>
 5   0  0.4200635E-07  0.3631907E+04  0.7818609E-02  0.8083222E-01
        2   -1    0    0  501    0  0.00000000000E+00  0.00000000000E+00  0.26598410527E+04  0.26598410527E+04  0.25500000920E-02 0.  1.
       -2   -1    0    0    0  501  0.00000000000E+00  0.00000000000E+00 -0.12398058434E+04  0.12398058434E+04  0.25500000920E-02 0. -1.
    10030    2    1    2    0    0  0.00000000000E+00  0.00000000000E+00  0.14200352093E+04  0.38996468961E+04  0.36319066506E+04 0.  0.
        4    1    3    3  502    0 -0.82834103677E+03  0.97233897357E+03  0.20959441580E+04  0.24545010652E+04  0.12699999809E+01 0.  1.
       -4    1    3    3    0  502  0.82834103677E+03 -0.97233897357E+03 -0.67590894867E+03  0.14451458309E+04  0.12699999809E+01 0. -1.
</event>
<event>
 5   0  0.1348226E-07  0.3575953E+04  0.7818609E-02  0.8096022E-01
        1   -1    0    0  501    0  0.00000000000E+00  0.00000000000E+00  0.24816464697E+04  0.24816464697E+04  0.50400001928E-02 0.  1.
       -1   -1    0    0    0  501  0.00000000000E+00  0.00000000000E+00 -0.12882011902E+04  0.12882011902E+04  0.50400001928E-02 0. -1.
    10030    2    1    2    0    0  0.00000000000E+00  0.00000000000E+00  0.11934452795E+04  0.37698476599E+04  0.35759529840E+04 0.  0.
        4    1    3    3  502    0  0.72747605513E+03  0.34839959228E+03 -0.10854978440E+04  0.13523723115E+04  0.12699999809E+01 0. -1.
       -4    1    3    3    0  502 -0.72747605513E+03 -0.34839959228E+03  0.22789431235E+04  0.24174753484E+04  0.12699999809E+01 0.  1.
</event>
<event>
 5   0  0.3993751E-07  0.3592569E+04  0.7818609E-02  0.8092196E-01
        2   -1    0    0  501    0  0.00000000000E+00  0.00000000000E+00  0.18160392692E+04  0.18160392692E+04  0.25500000920E-02 0. -1.
       -2   -1    0    0    0  501  0.00000000000E+00  0.00000000000E+00 -0.17767446611E+04  0.17767446611E+04  0.25500000920E-02 0.  1.
    10030    2    1    2    0    0  0.00000000000E+00  0.00000000000E+00  0.39294608104E+02  0.35927839303E+04  0.35925690395E+04 0.  0.
        1    1    3    3  502    0 -0.97009758989E+03  0.14887608967E+04  0.28260738794E+03  0.17992679837E+04  0.50400001928E-02 0.  1.
       -1    1    3    3    0  502  0.97009758989E+03 -0.14887608967E+04 -0.24331277983E+03  0.17935159465E+04  0.50400001928E-02 0. -1.
</event>
<event>
 5   0  0.3880259E-07  0.3596527E+04  0.7818609E-02  0.8091288E-01
       -2   -1    0    0    0  501  0.00000000000E+00  0.00000000000E+00  0.24454801699E+04  0.24454801699E+04  0.25500000920E-02 0. -1.
        2   -1    0    0  501    0  0.00000000000E+00  0.00000000000E+00 -0.13223379379E+04  0.13223379379E+04  0.25500000920E-02 0.  1.
    10030    2    1    2    0    0  0.00000000000E+00  0.00000000000E+00  0.11231422320E+04  0.37678181078E+04  0.35965267718E+04 0.  0.
        5    1    3    3  502    0 -0.80098956566E+03  0.94055061997E+03 -0.80738075063E+03  0.14758406145E+04  0.46999998093E+01 0.  1.
       -5    1    3    3    0  502  0.80098956566E+03 -0.94055061997E+03  0.19305229827E+04  0.22919774933E+04  0.46999998093E+01 0. -1.
</event>
<event>
 5   0  0.1298250E-07  0.3598302E+04  0.7818609E-02  0.8090881E-01
        1   -1    0    0  501    0  0.00000000000E+00  0.00000000000E+00  0.18575037530E+04  0.18575037530E+04  0.50400001928E-02 0. -1.
       -1   -1    0    0    0  501  0.00000000000E+00  0.00000000000E+00 -0.17426315123E+04  0.17426315123E+04  0.50400001928E-02 0.  1.
    10030    2    1    2    0    0  0.00000000000E+00  0.00000000000E+00  0.11487224067E+03  0.36001352653E+04  0.35983021408E+04 0.  0.
        1    1    3    3  502    0  0.73951856365E+03 -0.55877264136E+03 -0.14853708511E+04  0.17508401229E+04  0.50400001928E-02 0.  1.
       -1    1    3    3    0  502 -0.73951856365E+03  0.55877264136E+03  0.16002430918E+04  0.18492951424E+04  0.50400001928E-02 0. -1.
</event>
<event>
 5   0  0.1298250E-07  0.3589946E+04  0.7818609E-02  0.8092798E-01
        1   -1    0    0  501    0  0.00000000000E+00  0.00000000000E+00  0.14251212157E+04  0.14251212157E+04  0.50400001928E-02 0. -1.
       -1   -1    0    0    0  501  0.00000000000E+00  0.00000000000E+00 -0.22608103132E+04  0.22608103132E+04  0.50400001928E-02 0.  1.
    10030    2    1    2    0    0  0.00000000000E+00  0.00000000000E+00 -0.83568909746E+03  0.36859315289E+04  0.35899463740E+04 0.  0.
        1    1    3    3  502    0 -0.64485119174E+03 -0.86769245470E+03  0.10533683037E+04  0.15094065187E+04  0.50400001928E-02 0. -1.
       -1    1    3    3    0  502  0.64485119174E+03  0.86769245470E+03 -0.18890574011E+04  0.21765250102E+04  0.50400001928E-02 0.  1.
</event>
<event>
 5   0  0.1348226E-07  0.3615379E+04  0.7818609E-02  0.8086978E-01
       -1   -1    0    0    0  501  0.00000000000E+00  0.00000000000E+00  0.12218457718E+04  0.12218457718E+04  0.50400001928E-02 0. -1.
        1   -1    0    0  501    0  0.00000000000E+00  0.00000000000E+00 -0.26744302348E+04  0.26744302348E+04  0.50400001928E-02 0.  1.
    10030    2    1    2    0    0  0.00000000000E+00  0.00000000000E+00 -0.14525844631E+04  0.38962760066E+04  0.36153789701E+04 0.  0.
        4    1    3    3  502    0  0.94150215520E+03  0.41746972398E+03 -0.23273250684E+04  0.25450247279E+04  0.12699999809E+01 0.  1.
       -4    1    3    3    0  502 -0.94150215520E+03 -0.41746972398E+03  0.87474060536E+03  0.13512512787E+04  0.12699999809E+01 0. -1.
</event>
<event>
 5   0  0.4200635E-07  0.3609117E+04  0.7818609E-02  0.8088406E-01
       -2   -1    0    0    0  501  0.00000000000E+00  0.00000000000E+00  0.17564245814E+04  0.17564245814E+04  0.25500000920E-02 0. -1.
        2   -1    0    0  501    0  0.00000000000E+00  0.00000000000E+00 -0.18540117163E+04  0.18540117163E+04  0.25500000920E-02 0.  1.
    10030    2    1    2    0    0  0.00000000000E+00  0.00000000000E+00 -0.97587134935E+02  0.36104362977E+04  0.36091172066E+04 0.  0.
        4    1    3    3  502    0 -0.43029479555E+03 -0.79063067734E+02 -0.18001548760E+04  0.18525560100E+04  0.12699999809E+01 0.  1.
       -4    1    3    3    0  502  0.43029479555E+03  0.79063067734E+02  0.17025677411E+04  0.17578802876E+04  0.12699999809E+01 0. -1.
</event>
<event>
 5   0  0.1298250E-07  0.3584527E+04  0.7818609E-02  0.8094045E-01
        1   -1    0    0  501    0  0.00000000000E+00  0.00000000000E+00  0.20709453643E+04  0.20709453643E+04  0.50400001928E-02 0. -1.
       -1   -1    0    0    0  501  0.00000000000E+00  0.00000000000E+00 -0.15510833876E+04  0.15510833876E+04  0.50400001928E-02 0.  1.
    10030    2    1    2    0    0  0.00000000000E+00  0.00000000000E+00  0.51986197663E+03  0.36220287519E+04  0.35845272777E+04 0.  0.
        1    1    3    3  502    0  0.11458881377E+02  0.67091308282E+03  0.19392305237E+04  0.20520406172E+04  0.50400001928E-02 0. -1.
       -1    1    3    3    0  502 -0.11458881377E+02 -0.67091308282E+03 -0.14193685471E+04  0.15699881347E+04  0.50400001928E-02 0.  1.
</event>
<event>
 5   0  0.3993751E-07  0.3587046E+04  0.7818609E-02  0.8093465E-01
        2   -1    0    0  501    0  0.00000000000E+00  0.00000000000E+00  0.10009174190E+04  0.10009174190E+04  0.25500000920E-02 0. -1.
       -2   -1    0    0    0  501  0.00000000000E+00  0.00000000000E+00 -0.32137761904E+04  0.32137761904E+04  0.25500000920E-02 0.  1.
    10030    2    1    2    0    0  0.00000000000E+00  0.00000000000E+00 -0.22128587714E+04  0.42146936094E+04  0.35870458987E+04 0.  0.
        1    1    3    3  502    0 -0.10094941386E+04  0.11339544243E+04 -0.22283892598E+04  0.26964142385E+04  0.50400001928E-02 0.  1.
       -1    1    3    3    0  502  0.10094941386E+04 -0.11339544243E+04  0.15530488368E+02  0.15182793710E+04  0.50400001928E-02 0. -1.
</event>
<event>
 5   0  0.1298250E-07  0.3597336E+04  0.7818609E-02  0.8091102E-01
       -3   -1    0    0    0  501  0.00000000000E+00  0.00000000000E+00  0.16128460002E+04  0.16128460034E+04  0.10100000352E+00 0.  1.
        3   -1    0    0  501    0  0.00000000000E+00  0.00000000000E+00 -0.20058994418E+04  0.20058994443E+04  0.10100000352E+00 0. -1.
    10030    2    1    2    0    0  0.00000000000E+00  0.00000000000E+00 -0.39305344155E+03  0.36187454477E+04  0.35973361821E+04 0.  0.
        1    1    3    3  502    0 -0.35820119519E+03  0.15191039011E+04  0.70278605447E+03  0.17116930206E+04  0.50400001928E-02 0.  1.
       -1    1    3    3    0  502  0.35820119519E+03 -0.15191039011E+04 -0.10958394960E+04  0.19070524271E+04  0.50400001928E-02 0. -1.
</event>
<event>
 5   0  0.4115358E-07  0.3591170E+04  0.7818609E-02  0.8092517E-01
       -2   -1    0    0    0  501  0.00000000000E+00  0.00000000000E+00  0.16014035363E+04  0.16014035363E+04  0.25500000920E-02 0. -1.
        2   -1    0    0  501    0  0.00000000000E+00  0.00000000000E+00 -0.20133118132E+04  0.20133118132E+04  0.25500000920E-02 0.  1.
    10030    2    1    2    0    0  0.00000000000E+00  0.00000000000E+00 -0.41190827690E+03  0.36147153495E+04  0.35911695350E+04 0.  0.
        3    1    3    3  502    0  0.37739422404E+03  0.33259878044E+02 -0.19726235461E+04  0.20086752561E+04  0.10100000352E+00 0.  1.
       -3    1    3    3    0  502 -0.37739422404E+03 -0.33259878044E+02  0.15607152692E+04  0.16060400934E+04  0.10100000352E+00 0. -1.
</event>
<event>
 5   0  0.1298250E-07  0.3837555E+04  0.7818609E-02  0.8038143E-01
       -1   -1    0    0    0  501  0.00000000000E+00  0.00000000000E+00  0.15372899538E+04  0.15372899538E+04  0.50400001928E-02 0.  1.
        1   -1    0    0  501    0  0.00000000000E+00  0.00000000000E+00 -0.23949329404E+04  0.23949329404E+04  0.50400001928E-02 0. -1.
    10030    2    1    2    0    0  0.00000000000E+00  0.00000000000E+00 -0.85764298661E+03  0.39322228943E+04  0.38375546117E+04 0.  0.
        1    1    3    3  502    0  0.10864626698E+03  0.71535491240E+03 -0.22497851953E+04  0.23632752880E+04  0.50400001928E-02 0. -1.
       -1    1    3    3    0  502 -0.10864626698E+03 -0.71535491240E+03  0.13921422087E+04  0.15689476063E+04  0.50400001928E-02 0.  1.
</event>
<event>
 5   0  0.1298250E-07  0.3614192E+04  0.7818609E-02  0.8087248E-01
       -3   -1    0    0    0  501  0.00000000000E+00  0.00000000000E+00  0.22879968153E+04  0.22879968175E+04  0.10100000352E+00 0. -1.
        3   -1    0    0  501    0  0.00000000000E+00  0.00000000000E+00 -0.14272731948E+04  0.14272731984E+04  0.10100000352E+00 0.  1.
    10030    2    1    2    0    0  0.00000000000E+00  0.00000000000E+00  0.86072362047E+03  0.37152700159E+04  0.36141923220E+04 0.  0.
        1    1    3    3  502    0 -0.17278401786E+04 -0.38695856084E+03  0.80161006026E+03  0.19436427911E+04  0.50400001928E-02 0. -1.
       -1    1    3    3    0  502  0.17278401786E+04  0.38695856084E+03  0.59113560215E+02  0.17716272248E+04  0.50400001928E-02 0.  1.
</event>
<event>
 5   0  0.3880259E-07  0.3220560E+04  0.7818609E-02  0.8183408E-01
        2   -1    0    0  501    0  0.00000000000E+00  0.00000000000E+00  0.24742952155E+04  0.24742952155E+04  0.25500000920E-02 0. -1.
       -2   -1    0    0    0  501  0.00000000000E+00  0.00000000000E+00 -0.10479758119E+04  0.10479758119E+04  0.25500000920E-02 0.  1.
    10030    2    1    2    0    0  0.00000000000E+00  0.00000000000E+00  0.14263194037E+04  0.35222710274E+04  0.32205599124E+04 0.  0.
        5    1    3    3  502    0 -0.28628883521E+03  0.10397128369E+04  0.20210211549E+04  0.22907450052E+04  0.46999998093E+01 0. -1.
       -5    1    3    3    0  502  0.28628883521E+03 -0.10397128369E+04 -0.59470175126E+03  0.12315260222E+04  0.46999998093E+01 0.  1.
</event>
<event>
 5   0  0.1298250E-07  0.3628457E+04  0.7818609E-02  0.8084004E-01
       -1   -1    0    0    0  501  0.00000000000E+00  0.00000000000E+00  0.19380903111E+04  0.19380903111E+04  0.50400001928E-02 0. -1.
        1   -1    0    0  501    0  0.00000000000E+00  0.00000000000E+00 -0.16982826654E+04  0.16982826654E+04  0.50400001928E-02 0.  1.
    10030    2    1    2    0    0  0.00000000000E+00  0.00000000000E+00  0.23980764573E+03  0.36363729765E+04  0.36284570711E+04 0.  0.
        1    1    3    3  502    0 -0.14145174250E+04 -0.74564536559E+03 -0.73904161067E+03  0.17615416711E+04  0.50400001928E-02 0.  1.
       -1    1    3    3    0  502  0.14145174250E+04  0.74564536559E+03  0.97884925640E+03  0.18748313054E+04  0.50400001928E-02 0. -1.
</event>
<event>
 5   0  0.1361743E-07  0.3571947E+04  0.7818609E-02  0.8096948E-01
        1   -1    0    0  501    0  0.00000000000E+00  0.00000000000E+00  0.11261831792E+04  0.11261831792E+04  0.50400001928E-02 0.  1.
       -1   -1    0    0    0  501  0.00000000000E+00  0.00000000000E+00 -0.28323113091E+04  0.28323113091E+04  0.50400001928E-02 0. -1.
    10030    2    1    2    0    0  0.00000000000E+00  0.00000000000E+00 -0.17061281299E+04  0.39584944883E+04  0.35719470067E+04 0.  0.
        5    1    3    3  502    0 -0.13498595502E+04 -0.44012724128E+03  0.34762536334E+03  0.14617449425E+04  0.46999998093E+01 0.  1.
       -5    1    3    3    0  502  0.13498595502E+04  0.44012724128E+03 -0.20537534932E+04  0.24967495458E+04  0.46999998093E+01 0. -1.
</event>
<event>
 5   0  0.1370997E-07  0.3612295E+04  0.7818609E-02  0.8087681E-01
        1   -1    0    0  501    0  0.00000000000E+00  0.00000000000E+00  0.16280873041E+04  0.16280873041E+04  0.50400001928E-02 0.  1.
       -1   -1    0    0    0  501  0.00000000000E+00  0.00000000000E+00 -0.20036813037E+04  0.20036813037E+04  0.50400001928E-02 0. -1.
    10030    2    1    2    0    0  0.00000000000E+00  0.00000000000E+00 -0.37559399962E+03  0.36317686078E+04  0.36122946126E+04 0.  0.
        3    1    3    3  502    0 -0.11292400681E+03  0.16988990417E+03  0.16164678048E+04  0.16292889815E+04  0.10100000352E+00 0.  1.
       -3    1    3    3    0  502  0.11292400681E+03 -0.16988990417E+03 -0.19920618045E+04  0.20024796263E+04  0.10100000352E+00 0. -1.
</event>
<event>
 5   0  0.4200635E-07  0.3596941E+04  0.7818609E-02  0.8091193E-01
       -2   -1    0    0    0  501  0.00000000000E+00  0.00000000000E+00  0.35411651401E+04  0.35411651401E+04  0.25500000920E-02 0. -1.
        2   -1    0    0  501    0  0.00000000000E+00  0.00000000000E+00 -0.91339878056E+03  0.91339878057E+03  0.25500000920E-02 0.  1.
    10030    2    1    2    0    0  0.00000000000E+00  0.00000000000E+00  0.26277663595E+04  0.44545639206E+04  0.35969408784E+04 0.  0.
        4    1    3    3  502    0  0.16264097958E+04 -0.29916199175E+03  0.43836608897E+03  0.17108106739E+04  0.12699999809E+01 0.  1.
       -4    1    3    3    0  502 -0.16264097958E+04  0.29916199175E+03  0.21894002705E+04  0.27437532467E+04  0.12699999809E+01 0. -1.
</event>
<event>
 5   0  0.1298250E-07  0.3613866E+04  0.7818609E-02  0.8087323E-01
       -1   -1    0    0    0  501  0.00000000000E+00  0.00000000000E+00  0.10958346919E+04  0.10958346919E+04  0.50400001928E-02 0. -1.
        1   -1    0    0  501    0  0.00000000000E+00  0.00000000000E+00 -0.29794696053E+04  0.29794696053E+04  0.50400001928E-02 0.  1.
    10030    2    1    2    0    0  0.00000000000E+00  0.00000000000E+00 -0.18836349134E+04  0.40753042972E+04  0.36138656073E+04 0.  0.
        2    1    3    3  502    0 -0.12789249828E+04 -0.75995919068E+03  0.21471697136E+03  0.15030936302E+04  0.25500000920E-02 0. -1.
       -2    1    3    3    0  502  0.12789249828E+04  0.75995919068E+03 -0.20983518848E+04  0.25722106670E+04  0.25500000920E-02 0.  1.
</event>
<event>
 5   0  0.3993751E-07  0.3415948E+04  0.7818609E-02  0.8134003E-01
       -2   -1    0    0    0  501  0.00000000000E+00  0.00000000000E+00  0.19835103529E+04  0.19835103529E+04  0.25500000920E-02 0.  1.
        2   -1    0    0  501    0  0.00000000000E+00  0.00000000000E+00 -0.14707129448E+04  0.14707129448E+04  0.25500000920E-02 0. -1.
    10030    2    1    2    0    0  0.00000000000E+00  0.00000000000E+00  0.51279740811E+03  0.34542232976E+04  0.34159475125E+04 0.  0.
        1    1    3    3  502    0 -0.52630651733E+03 -0.12735247703E+04 -0.76402214340E+03  0.15756248685E+04  0.50400001928E-02 0. -1.
       -1    1    3    3    0  502  0.52630651733E+03  0.12735247703E+04  0.12768195515E+04  0.18785984291E+04  0.50400001928E-02 0.  1.
</event>
<event>
 5   0  0.4200635E-07  0.3531154E+04  0.7818609E-02  0.8106446E-01
        2   -1    0    0  501    0  0.00000000000E+00  0.00000000000E+00  0.15328829870E+04  0.15328829870E+04  0.25500000920E-02 0. -1.
       -2   -1    0    0    0  501  0.00000000000E+00  0.00000000000E+00 -0.20335939750E+04  0.20335939750E+04  0.25500000920E-02 0.  1.
    10030    2    1    2    0    0  0.00000000000E+00  0.00000000000E+00 -0.50071098793E+03  0.35664769620E+04  0.35311536963E+04 0.  0.
        4    1    3    3  502    0 -0.12136370711E+04  0.42384750177E+03 -0.14727092123E+04  0.19548492735E+04  0.12699999809E+01 0.  1.
       -4    1    3    3    0  502  0.12136370711E+04 -0.42384750177E+03  0.97199822442E+03  0.16116276885E+04  0.12699999809E+01 0. -1.
</event>
<event>
 5   0  0.4200635E-07  0.3610890E+04  0.7818609E-02  0.8088002E-01
       -2   -1    0    0    0  501  0.00000000000E+00  0.00000000000E+00  0.18330786808E+04  0.18330786808E+04  0.25500000920E-02 0.  1.
        2   -1    0    0  501    0  0.00000000000E+00  0.00000000000E+00 -0.17782274118E+04  0.17782274118E+04  0.25500000920E-02 0. -1.
    10030    2    1    2    0    0  0.00000000000E+00  0.00000000000E+00  0.54851269029E+02  0.36113060926E+04  0.36108895071E+04 0.  0.
        4    1    3    3  502    0 -0.54471515022E+03  0.63626996343E+03  0.16270085065E+04  0.18299487300E+04  0.12699999809E+01 0.  1.
       -4    1    3    3    0  502  0.54471515022E+03 -0.63626996343E+03 -0.15721572374E+04  0.17813573626E+04  0.12699999809E+01 0. -1.
</event>
<event>
 5   0  0.4120440E-07  0.3593907E+04  0.7818609E-02  0.8091889E-01
        2   -1    0    0  501    0  0.00000000000E+00  0.00000000000E+00  0.16505960465E+04  0.16505960465E+04  0.25500000920E-02 0.  1.
       -2   -1    0    0    0  501  0.00000000000E+00  0.00000000000E+00 -0.19562883391E+04  0.19562883391E+04  0.25500000920E-02 0. -1.
    10030    2    1    2    0    0  0.00000000000E+00  0.00000000000E+00 -0.30569229253E+03  0.36068843856E+04  0.35939069539E+04 0.  0.
        2    1    3    3  502    0 -0.14038769864E+03 -0.68395407078E+03 -0.18145846383E+04  0.19442786031E+04  0.25500000920E-02 0. -1.
       -2    1    3    3    0  502  0.14038769864E+03  0.68395407078E+03  0.15088923458E+04  0.16626057825E+04  0.25500000920E-02 0.  1.
</event>
<event>
 5   0  0.4115358E-07  0.3599041E+04  0.7818609E-02  0.8090711E-01
        2   -1    0    0  501    0  0.00000000000E+00  0.00000000000E+00  0.25354430631E+04  0.25354430631E+04  0.25500000920E-02 0. -1.
       -2   -1    0    0    0  501  0.00000000000E+00  0.00000000000E+00 -0.12772025506E+04  0.12772025506E+04  0.25500000920E-02 0.  1.
    10030    2    1    2    0    0  0.00000000000E+00  0.00000000000E+00  0.12582405125E+04  0.38126456137E+04  0.35990411763E+04 0.  0.
        3    1    3    3  502    0  0.26340693492E+03 -0.17041874396E+04  0.84160631578E+02  0.17264764884E+04  0.10100000352E+00 0. -1.
       -3    1    3    3    0  502 -0.26340693492E+03  0.17041874396E+04  0.11740798809E+04  0.20861691254E+04  0.10100000352E+00 0.  1.
</event>
<event>
 5   0  0.1370997E-07  0.3596945E+04  0.7818609E-02  0.8091192E-01
       -1   -1    0    0    0  501  0.00000000000E+00  0.00000000000E+00  0.22751372381E+04  0.22751372381E+04  0.50400001928E-02 0. -1.
        1   -1    0    0  501    0  0.00000000000E+00  0.00000000000E+00 -0.14216742448E+04  0.14216742449E+04  0.50400001928E-02 0.  1.
    10030    2    1    2    0    0  0.00000000000E+00  0.00000000000E+00  0.85346299327E+03  0.36968114830E+04  0.35969453790E+04 0.  0.
        3    1    3    3  502    0 -0.17576247562E+03 -0.15747198327E+04  0.13011582817E+04  0.20502799525E+04  0.10100000352E+00 0. -1.
       -3    1    3    3    0  502  0.17576247562E+03  0.15747198327E+04 -0.44769528847E+03  0.16465315305E+04  0.10100000352E+00 0.  1.
</event>
<event>
 5   0  0.1348226E-07  0.3587259E+04  0.7818609E-02  0.8093416E-01
        1   -1    0    0  501    0  0.00000000000E+00  0.00000000000E+00  0.27154395165E+04  0.27154395165E+04  0.50400001928E-02 0.  1.
       -1   -1    0    0    0  501  0.00000000000E+00  0.00000000000E+00 -0.11847464591E+04  0.11847464591E+04  0.50400001928E-02 0. -1.
    10030    2    1    2    0    0  0.00000000000E+00  0.00000000000E+00  0.15306930574E+04  0.39001859756E+04  0.35872593171E+04 0.  0.
        4    1    3    3  502    0  0.56018071473E+03  0.33582718705E+02  0.26175316038E+04  0.26770139227E+04  0.12699999809E+01 0.  1.
       -4    1    3    3    0  502 -0.56018071473E+03 -0.33582718705E+02 -0.10868385464E+04  0.12231720529E+04  0.12699999809E+01 0. -1.
</event>
<event>
 5   0  0.4115358E-07  0.3587879E+04  0.7818609E-02  0.8093274E-01
        2   -1    0    0  501    0  0.00000000000E+00  0.00000000000E+00  0.30527191604E+04  0.30527191604E+04  0.25500000920E-02 0.  1.
       -2   -1    0    0    0  501  0.00000000000E+00  0.00000000000E+00 -0.10542141121E+04  0.10542141121E+04  0.25500000920E-02 0. -1.
    10030    2    1    2    0    0  0.00000000000E+00  0.00000000000E+00  0.19985050484E+04  0.41069332725E+04  0.35878793843E+04 0.  0.
        3    1    3    3  502    0  0.16178327537E+04 -0.84308740794E+02  0.11724177189E+03  0.16242648878E+04  0.10100000352E+00 0. -1.
       -3    1    3    3    0  502 -0.16178327537E+04  0.84308740794E+02  0.18812632765E+04  0.24826683847E+04  0.10100000352E+00 0.  1.
</event>
<event>
 5   0  0.4120440E-07  0.3581476E+04  0.7818609E-02  0.8094748E-01
        2   -1    0    0  501    0  0.00000000000E+00  0.00000000000E+00  0.21187128131E+04  0.21187128131E+04  0.25500000920E-02 0. -1.
       -2   -1    0    0    0  501  0.00000000000E+00  0.00000000000E+00 -0.15135338027E+04  0.15135338027E+04  0.25500000920E-02 0.  1.
    10030    2    1    2    0    0  0.00000000000E+00  0.00000000000E+00  0.60517901035E+03  0.36322466158E+04  0.35814764893E+04 0.  0.
        2    1    3    3  502    0 -0.64386217313E+03  0.15784247301E+04 -0.25360091280E+03  0.17234548296E+04  0.25500000920E-02 0.  1.
       -2    1    3    3    0  502  0.64386217313E+03 -0.15784247301E+04  0.85877992315E+03  0.19087917862E+04  0.25500000920E-02 0. -1.
</event>
<event>
 5   0  0.1298250E-07  0.3610465E+04  0.7818609E-02  0.8088099E-01
        1   -1    0    0  501    0  0.00000000000E+00  0.00000000000E+00  0.17793162393E+04  0.17793162393E+04  0.50400001928E-02 0.  1.
       -1   -1    0    0    0  501  0.00000000000E+00  0.00000000000E+00 -0.18315262180E+04  0.18315262181E+04  0.50400001928E-02 0. -1.
    10030    2    1    2    0    0  0.00000000000E+00  0.00000000000E+00 -0.52209978771E+02  0.36108424573E+04  0.36104649797E+04 0.  0.
        1    1    3    3  502    0  0.62830895185E+02 -0.46328361017E+03 -0.17699285700E+04  0.18306355639E+04  0.50400001928E-02 0. -1.
       -1    1    3    3    0  502 -0.62830895185E+02  0.46328361017E+03  0.17177185912E+04  0.17802068935E+04  0.50400001928E-02 0.  1.
</event>
<event>
 5   0  0.3993751E-07  0.3583414E+04  0.7818609E-02  0.8094302E-01
       -2   -1    0    0    0  501  0.00000000000E+00  0.00000000000E+00  0.16259352136E+04  0.16259352136E+04  0.25500000920E-02 0.  1.
        2   -1    0    0  501    0  0.00000000000E+00  0.00000000000E+00 -0.19743795791E+04  0.19743795791E+04  0.25500000920E-02 0. -1.
    10030    2    1    2    0    0  0.00000000000E+00  0.00000000000E+00 -0.34844436544E+03  0.36003147927E+04  0.35834136143E+04 0.  0.
        1    1    3    3  502    0 -0.11864843978E+04 -0.79556847295E+03  0.91233068925E+03  0.16949990289E+04  0.50400001928E-02 0.  1.
       -1    1    3    3    0  502  0.11864843978E+04  0.79556847295E+03 -0.12607750547E+04  0.19053157638E+04  0.50400001928E-02 0. -1.
</event>
<event>
 5   0  0.1298250E-07  0.3600365E+04  0.7818609E-02  0.8090408E-01
        1   -1    0    0  501    0  0.00000000000E+00  0.00000000000E+00  0.20800789238E+04  0.20800789238E+04  0.50400001928E-02 0.  1.
       -1   -1    0    0    0  501  0.00000000000E+00  0.00000000000E+00 -0.15579491379E+04  0.15579491379E+04  0.50400001928E-02 0. -1.
    10030    2    1    2    0    0  0.00000000000E+00  0.00000000000E+00  0.52212978590E+03  0.36380280617E+04  0.36003650737E+04 0.  0.
        2    1    3    3  502    0  0.10597346307E+04  0.76522588698E+03 -0.98964284077E+03  0.16395124574E+04  0.25500000920E-02 0. -1.
       -2    1    3    3    0  502 -0.10597346307E+04 -0.76522588698E+03  0.15117726267E+04  0.19985156043E+04  0.25500000920E-02 0.  1.
</event>
<event>
 5   0  0.3880259E-07  0.3592179E+04  0.7818609E-02  0.8092286E-01
       -2   -1    0    0    0  501  0.00000000000E+00  0.00000000000E+00  0.14859241404E+04  0.14859241404E+04  0.25500000920E-02 0. -1.
        2   -1    0    0  501    0  0.00000000000E+00  0.00000000000E+00 -0.21709970908E+04  0.21709970908E+04  0.25500000920E-02 0.  1.
    10030    2    1    2    0    0  0.00000000000E+00  0.00000000000E+00 -0.68507295043E+03  0.36569212312E+04  0.35921787182E+04 0.  0.
        5    1    3    3  502    0  0.42259336491E+03  0.45691221791E+03  0.13726319919E+04  0.15071478369E+04  0.46999998093E+01 0. -1.
       -5    1    3    3    0  502 -0.42259336491E+03 -0.45691221791E+03 -0.20577049424E+04  0.21497733943E+04  0.46999998093E+01 0.  1.
</event>
<event>
 5   0  0.1298250E-07  0.3366755E+04  0.7818609E-02  0.8146114E-01
        1   -1    0    0  501    0  0.00000000000E+00  0.00000000000E+00  0.11558529748E+04  0.11558529748E+04  0.50400001928E-02 0. -1.
       -1   -1    0    0    0  501  0.00000000000E+00  0.00000000000E+00 -0.24516616887E+04  0.24516616887E+04  0.50400001928E-02 0.  1.
    10030    2    1    2    0    0  0.00000000000E+00  0.00000000000E+00 -0.12958087138E+04  0.36075146635E+04  0.33667553853E+04 0.  0.
        2    1    3    3  502    0 -0.23042782769E+03 -0.80941606290E+03 -0.22100733985E+04  0.23648838816E+04  0.25500000920E-02 0.  1.
       -2    1    3    3    0  502  0.23042782769E+03  0.80941606290E+03  0.91426468464E+03  0.12426307819E+04  0.25500000920E-02 0. -1.
</event>
<event>
 5   0  0.1370997E-07  0.3574662E+04  0.7818609E-02  0.8096320E-01
       -1   -1    0    0    0  501  0.00000000000E+00  0.00000000000E+00  0.13753172788E+04  0.13753172788E+04  0.50400001928E-02 0.  1.
        1   -1    0    0  501    0  0.00000000000E+00  0.00000000000E+00 -0.23227747286E+04  0.23227747286E+04  0.50400001928E-02 0. -1.
    10030    2    1    2    0    0  0.00000000000E+00  0.00000000000E+00 -0.94745744976E+03  0.36980920074E+04  0.35746620646E+04 0.  0.
        3    1    3    3  502    0 -0.13268659152E+04 -0.10700802252E+04  0.82331749957E+02  0.17065823661E+04  0.10100000352E+00 0.  1.
       -3    1    3    3    0  502  0.13268659152E+04  0.10700802252E+04 -0.10297891997E+04  0.19915096413E+04  0.10100000352E+00 0. -1.
</event>
<event>
 5   0  0.1361743E-07  0.3467944E+04  0.7818609E-02  0.8121429E-01
        1   -1    0    0  501    0  0.00000000000E+00  0.00000000000E+00  0.14205419905E+04  0.14205419905E+04  0.50400001928E-02 0.  1.
       -1   -1    0    0    0  501  0.00000000000E+00  0.00000000000E+00 -0.21165572134E+04  0.21165572134E+04  0.50400001928E-02 0. -1.
    10030    2    1    2    0    0  0.00000000000E+00  0.00000000000E+00 -0.69601522294E+03  0.35370992039E+04  0.34679437117E+04 0.  0.
        5    1    3    3  502    0  0.39724302345E+02 -0.83694316706E+03  0.12003508495E+04  0.14638702596E+04  0.46999998093E+01 0.  1.
       -5    1    3    3    0  502 -0.39724302345E+02  0.83694316706E+03 -0.18963660724E+04  0.20732289443E+04  0.46999998093E+01 0. -1.
</event>
<event>
 5   0  0.3993751E-07  0.3432484E+04  0.7818609E-02  0.8129979E-01
        2   -1    0    0  501    0  0.00000000000E+00  0.00000000000E+00  0.21093503504E+04  0.21093503504E+04  0.25500000920E-02 0.  1.
       -2   -1    0    0    0  501  0.00000000000E+00  0.00000000000E+00 -0.13963950707E+04  0.13963950707E+04  0.25500000920E-02 0. -1.
    10030    2    1    2    0    0  0.00000000000E+00  0.00000000000E+00  0.71295527966E+03  0.35057454211E+04  0.34324839004E+04 0.  0.
        1    1    3    3  502    0  0.12608696103E+04  0.55901044419E+03 -0.68669451204E+03  0.15407252201E+04  0.50400001928E-02 0. -1.
       -1    1    3    3    0  502 -0.12608696103E+04 -0.55901044419E+03  0.13996497917E+04  0.19650202010E+04  0.50400001928E-02 0.  1.
</event>
<event>
 5   0  0.1370997E-07  0.3743841E+04  0.7818609E-02  0.8058315E-01
        1   -1    0    0  501    0  0.00000000000E+00  0.00000000000E+00  0.23833565631E+04  0.23833565631E+04  0.50400001928E-02 0.  1.
       -1   -1    0    0    0  501  0.00000000000E+00  0.00000000000E+00 -0.14702319117E+04  0.14702319117E+04  0.50400001928E-02 0. -1.
    10030    2    1    2    0    0  0.00000000000E+00  0.00000000000E+00  0.91312465133E+03  0.38535884748E+04  0.37438412766E+04 0.  0.
        3    1    3    3  502    0  0.13284212982E+04  0.89020375769E+03 -0.54506180326E+03  0.16894550172E+04  0.10100000352E+00 0. -1.
       -3    1    3    3    0  502 -0.13284212982E+04 -0.89020375769E+03  0.14581864546E+04  0.21641334576E+04  0.10100000352E+00 0.  1.
</event>
<event>
 5   0  0.4120440E-07  0.3609728E+04  0.7818609E-02  0.8088267E-01
       -2   -1    0    0    0  501  0.00000000000E+00  0.00000000000E+00  0.12369118243E+04  0.12369118243E+04  0.25500000920E-02 0.  1.
        2   -1    0    0  501    0  0.00000000000E+00  0.00000000000E+00 -0.26336027364E+04  0.26336027364E+04  0.25500000920E-02 0. -1.
    10030    2    1    2    0    0  0.00000000000E+00  0.00000000000E+00 -0.13966909121E+04  0.38705145607E+04  0.36097281700E+04 0.  0.
        2    1    3    3  502    0 -0.96594108404E+03 -0.76276007386E+03 -0.21138269114E+04  0.24460395172E+04  0.25500000920E-02 0. -1.
       -2    1    3    3    0  502  0.96594108404E+03  0.76276007386E+03  0.71713599935E+03  0.14244750435E+04  0.25500000920E-02 0.  1.
</event>
<event>
 5   0  0.1348226E-07  0.3575831E+04  0.7818609E-02  0.8096050E-01
        1   -1    0    0  501    0  0.00000000000E+00  0.00000000000E+00  0.15114991306E+04  0.15114991306E+04  0.50400001928E-02 0. -1.
       -1   -1    0    0    0  501  0.00000000000E+00  0.00000000000E+00 -0.21148822531E+04  0.21148822531E+04  0.50400001928E-02 0.  1.
    10030    2    1    2    0    0  0.00000000000E+00  0.00000000000E+00 -0.60338312253E+03  0.36263813837E+04  0.35758314764E+04 0.  0.
        4    1    3    3  502    0  0.92291233701E+03 -0.63198554257E+03 -0.17162096255E+04  0.20485482663E+04  0.12699999809E+01 0.  1.
       -4    1    3    3    0  502 -0.92291233701E+03  0.63198554257E+03  0.11128265029E+04  0.15778331174E+04  0.12699999809E+01 0. -1.
</event>
<event>
 5   0  0.1361743E-07  0.3655472E+04  0.7818609E-02  0.8077902E-01
        1   -1    0    0  501    0  0.00000000000E+00  0.00000000000E+00  0.28112071499E+04  0.28112071499E+04  0.50400001928E-02 0.  1.
       -1   -1    0    0    0  501  0.00000000000E+00  0.00000000000E+00 -0.11883217661E+04  0.11883217662E+04  0.50400001928E-02 0. -1.
    10030    2    1    2    0    0  0.00000000000E+00  0.00000000000E+00  0.16228853838E+04  0.39995289161E+04  0.36554718685E+04 0.  0.
        5    1    3    3  502    0 -0.15291222891E+04 -0.62909859685E+03 -0.40720001244E+02  0.16539831402E+04  0.46999998093E+01 0. -1.
       -5    1    3    3    0  502  0.15291222891E+04  0.62909859685E+03  0.16636053850E+04  0.23455457759E+04  0.46999998093E+01 0.  1.
</event>
<event>
 5   0  0.3880259E-07  0.3604086E+04  0.7818609E-02  0.8089556E-01
        2   -1    0    0  501    0  0.00000000000E+00  0.00000000000E+00  0.23442950812E+04  0.23442950812E+04  0.25500000920E-02 0.  1.
       -2   -1    0    0    0  501  0.00000000000E+00  0.00000000000E+00 -0.13852173839E+04  0.13852173839E+04  0.25500000920E-02 0. -1.
    10030    2    1    2    0    0  0.00000000000E+00  0.00000000000E+00  0.95907769723E+03  0.37295124651E+04  0.36040856258E+04 0.  0.
        5    1    3    3  502    0  0.11165510052E+04 -0.85480363641E+03 -0.68660498848E+03  0.15648718492E+04  0.46999998093E+01 0.  1.
       -5    1    3    3    0  502 -0.11165510052E+04  0.85480363641E+03  0.16456826857E+04  0.21646406159E+04  0.46999998093E+01 0. -1.
</event>
<event>
 5   0  0.1361743E-07  0.3677819E+04  0.7818609E-02  0.8072895E-01
       -1   -1    0    0    0  501  0.00000000000E+00  0.00000000000E+00  0.24916384624E+04  0.24916384624E+04  0.50400001928E-02 0.  1.
        1   -1    0    0  501    0  0.00000000000E+00  0.00000000000E+00 -0.13571747629E+04  0.13571747629E+04  0.50400001928E-02 0. -1.
    10030    2    1    2    0    0  0.00000000000E+00  0.00000000000E+00  0.11344636995E+04  0.38488132253E+04  0.36778193754E+04 0.  0.
        5    1    3    3  502    0  0.17598708879E+04 -0.34766889314E+03  0.99044432276E+03  0.20491513482E+04  0.46999998093E+01 0.  1.
       -5    1    3    3    0  502 -0.17598708879E+04  0.34766889314E+03  0.14401937678E+03  0.17996618771E+04  0.46999998093E+01 0. -1.
</event>
<event>
 5   0  0.1298250E-07  0.3563040E+04  0.7818609E-02  0.8099011E-01
       -1   -1    0    0    0  501  0.00000000000E+00  0.00000000000E+00  0.17434631671E+04  0.17434631671E+04  0.50400001928E-02 0.  1.
        1   -1    0    0  501    0  0.00000000000E+00  0.00000000000E+00 -0.18204070892E+04  0.18204070892E+04  0.50400001928E-02 0. -1.
    10030    2    1    2    0    0  0.00000000000E+00  0.00000000000E+00 -0.76943922145E+02  0.35638702563E+04  0.35630395503E+04 0.  0.
        2    1    3    3  502    0  0.41403724018E+02 -0.74459057052E+03  0.15798308742E+04  0.17469959866E+04  0.25500000920E-02 0.  1.
       -2    1    3    3    0  502 -0.41403724018E+02  0.74459057052E+03 -0.16567747964E+04  0.18168742697E+04  0.25500000920E-02 0. -1.
</event>
<event>
 5   0  0.3993751E-07  0.3568450E+04  0.7818609E-02  0.8097757E-01
       -2   -1    0    0    0  501  0.00000000000E+00  0.00000000000E+00  0.24906475886E+04  0.24906475886E+04  0.25500000920E-02 0.  1.
        2   -1    0    0  501    0  0.00000000000E+00  0.00000000000E+00 -0.12781649997E+04  0.12781649997E+04  0.25500000920E-02 0. -1.
    10030    2    1    2    0    0  0.00000000000E+00  0.00000000000E+00  0.12124825889E+04  0.37688125883E+04  0.35684498452E+04 0.  0.
        1    1    3    3  502    0  0.17764128743E+04 -0.76684946304E+02  0.44981971440E+03  0.18340831651E+04  0.50400001928E-02 0. -1.
       -1    1    3    3    0  502 -0.17764128743E+04  0.76684946304E+02  0.76266287449E+03  0.19347294232E+04  0.50400001928E-02 0.  1.
</event>
<event>
 5   0  0.1348226E-07  0.3601502E+04  0.7818609E-02  0.8090148E-01
       -1   -1    0    0    0  501  0.00000000000E+00  0.00000000000E+00  0.13581682466E+04  0.13581682466E+04  0.50400001928E-02 0.  1.
        1   -1    0    0  501    0  0.00000000000E+00  0.00000000000E+00 -0.23875571500E+04  0.23875571500E+04  0.50400001928E-02 0. -1.
    10030    2    1    2    0    0  0.00000000000E+00  0.00000000000E+00 -0.10293889033E+04  0.37457253966E+04  0.36015020800E+04 0.  0.
        4    1    3    3  502    0  0.74925141431E+03 -0.14591950653E+04 -0.12874661665E+04  0.20852334793E+04  0.12699999809E+01 0. -1.
       -4    1    3    3    0  502 -0.74925141431E+03  0.14591950653E+04  0.25807726319E+03  0.16604919173E+04  0.12699999809E+01 0.  1.
</event>
<event>
 5   0  0.3993751E-07  0.3617383E+04  0.7818609E-02  0.8086522E-01
       -2   -1    0    0    0  501  0.00000000000E+00  0.00000000000E+00  0.14053835635E+04  0.14053835635E+04  0.25500000920E-02 0.  1.
        2   -1    0    0  501    0  0.00000000000E+00  0.00000000000E+00 -0.23277378979E+04  0.23277378979E+04  0.25500000920E-02 0. -1.
    10030    2    1    2    0    0  0.00000000000E+00  0.00000000000E+00 -0.92235433443E+03  0.37331214614E+04  0.36173828008E+04 0.  0.
        1    1    3    3  502    0 -0.11890206204E+04  0.60630950658E+03 -0.17208807240E+04  0.21777997428E+04  0.50400001928E-02 0. -1.
       -1    1    3    3    0  502  0.11890206204E+04 -0.60630950658E+03  0.79852638954E+03  0.15553217186E+04  0.50400001928E-02 0.  1.
</event>
<event>
 5   0  0.3993751E-07  0.3611212E+04  0.7818609E-02  0.8087928E-01
       -2   -1    0    0    0  501  0.00000000000E+00  0.00000000000E+00  0.14616477504E+04  0.14616477504E+04  0.25500000920E-02 0.  1.
        2   -1    0    0  501    0  0.00000000000E+00  0.00000000000E+00 -0.22305048357E+04  0.22305048357E+04  0.25500000920E-02 0. -1.
    10030    2    1    2    0    0  0.00000000000E+00  0.00000000000E+00 -0.76885708534E+03  0.36921525861E+04  0.36112116390E+04 0.  0.
        1    1    3    3  502    0 -0.23070529804E+03 -0.46465360107E+03 -0.21526678417E+04  0.22142959920E+04  0.50400001928E-02 0. -1.
       -1    1    3    3    0  502  0.23070529804E+03  0.46465360107E+03  0.13838107563E+04  0.14778565942E+04  0.50400001928E-02 0.  1.
</event>
<event>
 5   0  0.1348226E-07  0.3632756E+04  0.7818609E-02  0.8083030E-01
        1   -1    0    0  501    0  0.00000000000E+00  0.00000000000E+00  0.22112855450E+04  0.22112855450E+04  0.50400001928E-02 0. -1.
       -1   -1    0    0    0  501  0.00000000000E+00  0.00000000000E+00 -0.14919957519E+04  0.14919957519E+04  0.50400001928E-02 0.  1.
    10030    2    1    2    0    0  0.00000000000E+00  0.00000000000E+00  0.71928979309E+03  0.37032812969E+04  0.36327557801E+04 0.  0.
        4    1    3    3  502    0  0.96970205008E+03 -0.12353318521E+04  0.12899738721E+04  0.20323388139E+04  0.12699999809E+01 0. -1.
       -4    1    3    3    0  502 -0.96970205008E+03  0.12353318521E+04 -0.57068407896E+03  0.16709424831E+04  0.12699999809E+01 0.  1.
</event>
<event>
 5   0  0.1361743E-07  0.3427513E+04  0.7818609E-02  0.8131187E-01
        1   -1    0    0  501    0  0.00000000000E+00  0.00000000000E+00  0.14422855318E+04  0.14422855318E+04  0.50400001928E-02 0.  1.
       -1   -1    0    0    0  501  0.00000000000E+00  0.00000000000E+00 -0.20363242381E+04  0.20363242381E+04  0.50400001928E-02 0. -1.
    10030    2    1    2    0    0  0.00000000000E+00  0.00000000000E+00 -0.59403870629E+03  0.34786097699E+04  0.34275127930E+04 0.  0.
        5    1    3    3  502    0  0.15654770909E+04 -0.45481820894E+03  0.23940605283E+03  0.16477000556E+04  0.46999998093E+01 0. -1.
       -5    1    3    3    0  502 -0.15654770909E+04  0.45481820894E+03 -0.83344475911E+03  0.18309097142E+04  0.46999998093E+01 0.  1.
</event>
<event>
 5   0  0.4200635E-07  0.3596593E+04  0.7818609E-02  0.8091273E-01
        2   -1    0    0  501    0  0.00000000000E+00  0.00000000000E+00  0.24278600494E+04  0.24278600494E+04  0.25500000920E-02 0.  1.
       -2   -1    0    0    0  501  0.00000000000E+00  0.00000000000E+00 -0.13319838600E+04  0.13319838600E+04  0.25500000920E-02 0. -1.
    10030    2    1    2    0    0  0.00000000000E+00  0.00000000000E+00  0.10958761894E+04  0.37598439094E+04  0.35965930546E+04 0.  0.
        4    1    3    3  502    0 -0.84730605022E+03  0.63858612981E+03 -0.96991299062E+03  0.14375161252E+04  0.12699999809E+01 0. -1.
       -4    1    3    3    0  502  0.84730605022E+03 -0.63858612981E+03  0.20657891800E+04  0.23223277842E+04  0.12699999809E+01 0.  1.
</event>
<event>
 5   0  0.1348226E-07  0.3593945E+04  0.7818609E-02  0.8091880E-01
        1   -1    0    0  501    0  0.00000000000E+00  0.00000000000E+00  0.22381114793E+04  0.22381114793E+04  0.50400001928E-02 0.  1.
       -1   -1    0    0    0  501  0.00000000000E+00  0.00000000000E+00 -0.14427832655E+04  0.14427832655E+04  0.50400001928E-02 0. -1.
    10030    2    1    2    0    0  0.00000000000E+00  0.00000000000E+00  0.79532821381E+03  0.36808947448E+04  0.35939447902E+04 0.  0.
        4    1    3    3  502    0 -0.11100239973E+04 -0.35624878848E+03  0.17982432136E+04  0.21430694674E+04  0.12699999809E+01 0.  1.
       -4    1    3    3    0  502  0.11100239973E+04  0.35624878848E+03 -0.10029149998E+04  0.15378252774E+04  0.12699999809E+01 0. -1.
</event>
<event>
 5   0  0.1298250E-07  0.3591851E+04  0.7818609E-02  0.8092361E-01
        1   -1    0    0  501    0  0.00000000000E+00  0.00000000000E+00  0.19338061775E+04  0.19338061775E+04  0.50400001928E-02 0.  1.
       -1   -1    0    0    0  501  0.00000000000E+00  0.00000000000E+00 -0.16678754376E+04  0.16678754376E+04  0.50400001928E-02 0. -1.
    10030    2    1    2    0    0  0.00000000000E+00  0.00000000000E+00  0.26593073984E+03  0.36016816151E+04  0.35918506787E+04 0.  0.
        1    1    3    3  502    0  0.16525971788E+04  0.40577815929E+03  0.70865735428E+03  0.18433471176E+04  0.50400001928E-02 0.  1.
       -1    1    3    3    0  502 -0.16525971788E+04 -0.40577815929E+03 -0.44272661444E+03  0.17583344975E+04  0.50400001928E-02 0. -1.
</event>
<event>
 5   0  0.1361743E-07  0.3596343E+04  0.7818609E-02  0.8091330E-01
       -1   -1    0    0    0  501  0.00000000000E+00  0.00000000000E+00  0.30246345534E+04  0.30246345534E+04  0.50400001928E-02 0.  1.
        1   -1    0    0  501    0  0.00000000000E+00  0.00000000000E+00 -0.10690283907E+04  0.10690283907E+04  0.50400001928E-02 0. -1.
    10030    2    1    2    0    0  0.00000000000E+00  0.00000000000E+00  0.19556061628E+04  0.40936629441E+04  0.35963427028E+04 0.  0.
        5    1    3    3  502    0 -0.38413033859E+03 -0.19952060015E+03  0.29644393135E+04  0.29958783554E+04  0.46999998093E+01 0.  1.
       -5    1    3    3    0  502  0.38413033859E+03  0.19952060015E+03 -0.10088331508E+04  0.10977845886E+04  0.46999998093E+01 0. -1.
</event>
<event>
 5   0  0.4200635E-07  0.3646230E+04  0.7818609E-02  0.8079983E-01
        2   -1    0    0  501    0  0.00000000000E+00  0.00000000000E+00  0.13974448419E+04  0.13974448419E+04  0.25500000920E-02 0. -1.
       -2   -1    0    0    0  501  0.00000000000E+00  0.00000000000E+00 -0.23784467943E+04  0.23784467943E+04  0.25500000920E-02 0.  1.
    10030    2    1    2    0    0  0.00000000000E+00  0.00000000000E+00 -0.98100195247E+03  0.37758916362E+04  0.36462299458E+04 0.  0.
        4    1    3    3  502    0  0.51026709207E+03 -0.97346018358E+03 -0.19967874539E+04  0.22792891399E+04  0.12699999809E+01 0.  1.
       -4    1    3    3    0  502 -0.51026709207E+03  0.97346018358E+03  0.10157855014E+04  0.14966024963E+04  0.12699999809E+01 0. -1.
</event>
<event>
 5   0  0.4120440E-07  0.3612931E+04  0.7818609E-02  0.8087536E-01
       -2   -1    0    0    0  501  0.00000000000E+00  0.00000000000E+00  0.18926646883E+04  0.18926646883E+04  0.25500000920E-02 0.  1.
        2   -1    0    0  501    0  0.00000000000E+00  0.00000000000E+00 -0.17241919560E+04  0.17241919560E+04  0.25500000920E-02 0. -1.
    10030    2    1    2    0    0  0.00000000000E+00  0.00000000000E+00  0.16847273224E+03  0.36168566443E+04  0.36129307942E+04 0.  0.
        2    1    3    3  502    0  0.10235855061E+03 -0.17104976776E+04  0.65672982859E+03  0.18350949964E+04  0.25500000920E-02 0.  1.
       -2    1    3    3    0  502 -0.10235855061E+03  0.17104976776E+04 -0.48825709636E+03  0.17817616479E+04  0.25500000920E-02 0. -1.
</event>
<event>
 5   0  0.1361743E-07  0.3584272E+04  0.7818609E-02  0.8094104E-01
       -1   -1    0    0    0  501  0.00000000000E+00  0.00000000000E+00  0.15984830411E+04  0.15984830411E+04  0.50400001928E-02 0. -1.
        1   -1    0    0  501    0  0.00000000000E+00  0.00000000000E+00 -0.20092491193E+04  0.20092491194E+04  0.50400001928E-02 0.  1.
    10030    2    1    2    0    0  0.00000000000E+00  0.00000000000E+00 -0.41076607825E+03  0.36077321605E+04  0.35842715537E+04 0.  0.
        5    1    3    3  502    0  0.19697861705E+03 -0.17732799515E+04 -0.37502757692E+03  0.18231813227E+04  0.46999998093E+01 0. -1.
       -5    1    3    3    0  502 -0.19697861705E+03  0.17732799515E+04 -0.35738501325E+02  0.17845508377E+04  0.46999998093E+01 0.  1.
</event>
<event>
 5   0  0.1298250E-07  0.3616647E+04  0.7818609E-02  0.8086689E-01
        1   -1    0    0  501    0  0.00000000000E+00  0.00000000000E+00  0.19876796190E+04  0.19876796190E+04  0.50400001928E-02 0. -1.
       -1   -1    0    0    0  501  0.00000000000E+00  0.00000000000E+00 -0.16451514618E+04  0.16451514618E+04  0.50400001928E-02 0.  1.
    10030    2    1    2    0    0  0.00000000000E+00  0.00000000000E+00  0.34252815720E+03  0.36328310807E+04  0.36166470829E+04 0.  0.
        1    1    3    3  502    0  0.34483407326E+03  0.16653626650E+04 -0.44605146251E+03  0.17582108097E+04  0.50400001928E-02 0. -1.
       -1    1    3    3    0  502 -0.34483407326E+03 -0.16653626650E+04  0.78857961971E+03  0.18746202711E+04  0.50400001928E-02 0.  1.
</event>
<event>
 5   0  0.4115358E-07  0.3634277E+04  0.7818609E-02  0.8082685E-01
        2   -1    0    0  501    0  0.00000000000E+00  0.00000000000E+00  0.19881932391E+04  0.19881932391E+04  0.25500000920E-02 0.  1.
       -2   -1    0    0    0  501  0.00000000000E+00  0.00000000000E+00 -0.16608005764E+04  0.16608005764E+04  0.25500000920E-02 0. -1.
    10030    2    1    2    0    0  0.00000000000E+00  0.00000000000E+00  0.32739266275E+03  0.36489938155E+04  0.36342770821E+04 0.  0.
        3    1    3    3  502    0  0.12940111435E+04  0.85244652210E+02 -0.11143528841E+04  0.17098286027E+04  0.10100000352E+00 0. -1.
       -3    1    3    3    0  502 -0.12940111435E+04 -0.85244652210E+02  0.14417455469E+04  0.19391652127E+04  0.10100000352E+00 0.  1.
</event>
<event>
 5   0  0.4200635E-07  0.3581229E+04  0.7818609E-02  0.8094805E-01
       -2   -1    0    0    0  501  0.00000000000E+00  0.00000000000E+00  0.13889464296E+04  0.13889464296E+04  0.25500000920E-02 0.  1.
        2   -1    0    0  501    0  0.00000000000E+00  0.00000000000E+00 -0.23084403916E+04  0.23084403916E+04  0.25500000920E-02 0. -1.
    10030    2    1    2    0    0  0.00000000000E+00  0.00000000000E+00 -0.91949396191E+03  0.36973868212E+04  0.35812288617E+04 0.  0.
        4    1    3    3  502    0  0.87566151566E+03 -0.13551017372E+04 -0.12616073362E+04  0.20481060744E+04  0.12699999809E+01 0. -1.
       -4    1    3    3    0  502 -0.87566151566E+03  0.13551017372E+04  0.34211337432E+03  0.16492807468E+04  0.12699999809E+01 0.  1.
</event>
<event>
 5   0  0.4200635E-07  0.3612788E+04  0.7818609E-02  0.8087569E-01
       -2   -1    0    0    0  501  0.00000000000E+00  0.00000000000E+00  0.20207377556E+04  0.20207377556E+04  0.25500000920E-02 0. -1.
        2   -1    0    0  501    0  0.00000000000E+00  0.00000000000E+00 -0.16147856966E+04  0.16147856966E+04  0.25500000920E-02 0.  1.
    10030    2    1    2    0    0  0.00000000000E+00  0.00000000000E+00  0.40595205902E+03  0.36355234521E+04  0.36127875245E+04 0.  0.
        4    1    3    3  502    0  0.29324226646E+03  0.15927496644E+04 -0.60219327908E+03  0.17278544148E+04  0.12699999809E+01 0.  1.
       -4    1    3    3    0  502 -0.29324226646E+03 -0.15927496644E+04  0.10081453381E+04  0.19076690374E+04  0.12699999809E+01 0. -1.
</event>
<event>
 5   0  0.1370997E-07  0.3629471E+04  0.7818609E-02  0.8083774E-01
       -1   -1    0    0    0  501  0.00000000000E+00  0.00000000000E+00  0.18159990692E+04  0.18159990692E+04  0.50400001928E-02 0.  1.
        1   -1    0    0  501    0  0.00000000000E+00  0.00000000000E+00 -0.18134731629E+04  0.18134731629E+04  0.50400001928E-02 0. -1.
    10030    2    1    2    0    0  0.00000000000E+00  0.00000000000E+00  0.25259062741E+01  0.36294722321E+04  0.36294713532E+04 0.  0.
        3    1    3    3  502    0 -0.17535518691E+04  0.44042840842E+03  0.15728935077E+03  0.18148447016E+04  0.10100000352E+00 0.  1.
       -3    1    3    3    0  502  0.17535518691E+04 -0.44042840842E+03 -0.15476344450E+03  0.18146275306E+04  0.10100000352E+00 0. -1.
</event>
<event>
 5   0  0.1361743E-07  0.3584896E+04  0.7818609E-02  0.8093960E-01
       -1   -1    0    0    0  501  0.00000000000E+00  0.00000000000E+00  0.17114057296E+04  0.17114057296E+04  0.50400001928E-02 0. -1.
        1   -1    0    0  501    0  0.00000000000E+00  0.00000000000E+00 -0.18773279398E+04  0.18773279398E+04  0.50400001928E-02 0.  1.
    10030    2    1    2    0    0  0.00000000000E+00  0.00000000000E+00 -0.16592221020E+03  0.35887336695E+04  0.35848959776E+04 0.  0.
        5    1    3    3  502    0  0.91364477328E+03  0.26702591636E+03  0.14374795111E+04  0.17240704877E+04  0.46999998093E+01 0. -1.
       -5    1    3    3    0  502 -0.91364477328E+03 -0.26702591636E+03 -0.16034017213E+04  0.18646631818E+04  0.46999998093E+01 0.  1.
</event>
<event>
 5   0  0.1370997E-07  0.3367536E+04  0.7818609E-02  0.8145920E-01
       -1   -1    0    0    0  501  0.00000000000E+00  0.00000000000E+00  0.18656597548E+04  0.18656597548E+04  0.50400001928E-02 0.  1.
        1   -1    0    0  501    0  0.00000000000E+00  0.00000000000E+00 -0.15196092673E+04  0.15196092673E+04  0.50400001928E-02 0. -1.
    10030    2    1    2    0    0  0.00000000000E+00  0.00000000000E+00  0.34605048751E+03  0.33852690220E+04  0.33675355101E+04 0.  0.
        3    1    3    3  502    0 -0.12762785472E+03  0.38125837789E+03  0.18166972925E+04  0.18606546920E+04  0.10100000352E+00 0.  1.
       -3    1    3    3    0  502  0.12762785472E+03 -0.38125837789E+03 -0.14706468050E+04  0.15246143300E+04  0.10100000352E+00 0. -1.
</event>
<event>
 5   0  0.1298250E-07  0.3593765E+04  0.7818609E-02  0.8091921E-01
       -1   -1    0    0    0  501  0.00000000000E+00  0.00000000000E+00  0.16507694748E+04  0.16507694749E+04  0.50400001928E-02 0. -1.
        1   -1    0    0  501    0  0.00000000000E+00  0.00000000000E+00 -0.19559281358E+04  0.19559281358E+04  0.50400001928E-02 0.  1.
    10030    2    1    2    0    0  0.00000000000E+00  0.00000000000E+00 -0.30515866094E+03  0.36066976106E+04  0.35937648568E+04 0.  0.
        2    1    3    3  502    0 -0.15200675133E+04 -0.78320961595E+03 -0.70662025594E+03  0.18502255899E+04  0.25500000920E-02 0.  1.
       -2    1    3    3    0  502  0.15200675133E+04  0.78320961595E+03  0.40146159500E+03  0.17564720207E+04  0.25500000920E-02 0. -1.
</event>
<event>
 5   0  0.4115358E-07  0.3602060E+04  0.7818609E-02  0.8090020E-01
       -2   -1    0    0    0  501  0.00000000000E+00  0.00000000000E+00  0.14227872923E+04  0.14227872923E+04  0.25500000920E-02 0.  1.
        2   -1    0    0  501    0  0.00000000000E+00  0.00000000000E+00 -0.22798267640E+04  0.22798267640E+04  0.25500000920E-02 0. -1.
    10030    2    1    2    0    0  0.00000000000E+00  0.00000000000E+00 -0.85703947168E+03  0.37026140563E+04  0.36020597154E+04 0.  0.
        3    1    3    3  502    0  0.15950880889E+04  0.82984532953E+02 -0.12839260914E+04  0.20493068736E+04  0.10100000352E+00 0. -1.
       -3    1    3    3    0  502 -0.15950880889E+04 -0.82984532953E+02  0.42688661970E+03  0.16533071827E+04  0.10100000352E+00 0.  1.
</event>
<event>
 5   0  0.4115358E-07  0.3563681E+04  0.7818609E-02  0.8098862E-01
       -2   -1    0    0    0  501  0.00000000000E+00  0.00000000000E+00  0.17686807829E+04  0.17686807829E+04  0.25500000920E-02 0.  1.
        2   -1    0    0  501    0  0.00000000000E+00  0.00000000000E+00 -0.17950984185E+04  0.17950984185E+04  0.25500000920E-02 0. -1.
    10030    2    1    2    0    0  0.00000000000E+00  0.00000000000E+00 -0.26417635593E+02  0.35637792015E+04  0.35636812856E+04 0.  0.
        3    1    3    3  502    0  0.59499636864E+03  0.16012969667E+04  0.49354311650E+03  0.17781331424E+04  0.10100000352E+00 0.  1.
       -3    1    3    3    0  502 -0.59499636864E+03 -0.16012969667E+04 -0.51996075209E+03  0.17856460590E+04  0.10100000352E+00 0. -1.
</event>
<event>
 5   0  0.1370997E-07  0.3602386E+04  0.7818609E-02  0.8089945E-01
        1   -1    0    0  501    0  0.00000000000E+00  0.00000000000E+00  0.15080330511E+04  0.15080330512E+04  0.50400001928E-02 0.  1.
       -1   -1    0    0    0  501  0.00000000000E+00  0.00000000000E+00 -0.21513433538E+04  0.21513433538E+04  0.50400001928E-02 0. -1.
    10030    2    1    2    0    0  0.00000000000E+00  0.00000000000E+00 -0.64331030267E+03  0.36593764050E+04  0.36023863657E+04 0.  0.
        3    1    3    3  502    0 -0.69858671991E+03 -0.15506266076E+04  0.28088166953E+03  0.17237635580E+04  0.10100000352E+00 0. -1.
       -3    1    3    3    0  502  0.69858671991E+03  0.15506266076E+04 -0.92419197221E+03  0.19356128469E+04  0.10100000352E+00 0.  1.
</event>
<event>
 5   0  0.4120440E-07  0.3656318E+04  0.7818609E-02  0.8077712E-01
       -2   -1    0    0    0  501  0.00000000000E+00  0.00000000000E+00  0.13174071536E+04  0.13174071536E+04  0.25500000920E-02 0. -1.
        2   -1    0    0  501    0  0.00000000000E+00  0.00000000000E+00 -0.25369262906E+04  0.25369262906E+04  0.25500000920E-02 0.  1.
    10030    2    1    2    0    0  0.00000000000E+00  0.00000000000E+00 -0.12195191370E+04  0.38543334442E+04  0.36563177342E+04 0.  0.
        2    1    3    3  502    0  0.12208833865E+04  0.12873725586E+04 -0.14511597312E+03  0.17801525198E+04  0.25500000920E-02 0. -1.
       -2    1    3    3    0  502 -0.12208833865E+04 -0.12873725586E+04 -0.10744031639E+04  0.20741809243E+04  0.25500000920E-02 0.  1.
</event>
<event>
 5   0  0.3993751E-07  0.3591653E+04  0.7818609E-02  0.8092406E-01
        2   -1    0    0  501    0  0.00000000000E+00  0.00000000000E+00  0.22654983757E+04  0.22654983757E+04  0.25500000920E-02 0.  1.
       -2   -1    0    0    0  501  0.00000000000E+00  0.00000000000E+00 -0.14235247418E+04  0.14235247418E+04  0.25500000920E-02 0. -1.
    10030    2    1    2    0    0  0.00000000000E+00  0.00000000000E+00  0.84197363383E+03  0.36890231175E+04  0.35916530959E+04 0.  0.
        1    1    3    3  502    0 -0.11780484072E+04  0.88391470249E+03 -0.63443551284E+03  0.16036245418E+04  0.50400001928E-02 0.  1.
       -1    1    3    3    0  502  0.11780484072E+04 -0.88391470249E+03  0.14764091467E+04  0.20853985757E+04  0.50400001928E-02 0. -1.
</event>
<event>
 5   0  0.4200635E-07  0.3537958E+04  0.7818609E-02  0.8104853E-01
       -2   -1    0    0    0  501  0.00000000000E+00  0.00000000000E+00  0.14772005802E+04  0.14772005802E+04  0.25500000920E-02 0.  1.
        2   -1    0    0  501    0  0.00000000000E+00  0.00000000000E+00 -0.21183894868E+04  0.21183894868E+04  0.25500000920E-02 0. -1.
    10030    2    1    2    0    0  0.00000000000E+00  0.00000000000E+00 -0.64118890664E+03  0.35955900670E+04  0.35379577040E+04 0.  0.
        4    1    3    3  502    0  0.13291753520E+04  0.44809755793E+03  0.77482540558E+03  0.16024526700E+04  0.12699999809E+01 0.  1.
       -4    1    3    3    0  502 -0.13291753520E+04 -0.44809755793E+03 -0.14160143122E+04  0.19931373969E+04  0.12699999809E+01 0. -1.
</event>
<event>
 5   0  0.1361743E-07  0.3601063E+04  0.7818609E-02  0.8090248E-01
       -1   -1    0    0    0  501  0.00000000000E+00  0.00000000000E+00  0.18060456842E+04  0.18060456842E+04  0.50400001928E-02 0.  1.
        1   -1    0    0  501    0  0.00000000000E+00  0.00000000000E+00 -0.17950340122E+04  0.17950340122E+04  0.50400001928E-02 0. -1.
    10030    2    1    2    0    0  0.00000000000E+00  0.00000000000E+00  0.11011672033E+02  0.36010796963E+04  0.36010628601E+04 0.  0.
        5    1    3    3  502    0 -0.12368826102E+03 -0.15445018691E+04 -0.91161705438E+03  0.17977353958E+04  0.46999998093E+01 0. -1.
       -5    1    3    3    0  502  0.12368826102E+03  0.15445018691E+04  0.92262872641E+03  0.18033443005E+04  0.46999998093E+01 0.  1.
</event>
<event>
 5   0  0.3993751E-07  0.3650165E+04  0.7818609E-02  0.8079096E-01
        2   -1    0    0  501    0  0.00000000000E+00  0.00000000000E+00  0.25479290772E+04  0.25479290772E+04  0.25500000920E-02 0. -1.
       -2   -1    0    0    0  501  0.00000000000E+00  0.00000000000E+00 -0.13073074052E+04  0.13073074052E+04  0.25500000920E-02 0.  1.
    10030    2    1    2    0    0  0.00000000000E+00  0.00000000000E+00  0.12406216720E+04  0.38552364825E+04  0.36501652295E+04 0.  0.
        1    1    3    3  502    0 -0.67150194486E+03 -0.16912410788E+04  0.47201115462E+03  0.18798951510E+04  0.50400001928E-02 0.  1.
       -1    1    3    3    0  502  0.67150194486E+03  0.16912410788E+04  0.76861051738E+03  0.19753413315E+04  0.50400001928E-02 0. -1.
</event>
<event>
 5   0  0.4115358E-07  0.3608975E+04  0.7818609E-02  0.8088439E-01
        2   -1    0    0  501    0  0.00000000000E+00  0.00000000000E+00  0.29003411349E+04  0.29003411349E+04  0.25500000920E-02 0.  1.
       -2   -1    0    0    0  501  0.00000000000E+00  0.00000000000E+00 -0.11226870747E+04  0.11226870747E+04  0.25500000920E-02 0. -1.
    10030    2    1    2    0    0  0.00000000000E+00  0.00000000000E+00  0.17776540602E+04  0.40230282096E+04  0.36089752032E+04 0.  0.
        3    1    3    3  502    0 -0.25447034774E+02  0.57659987800E+03  0.27946742529E+04  0.28536501469E+04  0.10100000352E+00 0.  1.
       -3    1    3    3    0  502  0.25447034774E+02 -0.57659987800E+03 -0.10170201927E+04  0.11693780627E+04  0.10100000352E+00 0. -1.
</event>
<event>
 5   0  0.1348226E-07  0.3595979E+04  0.7818609E-02  0.8091413E-01
       -1   -1    0    0    0  501  0.00000000000E+00  0.00000000000E+00  0.14922467877E+04  0.14922467877E+04  0.50400001928E-02 0. -1.
        1   -1    0    0  501    0  0.00000000000E+00  0.00000000000E+00 -0.21663756618E+04  0.21663756618E+04  0.50400001928E-02 0.  1.
    10030    2    1    2    0    0  0.00000000000E+00  0.00000000000E+00 -0.67412887411E+03  0.36586224495E+04  0.35959794896E+04 0.  0.
        4    1    3    3  502    0 -0.58303538244E+03  0.42407352593E+03 -0.20128754395E+04  0.21380920842E+04  0.12699999809E+01 0.  1.
       -4    1    3    3    0  502  0.58303538244E+03 -0.42407352593E+03  0.13387465654E+04  0.15205303653E+04  0.12699999809E+01 0. -1.
</event>
<event>
 5   0  0.3880259E-07  0.3572230E+04  0.7818609E-02  0.8096883E-01
       -2   -1    0    0    0  501  0.00000000000E+00  0.00000000000E+00  0.20518842636E+04  0.20518842636E+04  0.25500000920E-02 0. -1.
        2   -1    0    0  501    0  0.00000000000E+00  0.00000000000E+00 -0.15547693396E+04  0.15547693396E+04  0.25500000920E-02 0.  1.
    10030    2    1    2    0    0  0.00000000000E+00  0.00000000000E+00  0.49711492400E+03  0.36066536032E+04  0.35722299710E+04 0.  0.
        5    1    3    3  502    0 -0.12793370395E+04 -0.11914971078E+04  0.61789129935E+03  0.18542330939E+04  0.46999998093E+01 0. -1.
       -5    1    3    3    0  502  0.12793370395E+04  0.11914971078E+04 -0.12077637535E+03  0.17524205093E+04  0.46999998093E+01 0.  1.
</event>
<event>
 5   0  0.4120440E-07  0.3572421E+04  0.7818609E-02  0.8096838E-01
       -2   -1    0    0    0  501  0.00000000000E+00  0.00000000000E+00  0.15858546861E+04  0.15858546861E+04  0.25500000920E-02 0.  1.
        2   -1    0    0  501    0  0.00000000000E+00  0.00000000000E+00 -0.20118793528E+04  0.20118793528E+04  0.25500000920E-02 0. -1.
    10030    2    1    2    0    0  0.00000000000E+00  0.00000000000E+00 -0.42602466663E+03  0.35977340389E+04  0.35724211955E+04 0.  0.
        2    1    3    3  502    0  0.11648122595E+03 -0.13995088328E+04 -0.13246247854E+04  0.19304982960E+04  0.25500000920E-02 0. -1.
       -2    1    3    3    0  502 -0.11648122595E+03  0.13995088328E+04  0.89860011872E+03  0.16672357429E+04  0.25500000920E-02 0.  1.
</event>
<event>
 5   0  0.4120440E-07  0.3595846E+04  0.7818609E-02  0.8091444E-01
        2   -1    0    0  501    0  0.00000000000E+00  0.00000000000E+00  0.20811713815E+04  0.20811713815E+04  0.25500000920E-02 0. -1.
       -2   -1    0    0    0  501  0.00000000000E+00  0.00000000000E+00 -0.15532246112E+04  0.15532246112E+04  0.25500000920E-02 0.  1.
    10030    2    1    2    0    0  0.00000000000E+00  0.00000000000E+00  0.52794677026E+03  0.36343959927E+04  0.35958457197E+04 0.  0.
        2    1    3    3  502    0  0.33596675911E+03  0.17639706404E+04  0.35471633551E+03  0.18303796771E+04  0.25500000920E-02 0.  1.
       -2    1    3    3    0  502 -0.33596675911E+03 -0.17639706404E+04  0.17323043475E+03  0.18040163156E+04  0.25500000920E-02 0. -1.
</event>
<event>
 5   0  0.1370997E-07  0.3596517E+04  0.7818609E-02  0.8091290E-01
        1   -1    0    0  501    0  0.00000000000E+00  0.00000000000E+00  0.19255049095E+04  0.19255049095E+04  0.50400001928E-02 0.  1.
       -1   -1    0    0    0  501  0.00000000000E+00  0.00000000000E+00 -0.16794211049E+04  0.16794211049E+04  0.50400001928E-02 0. -1.
    10030    2    1    2    0    0  0.00000000000E+00  0.00000000000E+00  0.24608380460E+03  0.36049260143E+04  0.35965169720E+04 0.  0.
        3    1    3    3  502    0 -0.17967568248E+04 -0.69854421591E+02  0.10021048345E+03  0.18009044613E+04  0.10100000352E+00 0.  1.
       -3    1    3    3    0  502  0.17967568248E+04  0.69854421591E+02  0.14587332115E+03  0.18040215530E+04  0.10100000352E+00 0. -1.
</event>
<event>
 5   0  0.1298250E-07  0.3584495E+04  0.7818609E-02  0.8094053E-01
        1   -1    0    0  501    0  0.00000000000E+00  0.00000000000E+00  0.10809968025E+04  0.10809968025E+04  0.50400001928E-02 0.  1.
       -1   -1    0    0    0  501  0.00000000000E+00  0.00000000000E+00 -0.29714712349E+04  0.29714712349E+04  0.50400001928E-02 0. -1.
    10030    2    1    2    0    0  0.00000000000E+00  0.00000000000E+00 -0.18904744323E+04  0.40524680374E+04  0.35844948898E+04 0.  0.
        2    1    3    3  502    0 -0.10306908661E+04  0.13331867605E+03 -0.25960228047E+04  0.27963247189E+04  0.25500000920E-02 0. -1.
       -2    1    3    3    0  502  0.10306908661E+04 -0.13331867605E+03  0.70554837237E+03  0.12561433185E+04  0.25500000920E-02 0.  1.
</event>
<event>
 5   0  0.3993751E-07  0.3453501E+04  0.7818609E-02  0.8124899E-01
       -2   -1    0    0    0  501  0.00000000000E+00  0.00000000000E+00  0.16445376061E+04  0.16445376061E+04  0.25500000920E-02 0.  1.
        2   -1    0    0  501    0  0.00000000000E+00  0.00000000000E+00 -0.18130736070E+04  0.18130736070E+04  0.25500000920E-02 0. -1.
    10030    2    1    2    0    0  0.00000000000E+00  0.00000000000E+00 -0.16853600094E+03  0.34576112131E+04  0.34535012549E+04 0.  0.
        1    1    3    3  502    0 -0.94372473958E+03 -0.10897665576E+04 -0.10359044136E+04  0.17751916765E+04  0.50400001928E-02 0. -1.
       -1    1    3    3    0  502  0.94372473958E+03  0.10897665576E+04  0.86736841265E+03  0.16824195367E+04  0.50400001928E-02 0.  1.
</event>
<event>
 5   0  0.1298250E-07  0.3596377E+04  0.7818609E-02  0.8091322E-01
        1   -1    0    0  501    0  0.00000000000E+00  0.00000000000E+00  0.17882878160E+04  0.17882878160E+04  0.50400001928E-02 0. -1.
       -1   -1    0    0    0  501  0.00000000000E+00  0.00000000000E+00 -0.18081438765E+04  0.18081438765E+04  0.50400001928E-02 0.  1.
    10030    2    1    2    0    0  0.00000000000E+00  0.00000000000E+00 -0.19856060551E+02  0.35964316925E+04  0.35963768790E+04 0.  0.
        2    1    3    3  502    0  0.13192740764E+04  0.93450514812E+03  0.77729277333E+03  0.17938695649E+04  0.25500000920E-02 0. -1.
       -2    1    3    3    0  502 -0.13192740764E+04 -0.93450514812E+03 -0.79714883388E+03  0.18025621276E+04  0.25500000920E-02 0.  1.
</event>
<event>
 5   0  0.1361743E-07  0.3607085E+04  0.7818609E-02  0.8088871E-01
        1   -1    0    0  501    0  0.00000000000E+00  0.00000000000E+00  0.16868989428E+04  0.16868989428E+04  0.50400001928E-02 0. -1.
       -1   -1    0    0    0  501  0.00000000000E+00  0.00000000000E+00 -0.19282514234E+04  0.19282514234E+04  0.50400001928E-02 0.  1.
    10030    2    1    2    0    0  0.00000000000E+00  0.00000000000E+00 -0.24135248055E+03  0.36151503662E+04  0.36070848549E+04 0.  0.
        5    1    3    3  502    0 -0.52850044221E+03 -0.19163280983E+03  0.15968379803E+04  0.16929115383E+04  0.46999998093E+01 0. -1.
       -5    1    3    3    0  502  0.52850044221E+03  0.19163280983E+03 -0.18381904608E+04  0.19222388279E+04  0.46999998093E+01 0.  1.
</event>
<event>
 5   0  0.3880259E-07  0.3609959E+04  0.7818609E-02  0.8088214E-01
        2   -1    0    0  501    0  0.00000000000E+00  0.00000000000E+00  0.19600415612E+04  0.19600415612E+04  0.25500000920E-02 0. -1.
       -2   -1    0    0    0  501  0.00000000000E+00  0.00000000000E+00 -0.16621849221E+04  0.16621849221E+04  0.25500000920E-02 0.  1.
    10030    2    1    2    0    0  0.00000000000E+00  0.00000000000E+00  0.29785663912E+03  0.36222264834E+04  0.36099592961E+04 0.  0.
        5    1    3    3  502    0  0.55820248888E+03  0.12661528149E+04  0.13118301857E+04  0.19067389689E+04  0.46999998093E+01 0. -1.
       -5    1    3    3    0  502 -0.55820248888E+03 -0.12661528149E+04 -0.10139735466E+04  0.17154875145E+04  0.46999998093E+01 0.  1.
</event>
<event>
 5   0  0.1298250E-07  0.3611809E+04  0.7818609E-02  0.8087792E-01
       -1   -1    0    0    0  501  0.00000000000E+00  0.00000000000E+00  0.16686626721E+04  0.16686626722E+04  0.50400001928E-02 0.  1.
        1   -1    0    0  501    0  0.00000000000E+00  0.00000000000E+00 -0.19544344809E+04  0.19544344809E+04  0.50400001928E-02 0. -1.
    10030    2    1    2    0    0  0.00000000000E+00  0.00000000000E+00 -0.28577180875E+03  0.36230971531E+04  0.36118094432E+04 0.  0.
        2    1    3    3  502    0  0.66172507520E+03 -0.11610097463E+04  0.10755987702E+04  0.17154405908E+04  0.25500000920E-02 0.  1.
       -2    1    3    3    0  502 -0.66172507520E+03  0.11610097463E+04 -0.13613705790E+04  0.19076565622E+04  0.25500000920E-02 0. -1.
</event>
<event>
 5   0  0.1370997E-07  0.3573939E+04  0.7818609E-02  0.8096487E-01
        1   -1    0    0  501    0  0.00000000000E+00  0.00000000000E+00  0.14322766724E+04  0.14322766724E+04  0.50400001928E-02 0.  1.
       -1   -1    0    0    0  501  0.00000000000E+00  0.00000000000E+00 -0.22294993674E+04  0.22294993674E+04  0.50400001928E-02 0. -1.
    10030    2    1    2    0    0  0.00000000000E+00  0.00000000000E+00 -0.79722269497E+03  0.36617760398E+04  0.35739389671E+04 0.  0.
        3    1    3    3  502    0  0.10507592083E+04 -0.89738582442E+03  0.76231349758E+03  0.15781375449E+04  0.10100000352E+00 0. -1.
       -3    1    3    3    0  502 -0.10507592083E+04  0.89738582442E+03 -0.15595361926E+04  0.20836384950E+04  0.10100000352E+00 0.  1.
</event>
<event>
 5   0  0.1361743E-07  0.3586056E+04  0.7818609E-02  0.8093693E-01
       -1   -1    0    0    0  501  0.00000000000E+00  0.00000000000E+00  0.16085531229E+04  0.16085531229E+04  0.50400001928E-02 0.  1.
        1   -1    0    0  501    0  0.00000000000E+00  0.00000000000E+00 -0.19986591914E+04  0.19986591914E+04  0.50400001928E-02 0. -1.
    10030    2    1    2    0    0  0.00000000000E+00  0.00000000000E+00 -0.39010606847E+03  0.36072123143E+04  0.35860560419E+04 0.  0.
        5    1    3    3  502    0 -0.52357226933E+03 -0.70658287347E+03 -0.17668142380E+04  0.19735860559E+04  0.46999998093E+01 0. -1.
       -5    1    3    3    0  502  0.52357226933E+03  0.70658287347E+03  0.13767081695E+04  0.16336262585E+04  0.46999998093E+01 0.  1.
</event>
<event>
 5   0  0.4120440E-07  0.3608089E+04  0.7818609E-02  0.8088641E-01
        2   -1    0    0  501    0  0.00000000000E+00  0.00000000000E+00  0.27370499439E+04  0.27370499439E+04  0.25500000920E-02 0. -1.
       -2   -1    0    0    0  501  0.00000000000E+00  0.00000000000E+00 -0.11890817665E+04  0.11890817665E+04  0.25500000920E-02 0.  1.
    10030    2    1    2    0    0  0.00000000000E+00  0.00000000000E+00  0.15479681774E+04  0.39261317103E+04  0.36080887917E+04 0.  0.
        2    1    3    3  502    0  0.17424913090E+04 -0.19355910755E+02  0.26600978638E+03  0.17627852449E+04  0.25500000920E-02 0.  1.
       -2    1    3    3    0  502 -0.17424913090E+04  0.19355910755E+02  0.12819583910E+04  0.21633464654E+04  0.25500000920E-02 0. -1.
</event>
<event>
 5   0  0.3993751E-07  0.3547617E+04  0.7818609E-02  0.8102597E-01
       -2   -1    0    0    0  501  0.00000000000E+00  0.00000000000E+00  0.15354976129E+04  0.15354976129E+04  0.25500000920E-02 0.  1.
        2   -1    0    0  501    0  0.00000000000E+00  0.00000000000E+00 -0.20491052595E+04  0.20491052595E+04  0.25500000920E-02 0. -1.
    10030    2    1    2    0    0  0.00000000000E+00  0.00000000000E+00 -0.51360764663E+03  0.35846028724E+04  0.35476167969E+04 0.  0.
        1    1    3    3  502    0 -0.12791994868E+04 -0.77960030613E+03 -0.12165849119E+04  0.19298204093E+04  0.50400001928E-02 0. -1.
       -1    1    3    3    0  502  0.12791994868E+04  0.77960030613E+03  0.70297726526E+03  0.16547824630E+04  0.50400001928E-02 0.  1.
</event>
<event>
 5   0  0.1370997E-07  0.3657969E+04  0.7818609E-02  0.8077341E-01
        1   -1    0    0  501    0  0.00000000000E+00  0.00000000000E+00  0.18222214547E+04  0.18222214547E+04  0.50400001928E-02 0.  1.
       -1   -1    0    0    0  501  0.00000000000E+00  0.00000000000E+00 -0.18357730695E+04  0.18357730695E+04  0.50400001928E-02 0. -1.
    10030    2    1    2    0    0  0.00000000000E+00  0.00000000000E+00 -0.13551614868E+02  0.36579945242E+04  0.36579694221E+04 0.  0.
        3    1    3    3  502    0  0.26990356670E+03 -0.15741418484E+04  0.88452968002E+03  0.18256952810E+04  0.10100000352E+00 0.  1.
       -3    1    3    3    0  502 -0.26990356670E+03  0.15741418484E+04 -0.89808129489E+03  0.18322992432E+04  0.10100000352E+00 0. -1.
</event>
<event>
 5   0  0.3993751E-07  0.3610153E+04  0.7818609E-02  0.8088170E-01
        2   -1    0    0  501    0  0.00000000000E+00  0.00000000000E+00  0.22370878585E+04  0.22370878585E+04  0.25500000920E-02 0.  1.
       -2   -1    0    0    0  501  0.00000000000E+00  0.00000000000E+00 -0.14564923051E+04  0.14564923051E+04  0.25500000920E-02 0. -1.
    10030    2    1    2    0    0  0.00000000000E+00  0.00000000000E+00  0.78059555348E+03  0.36935801636E+04  0.36101530448E+04 0.  0.
        1    1    3    3  502    0  0.15081518111E+03  0.23246950738E+03 -0.14346012205E+04  0.14611187332E+04  0.50400001928E-02 0. -1.
       -1    1    3    3    0  502 -0.15081518111E+03 -0.23246950738E+03  0.22151967740E+04  0.22324614304E+04  0.50400001928E-02 0.  1.
</event>
<event>
 5   0  0.3993751E-07  0.3582877E+04  0.7818609E-02  0.8094425E-01
       -2   -1    0    0    0  501  0.00000000000E+00  0.00000000000E+00  0.13025898941E+04  0.13025898941E+04  0.25500000920E-02 0. -1.
        2   -1    0    0  501    0  0.00000000000E+00  0.00000000000E+00 -0.24637474893E+04  0.24637474893E+04  0.25500000920E-02 0.  1.
    10030    2    1    2    0    0  0.00000000000E+00  0.00000000000E+00 -0.11611575952E+04  0.37663373833E+04  0.35828773806E+04 0.  0.
        1    1    3    3  502    0  0.72717492806E+03 -0.13382955181E+04 -0.15719680700E+04  0.21888128935E+04  0.50400001928E-02 0.  1.
       -1    1    3    3    0  502 -0.72717492806E+03  0.13382955181E+04  0.41081047481E+03  0.15775244898E+04  0.50400001928E-02 0. -1.
</event>
<event>
 5   0  0.3880259E-07  0.3636967E+04  0.7818609E-02  0.8082076E-01
        2   -1    0    0  501    0  0.00000000000E+00  0.00000000000E+00  0.26995052730E+04  0.26995052730E+04  0.25500000920E-02 0.  1.
       -2   -1    0    0    0  501  0.00000000000E+00  0.00000000000E+00 -0.12249955280E+04  0.12249955280E+04  0.25500000920E-02 0. -1.
    10030    2    1    2    0    0  0.00000000000E+00  0.00000000000E+00  0.14745097450E+04  0.39245008009E+04  0.36369668061E+04 0.  0.
        5    1    3    3  502    0  0.76666778343E+03  0.76223771995E+03 -0.84056146022E+03  0.13694347339E+04  0.46999998093E+01 0. -1.
       -5    1    3    3    0  502 -0.76666778343E+03 -0.76223771995E+03  0.23150712052E+04  0.25550660671E+04  0.46999998093E+01 0.  1.
</event>
<event>
 5   0  0.4115358E-07  0.3603880E+04  0.7818609E-02  0.8089603E-01
        2   -1    0    0  501    0  0.00000000000E+00  0.00000000000E+00  0.14192613372E+04  0.14192613372E+04  0.25500000920E-02 0.  1.
       -2   -1    0    0    0  501  0.00000000000E+00  0.00000000000E+00 -0.22878013213E+04  0.22878013213E+04  0.25500000920E-02 0. -1.
    10030    2    1    2    0    0  0.00000000000E+00  0.00000000000E+00 -0.86853998405E+03  0.37070626586E+04  0.36038801105E+04 0.  0.
        3    1    3    3  502    0 -0.10127647487E+04  0.14304196803E+04 -0.37230458369E+01  0.17526570597E+04  0.10100000352E+00 0. -1.
       -3    1    3    3    0  502  0.10127647487E+04 -0.14304196803E+04 -0.86481693822E+03  0.19544055988E+04  0.10100000352E+00 0.  1.
</event>
<event>
 5   0  0.1298250E-07  0.3610020E+04  0.7818609E-02  0.8088200E-01
       -1   -1    0    0    0  501  0.00000000000E+00  0.00000000000E+00  0.26493806938E+04  0.26493806938E+04  0.50400001928E-02 0. -1.
        1   -1    0    0  501    0  0.00000000000E+00  0.00000000000E+00 -0.12297442557E+04  0.12297442557E+04  0.50400001928E-02 0.  1.
    10030    2    1    2    0    0  0.00000000000E+00  0.00000000000E+00  0.14196364381E+04  0.38791249495E+04  0.36100197725E+04 0.  0.
        1    1    3    3  502    0  0.24097530878E+03 -0.16332872879E+04  0.14938408877E+04  0.22264898522E+04  0.50400001928E-02 0. -1.
       -1    1    3    3    0  502 -0.24097530878E+03  0.16332872879E+04 -0.74204449671E+02  0.16526350973E+04  0.50400001928E-02 0.  1.
</event>
<event>
 5   0  0.1298250E-07  0.3619273E+04  0.7818609E-02  0.8086091E-01
       -1   -1    0    0    0  501  0.00000000000E+00  0.00000000000E+00  0.14079120389E+04  0.14079120389E+04  0.50400001928E-02 0. -1.
        1   -1    0    0  501    0  0.00000000000E+00  0.00000000000E+00 -0.23259857712E+04  0.23259857712E+04  0.50400001928E-02 0.  1.
    10030    2    1    2    0    0  0.00000000000E+00  0.00000000000E+00 -0.91807373230E+03  0.37338978101E+04  0.36192725067E+04 0.  0.
        1    1    3    3  502    0 -0.99649745650E+03 -0.96822708207E+03 -0.16552023423E+04  0.21610566067E+04  0.50400001928E-02 0.  1.
       -1    1    3    3    0  502  0.99649745650E+03  0.96822708207E+03  0.73712861002E+03  0.15728412034E+04  0.50400001928E-02 0. -1.
</event>
<event>
 5   0  0.1298250E-07  0.3601261E+04  0.7818609E-02  0.8090203E-01
       -1   -1    0    0    0  501  0.00000000000E+00  0.00000000000E+00  0.17570248488E+04  0.17570248488E+04  0.50400001928E-02 0. -1.
        1   -1    0    0  501    0  0.00000000000E+00  0.00000000000E+00 -0.18453181280E+04  0.18453181281E+04  0.50400001928E-02 0.  1.
    10030    2    1    2    0    0  0.00000000000E+00  0.00000000000E+00 -0.88293279286E+02  0.36023429768E+04  0.36012607819E+04 0.  0.
        1    1    3    3  502    0  0.39034204726E+03 -0.10143493243E+04  0.13919025252E+04  0.17659739820E+04  0.50400001928E-02 0. -1.
       -1    1    3    3    0  502 -0.39034204726E+03  0.10143493243E+04 -0.14801958044E+04  0.18363689948E+04  0.50400001928E-02 0.  1.
</event>
<event>
 5   0  0.3880259E-07  0.3605090E+04  0.7818609E-02  0.8089327E-01
        2   -1    0    0  501    0  0.00000000000E+00  0.00000000000E+00  0.16397415606E+04  0.16397415606E+04  0.25500000920E-02 0. -1.
       -2   -1    0    0    0  501  0.00000000000E+00  0.00000000000E+00 -0.19815122803E+04  0.19815122803E+04  0.25500000920E-02 0.  1.
    10030    2    1    2    0    0  0.00000000000E+00  0.00000000000E+00 -0.34177071974E+03  0.36212538409E+04  0.36050897569E+04 0.  0.
        5    1    3    3  502    0  0.36370119029E+03  0.88997356449E+03 -0.17024560085E+04  0.19551751973E+04  0.46999998093E+01 0.  1.
       -5    1    3    3    0  502 -0.36370119029E+03 -0.88997356449E+03  0.13606852888E+04  0.16660786435E+04  0.46999998093E+01 0. -1.
</event>
<event>
 5   0  0.3993751E-07  0.3614515E+04  0.7818609E-02  0.8087175E-01
       -2   -1    0    0    0  501  0.00000000000E+00  0.00000000000E+00  0.12715674931E+04  0.12715674931E+04  0.25500000920E-02 0.  1.
        2   -1    0    0  501    0  0.00000000000E+00  0.00000000000E+00 -0.25686241648E+04  0.25686241648E+04  0.25500000920E-02 0. -1.
    10030    2    1    2    0    0  0.00000000000E+00  0.00000000000E+00 -0.12970566717E+04  0.38401916578E+04  0.36145146229E+04 0.  0.
        1    1    3    3  502    0  0.92876142804E+03 -0.14331282281E+04 -0.20229788975E+02  0.17078827691E+04  0.50400001928E-02 0.  1.
       -1    1    3    3    0  502 -0.92876142804E+03  0.14331282281E+04 -0.12768268827E+04  0.21323088887E+04  0.50400001928E-02 0. -1.
</event>
<event>
 5   0  0.1361743E-07  0.3630944E+04  0.7818609E-02  0.8083440E-01
        1   -1    0    0  501    0  0.00000000000E+00  0.00000000000E+00  0.15689719803E+04  0.15689719803E+04  0.50400001928E-02 0. -1.
       -1   -1    0    0    0  501  0.00000000000E+00  0.00000000000E+00 -0.21006993570E+04  0.21006993570E+04  0.50400001928E-02 0.  1.
    10030    2    1    2    0    0  0.00000000000E+00  0.00000000000E+00 -0.53172737678E+03  0.36696713373E+04  0.36309439159E+04 0.  0.
        5    1    3    3  502    0 -0.19315258041E+03 -0.34751815879E+03 -0.20561520785E+04  0.20942445535E+04  0.46999998093E+01 0.  1.
       -5    1    3    3    0  502  0.19315258041E+03  0.34751815879E+03  0.15244247017E+04  0.15754267838E+04  0.46999998093E+01 0. -1.
</event>
<event>
 5   0  0.1361743E-07  0.3607345E+04  0.7818609E-02  0.8088811E-01
        1   -1    0    0  501    0  0.00000000000E+00  0.00000000000E+00  0.26135086932E+04  0.26135086932E+04  0.50400001928E-02 0.  1.
       -1   -1    0    0    0  501  0.00000000000E+00  0.00000000000E+00 -0.12447763024E+04  0.12447763024E+04  0.50400001928E-02 0. -1.
    10030    2    1    2    0    0  0.00000000000E+00  0.00000000000E+00  0.13687323908E+04  0.38582849956E+04  0.36073445566E+04 0.  0.
        5    1    3    3  502    0 -0.80634375841E+03  0.13916525257E+04  0.15574372657E+04  0.22388657699E+04  0.46999998093E+01 0. -1.
       -5    1    3    3    0  502  0.80634375841E+03 -0.13916525257E+04 -0.18870487490E+03  0.16194192257E+04  0.46999998093E+01 0.  1.
</event>
<event>
 5   0  0.3993751E-07  0.3596436E+04  0.7818609E-02  0.8091309E-01
        2   -1    0    0  501    0  0.00000000000E+00  0.00000000000E+00  0.26326754678E+04  0.26326754678E+04  0.25500000920E-02 0. -1.
       -2   -1    0    0    0  501  0.00000000000E+00  0.00000000000E+00 -0.12282514149E+04  0.12282514149E+04  0.25500000920E-02 0.  1.
    10030    2    1    2    0    0  0.00000000000E+00  0.00000000000E+00  0.14044240530E+04  0.38609268827E+04  0.35964356623E+04 0.  0.
        1    1    3    3  502    0 -0.78914131393E+03  0.66979672307E+03 -0.87637594903E+03  0.13562472000E+04  0.50400001928E-02 0.  1.
       -1    1    3    3    0  502  0.78914131393E+03 -0.66979672307E+03  0.22808000020E+04  0.25046796827E+04  0.50400001928E-02 0. -1.
</event>
<event>
 5   0  0.1370997E-07  0.3584529E+04  0.7818609E-02  0.8094045E-01
       -1   -1    0    0    0  501  0.00000000000E+00  0.00000000000E+00  0.26618039725E+04  0.26618039725E+04  0.50400001928E-02 0.  1.
        1   -1    0    0  501    0  0.00000000000E+00  0.00000000000E+00 -0.12067801333E+04  0.12067801334E+04  0.50400001928E-02 0. -1.
    10030    2    1    2    0    0  0.00000000000E+00  0.00000000000E+00  0.14550238391E+04  0.38685841058E+04  0.35845290641E+04 0.  0.
        3    1    3    3  502    0 -0.12455361702E+04  0.12513913198E+04  0.39509130452E+03  0.18092644184E+04  0.10100000352E+00 0. -1.
       -3    1    3    3    0  502  0.12455361702E+04 -0.12513913198E+04  0.10599325346E+04  0.20593196874E+04  0.10100000352E+00 0.  1.
</event>
<event>
 5   0  0.1298250E-07  0.3590867E+04  0.7818609E-02  0.8092587E-01
        1   -1    0    0  501    0  0.00000000000E+00  0.00000000000E+00  0.12808225003E+04  0.12808225003E+04  0.50400001928E-02 0. -1.
       -1   -1    0    0    0  501  0.00000000000E+00  0.00000000000E+00 -0.25168064199E+04  0.25168064199E+04  0.50400001928E-02 0.  1.
    10030    2    1    2    0    0  0.00000000000E+00  0.00000000000E+00 -0.12359839196E+04  0.37976289202E+04  0.35908674671E+04 0.  0.
        2    1    3    3  502    0 -0.16996856012E+03 -0.15603668485E+04 -0.15399372868E+04  0.21988726340E+04  0.25500000920E-02 0.  1.
       -2    1    3    3    0  502  0.16996856012E+03  0.15603668485E+04  0.30395336716E+03  0.15987562862E+04  0.25500000920E-02 0. -1.
</event>
<event>
 5   0  0.1348226E-07  0.3619243E+04  0.7818609E-02  0.8086098E-01
       -1   -1    0    0    0  501  0.00000000000E+00  0.00000000000E+00  0.11120225348E+04  0.11120225349E+04  0.50400001928E-02 0.  1.
        1   -1    0    0  501    0  0.00000000000E+00  0.00000000000E+00 -0.29448420205E+04  0.29448420205E+04  0.50400001928E-02 0. -1.
    10030    2    1    2    0    0  0.00000000000E+00  0.00000000000E+00 -0.18328194857E+04  0.40568645554E+04  0.36192433952E+04 0.  0.
        4    1    3    3  502    0 -0.83573586797E+02  0.16548046824E+04 -0.10085946963E+03  0.16599811224E+04  0.12699999809E+01 0.  1.
       -4    1    3    3    0  502  0.83573586797E+02 -0.16548046824E+04 -0.17319600160E+04  0.23968834330E+04  0.12699999809E+01 0. -1.
</event>
<event>
 5   0  0.1348226E-07  0.3587135E+04  0.7818609E-02  0.8093445E-01
        1   -1    0    0  501    0  0.00000000000E+00  0.00000000000E+00  0.15936057466E+04  0.15936057466E+04  0.50400001928E-02 0. -1.
       -1   -1    0    0    0  501  0.00000000000E+00  0.00000000000E+00 -0.20186204370E+04  0.20186204370E+04  0.50400001928E-02 0.  1.
    10030    2    1    2    0    0  0.00000000000E+00  0.00000000000E+00 -0.42501469040E+03  0.36122261836E+04  0.35871354190E+04 0.  0.
        4    1    3    3  502    0  0.14322794392E+04  0.10599634064E+04 -0.41872426426E+03  0.18303765835E+04  0.12699999809E+01 0.  1.
       -4    1    3    3    0  502 -0.14322794392E+04 -0.10599634064E+04 -0.62904261442E+01  0.17818496001E+04  0.12699999809E+01 0. -1.
</event>
<event>
 5   0  0.1298250E-07  0.3603084E+04  0.7818609E-02  0.8089786E-01
       -1   -1    0    0    0  501  0.00000000000E+00  0.00000000000E+00  0.11090171005E+04  0.11090171005E+04  0.50400001928E-02 0.  1.
        1   -1    0    0  501    0  0.00000000000E+00  0.00000000000E+00 -0.29265140352E+04  0.29265140352E+04  0.50400001928E-02 0. -1.
    10030    2    1    2    0    0  0.00000000000E+00  0.00000000000E+00 -0.18174969347E+04  0.40355311356E+04  0.36030842953E+04 0.  0.
        1    1    3    3  502    0 -0.10245170932E+04 -0.67838067205E+03  0.56684228835E+03  0.13531983559E+04  0.50400001928E-02 0.  1.
       -1    1    3    3    0  502  0.10245170932E+04  0.67838067205E+03 -0.23843392230E+04  0.26823327797E+04  0.50400001928E-02 0. -1.
</event>
<event>
 5   0  0.1370997E-07  0.3575463E+04  0.7818609E-02  0.8096135E-01
        1   -1    0    0  501    0  0.00000000000E+00  0.00000000000E+00  0.13608486340E+04  0.13608486340E+04  0.50400001928E-02 0. -1.
       -1   -1    0    0    0  501  0.00000000000E+00  0.00000000000E+00 -0.23485230050E+04  0.23485230050E+04  0.50400001928E-02 0.  1.
    10030    2    1    2    0    0  0.00000000000E+00  0.00000000000E+00 -0.98767437092E+03  0.37093716390E+04  0.35754632278E+04 0.  0.
        3    1    3    3  502    0 -0.15523275661E+04 -0.66352030266E+03 -0.11040885329E+04  0.20171741529E+04  0.10100000352E+00 0.  1.
       -3    1    3    3    0  502  0.15523275661E+04  0.66352030266E+03  0.11641416195E+03  0.16921974861E+04  0.10100000352E+00 0. -1.
</event>
<event>
 5   0  0.1348226E-07  0.3603216E+04  0.7818609E-02  0.8089755E-01
        1   -1    0    0  501    0  0.00000000000E+00  0.00000000000E+00  0.21324072111E+04  0.21324072111E+04  0.50400001928E-02 0. -1.
       -1   -1    0    0    0  501  0.00000000000E+00  0.00000000000E+00 -0.15221254209E+04  0.15221254209E+04  0.50400001928E-02 0.  1.
    10030    2    1    2    0    0  0.00000000000E+00  0.00000000000E+00  0.61028179026E+03  0.36545326320E+04  0.36032159101E+04 0.  0.
        4    1    3    3  502    0 -0.96162845033E+03  0.13003992309E+04 -0.49990284120E+03  0.16928295543E+04  0.12699999809E+01 0.  1.
       -4    1    3    3    0  502  0.96162845033E+03 -0.13003992309E+04  0.11101846315E+04  0.19617030777E+04  0.12699999809E+01 0. -1.
</event>
<event>
 5   0  0.4115358E-07  0.3591827E+04  0.7818609E-02  0.8092366E-01
        2   -1    0    0  501    0  0.00000000000E+00  0.00000000000E+00  0.16250709780E+04  0.16250709780E+04  0.25500000920E-02 0.  1.
       -2   -1    0    0    0  501  0.00000000000E+00  0.00000000000E+00 -0.19847168975E+04  0.19847168975E+04  0.25500000920E-02 0. -1.
    10030    2    1    2    0    0  0.00000000000E+00  0.00000000000E+00 -0.35964591944E+03  0.36097878755E+04  0.35918272953E+04 0.  0.
        3    1    3    3  502    0 -0.17273105652E+04  0.44101109146E+03  0.38549655423E+02  0.17831373076E+04  0.10100000352E+00 0.  1.
       -3    1    3    3    0  502  0.17273105652E+04 -0.44101109146E+03 -0.39819557486E+03  0.18266505680E+04  0.10100000352E+00 0. -1.
</event>
<event>
 5   0  0.1298250E-07  0.3675646E+04  0.7818609E-02  0.8073381E-01
        1   -1    0    0  501    0  0.00000000000E+00  0.00000000000E+00  0.25978553646E+04  0.25978553646E+04  0.50400001928E-02 0.  1.
       -1   -1    0    0    0  501  0.00000000000E+00  0.00000000000E+00 -0.13001466116E+04  0.13001466116E+04  0.50400001928E-02 0. -1.
    10030    2    1    2    0    0  0.00000000000E+00  0.00000000000E+00  0.12977087530E+04  0.38980019763E+04  0.36756457119E+04 0.  0.
        2    1    3    3  502    0 -0.72776411171E+03  0.50227926621E+03 -0.10597163637E+04  0.13801897822E+04  0.25500000920E-02 0. -1.
       -2    1    3    3    0  502  0.72776411171E+03 -0.50227926621E+03  0.23574251167E+04  0.25178121940E+04  0.25500000920E-02 0.  1.
</event>
<event>
 5   0  0.1370997E-07  0.3612223E+04  0.7818609E-02  0.8087698E-01
       -1   -1    0    0    0  501  0.00000000000E+00  0.00000000000E+00  0.30376906506E+04  0.30376906506E+04  0.50400001928E-02 0. -1.
        1   -1    0    0  501    0  0.00000000000E+00  0.00000000000E+00 -0.10738545972E+04  0.10738545973E+04  0.50400001928E-02 0.  1.
    10030    2    1    2    0    0  0.00000000000E+00  0.00000000000E+00  0.19638360534E+04  0.41115452479E+04  0.36122226234E+04 0.  0.
        3    1    3    3  502    0 -0.12464487355E+04  0.52712336003E+03 -0.37946791900E+03  0.14055210417E+04  0.10100000352E+00 0.  1.
       -3    1    3    3    0  502  0.12464487355E+04 -0.52712336003E+03  0.23433039724E+04  0.27060242061E+04  0.10100000352E+00 0. -1.
</event>
<event>
 5   0  0.1298250E-07  0.3435906E+04  0.7818609E-02  0.8129150E-01
        1   -1    0    0  501    0  0.00000000000E+00  0.00000000000E+00  0.24164121318E+04  0.24164121318E+04  0.50400001928E-02 0. -1.
       -1   -1    0    0    0  501  0.00000000000E+00  0.00000000000E+00 -0.12213821552E+04  0.12213821552E+04  0.50400001928E-02 0.  1.
    10030    2    1    2    0    0  0.00000000000E+00  0.00000000000E+00  0.11950299767E+04  0.36377942870E+04  0.34359060857E+04 0.  0.
        2    1    3    3  502    0  0.50433267536E+03  0.16395519575E+04  0.69728906683E+03  0.18516733275E+04  0.25500000920E-02 0.  1.
       -2    1    3    3    0  502 -0.50433267536E+03 -0.16395519575E+04  0.49774090983E+03  0.17861209596E+04  0.25500000920E-02 0. -1.
</event>
<event>
 5   0  0.3993751E-07  0.3607389E+04  0.7818609E-02  0.8088801E-01
       -2   -1    0    0    0  501  0.00000000000E+00  0.00000000000E+00  0.16574423488E+04  0.16574423488E+04  0.25500000920E-02 0.  1.
        2   -1    0    0  501    0  0.00000000000E+00  0.00000000000E+00 -0.19628522111E+04  0.19628522111E+04  0.25500000920E-02 0. -1.
    10030    2    1    2    0    0  0.00000000000E+00  0.00000000000E+00 -0.30540986227E+03  0.36202945599E+04  0.36073892937E+04 0.  0.
        1    1    3    3  502    0  0.56369652911E+03 -0.16348222696E+04 -0.66729336725E+03  0.18535582181E+04  0.50400001928E-02 0. -1.
       -1    1    3    3    0  502 -0.56369652911E+03  0.16348222696E+04  0.36188350498E+03  0.17667363417E+04  0.50400001928E-02 0.  1.
</event>
<event>
 5   0  0.1298250E-07  0.3607451E+04  0.7818609E-02  0.8088787E-01
       -1   -1    0    0    0  501  0.00000000000E+00  0.00000000000E+00  0.23189191456E+04  0.23189191456E+04  0.50400001928E-02 0. -1.
        1   -1    0    0  501    0  0.00000000000E+00  0.00000000000E+00 -0.14029920209E+04  0.14029920209E+04  0.50400001928E-02 0.  1.
    10030    2    1    2    0    0  0.00000000000E+00  0.00000000000E+00  0.91592712468E+03  0.37219111665E+04  0.36074506557E+04 0.  0.
        1    1    3    3  502    0 -0.27645233715E+03 -0.42589885958E+03  0.22436622970E+04  0.23003991471E+04  0.50400001928E-02 0. -1.
       -1    1    3    3    0  502  0.27645233715E+03  0.42589885958E+03 -0.13277351723E+04  0.14215120193E+04  0.50400001928E-02 0.  1.
</event>
<event>
 5   0  0.4120440E-07  0.3589134E+04  0.7818609E-02  0.8092985E-01
       -2   -1    0    0    0  501  0.00000000000E+00  0.00000000000E+00  0.16157954656E+04  0.16157954656E+04  0.25500000920E-02 0. -1.
        2   -1    0    0  501    0  0.00000000000E+00  0.00000000000E+00 -0.19931173137E+04  0.19931173137E+04  0.25500000920E-02 0.  1.
    10030    2    1    2    0    0  0.00000000000E+00  0.00000000000E+00 -0.37732184809E+03  0.36089127794E+04  0.35891335545E+04 0.  0.
        2    1    3    3  502    0 -0.93140530466E+03 -0.15198596561E+04  0.19799453728E+02  0.17826612786E+04  0.25500000920E-02 0.  1.
       -2    1    3    3    0  502  0.93140530466E+03  0.15198596561E+04 -0.39712130181E+03  0.18262515008E+04  0.25500000920E-02 0. -1.
</event>
<event>
 5   0  0.1298250E-07  0.3615940E+04  0.7818609E-02  0.8086850E-01
       -3   -1    0    0    0  501  0.00000000000E+00  0.00000000000E+00  0.21346354455E+04  0.21346354479E+04  0.10100000352E+00 0.  1.
        3   -1    0    0  501    0  0.00000000000E+00  0.00000000000E+00 -0.15312941256E+04  0.15312941290E+04  0.10100000352E+00 0. -1.
    10030    2    1    2    0    0  0.00000000000E+00  0.00000000000E+00  0.60334131986E+03  0.36659295769E+04  0.36159395618E+04 0.  0.
        5    1    3    3  502    0 -0.11576736491E+04 -0.28896518596E+03 -0.10754243479E+04  0.16063215041E+04  0.46999998093E+01 0. -1.
       -5    1    3    3    0  502  0.11576736491E+04  0.28896518596E+03  0.16787656677E+04  0.20596080728E+04  0.46999998093E+01 0.  1.
</event>
<event>
 5   0  0.1298250E-07  0.3606880E+04  0.7818609E-02  0.8088918E-01
       -1   -1    0    0    0  501  0.00000000000E+00  0.00000000000E+00  0.20494679021E+04  0.20494679021E+04  0.50400001928E-02 0. -1.
        1   -1    0    0  501    0  0.00000000000E+00  0.00000000000E+00 -0.15869466857E+04  0.15869466857E+04  0.50400001928E-02 0.  1.
    10030    2    1    2    0    0  0.00000000000E+00  0.00000000000E+00  0.46252121644E+03  0.36364145878E+04  0.36068802557E+04 0.  0.
        1    1    3    3  502    0 -0.23998966265E+03  0.13407801961E+04  0.14229331272E+04  0.19697779715E+04  0.50400001928E-02 0. -1.
       -1    1    3    3    0  502  0.23998966265E+03 -0.13407801961E+04 -0.96041191079E+03  0.16666366163E+04  0.50400001928E-02 0.  1.
</event>
<event>
 5   0  0.1370997E-07  0.3616715E+04  0.7818609E-02  0.8086674E-01
       -1   -1    0    0    0  501  0.00000000000E+00  0.00000000000E+00  0.11160605228E+04  0.11160605229E+04  0.50400001928E-02 0. -1.
        1   -1    0    0  501    0  0.00000000000E+00  0.00000000000E+00 -0.29300884769E+04  0.29300884769E+04  0.50400001928E-02 0.  1.
    10030    2    1    2    0    0  0.00000000000E+00  0.00000000000E+00 -0.18140279540E+04  0.40461489997E+04  0.36167145740E+04 0.  0.
        3    1    3    3  502    0  0.14701848846E+04  0.73673547970E+03 -0.17486227656E+04  0.24003967065E+04  0.10100000352E+00 0.  1.
       -3    1    3    3    0  502 -0.14701848846E+04 -0.73673547970E+03 -0.65405188453E+02  0.16457522933E+04  0.10100000352E+00 0. -1.
</event>
<event>
 5   0  0.4115358E-07  0.3594768E+04  0.7818609E-02  0.8091691E-01
        2   -1    0    0  501    0  0.00000000000E+00  0.00000000000E+00  0.13991338820E+04  0.13991338820E+04  0.25500000920E-02 0. -1.
       -2   -1    0    0    0  501  0.00000000000E+00  0.00000000000E+00 -0.23089916748E+04  0.23089916748E+04  0.25500000920E-02 0.  1.
    10030    2    1    2    0    0  0.00000000000E+00  0.00000000000E+00 -0.90985779281E+03  0.37081255568E+04  0.35947675783E+04 0.  0.
        3    1    3    3  502    0  0.10430830040E+03 -0.34341033412E+03  0.13617950563E+04  0.14082956596E+04  0.10100000352E+00 0. -1.
       -3    1    3    3    0  502 -0.10430830040E+03  0.34341033412E+03 -0.22716528491E+04  0.22998298973E+04  0.10100000352E+00 0.  1.
</event>
<event>
 5   0  0.4200635E-07  0.3740441E+04  0.7818609E-02  0.8059058E-01
        2   -1    0    0  501    0  0.00000000000E+00  0.00000000000E+00  0.17905364980E+04  0.17905364980E+04  0.25500000920E-02 0.  1.
       -2   -1    0    0    0  501  0.00000000000E+00  0.00000000000E+00 -0.19534508023E+04  0.19534508023E+04  0.25500000920E-02 0. -1.
    10030    2    1    2    0    0  0.00000000000E+00  0.00000000000E+00 -0.16291430435E+03  0.37439873003E+04  0.37404411283E+04 0.  0.
        4    1    3    3  502    0 -0.10462462039E+04  0.40045124137E+03 -0.15804519967E+04  0.19372202876E+04  0.12699999809E+01 0. -1.
       -4    1    3    3    0  502  0.10462462039E+04 -0.40045124137E+03  0.14175376924E+04  0.18067670127E+04  0.12699999809E+01 0.  1.
</event>
<event>
 5   0  0.1298250E-07  0.3606115E+04  0.7818609E-02  0.8089092E-01
        1   -1    0    0  501    0  0.00000000000E+00  0.00000000000E+00  0.24664000307E+04  0.24664000307E+04  0.50400001928E-02 0. -1.
       -1   -1    0    0    0  501  0.00000000000E+00  0.00000000000E+00 -0.13181221423E+04  0.13181221423E+04  0.50400001928E-02 0.  1.
    10030    2    1    2    0    0  0.00000000000E+00  0.00000000000E+00  0.11482778884E+04  0.37845221730E+04  0.36061150798E+04 0.  0.
        1    1    3    3  502    0  0.65512802412E+03  0.12150812921E+04 -0.64316037827E+03  0.15229151475E+04  0.50400001928E-02 0.  1.
       -1    1    3    3    0  502 -0.65512802412E+03 -0.12150812921E+04  0.17914382667E+04  0.22616070255E+04  0.50400001928E-02 0. -1.
</event>
<event>
 5   0  0.1361743E-07  0.3606685E+04  0.7818609E-02  0.8088962E-01
        1   -1    0    0  501    0  0.00000000000E+00  0.00000000000E+00  0.19881422047E+04  0.19881422047E+04  0.50400001928E-02 0.  1.
       -1   -1    0    0    0  501  0.00000000000E+00  0.00000000000E+00 -0.16357205405E+04  0.16357205405E+04  0.50400001928E-02 0. -1.
    10030    2    1    2    0    0  0.00000000000E+00  0.00000000000E+00  0.35242166426E+03  0.36238627452E+04  0.36066854821E+04 0.  0.
        5    1    3    3  502    0 -0.12593690916E+04  0.48896415065E+03 -0.10240185954E+04  0.16952087255E+04  0.46999998093E+01 0. -1.
       -5    1    3    3    0  502  0.12593690916E+04 -0.48896415065E+03  0.13764402596E+04  0.19286540197E+04  0.46999998093E+01 0.  1.
</event>
<event>
 5   0  0.4115358E-07  0.3588226E+04  0.7818609E-02  0.8093194E-01
       -2   -1    0    0    0  501  0.00000000000E+00  0.00000000000E+00  0.19174865280E+04  0.19174865280E+04  0.25500000920E-02 0.  1.
        2   -1    0    0  501    0  0.00000000000E+00  0.00000000000E+00 -0.16786770805E+04  0.16786770805E+04  0.25500000920E-02 0. -1.
    10030    2    1    2    0    0  0.00000000000E+00  0.00000000000E+00  0.23880944751E+03  0.35961636084E+04  0.35882255707E+04 0.  0.
        3    1    3    3  502    0  0.96498788090E+03  0.54050755248E+03  0.15351481505E+04  0.18920966885E+04  0.10100000352E+00 0.  1.
       -3    1    3    3    0  502 -0.96498788090E+03 -0.54050755248E+03 -0.12963387030E+04  0.17040669199E+04  0.10100000352E+00 0. -1.
</event>
<event>
 5   0  0.1348226E-07  0.3574674E+04  0.7818609E-02  0.8096318E-01
        1   -1    0    0  501    0  0.00000000000E+00  0.00000000000E+00  0.21631720551E+04  0.21631720551E+04  0.50400001928E-02 0.  1.
       -1   -1    0    0    0  501  0.00000000000E+00  0.00000000000E+00 -0.14768005161E+04  0.14768005161E+04  0.50400001928E-02 0. -1.
    10030    2    1    2    0    0  0.00000000000E+00  0.00000000000E+00  0.68637153897E+03  0.36399725712E+04  0.35746740313E+04 0.  0.
        4    1    3    3  502    0 -0.15788094066E+04 -0.41339126656E+03 -0.39885111435E+03  0.16800640780E+04  0.12699999809E+01 0. -1.
       -4    1    3    3    0  502  0.15788094066E+04  0.41339126656E+03  0.10852226533E+04  0.19599084933E+04  0.12699999809E+01 0.  1.
</event>
<event>
 5   0  0.4115358E-07  0.3588011E+04  0.7818609E-02  0.8093243E-01
        2   -1    0    0  501    0  0.00000000000E+00  0.00000000000E+00  0.27706142963E+04  0.27706142963E+04  0.25500000920E-02 0. -1.
       -2   -1    0    0    0  501  0.00000000000E+00  0.00000000000E+00 -0.11616399057E+04  0.11616399057E+04  0.25500000920E-02 0.  1.
    10030    2    1    2    0    0  0.00000000000E+00  0.00000000000E+00  0.16089743907E+04  0.39322542020E+04  0.35880112206E+04 0.  0.
        3    1    3    3  502    0 -0.29532405729E+03  0.15327901711E+04 -0.16453559297E+03  0.15696286118E+04  0.10100000352E+00 0.  1.
       -3    1    3    3    0  502  0.29532405729E+03 -0.15327901711E+04  0.17735099837E+04  0.23626255902E+04  0.10100000352E+00 0. -1.
</event>
<event>
 5   0  0.1298250E-07  0.3607507E+04  0.7818609E-02  0.8088774E-01
       -3   -1    0    0    0  501  0.00000000000E+00  0.00000000000E+00  0.20010609070E+04  0.20010609095E+04  0.10100000352E+00 0. -1.
        3   -1    0    0  501    0  0.00000000000E+00  0.00000000000E+00 -0.16259012578E+04  0.16259012609E+04  0.10100000352E+00 0.  1.
    10030    2    1    2    0    0  0.00000000000E+00  0.00000000000E+00  0.37515964922E+03  0.36269621704E+04  0.36075074253E+04 0.  0.
        3    1    3    3  502    0  0.12566447155E+04 -0.51896234844E+03 -0.10041604535E+04  0.16902118467E+04  0.10100000352E+00 0.  1.
       -3    1    3    3    0  502 -0.12566447155E+04  0.51896234844E+03  0.13793201028E+04  0.19367503237E+04  0.10100000352E+00 0. -1.
</event>
<event>
 5   0  0.1298250E-07  0.3577842E+04  0.7818609E-02  0.8095586E-01
       -1   -1    0    0    0  501  0.00000000000E+00  0.00000000000E+00  0.15418885349E+04  0.15418885349E+04  0.50400001928E-02 0. -1.
        1   -1    0    0  501    0  0.00000000000E+00  0.00000000000E+00 -0.20755310180E+04  0.20755310180E+04  0.50400001928E-02 0.  1.
    10030    2    1    2    0    0  0.00000000000E+00  0.00000000000E+00 -0.53364248311E+03  0.36174195529E+04  0.35778415172E+04 0.  0.
        2    1    3    3  502    0 -0.11515570647E+03  0.28942623755E+03 -0.20479007303E+04  0.20714549922E+04  0.25500000920E-02 0.  1.
       -2    1    3    3    0  502  0.11515570647E+03 -0.28942623755E+03  0.15142582472E+04  0.15459645607E+04  0.25500000920E-02 0. -1.
</event>
<event>
 5   0  0.3880259E-07  0.3458987E+04  0.7818609E-02  0.8123579E-01
        2   -1    0    0  501    0  0.00000000000E+00  0.00000000000E+00  0.28755153574E+04  0.28755153574E+04  0.25500000920E-02 0. -1.
       -2   -1    0    0    0  501  0.00000000000E+00  0.00000000000E+00 -0.10402127149E+04  0.10402127149E+04  0.25500000920E-02 0.  1.
    10030    2    1    2    0    0  0.00000000000E+00  0.00000000000E+00  0.18353026425E+04  0.39157280723E+04  0.34589869250E+04 0.  0.
        5    1    3    3  502    0 -0.72024136646E+02  0.10155499094E+04  0.25003278336E+04  0.26996648793E+04  0.46999998093E+01 0. -1.
       -5    1    3    3    0  502  0.72024136646E+02 -0.10155499094E+04 -0.66502519114E+03  0.12160631931E+04  0.46999998093E+01 0.  1.
</event>
<event>
 5   0  0.1298250E-07  0.3632275E+04  0.7818609E-02  0.8083138E-01
        1   -1    0    0  501    0  0.00000000000E+00  0.00000000000E+00  0.14731618859E+04  0.14731618860E+04  0.50400001928E-02 0.  1.
       -1   -1    0    0    0  501  0.00000000000E+00  0.00000000000E+00 -0.22389637177E+04  0.22389637177E+04  0.50400001928E-02 0. -1.
    10030    2    1    2    0    0  0.00000000000E+00  0.00000000000E+00 -0.76580183177E+03  0.37121256037E+04  0.36322753271E+04 0.  0.
        1    1    3    3  502    0 -0.37258173724E+03 -0.11114133061E+04  0.10347856230E+04  0.15635977658E+04  0.50400001928E-02 0.  1.
       -1    1    3    3    0  502  0.37258173724E+03  0.11114133061E+04 -0.18005874547E+04  0.21485278378E+04  0.50400001928E-02 0. -1.
</event>
<event>
 5   0  0.1298250E-07  0.3630109E+04  0.7818609E-02  0.8083630E-01
        1   -1    0    0  501    0  0.00000000000E+00  0.00000000000E+00  0.14832728883E+04  0.14832728883E+04  0.50400001928E-02 0.  1.
       -1   -1    0    0    0  501  0.00000000000E+00  0.00000000000E+00 -0.22210493921E+04  0.22210493921E+04  0.50400001928E-02 0. -1.
    10030    2    1    2    0    0  0.00000000000E+00  0.00000000000E+00 -0.73777650377E+03  0.37043222804E+04  0.36301087294E+04 0.  0.
        1    1    3    3  502    0  0.80237268409E+03 -0.78446137146E+03 -0.18246725420E+04  0.21421044449E+04  0.50400001928E-02 0. -1.
       -1    1    3    3    0  502 -0.80237268409E+03  0.78446137146E+03  0.10868960382E+04  0.15622178355E+04  0.50400001928E-02 0.  1.
</event>
<event>
 5   0  0.4115358E-07  0.3585426E+04  0.7818609E-02  0.8093838E-01
        2   -1    0    0  501    0  0.00000000000E+00  0.00000000000E+00  0.25269310207E+04  0.25269310207E+04  0.25500000920E-02 0. -1.
       -2   -1    0    0    0  501  0.00000000000E+00  0.00000000000E+00 -0.12718275458E+04  0.12718275458E+04  0.25500000920E-02 0.  1.
    10030    2    1    2    0    0  0.00000000000E+00  0.00000000000E+00  0.12551034748E+04  0.37987585665E+04  0.35854263225E+04 0.  0.
        3    1    3    3  502    0  0.72843401935E+03 -0.10670560032E+04  0.19443168741E+04  0.23344362814E+04  0.10100000352E+00 0. -1.
       -3    1    3    3    0  502 -0.72843401935E+03  0.10670560032E+04 -0.68921339932E+03  0.14643222851E+04  0.10100000352E+00 0.  1.
</event>
<event>
 5   0  0.1348226E-07  0.3632118E+04  0.7818609E-02  0.8083174E-01
        1   -1    0    0  501    0  0.00000000000E+00  0.00000000000E+00  0.13280501627E+04  0.13280501627E+04  0.50400001928E-02 0. -1.
       -1   -1    0    0    0  501  0.00000000000E+00  0.00000000000E+00 -0.24833933421E+04  0.24833933421E+04  0.50400001928E-02 0.  1.
    10030    2    1    2    0    0  0.00000000000E+00  0.00000000000E+00 -0.11553431795E+04  0.38114435048E+04  0.36321183527E+04 0.  0.
        4    1    3    3  502    0 -0.16307264797E+04  0.67855170881E+03 -0.10208596201E+04  0.20400630505E+04  0.12699999809E+01 0.  1.
       -4    1    3    3    0  502  0.16307264797E+04 -0.67855170881E+03 -0.13448355934E+03  0.17713804543E+04  0.12699999809E+01 0. -1.
</event>
<event>
 5   0  0.1298250E-07  0.3594983E+04  0.7818609E-02  0.8091642E-01
        1   -1    0    0  501    0  0.00000000000E+00  0.00000000000E+00  0.16735139683E+04  0.16735139683E+04  0.50400001928E-02 0. -1.
       -1   -1    0    0    0  501  0.00000000000E+00  0.00000000000E+00 -0.19306534073E+04  0.19306534073E+04  0.50400001928E-02 0.  1.
    10030    2    1    2    0    0  0.00000000000E+00  0.00000000000E+00 -0.25713943906E+03  0.36041673756E+04  0.35949828623E+04 0.  0.
        1    1    3    3  502    0 -0.16331459561E+04 -0.23309145293E+02 -0.88099790450E+03  0.18557657012E+04  0.50400001928E-02 0.  1.
       -1    1    3    3    0  502  0.16331459561E+04  0.23309145293E+02  0.62385846544E+03  0.17484016744E+04  0.50400001928E-02 0. -1.
</event>
<event>
 5   0  0.3880259E-07  0.3577621E+04  0.7818609E-02  0.8095637E-01
        2   -1    0    0  501    0  0.00000000000E+00  0.00000000000E+00  0.22914121640E+04  0.22914121640E+04  0.25500000920E-02 0.  1.
       -2   -1    0    0    0  501  0.00000000000E+00  0.00000000000E+00 -0.13964504256E+04  0.13964504256E+04  0.25500000920E-02 0. -1.
    10030    2    1    2    0    0  0.00000000000E+00  0.00000000000E+00  0.89496173846E+03  0.36878625896E+04  0.35776212721E+04 0.  0.
        5    1    3    3  502    0 -0.12242928101E+04 -0.97220378294E+03  0.13436066303E+04  0.20614009671E+04  0.46999998093E+01 0.  1.
       -5    1    3    3    0  502  0.12242928101E+04  0.97220378294E+03 -0.44864489180E+03  0.16264616225E+04  0.46999998093E+01 0. -1.
</event>
<event>
 5   0  0.1361743E-07  0.3180779E+04  0.7818609E-02  0.8193912E-01
       -1   -1    0    0    0  501  0.00000000000E+00  0.00000000000E+00  0.94812241338E+03  0.94812241339E+03  0.50400001928E-02 0.  1.
        1   -1    0    0  501    0  0.00000000000E+00  0.00000000000E+00 -0.26677351621E+04  0.26677351621E+04  0.50400001928E-02 0. -1.
    10030    2    1    2    0    0  0.00000000000E+00  0.00000000000E+00 -0.17196127488E+04  0.36158575755E+04  0.31807794644E+04 0.  0.
        5    1    3    3  502    0  0.95936306919E+03  0.80586754973E+03  0.25372942840E+03  0.12783586035E+04  0.46999998093E+01 0.  1.
       -5    1    3    3    0  502 -0.95936306919E+03 -0.80586754973E+03 -0.19733421772E+04  0.23374989721E+04  0.46999998093E+01 0. -1.
</event>
<event>
 5   0  0.4115358E-07  0.3526626E+04  0.7818609E-02  0.8107509E-01
        2   -1    0    0  501    0  0.00000000000E+00  0.00000000000E+00  0.26304351597E+04  0.26304351597E+04  0.25500000920E-02 0.  1.
       -2   -1    0    0    0  501  0.00000000000E+00  0.00000000000E+00 -0.11820375655E+04  0.11820375655E+04  0.25500000920E-02 0. -1.
    10030    2    1    2    0    0  0.00000000000E+00  0.00000000000E+00  0.14483975942E+04  0.38124727252E+04  0.35266262475E+04 0.  0.
        3    1    3    3  502    0  0.71850532603E+03 -0.57513465278E+02  0.24638946757E+04  0.25671647172E+04  0.10100000352E+00 0.  1.
       -3    1    3    3    0  502 -0.71850532603E+03  0.57513465278E+02 -0.10154970814E+04  0.12453080080E+04  0.10100000352E+00 0. -1.
</event>
<event>
 5   0  0.1298250E-07  0.3595638E+04  0.7818609E-02  0.8091492E-01
       -1   -1    0    0    0  501  0.00000000000E+00  0.00000000000E+00  0.16580328468E+04  0.16580328468E+04  0.50400001928E-02 0.  1.
        1   -1    0    0  501    0  0.00000000000E+00  0.00000000000E+00 -0.19493899765E+04  0.19493899765E+04  0.50400001928E-02 0. -1.
    10030    2    1    2    0    0  0.00000000000E+00  0.00000000000E+00 -0.29135712970E+03  0.36074228233E+04  0.35956376971E+04 0.  0.
        2    1    3    3  502    0 -0.47140119529E+03  0.14325387255E+04  0.83618445928E+03  0.17244102578E+04  0.25500000920E-02 0.  1.
       -2    1    3    3    0  502  0.47140119529E+03 -0.14325387255E+04 -0.11275415890E+04  0.18830125655E+04  0.25500000920E-02 0. -1.
</event>
<event>
 5   0  0.1348226E-07  0.3599903E+04  0.7818609E-02  0.8090514E-01
        1   -1    0    0  501    0  0.00000000000E+00  0.00000000000E+00  0.20016500402E+04  0.20016500402E+04  0.50400001928E-02 0.  1.
       -1   -1    0    0    0  501  0.00000000000E+00  0.00000000000E+00 -0.16185774157E+04  0.16185774158E+04  0.50400001928E-02 0. -1.
    10030    2    1    2    0    0  0.00000000000E+00  0.00000000000E+00  0.38307262445E+03  0.36202274560E+04  0.35999030817E+04 0.  0.
        4    1    3    3  502    0 -0.14412348492E+04  0.29982125154E+03  0.12331316315E+04  0.19203296350E+04  0.12699999809E+01 0.  1.
       -4    1    3    3    0  502  0.14412348492E+04 -0.29982125154E+03 -0.85005900704E+03  0.16998978210E+04  0.12699999809E+01 0. -1.
</event>
<event>
 5   0  0.1298250E-07  0.3560662E+04  0.7818609E-02  0.8099562E-01
        1   -1    0    0  501    0  0.00000000000E+00  0.00000000000E+00  0.11059248332E+04  0.11059248332E+04  0.50400001928E-02 0. -1.
       -1   -1    0    0    0  501  0.00000000000E+00  0.00000000000E+00 -0.28659976542E+04  0.28659976542E+04  0.50400001928E-02 0.  1.
    10030    2    1    2    0    0  0.00000000000E+00  0.00000000000E+00 -0.17600728210E+04  0.39719224874E+04  0.35606617237E+04 0.  0.
        1    1    3    3  502    0  0.43632302003E+03 -0.12225223269E+04  0.47915472561E+03  0.13836646518E+04  0.50400001928E-02 0. -1.
       -1    1    3    3    0  502 -0.43632302003E+03  0.12225223269E+04 -0.22392275466E+04  0.25882578355E+04  0.50400001928E-02 0.  1.
</event>
<event>
 5   0  0.1348226E-07  0.3588247E+04  0.7818609E-02  0.8093189E-01
        1   -1    0    0  501    0  0.00000000000E+00  0.00000000000E+00  0.25714502178E+04  0.25714502178E+04  0.50400001928E-02 0.  1.
       -1   -1    0    0    0  501  0.00000000000E+00  0.00000000000E+00 -0.12517758594E+04  0.12517758594E+04  0.50400001928E-02 0. -1.
    10030    2    1    2    0    0  0.00000000000E+00  0.00000000000E+00  0.13196743584E+04  0.38232260773E+04  0.35882470965E+04 0.  0.
        4    1    3    3  502    0 -0.16128456139E+04  0.34745888572E+02 -0.17668749658E+03  0.16228673191E+04  0.12699999809E+01 0. -1.
       -4    1    3    3    0  502  0.16128456139E+04 -0.34745888572E+02  0.14963618550E+04  0.22003587582E+04  0.12699999809E+01 0.  1.
</event>
<event>
 5   0  0.4120440E-07  0.3602634E+04  0.7818609E-02  0.8089889E-01
        2   -1    0    0  501    0  0.00000000000E+00  0.00000000000E+00  0.24548014085E+04  0.24548014085E+04  0.25500000920E-02 0. -1.
       -2   -1    0    0    0  501  0.00000000000E+00  0.00000000000E+00 -0.13217943655E+04  0.13217943655E+04  0.25500000920E-02 0.  1.
    10030    2    1    2    0    0  0.00000000000E+00  0.00000000000E+00  0.11330070430E+04  0.37765957741E+04  0.36026338533E+04 0.  0.
        2    1    3    3  502    0 -0.37110266824E+03  0.16666034332E+04  0.11682045029E+04  0.20688126920E+04  0.25500000920E-02 0. -1.
       -2    1    3    3    0  502  0.37110266824E+03 -0.16666034332E+04 -0.35197459895E+02  0.17077830820E+04  0.25500000920E-02 0.  1.
</event>
<event>
 5   0  0.3993751E-07  0.3584752E+04  0.7818609E-02  0.8093993E-01
       -2   -1    0    0    0  501  0.00000000000E+00  0.00000000000E+00  0.18134717569E+04  0.18134717569E+04  0.25500000920E-02 0.  1.
        2   -1    0    0  501    0  0.00000000000E+00  0.00000000000E+00 -0.17715253929E+04  0.17715253929E+04  0.25500000920E-02 0. -1.
    10030    2    1    2    0    0  0.00000000000E+00  0.00000000000E+00  0.41946363972E+02  0.35849971498E+04  0.35847517441E+04 0.  0.
        1    1    3    3  502    0  0.85068810827E+03  0.51358029342E+03  0.15127777821E+04  0.18099534782E+04  0.50400001928E-02 0.  1.
       -1    1    3    3    0  502 -0.85068810827E+03 -0.51358029342E+03 -0.14708314181E+04  0.17750436716E+04  0.50400001928E-02 0. -1.
</event>
<event>
 5   0  0.4115358E-07  0.3604030E+04  0.7818609E-02  0.8089569E-01
        2   -1    0    0  501    0  0.00000000000E+00  0.00000000000E+00  0.23636733869E+04  0.23636733869E+04  0.25500000920E-02 0.  1.
       -2   -1    0    0    0  501  0.00000000000E+00  0.00000000000E+00 -0.13738181139E+04  0.13738181139E+04  0.25500000920E-02 0. -1.
    10030    2    1    2    0    0  0.00000000000E+00  0.00000000000E+00  0.98985527300E+03  0.37374915007E+04  0.36040295860E+04 0.  0.
        3    1    3    3  502    0  0.44878721677E+03 -0.89805157075E+03  0.20467890119E+04  0.22797482009E+04  0.10100000352E+00 0.  1.
       -3    1    3    3    0  502 -0.44878721677E+03  0.89805157075E+03 -0.10569337389E+04  0.14577432999E+04  0.10100000352E+00 0. -1.
</event>
<event>
 5   0  0.3993751E-07  0.3590674E+04  0.7818609E-02  0.8092631E-01
       -2   -1    0    0    0  501  0.00000000000E+00  0.00000000000E+00  0.11449176338E+04  0.11449176338E+04  0.25500000920E-02 0. -1.
        2   -1    0    0  501    0  0.00000000000E+00  0.00000000000E+00 -0.28152543621E+04  0.28152543621E+04  0.25500000920E-02 0.  1.
    10030    2    1    2    0    0  0.00000000000E+00  0.00000000000E+00 -0.16703367283E+04  0.39601719959E+04  0.35906736765E+04 0.  0.
        1    1    3    3  502    0  0.12296621998E+04  0.12726851193E+04 -0.50166436014E+03  0.18394193836E+04  0.50400001928E-02 0.  1.
       -1    1    3    3    0  502 -0.12296621998E+04 -0.12726851193E+04 -0.11686723682E+04  0.21207526123E+04  0.50400001928E-02 0. -1.
</event>
<event>
 5   0  0.4200635E-07  0.3612760E+04  0.7818609E-02  0.8087575E-01
       -2   -1    0    0    0  501  0.00000000000E+00  0.00000000000E+00  0.15795504438E+04  0.15795504438E+04  0.25500000920E-02 0. -1.
        2   -1    0    0  501    0  0.00000000000E+00  0.00000000000E+00 -0.20657828030E+04  0.20657828030E+04  0.25500000920E-02 0.  1.
    10030    2    1    2    0    0  0.00000000000E+00  0.00000000000E+00 -0.48623235918E+03  0.36453332467E+04  0.36127596893E+04 0.  0.
        4    1    3    3  502    0  0.86591348627E+03 -0.11995708282E+04 -0.12889118497E+04  0.19621599595E+04  0.12699999809E+01 0.  1.
       -4    1    3    3    0  502 -0.86591348627E+03  0.11995708282E+04  0.80267949051E+03  0.16831732872E+04  0.12699999809E+01 0. -1.
</event>
<event>
 5   0  0.1370997E-07  0.3596476E+04  0.7818609E-02  0.8091299E-01
       -1   -1    0    0    0  501  0.00000000000E+00  0.00000000000E+00  0.14423536060E+04  0.14423536060E+04  0.50400001928E-02 0. -1.
        1   -1    0    0  501    0  0.00000000000E+00  0.00000000000E+00 -0.22419323362E+04  0.22419323362E+04  0.50400001928E-02 0.  1.
    10030    2    1    2    0    0  0.00000000000E+00  0.00000000000E+00 -0.79957873025E+03  0.36842859422E+04  0.35964756023E+04 0.  0.
        3    1    3    3  502    0  0.14909359766E+04  0.18328434437E+03  0.61286815831E+03  0.16223719138E+04  0.10100000352E+00 0. -1.
       -3    1    3    3    0  502 -0.14909359766E+04 -0.18328434437E+03 -0.14124468886E+04  0.20619140284E+04  0.10100000352E+00 0.  1.
</event>
<event>
 5   0  0.1298250E-07  0.3593587E+04  0.7818609E-02  0.8091962E-01
        1   -1    0    0  501    0  0.00000000000E+00  0.00000000000E+00  0.21287138275E+04  0.21287138275E+04  0.50400001928E-02 0. -1.
       -1   -1    0    0    0  501  0.00000000000E+00  0.00000000000E+00 -0.15166276310E+04  0.15166276310E+04  0.50400001928E-02 0.  1.
    10030    2    1    2    0    0  0.00000000000E+00  0.00000000000E+00  0.61208619649E+03  0.36453414584E+04  0.35935866257E+04 0.  0.
        1    1    3    3  502    0 -0.46449329336E+03 -0.73187044830E+03 -0.12904973408E+04  0.15545969765E+04  0.50400001928E-02 0.  1.
       -1    1    3    3    0  502  0.46449329336E+03  0.73187044830E+03  0.19025835372E+04  0.20907444820E+04  0.50400001928E-02 0. -1.
</event>
<event>
 5   0  0.1298250E-07  0.3388777E+04  0.7818609E-02  0.8140666E-01
       -3   -1    0    0    0  501  0.00000000000E+00  0.00000000000E+00  0.15038843601E+04  0.15038843635E+04  0.10100000352E+00 0. -1.
        3   -1    0    0  501    0  0.00000000000E+00  0.00000000000E+00 -0.19090246514E+04  0.19090246541E+04  0.10100000352E+00 0.  1.
    10030    2    1    2    0    0  0.00000000000E+00  0.00000000000E+00 -0.40514029135E+03  0.34129090176E+04  0.33887769633E+04 0.  0.
        5    1    3    3  502    0 -0.30533214354E+02  0.59598467423E+03  0.13945348577E+04  0.15168650462E+04  0.46999998093E+01 0. -1.
       -5    1    3    3    0  502  0.30533214354E+02 -0.59598467423E+03 -0.17996751491E+04  0.18960439714E+04  0.46999998093E+01 0.  1.
</event>
<event>
 5   0  0.1298250E-07  0.3634855E+04  0.7818609E-02  0.8082554E-01
        1   -1    0    0  501    0  0.00000000000E+00  0.00000000000E+00  0.16135303704E+04  0.16135303704E+04  0.50400001928E-02 0.  1.
       -1   -1    0    0    0  501  0.00000000000E+00  0.00000000000E+00 -0.20470909951E+04  0.20470909951E+04  0.50400001928E-02 0. -1.
    10030    2    1    2    0    0  0.00000000000E+00  0.00000000000E+00 -0.43356062477E+03  0.36606213655E+04  0.36348554258E+04 0.  0.
        1    1    3    3  502    0 -0.17832469536E+04 -0.30253730597E+03 -0.37912273218E+02  0.18091257168E+04  0.50400001928E-02 0.  1.
       -1    1    3    3    0  502  0.17832469536E+04  0.30253730597E+03 -0.39564835155E+03  0.18514956487E+04  0.50400001928E-02 0. -1.
</event>
<event>
 5   0  0.1348226E-07  0.3605669E+04  0.7818609E-02  0.8089194E-01
        1   -1    0    0  501    0  0.00000000000E+00  0.00000000000E+00  0.11825318441E+04  0.11825318441E+04  0.50400001928E-02 0.  1.
       -1   -1    0    0    0  501  0.00000000000E+00  0.00000000000E+00 -0.27485205858E+04  0.27485205858E+04  0.50400001928E-02 0. -1.
    10030    2    1    2    0    0  0.00000000000E+00  0.00000000000E+00 -0.15659887418E+04  0.39310524299E+04  0.36056694895E+04 0.  0.
        4    1    3    3  502    0 -0.84294697688E+03  0.81862323245E+03 -0.22736817473E+04  0.25593620110E+04  0.12699999809E+01 0. -1.
       -4    1    3    3    0  502  0.84294697688E+03 -0.81862323245E+03  0.70769300551E+03  0.13716904190E+04  0.12699999809E+01 0.  1.
</event>
<event>
 5   0  0.1370997E-07  0.3609607E+04  0.7818609E-02  0.8088295E-01
        1   -1    0    0  501    0  0.00000000000E+00  0.00000000000E+00  0.15557836205E+04  0.15557836205E+04  0.50400001928E-02 0.  1.
       -1   -1    0    0    0  501  0.00000000000E+00  0.00000000000E+00 -0.20936819335E+04  0.20936819335E+04  0.50400001928E-02 0. -1.
    10030    2    1    2    0    0  0.00000000000E+00  0.00000000000E+00 -0.53789831301E+03  0.36494655539E+04  0.36096072133E+04 0.  0.
        3    1    3    3  502    0 -0.69190856606E+02  0.82548596358E+02  0.15525311259E+04  0.15562630088E+04  0.10100000352E+00 0.  1.
       -3    1    3    3    0  502  0.69190856606E+02 -0.82548596358E+02 -0.20904294390E+04  0.20932025451E+04  0.10100000352E+00 0. -1.
</event>
<event>
 5   0  0.4200635E-07  0.3628953E+04  0.7818609E-02  0.8083892E-01
        2   -1    0    0  501    0  0.00000000000E+00  0.00000000000E+00  0.27577399140E+04  0.27577399140E+04  0.25500000920E-02 0.  1.
       -2   -1    0    0    0  501  0.00000000000E+00  0.00000000000E+00 -0.11938487170E+04  0.11938487170E+04  0.25500000920E-02 0. -1.
    10030    2    1    2    0    0  0.00000000000E+00  0.00000000000E+00  0.15638911970E+04  0.39515886310E+04  0.36289526082E+04 0.  0.
        4    1    3    3  502    0 -0.47781851456E+03 -0.17481975504E+04  0.68566858105E+03  0.19376914677E+04  0.12699999809E+01 0.  1.
       -4    1    3    3    0  502  0.47781851456E+03  0.17481975504E+04  0.87822261596E+03  0.20138971633E+04  0.12699999809E+01 0. -1.
</event>
<event>
 5   0  0.1298250E-07  0.3608995E+04  0.7818609E-02  0.8088434E-01
        1   -1    0    0  501    0  0.00000000000E+00  0.00000000000E+00  0.18035980637E+04  0.18035980637E+04  0.50400001928E-02 0.  1.
       -1   -1    0    0    0  501  0.00000000000E+00  0.00000000000E+00 -0.18053972726E+04  0.18053972726E+04  0.50400001928E-02 0. -1.
    10030    2    1    2    0    0  0.00000000000E+00  0.00000000000E+00 -0.17992089052E+01  0.36089953363E+04  0.36089948878E+04 0.  0.
        2    1    3    3  502    0  0.55535236239E+03 -0.51177605253E+03  0.16379660759E+04  0.18036806370E+04  0.25500000920E-02 0.  1.
       -2    1    3    3    0  502 -0.55535236239E+03  0.51177605253E+03 -0.16397652848E+04  0.18053146993E+04  0.25500000920E-02 0. -1.
</event>
<event>
 5   0  0.1370997E-07  0.3570994E+04  0.7818609E-02  0.8097168E-01
       -1   -1    0    0    0  501  0.00000000000E+00  0.00000000000E+00  0.18914685285E+04  0.18914685285E+04  0.50400001928E-02 0. -1.
        1   -1    0    0  501    0  0.00000000000E+00  0.00000000000E+00 -0.16854628715E+04  0.16854628715E+04  0.50400001928E-02 0.  1.
    10030    2    1    2    0    0  0.00000000000E+00  0.00000000000E+00  0.20600565699E+03  0.35769313999E+04  0.35709942466E+04 0.  0.
        3    1    3    3  502    0  0.15607356619E+03 -0.10426866362E+04  0.15463863346E+04  0.18715942630E+04  0.10100000352E+00 0. -1.
       -3    1    3    3    0  502 -0.15607356619E+03  0.10426866362E+04 -0.13403806776E+04  0.17053371369E+04  0.10100000352E+00 0.  1.
</event>
<event>
 5   0  0.3880259E-07  0.3595723E+04  0.7818609E-02  0.8091472E-01
       -2   -1    0    0    0  501  0.00000000000E+00  0.00000000000E+00  0.10008959182E+04  0.10008959182E+04  0.25500000920E-02 0.  1.
        2   -1    0    0  501    0  0.00000000000E+00  0.00000000000E+00 -0.32294119839E+04  0.32294119839E+04  0.25500000920E-02 0. -1.
    10030    2    1    2    0    0  0.00000000000E+00  0.00000000000E+00 -0.22285160657E+04  0.42303079021E+04  0.35957226105E+04 0.  0.
        5    1    3    3  502    0 -0.10004754192E+04  0.13994673373E+04 -0.49975147942E+03  0.17914333713E+04  0.46999998093E+01 0.  1.
       -5    1    3    3    0  502  0.10004754192E+04 -0.13994673373E+04 -0.17287645862E+04  0.24388745308E+04  0.46999998093E+01 0. -1.
</event>
<event>
 5   0  0.1298250E-07  0.3611737E+04  0.7818609E-02  0.8087808E-01
       -1   -1    0    0    0  501  0.00000000000E+00  0.00000000000E+00  0.12077369109E+04  0.12077369109E+04  0.50400001928E-02 0.  1.
        1   -1    0    0  501    0  0.00000000000E+00  0.00000000000E+00 -0.27002248611E+04  0.27002248611E+04  0.50400001928E-02 0. -1.
    10030    2    1    2    0    0  0.00000000000E+00  0.00000000000E+00 -0.14924879503E+04  0.39079617720E+04  0.36117371070E+04 0.  0.
        2    1    3    3  502    0  0.16676617049E+04  0.58082966343E+03 -0.11549867385E+04  0.21100836538E+04  0.25500000920E-02 0. -1.
       -2    1    3    3    0  502 -0.16676617049E+04 -0.58082966343E+03 -0.33750121179E+03  0.17978781182E+04  0.25500000920E-02 0.  1.
</event>
<event>
 5   0  0.1361743E-07  0.3597235E+04  0.7818609E-02  0.8091125E-01
        1   -1    0    0  501    0  0.00000000000E+00  0.00000000000E+00  0.20872981403E+04  0.20872981403E+04  0.50400001928E-02 0. -1.
       -1   -1    0    0    0  501  0.00000000000E+00  0.00000000000E+00 -0.15498621577E+04  0.15498621577E+04  0.50400001928E-02 0.  1.
    10030    2    1    2    0    0  0.00000000000E+00  0.00000000000E+00  0.53743598260E+03  0.36371602980E+04  0.35972347154E+04 0.  0.
        5    1    3    3  502    0 -0.49051132876E+03 -0.76702578309E+03 -0.12996501472E+04  0.15868341157E+04  0.46999998093E+01 0.  1.
       -5    1    3    3    0  502  0.49051132876E+03  0.76702578309E+03  0.18370861298E+04  0.20503261823E+04  0.46999998093E+01 0. -1.
</event>
<event>
 5   0  0.1361743E-07  0.3607277E+04  0.7818609E-02  0.8088827E-01
        1   -1    0    0  501    0  0.00000000000E+00  0.00000000000E+00  0.12392555942E+04  0.12392555942E+04  0.50400001928E-02 0.  1.
       -1   -1    0    0    0  501  0.00000000000E+00  0.00000000000E+00 -0.26250527083E+04  0.26250527083E+04  0.50400001928E-02 0. -1.
    10030    2    1    2    0    0  0.00000000000E+00  0.00000000000E+00 -0.13857971141E+04  0.38643083025E+04  0.36072766757E+04 0.  0.
        5    1    3    3  502    0 -0.26746748219E+03  0.14595577891E+04  0.40545847818E+03  0.15382673569E+04  0.46999998093E+01 0.  1.
       -5    1    3    3    0  502  0.26746748219E+03 -0.14595577891E+04 -0.17912555923E+04  0.23260409456E+04  0.46999998093E+01 0. -1.
</event>
<event>
 5   0  0.4120440E-07  0.3600404E+04  0.7818609E-02  0.8090399E-01
        2   -1    0    0  501    0  0.00000000000E+00  0.00000000000E+00  0.11073245009E+04  0.11073245009E+04  0.25500000920E-02 0. -1.
       -2   -1    0    0    0  501  0.00000000000E+00  0.00000000000E+00 -0.29266286128E+04  0.29266286128E+04  0.25500000920E-02 0.  1.
    10030    2    1    2    0    0  0.00000000000E+00  0.00000000000E+00 -0.18193041119E+04  0.40339531137E+04  0.36004041818E+04 0.  0.
        2    1    3    3  502    0  0.70275854346E+03 -0.14016508333E+04 -0.19005926929E+04  0.24638886366E+04  0.25500000920E-02 0. -1.
       -2    1    3    3    0  502 -0.70275854346E+03  0.14016508333E+04  0.81288581060E+02  0.15700644771E+04  0.25500000920E-02 0.  1.
</event>
<event>
 5   0  0.4120440E-07  0.3588893E+04  0.7818609E-02  0.8093041E-01
       -2   -1    0    0    0  501  0.00000000000E+00  0.00000000000E+00  0.10789842411E+04  0.10789842411E+04  0.25500000920E-02 0.  1.
        2   -1    0    0  501    0  0.00000000000E+00  0.00000000000E+00 -0.29843232972E+04  0.29843232972E+04  0.25500000920E-02 0. -1.
    10030    2    1    2    0    0  0.00000000000E+00  0.00000000000E+00 -0.19053390561E+04  0.40633075383E+04  0.35888927585E+04 0.  0.
        2    1    3    3  502    0  0.99877059092E+03  0.47616124985E+03 -0.25521317128E+04  0.27816629035E+04  0.25500000920E-02 0. -1.
       -2    1    3    3    0  502 -0.99877059092E+03 -0.47616124985E+03  0.64679265672E+03  0.12816446348E+04  0.25500000920E-02 0.  1.
</event>
<event>
 5   0  0.3880259E-07  0.3609835E+04  0.7818609E-02  0.8088243E-01
        2   -1    0    0  501    0  0.00000000000E+00  0.00000000000E+00  0.28439374072E+04  0.28439374072E+04  0.25500000920E-02 0. -1.
       -2   -1    0    0    0  501  0.00000000000E+00  0.00000000000E+00 -0.11454987998E+04  0.11454987998E+04  0.25500000920E-02 0.  1.
    10030    2    1    2    0    0  0.00000000000E+00  0.00000000000E+00  0.16984386075E+04  0.39894362070E+04  0.36098348364E+04 0.  0.
        5    1    3    3  502    0 -0.16391637776E+04  0.53825851832E+03  0.14351870017E+04  0.22441844715E+04  0.46999998093E+01 0. -1.
       -5    1    3    3    0  502  0.16391637776E+04 -0.53825851832E+03  0.26325160581E+03  0.17452517355E+04  0.46999998093E+01 0.  1.
</event>
<event>
 5   0  0.4200635E-07  0.3582286E+04  0.7818609E-02  0.8094561E-01
        2   -1    0    0  501    0  0.00000000000E+00  0.00000000000E+00  0.24049327226E+04  0.24049327226E+04  0.25500000920E-02 0.  1.
       -2   -1    0    0    0  501  0.00000000000E+00  0.00000000000E+00 -0.13340052157E+04  0.13340052157E+04  0.25500000920E-02 0. -1.
    10030    2    1    2    0    0  0.00000000000E+00  0.00000000000E+00  0.10709275069E+04  0.37389379383E+04  0.35822857481E+04 0.  0.
        4    1    3    3  502    0 -0.84430022499E+03  0.13690278048E+04 -0.28710594165E+03  0.16338639585E+04  0.12699999809E+01 0. -1.
       -4    1    3    3    0  502  0.84430022499E+03 -0.13690278048E+04  0.13580334486E+04  0.21050739798E+04  0.12699999809E+01 0.  1.
</event>
<event>
 5   0  0.1298250E-07  0.3606355E+04  0.7818609E-02  0.8089038E-01
        1   -1    0    0  501    0  0.00000000000E+00  0.00000000000E+00  0.16852857400E+04  0.16852857400E+04  0.50400001928E-02 0.  1.
       -1   -1    0    0    0  501  0.00000000000E+00  0.00000000000E+00 -0.19293159161E+04  0.19293159161E+04  0.50400001928E-02 0. -1.
    10030    2    1    2    0    0  0.00000000000E+00  0.00000000000E+00 -0.24403017615E+03  0.36146016561E+04  0.36063547254E+04 0.  0.
        1    1    3    3  502    0  0.77096043872E+03  0.14895808445E+04  0.54147870570E+03  0.17625068168E+04  0.50400001928E-02 0.  1.
       -1    1    3    3    0  502 -0.77096043872E+03 -0.14895808445E+04 -0.78550888184E+03  0.18520948393E+04  0.50400001928E-02 0. -1.
</event>
<event>
 5   0  0.4200635E-07  0.3507711E+04  0.7818609E-02  0.8111965E-01
       -2   -1    0    0    0  501  0.00000000000E+00  0.00000000000E+00  0.14806956941E+04  0.14806956941E+04  0.25500000920E-02 0.  1.
        2   -1    0    0  501    0  0.00000000000E+00  0.00000000000E+00 -0.20774076565E+04  0.20774076565E+04  0.25500000920E-02 0. -1.
    10030    2    1    2    0    0  0.00000000000E+00  0.00000000000E+00 -0.59671196245E+03  0.35581033506E+04  0.35077106903E+04 0.  0.
        4    1    3    3  502    0  0.37607107518E+03 -0.12414753335E+04  0.89899006010E+03  0.15782506766E+04  0.12699999809E+01 0.  1.
       -4    1    3    3    0  502 -0.37607107518E+03  0.12414753335E+04 -0.14957020226E+04  0.19798526739E+04  0.12699999809E+01 0. -1.
</event>
<event>
 5   0  0.1348226E-07  0.3597044E+04  0.7818609E-02  0.8091169E-01
       -1   -1    0    0    0  501  0.00000000000E+00  0.00000000000E+00  0.11781866832E+04  0.11781866832E+04  0.50400001928E-02 0. -1.
        1   -1    0    0  501    0  0.00000000000E+00  0.00000000000E+00 -0.27454751415E+04  0.27454751415E+04  0.50400001928E-02 0.  1.
    10030    2    1    2    0    0  0.00000000000E+00  0.00000000000E+00 -0.15672884583E+04  0.39236618247E+04  0.35970444817E+04 0.  0.
        4    1    3    3  502    0  0.26796223990E+03  0.78902392496E+02 -0.27216678452E+04  0.27359654277E+04  0.12699999809E+01 0.  1.
       -4    1    3    3    0  502 -0.26796223990E+03 -0.78902392496E+02  0.11543793869E+04  0.11876963970E+04  0.12699999809E+01 0. -1.
</event>
<event>
 5   0  0.3993751E-07  0.3598149E+04  0.7818609E-02  0.8090916E-01
       -2   -1    0    0    0  501  0.00000000000E+00  0.00000000000E+00  0.24853652058E+04  0.24853652058E+04  0.25500000920E-02 0.  1.
        2   -1    0    0  501    0  0.00000000000E+00  0.00000000000E+00 -0.13022913508E+04  0.13022913508E+04  0.25500000920E-02 0. -1.
    10030    2    1    2    0    0  0.00000000000E+00  0.00000000000E+00  0.11830738550E+04  0.37876565565E+04  0.35981493081E+04 0.  0.
        1    1    3    3  502    0  0.80427121515E+03 -0.68920735987E+03  0.21223675992E+04  0.23719829676E+04  0.50400001928E-02 0.  1.
       -1    1    3    3    0  502 -0.80427121515E+03  0.68920735987E+03 -0.93929374420E+03  0.14156735889E+04  0.50400001928E-02 0. -1.
</event>
<event>
 5   0  0.1370997E-07  0.3625471E+04  0.7818609E-02  0.8084682E-01
        1   -1    0    0  501    0  0.00000000000E+00  0.00000000000E+00  0.13430065719E+04  0.13430065719E+04  0.50400001928E-02 0. -1.
       -1   -1    0    0    0  501  0.00000000000E+00  0.00000000000E+00 -0.24467570838E+04  0.24467570838E+04  0.50400001928E-02 0.  1.
    10030    2    1    2    0    0  0.00000000000E+00  0.00000000000E+00 -0.11037505119E+04  0.37897636556E+04  0.36254714691E+04 0.  0.
        3    1    3    3  502    0  0.91664707637E+03  0.74900988888E+03  0.88320065494E+03  0.14769228427E+04  0.10100000352E+00 0.  1.
       -3    1    3    3    0  502 -0.91664707637E+03 -0.74900988888E+03 -0.19869511669E+04  0.23128408129E+04  0.10100000352E+00 0. -1.
</event>
<event>
 5   0  0.4115358E-07  0.3586295E+04  0.7818609E-02  0.8093638E-01
        2   -1    0    0  501    0  0.00000000000E+00  0.00000000000E+00  0.25155928459E+04  0.25155928459E+04  0.25500000920E-02 0. -1.
       -2   -1    0    0    0  501  0.00000000000E+00  0.00000000000E+00 -0.12781792748E+04  0.12781792748E+04  0.25500000920E-02 0.  1.
    10030    2    1    2    0    0  0.00000000000E+00  0.00000000000E+00  0.12374135711E+04  0.37937721207E+04  0.35862953807E+04 0.  0.
        3    1    3    3  502    0  0.39710385861E+03 -0.11380590606E+04  0.20231067901E+04  0.23549588095E+04  0.10100000352E+00 0. -1.
       -3    1    3    3    0  502 -0.39710385861E+03  0.11380590606E+04 -0.78569321903E+03  0.14388133112E+04  0.10100000352E+00 0.  1.
</event>
<event>
 5   0  0.1361743E-07  0.3577956E+04  0.7818609E-02  0.8095560E-01
       -1   -1    0    0    0  501  0.00000000000E+00  0.00000000000E+00  0.19508067387E+04  0.19508067387E+04  0.50400001928E-02 0. -1.
        1   -1    0    0  501    0  0.00000000000E+00  0.00000000000E+00 -0.16405737056E+04  0.16405737056E+04  0.50400001928E-02 0.  1.
    10030    2    1    2    0    0  0.00000000000E+00  0.00000000000E+00  0.31023303309E+03  0.35913804443E+04  0.35779559753E+04 0.  0.
        5    1    3    3  502    0 -0.88682949048E+02 -0.11896764310E+04 -0.11830115683E+04  0.16800991449E+04  0.46999998093E+01 0.  1.
       -5    1    3    3    0  502  0.88682949048E+02  0.11896764310E+04  0.14932446014E+04  0.19112812994E+04  0.46999998093E+01 0. -1.
</event>
<event>
 5   0  0.3993751E-07  0.3595183E+04  0.7818609E-02  0.8091596E-01
        2   -1    0    0  501    0  0.00000000000E+00  0.00000000000E+00  0.17429280561E+04  0.17429280561E+04  0.25500000920E-02 0. -1.
       -2   -1    0    0    0  501  0.00000000000E+00  0.00000000000E+00 -0.18539693581E+04  0.18539693581E+04  0.25500000920E-02 0.  1.
    10030    2    1    2    0    0  0.00000000000E+00  0.00000000000E+00 -0.11104130197E+03  0.35968974141E+04  0.35951830047E+04 0.  0.
        1    1    3    3  502    0 -0.10775765524E+03 -0.11107094468E+04  0.13544235389E+04  0.17549217391E+04  0.50400001928E-02 0. -1.
       -1    1    3    3    0  502  0.10775765524E+03  0.11107094468E+04 -0.14654648409E+04  0.18419756750E+04  0.50400001928E-02 0.  1.
</event>
<event>
 5   0  0.4115358E-07  0.3601791E+04  0.7818609E-02  0.8090082E-01
       -2   -1    0    0    0  501  0.00000000000E+00  0.00000000000E+00  0.19989838246E+04  0.19989838246E+04  0.25500000920E-02 0.  1.
        2   -1    0    0  501    0  0.00000000000E+00  0.00000000000E+00 -0.16224367997E+04  0.16224367997E+04  0.25500000920E-02 0. -1.
    10030    2    1    2    0    0  0.00000000000E+00  0.00000000000E+00  0.37654702491E+03  0.36214206243E+04  0.36017911761E+04 0.  0.
        3    1    3    3  502    0  0.12539337451E+04  0.11041177323E+04  0.86409675542E+03  0.18809808656E+04  0.10100000352E+00 0. -1.
       -3    1    3    3    0  502 -0.12539337451E+04 -0.11041177323E+04 -0.48754973052E+03  0.17404397587E+04  0.10100000352E+00 0.  1.
</event>
<event>
 5   0  0.1298250E-07  0.3197474E+04  0.7818609E-02  0.8189484E-01
        3   -1    0    0  501    0  0.00000000000E+00  0.00000000000E+00  0.91183064055E+03  0.91183064615E+03  0.10100000352E+00 0.  1.
       -3   -1    0    0    0  501  0.00000000000E+00  0.00000000000E+00 -0.28031089857E+04  0.28031089875E+04  0.10100000352E+00 0. -1.
    10030    2    1    2    0    0  0.00000000000E+00  0.00000000000E+00 -0.18912783452E+04  0.37149396337E+04  0.31974744257E+04 0.  0.
        5    1    3    3  502    0 -0.77069604152E+03 -0.77466460588E+03 -0.23014873584E+04  0.25477330690E+04  0.46999998093E+01 0. -1.
       -5    1    3    3    0  502  0.77069604152E+03  0.77466460588E+03  0.41020901326E+03  0.11672065647E+04  0.46999998093E+01 0.  1.
</event>
<event>
 5   0  0.1348226E-07  0.3611118E+04  0.7818609E-02  0.8087950E-01
       -1   -1    0    0    0  501  0.00000000000E+00  0.00000000000E+00  0.10838746341E+04  0.10838746341E+04  0.50400001928E-02 0.  1.
        1   -1    0    0  501    0  0.00000000000E+00  0.00000000000E+00 -0.30077674249E+04  0.30077674249E+04  0.50400001928E-02 0. -1.
    10030    2    1    2    0    0  0.00000000000E+00  0.00000000000E+00 -0.19238927907E+04  0.40916420590E+04  0.36111177312E+04 0.  0.
        4    1    3    3  502    0 -0.88548891127E+03 -0.82663461302E+03 -0.24789995883E+04  0.27591404399E+04  0.12699999809E+01 0. -1.
       -4    1    3    3    0  502  0.88548891127E+03  0.82663461302E+03  0.55510679753E+03  0.13325016191E+04  0.12699999809E+01 0.  1.
</event>
<event>
 5   0  0.1298250E-07  0.3587373E+04  0.7818609E-02  0.8093390E-01
        1   -1    0    0  501    0  0.00000000000E+00  0.00000000000E+00  0.25233410379E+04  0.25233410379E+04  0.50400001928E-02 0.  1.
       -1   -1    0    0    0  501  0.00000000000E+00  0.00000000000E+00 -0.12750204927E+04  0.12750204928E+04  0.50400001928E-02 0. -1.
    10030    2    1    2    0    0  0.00000000000E+00  0.00000000000E+00  0.12483205452E+04  0.37983615307E+04  0.35873731524E+04 0.  0.
        2    1    3    3  502    0 -0.64364242386E+02 -0.17238324510E+04  0.11445655081E+04  0.20702104428E+04  0.25500000920E-02 0.  1.
       -2    1    3    3    0  502  0.64364242386E+02  0.17238324510E+04  0.10375503704E+03  0.17281510879E+04  0.25500000920E-02 0. -1.
</event>
<event>
 5   0  0.4200635E-07  0.3613822E+04  0.7818609E-02  0.8087333E-01
       -2   -1    0    0    0  501  0.00000000000E+00  0.00000000000E+00  0.17642582330E+04  0.17642582330E+04  0.25500000920E-02 0.  1.
        2   -1    0    0  501    0  0.00000000000E+00  0.00000000000E+00 -0.18505946529E+04  0.18505946529E+04  0.25500000920E-02 0. -1.
    10030    2    1    2    0    0  0.00000000000E+00  0.00000000000E+00 -0.86336419867E+02  0.36148528859E+04  0.36138217180E+04 0.  0.
        4    1    3    3  502    0  0.11452283789E+04  0.97777004123E+02  0.13514379397E+04  0.17741179499E+04  0.12699999809E+01 0.  1.
       -4    1    3    3    0  502 -0.11452283789E+04 -0.97777004123E+02 -0.14377743596E+04  0.18407349360E+04  0.12699999809E+01 0. -1.
</event>
<event>
 5   0  0.3993751E-07  0.3593362E+04  0.7818609E-02  0.8092014E-01
       -2   -1    0    0    0  501  0.00000000000E+00  0.00000000000E+00  0.10574675992E+04  0.10574675992E+04  0.25500000920E-02 0.  1.
        2   -1    0    0  501    0  0.00000000000E+00  0.00000000000E+00 -0.30526350969E+04  0.30526350969E+04  0.25500000920E-02 0. -1.
    10030    2    1    2    0    0  0.00000000000E+00  0.00000000000E+00 -0.19951674978E+04  0.41101026961E+04  0.35933620508E+04 0.  0.
        1    1    3    3  502    0 -0.97398879435E+03  0.12708688412E+04 -0.65330029474E+02  0.16025073466E+04  0.50400001928E-02 0. -1.
       -1    1    3    3    0  502  0.97398879435E+03 -0.12708688412E+04 -0.19298374683E+04  0.25075953495E+04  0.50400001928E-02 0.  1.
</event>
<event>
 5   0  0.1298250E-07  0.3581225E+04  0.7818609E-02  0.8094806E-01
       -1   -1    0    0    0  501  0.00000000000E+00  0.00000000000E+00  0.19318820441E+04  0.19318820441E+04  0.50400001928E-02 0. -1.
        1   -1    0    0  501    0  0.00000000000E+00  0.00000000000E+00 -0.16596730234E+04  0.16596730235E+04  0.50400001928E-02 0.  1.
    10030    2    1    2    0    0  0.00000000000E+00  0.00000000000E+00  0.27220902069E+03  0.35915550676E+04  0.35812246582E+04 0.  0.
        1    1    3    3  502    0 -0.11027259540E+04  0.10917126940E+04 -0.76003412322E+03  0.17278579237E+04  0.50400001928E-02 0.  1.
       -1    1    3    3    0  502  0.11027259540E+04 -0.10917126940E+04  0.10322431439E+04  0.18636971439E+04  0.50400001928E-02 0. -1.
</event>
<event>
 5   0  0.3880259E-07  0.3620030E+04  0.7818609E-02  0.8085919E-01
        2   -1    0    0  501    0  0.00000000000E+00  0.00000000000E+00  0.24844222179E+04  0.24844222179E+04  0.25500000920E-02 0. -1.
       -2   -1    0    0    0  501  0.00000000000E+00  0.00000000000E+00 -0.13186788728E+04  0.13186788728E+04  0.25500000920E-02 0.  1.
    10030    2    1    2    0    0  0.00000000000E+00  0.00000000000E+00  0.11657433451E+04  0.38031010906E+04  0.36200304362E+04 0.  0.
        5    1    3    3  502    0 -0.10179161774E+03  0.10800992241E+04 -0.93924562753E+03  0.14349844271E+04  0.46999998093E+01 0.  1.
       -5    1    3    3    0  502  0.10179161774E+03 -0.10800992241E+04  0.21049889726E+04  0.23681166635E+04  0.46999998093E+01 0. -1.
</event>
<event>
 5   0  0.1348226E-07  0.3611829E+04  0.7818609E-02  0.8087787E-01
        1   -1    0    0  501    0  0.00000000000E+00  0.00000000000E+00  0.17594215993E+04  0.17594215993E+04  0.50400001928E-02 0. -1.
       -1   -1    0    0    0  501  0.00000000000E+00  0.00000000000E+00 -0.18536364871E+04  0.18536364871E+04  0.50400001928E-02 0.  1.
    10030    2    1    2    0    0  0.00000000000E+00  0.00000000000E+00 -0.94214887830E+02  0.36130580864E+04  0.36118294936E+04 0.  0.
        4    1    3    3  502    0 -0.32703747967E+03 -0.77744983605E+02  0.17278491435E+04  0.17602448895E+04  0.12699999809E+01 0. -1.
       -4    1    3    3    0  502  0.32703747967E+03  0.77744983605E+02 -0.18220640313E+04  0.18528131969E+04  0.12699999809E+01 0.  1.
</event>
<event>
 5   0  0.1361743E-07  0.3625548E+04  0.7818609E-02  0.8084665E-01
       -1   -1    0    0    0  501  0.00000000000E+00  0.00000000000E+00  0.95072590325E+03  0.95072590326E+03  0.50400001928E-02 0.  1.
        1   -1    0    0  501    0  0.00000000000E+00  0.00000000000E+00 -0.34564639216E+04  0.34564639216E+04  0.50400001928E-02 0. -1.
    10030    2    1    2    0    0  0.00000000000E+00  0.00000000000E+00 -0.25057380183E+04  0.44071898248E+04  0.36255481152E+04 0.  0.
        5    1    3    3  502    0 -0.16622972097E+04 -0.45037770366E+03 -0.19405718239E+04  0.25945930669E+04  0.46999998093E+01 0. -1.
       -5    1    3    3    0  502  0.16622972097E+04  0.45037770366E+03 -0.56516619446E+03  0.18125967579E+04  0.46999998093E+01 0.  1.
</event>
<event>
 5   0  0.1298250E-07  0.3605189E+04  0.7818609E-02  0.8089304E-01
       -1   -1    0    0    0  501  0.00000000000E+00  0.00000000000E+00  0.18882376397E+04  0.18882376397E+04  0.50400001928E-02 0.  1.
        1   -1    0    0  501    0  0.00000000000E+00  0.00000000000E+00 -0.17208357417E+04  0.17208357417E+04  0.50400001928E-02 0. -1.
    10030    2    1    2    0    0  0.00000000000E+00  0.00000000000E+00  0.16740189796E+03  0.36090733814E+04  0.36051889378E+04 0.  0.
        2    1    3    3  502    0  0.49829466353E+03  0.16791084754E+04 -0.34295536968E+03  0.17847468250E+04  0.25500000920E-02 0. -1.
       -2    1    3    3    0  502 -0.49829466353E+03 -0.16791084754E+04  0.51035726764E+03  0.18243265564E+04  0.25500000920E-02 0.  1.
</event>
<event>
 5   0  0.4200635E-07  0.3462324E+04  0.7818609E-02  0.8122777E-01
        2   -1    0    0  501    0  0.00000000000E+00  0.00000000000E+00  0.23010833301E+04  0.23010833301E+04  0.25500000920E-02 0.  1.
       -2   -1    0    0    0  501  0.00000000000E+00  0.00000000000E+00 -0.13023957082E+04  0.13023957082E+04  0.25500000920E-02 0. -1.
    10030    2    1    2    0    0  0.00000000000E+00  0.00000000000E+00  0.99868762190E+03  0.36034790382E+04  0.34623235281E+04 0.  0.
        4    1    3    3  502    0  0.15422511421E+04  0.77273435804E+03  0.34758246144E+03  0.17596795599E+04  0.12699999809E+01 0.  1.
       -4    1    3    3    0  502 -0.15422511421E+04 -0.77273435804E+03  0.65110516047E+03  0.18437994783E+04  0.12699999809E+01 0. -1.
</event>
<event>
 5   0  0.1298250E-07  0.3619798E+04  0.7818609E-02  0.8085972E-01
       -1   -1    0    0    0  501  0.00000000000E+00  0.00000000000E+00  0.15914778568E+04  0.15914778568E+04  0.50400001928E-02 0.  1.
        1   -1    0    0  501    0  0.00000000000E+00  0.00000000000E+00 -0.20582974782E+04  0.20582974782E+04  0.50400001928E-02 0. -1.
    10030    2    1    2    0    0  0.00000000000E+00  0.00000000000E+00 -0.46681962145E+03  0.36497753350E+04  0.36197982592E+04 0.  0.
        1    1    3    3  502    0  0.37745861507E+03 -0.11227075689E+04  0.11464215900E+04  0.16484021820E+04  0.50400001928E-02 0.  1.
       -1    1    3    3    0  502 -0.37745861507E+03  0.11227075689E+04 -0.16132412115E+04  0.20013731531E+04  0.50400001928E-02 0. -1.
</event>
<event>
 5   0  0.1370997E-07  0.3612084E+04  0.7818609E-02  0.8087729E-01
       -1   -1    0    0    0  501  0.00000000000E+00  0.00000000000E+00  0.14600341318E+04  0.14600341318E+04  0.50400001928E-02 0. -1.
        1   -1    0    0  501    0  0.00000000000E+00  0.00000000000E+00 -0.22340487371E+04  0.22340487371E+04  0.50400001928E-02 0.  1.
    10030    2    1    2    0    0  0.00000000000E+00  0.00000000000E+00 -0.77401460533E+03  0.36940828689E+04  0.36120838353E+04 0.  0.
        3    1    3    3  502    0 -0.45093655796E+03  0.14526408778E+04 -0.13829094580E+04  0.20557110396E+04  0.10100000352E+00 0.  1.
       -3    1    3    3    0  502  0.45093655796E+03 -0.14526408778E+04  0.60889485269E+03  0.16383718293E+04  0.10100000352E+00 0. -1.
</event>
<event>
 5   0  0.4120440E-07  0.3599133E+04  0.7818609E-02  0.8090690E-01
       -2   -1    0    0    0  501  0.00000000000E+00  0.00000000000E+00  0.14290551388E+04  0.14290551388E+04  0.25500000920E-02 0.  1.
        2   -1    0    0  501    0  0.00000000000E+00  0.00000000000E+00 -0.22661410316E+04  0.22661410316E+04  0.25500000920E-02 0. -1.
    10030    2    1    2    0    0  0.00000000000E+00  0.00000000000E+00 -0.83708589286E+03  0.36951961704E+04  0.35991334993E+04 0.  0.
        2    1    3    3  502    0  0.16674641927E+04  0.24328421820E+03  0.22983176928E+03  0.17007194615E+04  0.25500000920E-02 0.  1.
       -2    1    3    3    0  502 -0.16674641927E+04 -0.24328421820E+03 -0.10669176621E+04  0.19944767089E+04  0.25500000920E-02 0. -1.
</event>
<event>
 5   0  0.4200635E-07  0.3592269E+04  0.7818609E-02  0.8092265E-01
       -2   -1    0    0    0  501  0.00000000000E+00  0.00000000000E+00  0.17704686287E+04  0.17704686287E+04  0.25500000920E-02 0. -1.
        2   -1    0    0  501    0  0.00000000000E+00  0.00000000000E+00 -0.18221727370E+04  0.18221727370E+04  0.25500000920E-02 0.  1.
    10030    2    1    2    0    0  0.00000000000E+00  0.00000000000E+00 -0.51704108290E+02  0.35926413657E+04  0.35922692922E+04 0.  0.
        4    1    3    3  502    0 -0.10387049011E+04  0.10797162595E+03 -0.14873494759E+04  0.18173540712E+04  0.12699999809E+01 0.  1.
       -4    1    3    3    0  502  0.10387049011E+04 -0.10797162595E+03  0.14356453677E+04  0.17752872945E+04  0.12699999809E+01 0. -1.
</event>
<event>
 5   0  0.1361743E-07  0.3610232E+04  0.7818609E-02  0.8088152E-01
       -1   -1    0    0    0  501  0.00000000000E+00  0.00000000000E+00  0.13157837599E+04  0.13157837599E+04  0.50400001928E-02 0. -1.
        1   -1    0    0  501    0  0.00000000000E+00  0.00000000000E+00 -0.24764274961E+04  0.24764274961E+04  0.50400001928E-02 0.  1.
    10030    2    1    2    0    0  0.00000000000E+00  0.00000000000E+00 -0.11606437362E+04  0.37922112560E+04  0.36102316169E+04 0.  0.
        5    1    3    3  502    0 -0.16999152495E+04  0.17247444109E+03 -0.11918730003E+04  0.20832768964E+04  0.46999998093E+01 0.  1.
       -5    1    3    3    0  502  0.16999152495E+04 -0.17247444109E+03  0.31229264158E+02  0.17089343595E+04  0.46999998093E+01 0. -1.
</event>
<event>
 5   0  0.4200635E-07  0.3629359E+04  0.7818609E-02  0.8083800E-01
        2   -1    0    0  501    0  0.00000000000E+00  0.00000000000E+00  0.17543954104E+04  0.17543954104E+04  0.25500000920E-02 0. -1.
       -2   -1    0    0    0  501  0.00000000000E+00  0.00000000000E+00 -0.18770349255E+04  0.18770349255E+04  0.25500000920E-02 0.  1.
    10030    2    1    2    0    0  0.00000000000E+00  0.00000000000E+00 -0.12263951509E+03  0.36314303359E+04  0.36293588737E+04 0.  0.
        4    1    3    3  502    0  0.15637603756E+04  0.71606136944E+03 -0.64041554095E+03  0.18352722073E+04  0.12699999809E+01 0.  1.
       -4    1    3    3    0  502 -0.15637603756E+04 -0.71606136944E+03  0.51777602586E+03  0.17961581286E+04  0.12699999809E+01 0. -1.
</event>
<event>
 5   0  0.1298250E-07  0.3574788E+04  0.7818609E-02  0.8096291E-01
       -1   -1    0    0    0  501  0.00000000000E+00  0.00000000000E+00  0.19846220042E+04  0.19846220042E+04  0.50400001928E-02 0.  1.
        1   -1    0    0  501    0  0.00000000000E+00  0.00000000000E+00 -0.16097657633E+04  0.16097657633E+04  0.50400001928E-02 0. -1.
    10030    2    1    2    0    0  0.00000000000E+00  0.00000000000E+00  0.37485624083E+03  0.35943877675E+04  0.35747875772E+04 0.  0.
        2    1    3    3  502    0 -0.14569769306E+04 -0.86306864115E+03 -0.38764067912E+03  0.17372203521E+04  0.25500000920E-02 0. -1.
       -2    1    3    3    0  502  0.14569769306E+04  0.86306864115E+03  0.76249691995E+03  0.18571674154E+04  0.25500000920E-02 0.  1.
</event>
<event>
 5   0  0.3880259E-07  0.3601607E+04  0.7818609E-02  0.8090124E-01
        2   -1    0    0  501    0  0.00000000000E+00  0.00000000000E+00  0.16246326353E+04  0.16246326353E+04  0.25500000920E-02 0. -1.
       -2   -1    0    0    0  501  0.00000000000E+00  0.00000000000E+00 -0.19960783389E+04  0.19960783389E+04  0.25500000920E-02 0.  1.
    10030    2    1    2    0    0  0.00000000000E+00  0.00000000000E+00 -0.37144570367E+03  0.36207109742E+04  0.36016074255E+04 0.  0.
        5    1    3    3  502    0  0.11664612094E+03  0.17063998156E+04 -0.75215200615E+03  0.18684649792E+04  0.46999998093E+01 0. -1.
       -5    1    3    3    0  502 -0.11664612094E+03 -0.17063998156E+04  0.38070630248E+03  0.17522459950E+04  0.46999998093E+01 0.  1.
</event>
<event>
 5   0  0.1348226E-07  0.3612555E+04  0.7818609E-02  0.8087622E-01
       -1   -1    0    0    0  501  0.00000000000E+00  0.00000000000E+00  0.17618878859E+04  0.17618878859E+04  0.50400001928E-02 0. -1.
        1   -1    0    0  501    0  0.00000000000E+00  0.00000000000E+00 -0.18517859153E+04  0.18517859153E+04  0.50400001928E-02 0.  1.
    10030    2    1    2    0    0  0.00000000000E+00  0.00000000000E+00 -0.89898029490E+02  0.36136738012E+04  0.36125554232E+04 0.  0.
        4    1    3    3  502    0  0.56139760524E+02  0.13873121314E+04  0.11107661545E+04  0.17780859612E+04  0.12699999809E+01 0. -1.
       -4    1    3    3    0  502 -0.56139760524E+02 -0.13873121314E+04 -0.12006641840E+04  0.18355878400E+04  0.12699999809E+01 0.  1.
</event>
<event>
 5   0  0.4115358E-07  0.3590703E+04  0.7818609E-02  0.8092625E-01
       -2   -1    0    0    0  501  0.00000000000E+00  0.00000000000E+00  0.12865993327E+04  0.12865993327E+04  0.25500000920E-02 0. -1.
        2   -1    0    0  501    0  0.00000000000E+00  0.00000000000E+00 -0.25052759617E+04  0.25052759617E+04  0.25500000920E-02 0.  1.
    10030    2    1    2    0    0  0.00000000000E+00  0.00000000000E+00 -0.12186766291E+04  0.37918752944E+04  0.35907026501E+04 0.  0.
        3    1    3    3  502    0  0.17739276941E+04  0.24047571887E+03 -0.75350939768E+03  0.19422730132E+04  0.10100000352E+00 0.  1.
       -3    1    3    3    0  502 -0.17739276941E+04 -0.24047571887E+03 -0.46516723138E+03  0.18496022812E+04  0.10100000352E+00 0. -1.
</event>
<event>
 5   0  0.1298250E-07  0.3594454E+04  0.7818609E-02  0.8091763E-01
        4   -1    0    0  501    0  0.00000000000E+00  0.00000000000E+00  0.17603930454E+04  0.17603935035E+04  0.12699999809E+01 0. -1.
       -4   -1    0    0    0  501  0.00000000000E+00  0.00000000000E+00 -0.18348309563E+04  0.18348313958E+04  0.12699999809E+01 0.  1.
    10030    2    1    2    0    0  0.00000000000E+00  0.00000000000E+00 -0.74437910967E+02  0.35952248993E+04  0.35944542109E+04 0.  0.
        5    1    3    3  502    0  0.51023365278E+03 -0.13688347270E+04 -0.10843227266E+04  0.18192923777E+04  0.46999998093E+01 0.  1.
       -5    1    3    3    0  502 -0.51023365278E+03  0.13688347270E+04  0.10098848156E+04  0.17759325216E+04  0.46999998093E+01 0. -1.
</event>
<event>
 5   0  0.4120440E-07  0.3560141E+04  0.7818609E-02  0.8099683E-01
       -2   -1    0    0    0  501  0.00000000000E+00  0.00000000000E+00  0.15590317719E+04  0.15590317719E+04  0.25500000920E-02 0.  1.
        2   -1    0    0  501    0  0.00000000000E+00  0.00000000000E+00 -0.20324476005E+04  0.20324476005E+04  0.25500000920E-02 0. -1.
    10030    2    1    2    0    0  0.00000000000E+00  0.00000000000E+00 -0.47341582856E+03  0.35914793724E+04  0.35601406624E+04 0.  0.
        2    1    3    3  502    0 -0.38747226574E+03  0.16922717303E+04  0.16011460867E+03  0.17434319757E+04  0.25500000920E-02 0. -1.
       -2    1    3    3    0  502  0.38747226574E+03 -0.16922717303E+04 -0.63353043723E+03  0.18480473968E+04  0.25500000920E-02 0.  1.
</event>
<event>
 5   0  0.4200635E-07  0.3600171E+04  0.7818609E-02  0.8090453E-01
        2   -1    0    0  501    0  0.00000000000E+00  0.00000000000E+00  0.93995328922E+03  0.93995328923E+03  0.25500000920E-02 0. -1.
       -2   -1    0    0    0  501  0.00000000000E+00  0.00000000000E+00 -0.34473063803E+04  0.34473063803E+04  0.25500000920E-02 0.  1.
    10030    2    1    2    0    0  0.00000000000E+00  0.00000000000E+00 -0.25073530911E+04  0.43872596695E+04  0.36001705355E+04 0.  0.
        4    1    3    3  502    0  0.16466114244E+03 -0.10247644289E+04  0.53859388203E+03  0.11693333182E+04  0.12699999809E+01 0. -1.
       -4    1    3    3    0  502 -0.16466114244E+03  0.10247644289E+04 -0.30459469731E+04  0.32179263513E+04  0.12699999809E+01 0.  1.
</event>
<event>
 5   0  0.3880259E-07  0.3602128E+04  0.7818609E-02  0.8090005E-01
        2   -1    0    0  501    0  0.00000000000E+00  0.00000000000E+00  0.11106967993E+04  0.11106967993E+04  0.25500000920E-02 0. -1.
       -2   -1    0    0    0  501  0.00000000000E+00  0.00000000000E+00 -0.29205366546E+04  0.29205366546E+04  0.25500000920E-02 0.  1.
    10030    2    1    2    0    0  0.00000000000E+00  0.00000000000E+00 -0.18098398554E+04  0.40312334539E+04  0.36021275460E+04 0.  0.
        5    1    3    3  502    0  0.11236418016E+03  0.15201109316E+04  0.16876768536E+03  0.15335799865E+04  0.46999998093E+01 0. -1.
       -5    1    3    3    0  502 -0.11236418016E+03 -0.15201109316E+04 -0.19786075407E+04  0.24976534674E+04  0.46999998093E+01 0.  1.
</event>
<event>
 5   0  0.1348226E-07  0.3602938E+04  0.7818609E-02  0.8089819E-01
        1   -1    0    0  501    0  0.00000000000E+00  0.00000000000E+00  0.10906497991E+04  0.10906497991E+04  0.50400001928E-02 0.  1.
       -1   -1    0    0    0  501  0.00000000000E+00  0.00000000000E+00 -0.29755573949E+04  0.29755573949E+04  0.50400001928E-02 0. -1.
    10030    2    1    2    0    0  0.00000000000E+00  0.00000000000E+00 -0.18849075958E+04  0.40662071940E+04  0.36029382870E+04 0.  0.
        4    1    3    3  502    0  0.42883542950E+03  0.12526709794E+04 -0.23210812883E+04  0.26721722191E+04  0.12699999809E+01 0. -1.
       -4    1    3    3    0  502 -0.42883542950E+03 -0.12526709794E+04  0.43617369256E+03  0.13940349749E+04  0.12699999809E+01 0.  1.
</event>
<event>
 5   0  0.1298250E-07  0.3580775E+04  0.7818609E-02  0.8094910E-01
       -1   -1    0    0    0  501  0.00000000000E+00  0.00000000000E+00  0.11055855159E+04  0.11055855159E+04  0.50400001928E-02 0. -1.
        1   -1    0    0  501    0  0.00000000000E+00  0.00000000000E+00 -0.28993568272E+04  0.28993568272E+04  0.50400001928E-02 0.  1.
    10030    2    1    2    0    0  0.00000000000E+00  0.00000000000E+00 -0.17937713113E+04  0.40049423431E+04  0.35807747282E+04 0.  0.
        2    1    3    3  502    0  0.13629747321E+04  0.28022907713E+03  0.36318326928E+03  0.14380996290E+04  0.25500000920E-02 0. -1.
       -2    1    3    3    0  502 -0.13629747321E+04 -0.28022907713E+03 -0.21569545806E+04  0.25668427141E+04  0.25500000920E-02 0.  1.
</event>
<event>
 5   0  0.3880259E-07  0.3579929E+04  0.7818609E-02  0.8095105E-01
       -2   -1    0    0    0  501  0.00000000000E+00  0.00000000000E+00  0.13603531613E+04  0.13603531613E+04  0.25500000920E-02 0. -1.
        2   -1    0    0  501    0  0.00000000000E+00  0.00000000000E+00 -0.23552511721E+04  0.23552511721E+04  0.25500000920E-02 0.  1.
    10030    2    1    2    0    0  0.00000000000E+00  0.00000000000E+00 -0.99489801085E+03  0.37156043334E+04  0.35799292605E+04 0.  0.
        5    1    3    3  502    0  0.11696494989E+04  0.17744989745E+02 -0.19036224385E+04  0.22343221150E+04  0.46999998093E+01 0.  1.
       -5    1    3    3    0  502 -0.11696494989E+04 -0.17744989745E+02  0.90872442769E+03  0.14812822184E+04  0.46999998093E+01 0. -1.
</event>
<event>
 5   0  0.1370997E-07  0.3592729E+04  0.7818609E-02  0.8092159E-01
        1   -1    0    0  501    0  0.00000000000E+00  0.00000000000E+00  0.24228316747E+04  0.24228316747E+04  0.50400001928E-02 0.  1.
       -1   -1    0    0    0  501  0.00000000000E+00  0.00000000000E+00 -0.13318818194E+04  0.13318818195E+04  0.50400001928E-02 0. -1.
    10030    2    1    2    0    0  0.00000000000E+00  0.00000000000E+00  0.10909498553E+04  0.37547134942E+04  0.35927290235E+04 0.  0.
        3    1    3    3  502    0 -0.30950949305E+03  0.16794803844E+04 -0.36850335811E+02  0.17081593735E+04  0.10100000352E+00 0. -1.
       -3    1    3    3    0  502  0.30950949305E+03 -0.16794803844E+04  0.11278001911E+04  0.20465541207E+04  0.10100000352E+00 0.  1.
</event>
<event>
 5   0  0.3993751E-07  0.3580832E+04  0.7818609E-02  0.8094897E-01
        2   -1    0    0  501    0  0.00000000000E+00  0.00000000000E+00  0.15528246598E+04  0.15528246598E+04  0.25500000920E-02 0.  1.
       -2   -1    0    0    0  501  0.00000000000E+00  0.00000000000E+00 -0.20643600828E+04  0.20643600828E+04  0.25500000920E-02 0. -1.
    10030    2    1    2    0    0  0.00000000000E+00  0.00000000000E+00 -0.51153542305E+03  0.36171847426E+04  0.35808318828E+04 0.  0.
        1    1    3    3  502    0  0.43734165017E+03  0.65848060584E+02  0.14967764262E+04  0.15607508949E+04  0.50400001928E-02 0.  1.
       -1    1    3    3    0  502 -0.43734165017E+03 -0.65848060584E+02 -0.20083118492E+04  0.20564338476E+04  0.50400001928E-02 0. -1.
</event>
<event>
 5   0  0.1298250E-07  0.3606281E+04  0.7818609E-02  0.8089054E-01
        1   -1    0    0  501    0  0.00000000000E+00  0.00000000000E+00  0.27566478999E+04  0.27566478999E+04  0.50400001928E-02 0. -1.
       -1   -1    0    0    0  501  0.00000000000E+00  0.00000000000E+00 -0.11794454683E+04  0.11794454683E+04  0.50400001928E-02 0.  1.
    10030    2    1    2    0    0  0.00000000000E+00  0.00000000000E+00  0.15772024315E+04  0.39360933682E+04  0.36062811168E+04 0.  0.
        1    1    3    3  502    0 -0.32121316852E+03 -0.22183344433E+03  0.27099736240E+04  0.27379454011E+04  0.50400001928E-02 0. -1.
       -1    1    3    3    0  502  0.32121316852E+03  0.22183344433E+03 -0.11327711925E+04  0.11981479671E+04  0.50400001928E-02 0.  1.
</event>
<event>
 5   0  0.3993751E-07  0.3598503E+04  0.7818609E-02  0.8090835E-01
        2   -1    0    0  501    0  0.00000000000E+00  0.00000000000E+00  0.22960494500E+04  0.22960494500E+04  0.25500000920E-02 0.  1.
       -2   -1    0    0    0  501  0.00000000000E+00  0.00000000000E+00 -0.14099464716E+04  0.14099464716E+04  0.25500000920E-02 0. -1.
    10030    2    1    2    0    0  0.00000000000E+00  0.00000000000E+00  0.88610297844E+03  0.37059959216E+04  0.35985034782E+04 0.  0.
        1    1    3    3  502    0  0.17106967290E+03  0.67463543696E+03 -0.12657001304E+04  0.14444357466E+04  0.50400001928E-02 0. -1.
       -1    1    3    3    0  502 -0.17106967290E+03 -0.67463543696E+03  0.21518031089E+04  0.22615601750E+04  0.50400001928E-02 0.  1.
</event>
<event>
 5   0  0.3993751E-07  0.3601927E+04  0.7818609E-02  0.8090050E-01
       -2   -1    0    0    0  501  0.00000000000E+00  0.00000000000E+00  0.17807306142E+04  0.17807306142E+04  0.25500000920E-02 0.  1.
        2   -1    0    0  501    0  0.00000000000E+00  0.00000000000E+00 -0.18214267452E+04  0.18214267452E+04  0.25500000920E-02 0. -1.
    10030    2    1    2    0    0  0.00000000000E+00  0.00000000000E+00 -0.40696130987E+02  0.36021573593E+04  0.36019274654E+04 0.  0.
        1    1    3    3  502    0  0.67288684369E+03 -0.55893496043E+03  0.15540094976E+04  0.17832920437E+04  0.50400001928E-02 0.  1.
       -1    1    3    3    0  502 -0.67288684369E+03  0.55893496043E+03 -0.15947056286E+04  0.18188653156E+04  0.50400001928E-02 0. -1.
</event>
<event>
 5   0  0.3880259E-07  0.3593956E+04  0.7818609E-02  0.8091878E-01
        2   -1    0    0  501    0  0.00000000000E+00  0.00000000000E+00  0.22570584585E+04  0.22570584585E+04  0.25500000920E-02 0.  1.
       -2   -1    0    0    0  501  0.00000000000E+00  0.00000000000E+00 -0.14306804945E+04  0.14306804945E+04  0.25500000920E-02 0. -1.
    10030    2    1    2    0    0  0.00000000000E+00  0.00000000000E+00  0.82637796395E+03  0.36877389530E+04  0.35939557658E+04 0.  0.
        5    1    3    3  502    0  0.16987555895E+04 -0.56541302558E+03  0.25540717978E+03  0.18085124715E+04  0.46999998093E+01 0. -1.
       -5    1    3    3    0  502 -0.16987555895E+04  0.56541302558E+03  0.57097078418E+03  0.18792264815E+04  0.46999998093E+01 0.  1.
</event>
<event>
 5   0  0.4115358E-07  0.3503109E+04  0.7818609E-02  0.8113054E-01
        2   -1    0    0  501    0  0.00000000000E+00  0.00000000000E+00  0.17500473751E+04  0.17500473751E+04  0.25500000920E-02 0.  1.
       -2   -1    0    0    0  501  0.00000000000E+00  0.00000000000E+00 -0.17530629249E+04  0.17530629249E+04  0.25500000920E-02 0. -1.
    10030    2    1    2    0    0  0.00000000000E+00  0.00000000000E+00 -0.30155498317E+01  0.35031103001E+04  0.35031090021E+04 0.  0.
        3    1    3    3  502    0 -0.11420613820E+04 -0.48115932023E+03  0.12362829196E+04  0.17504896342E+04  0.10100000352E+00 0.  1.
       -3    1    3    3    0  502  0.11420613820E+04  0.48115932023E+03 -0.12392984695E+04  0.17526206659E+04  0.10100000352E+00 0. -1.
</event>
<event>
 5   0  0.1298250E-07  0.3582217E+04  0.7818609E-02  0.8094577E-01
        1   -1    0    0  501    0  0.00000000000E+00  0.00000000000E+00  0.14191138101E+04  0.14191138102E+04  0.50400001928E-02 0. -1.
       -1   -1    0    0    0  501  0.00000000000E+00  0.00000000000E+00 -0.22606147021E+04  0.22606147021E+04  0.50400001928E-02 0.  1.
    10030    2    1    2    0    0  0.00000000000E+00  0.00000000000E+00 -0.84150089199E+03  0.36797285123E+04  0.35822169355E+04 0.  0.
        2    1    3    3  502    0  0.99267375017E+03  0.13372387651E+04  0.25632836202E+03  0.16850260883E+04  0.25500000920E-02 0. -1.
       -2    1    3    3    0  502 -0.99267375017E+03 -0.13372387651E+04 -0.10978292540E+04  0.19947024240E+04  0.25500000920E-02 0.  1.
</event>
<event>
 5   0  0.1370997E-07  0.3607097E+04  0.7818609E-02  0.8088868E-01
        1   -1    0    0  501    0  0.00000000000E+00  0.00000000000E+00  0.19882719922E+04  0.19882719922E+04  0.50400001928E-02 0.  1.
       -1   -1    0    0    0  501  0.00000000000E+00  0.00000000000E+00 -0.16359868935E+04  0.16359868935E+04  0.50400001928E-02 0. -1.
    10030    2    1    2    0    0  0.00000000000E+00  0.00000000000E+00  0.35228509866E+03  0.36242588858E+04  0.36070968493E+04 0.  0.
        3    1    3    3  502    0  0.12187503492E+04  0.92286051343E+03  0.11376506514E+04  0.19055899233E+04  0.10100000352E+00 0.  1.
       -3    1    3    3    0  502 -0.12187503492E+04 -0.92286051343E+03 -0.78536555274E+03  0.17186689625E+04  0.10100000352E+00 0. -1.
</event>
<event>
 5   0  0.1298250E-07  0.3225650E+04  0.7818609E-02  0.8182076E-01
       -1   -1    0    0    0  501  0.00000000000E+00  0.00000000000E+00  0.26212449011E+04  0.26212449011E+04  0.50400001928E-02 0.  1.
        1   -1    0    0  501    0  0.00000000000E+00  0.00000000000E+00 -0.99235451905E+03  0.99235451907E+03  0.50400001928E-02 0. -1.
    10030    2    1    2    0    0  0.00000000000E+00  0.00000000000E+00  0.16288903820E+04  0.36135994201E+04  0.32256498404E+04 0.  0.
        2    1    3    3  502    0 -0.63249664082E+03  0.97130416434E+03 -0.44191696732E+03  0.12404734525E+04  0.25500000920E-02 0. -1.
       -2    1    3    3    0  502  0.63249664082E+03 -0.97130416434E+03  0.20708073493E+04  0.23731259677E+04  0.25500000920E-02 0.  1.
</event>
<event>
 5   0  0.1298250E-07  0.3596382E+04  0.7818609E-02  0.8091321E-01
       -1   -1    0    0    0  501  0.00000000000E+00  0.00000000000E+00  0.18214975989E+04  0.18214975990E+04  0.50400001928E-02 0. -1.
        1   -1    0    0  501    0  0.00000000000E+00  0.00000000000E+00 -0.17751824351E+04  0.17751824351E+04  0.50400001928E-02 0.  1.
    10030    2    1    2    0    0  0.00000000000E+00  0.00000000000E+00  0.46315163873E+02  0.35966800340E+04  0.35963818169E+04 0.  0.
        1    1    3    3  502    0 -0.47513426623E+03 -0.15249446493E+04 -0.80291441551E+03  0.17877025237E+04  0.50400001928E-02 0.  1.
       -1    1    3    3    0  502  0.47513426623E+03  0.15249446493E+04  0.84922957938E+03  0.18089775104E+04  0.50400001928E-02 0. -1.
</event>
<event>
 5   0  0.3993751E-07  0.3604494E+04  0.7818609E-02  0.8089463E-01
        2   -1    0    0  501    0  0.00000000000E+00  0.00000000000E+00  0.23953025371E+04  0.23953025371E+04  0.25500000920E-02 0. -1.
       -2   -1    0    0    0  501  0.00000000000E+00  0.00000000000E+00 -0.13560266695E+04  0.13560266695E+04  0.25500000920E-02 0.  1.
    10030    2    1    2    0    0  0.00000000000E+00  0.00000000000E+00  0.10392758676E+04  0.37513292065E+04  0.36044939294E+04 0.  0.
        1    1    3    3  502    0 -0.14993043249E+04  0.72607940143E+03  0.12353965229E+04  0.20739598175E+04  0.50400001928E-02 0. -1.
       -1    1    3    3    0  502  0.14993043249E+04 -0.72607940143E+03 -0.19612065527E+03  0.16773693890E+04  0.50400001928E-02 0.  1.
</event>
<event>
 5   0  0.1370997E-07  0.3605555E+04  0.7818609E-02  0.8089220E-01
       -1   -1    0    0    0  501  0.00000000000E+00  0.00000000000E+00  0.13413271382E+04  0.13413271382E+04  0.50400001928E-02 0.  1.
        1   -1    0    0  501    0  0.00000000000E+00  0.00000000000E+00 -0.24229784647E+04  0.24229784647E+04  0.50400001928E-02 0. -1.
    10030    2    1    2    0    0  0.00000000000E+00  0.00000000000E+00 -0.10816513265E+04  0.37643056029E+04  0.36055550307E+04 0.  0.
        3    1    3    3  502    0  0.11603000590E+04 -0.87512793994E+03 -0.16544980983E+04  0.22021600999E+04  0.10100000352E+00 0. -1.
       -3    1    3    3    0  502 -0.11603000590E+04  0.87512793994E+03  0.57284677184E+03  0.15621455029E+04  0.10100000352E+00 0.  1.
</event>
<event>
 5   0  0.4120440E-07  0.3521655E+04  0.7818609E-02  0.8108677E-01
       -2   -1    0    0    0  501  0.00000000000E+00  0.00000000000E+00  0.15414895695E+04  0.15414895695E+04  0.25500000920E-02 0.  1.
        2   -1    0    0  501    0  0.00000000000E+00  0.00000000000E+00 -0.20113744108E+04  0.20113744108E+04  0.25500000920E-02 0. -1.
    10030    2    1    2    0    0  0.00000000000E+00  0.00000000000E+00 -0.46988484130E+03  0.35528639804E+04  0.35216545400E+04 0.  0.
        2    1    3    3  502    0 -0.12982547548E+04  0.65708515382E+03 -0.12353381723E+04  0.19087395600E+04  0.25500000920E-02 0. -1.
       -2    1    3    3    0  502  0.12982547548E+04 -0.65708515382E+03  0.76545333104E+03  0.16441244204E+04  0.25500000920E-02 0.  1.
</event>
<event>
 5   0  0.1361743E-07  0.3609541E+04  0.7818609E-02  0.8088310E-01
        1   -1    0    0  501    0  0.00000000000E+00  0.00000000000E+00  0.16185685134E+04  0.16185685134E+04  0.50400001928E-02 0. -1.
       -1   -1    0    0    0  501  0.00000000000E+00  0.00000000000E+00 -0.20123928418E+04  0.20123928418E+04  0.50400001928E-02 0.  1.
    10030    2    1    2    0    0  0.00000000000E+00  0.00000000000E+00 -0.39382432835E+03  0.36309613552E+04  0.36095405194E+04 0.  0.
        5    1    3    3  502    0  0.12537626721E+04 -0.31120077338E+02 -0.15024137565E+04  0.19570790692E+04  0.46999998093E+01 0. -1.
       -5    1    3    3    0  502 -0.12537626721E+04  0.31120077338E+02  0.11085894282E+04  0.16738822860E+04  0.46999998093E+01 0.  1.
</event>
<event>
 5   0  0.4200635E-07  0.3584561E+04  0.7818609E-02  0.8094037E-01
        2   -1    0    0  501    0  0.00000000000E+00  0.00000000000E+00  0.10646221764E+04  0.10646221764E+04  0.25500000920E-02 0.  1.
       -2   -1    0    0    0  501  0.00000000000E+00  0.00000000000E+00 -0.30172857646E+04  0.30172857646E+04  0.25500000920E-02 0. -1.
    10030    2    1    2    0    0  0.00000000000E+00  0.00000000000E+00 -0.19526635883E+04  0.40819079410E+04  0.35845609703E+04 0.  0.
        4    1    3    3  502    0  0.16246655618E+04 -0.17682676030E+03 -0.18142683917E+04  0.24417979648E+04  0.12699999809E+01 0. -1.
       -4    1    3    3    0  502 -0.16246655618E+04  0.17682676030E+03 -0.13839519660E+03  0.16401099763E+04  0.12699999809E+01 0.  1.
</event>
<event>
 5   0  0.3993751E-07  0.3578649E+04  0.7818609E-02  0.8095400E-01
        2   -1    0    0  501    0  0.00000000000E+00  0.00000000000E+00  0.12632901505E+04  0.12632901505E+04  0.25500000920E-02 0. -1.
       -2   -1    0    0    0  501  0.00000000000E+00  0.00000000000E+00 -0.25343992627E+04  0.25343992627E+04  0.25500000920E-02 0.  1.
    10030    2    1    2    0    0  0.00000000000E+00  0.00000000000E+00 -0.12711091122E+04  0.37976894131E+04  0.35786486980E+04 0.  0.
        1    1    3    3  502    0  0.99087518456E+02 -0.10169225765E+04  0.92327669465E+03  0.13770946655E+04  0.50400001928E-02 0. -1.
       -1    1    3    3    0  502 -0.99087518456E+02  0.10169225765E+04 -0.21943858068E+04  0.24205947476E+04  0.50400001928E-02 0.  1.
</event>
<event>
 5   0  0.3993751E-07  0.3514469E+04  0.7818609E-02  0.8110370E-01
       -2   -1    0    0    0  501  0.00000000000E+00  0.00000000000E+00  0.28173729827E+04  0.28173729827E+04  0.25500000920E-02 0. -1.
        2   -1    0    0  501    0  0.00000000000E+00  0.00000000000E+00 -0.10960114546E+04  0.10960114546E+04  0.25500000920E-02 0.  1.
    10030    2    1    2    0    0  0.00000000000E+00  0.00000000000E+00  0.17213615281E+04  0.39133844373E+04  0.35144689846E+04 0.  0.
        1    1    3    3  502    0  0.88784837534E+03 -0.14272147061E+04  0.14313531788E+04  0.22077111399E+04  0.50400001928E-02 0. -1.
       -1    1    3    3    0  502 -0.88784837534E+03  0.14272147061E+04  0.29000834934E+03  0.17056732974E+04  0.50400001928E-02 0.  1.
</event>
<event>
 5   0  0.1348226E-07  0.3593856E+04  0.7818609E-02  0.8091900E-01
       -1   -1    0    0    0  501  0.00000000000E+00  0.00000000000E+00  0.12818545607E+04  0.12818545607E+04  0.50400001928E-02 0. -1.
        1   -1    0    0  501    0  0.00000000000E+00  0.00000000000E+00 -0.25189681048E+04  0.25189681048E+04  0.50400001928E-02 0.  1.
    10030    2    1    2    0    0  0.00000000000E+00  0.00000000000E+00 -0.12371135441E+04  0.38008226655E+04  0.35938562873E+04 0.  0.
        4    1    3    3  502    0 -0.11183279011E+04  0.57547377470E+03  0.73875543813E+03  0.14586255757E+04  0.12699999809E+01 0. -1.
       -4    1    3    3    0  502  0.11183279011E+04 -0.57547377470E+03 -0.19758689822E+04  0.23421970898E+04  0.12699999809E+01 0.  1.
</event>
<event>
 5   0  0.4200635E-07  0.3551389E+04  0.7818609E-02  0.8101718E-01
       -2   -1    0    0    0  501  0.00000000000E+00  0.00000000000E+00  0.26472619693E+04  0.26472619693E+04  0.25500000920E-02 0.  1.
        2   -1    0    0  501    0  0.00000000000E+00  0.00000000000E+00 -0.11910763211E+04  0.11910763211E+04  0.25500000920E-02 0. -1.
    10030    2    1    2    0    0  0.00000000000E+00  0.00000000000E+00  0.14561856482E+04  0.38383382904E+04  0.35513890507E+04 0.  0.
        4    1    3    3  502    0  0.89932086592E+03 -0.15091783644E+04  0.44897849984E+03  0.18132789806E+04  0.12699999809E+01 0.  1.
       -4    1    3    3    0  502 -0.89932086592E+03  0.15091783644E+04  0.10072071484E+04  0.20250593097E+04  0.12699999809E+01 0. -1.
</event>
<event>
 5   0  0.4200635E-07  0.3603177E+04  0.7818609E-02  0.8089764E-01
       -2   -1    0    0    0  501  0.00000000000E+00  0.00000000000E+00  0.17783958617E+04  0.17783958617E+04  0.25500000920E-02 0. -1.
        2   -1    0    0  501    0  0.00000000000E+00  0.00000000000E+00 -0.18250832352E+04  0.18250832352E+04  0.25500000920E-02 0.  1.
    10030    2    1    2    0    0  0.00000000000E+00  0.00000000000E+00 -0.46687373480E+02  0.36034790968E+04  0.36031766388E+04 0.  0.
        4    1    3    3  502    0 -0.28156816198E+03 -0.13326768059E+04  0.11559120950E+04  0.17864608820E+04  0.12699999809E+01 0. -1.
       -4    1    3    3    0  502  0.28156816198E+03  0.13326768059E+04 -0.12025994684E+04  0.18170182148E+04  0.12699999809E+01 0.  1.
</event>
<event>
 5   0  0.1298250E-07  0.3567357E+04  0.7818609E-02  0.8098010E-01
        1   -1    0    0  501    0  0.00000000000E+00  0.00000000000E+00  0.19621932263E+04  0.19621932263E+04  0.50400001928E-02 0.  1.
       -1   -1    0    0    0  501  0.00000000000E+00  0.00000000000E+00 -0.16214046984E+04  0.16214046984E+04  0.50400001928E-02 0. -1.
    10030    2    1    2    0    0  0.00000000000E+00  0.00000000000E+00  0.34078852793E+03  0.35835979247E+04  0.35673571822E+04 0.  0.
        2    1    3    3  502    0 -0.11943477431E+04  0.38439836480E+03  0.14439517224E+04  0.19129101418E+04  0.25500000920E-02 0.  1.
       -2    1    3    3    0  502  0.11943477431E+04 -0.38439836480E+03 -0.11031631944E+04  0.16706877829E+04  0.25500000920E-02 0. -1.
</event>
<event>
 5   0  0.3993751E-07  0.3409049E+04  0.7818609E-02  0.8135689E-01
        2   -1    0    0  501    0  0.00000000000E+00  0.00000000000E+00  0.18416118433E+04  0.18416118433E+04  0.25500000920E-02 0. -1.
       -2   -1    0    0    0  501  0.00000000000E+00  0.00000000000E+00 -0.15776413783E+04  0.15776413783E+04  0.25500000920E-02 0.  1.
    10030    2    1    2    0    0  0.00000000000E+00  0.00000000000E+00  0.26397046502E+03  0.34192532216E+04  0.34090485751E+04 0.  0.
        1    1    3    3  502    0  0.10483579036E+04  0.12142577324E+04 -0.44587034308E+03  0.16650154647E+04  0.50400001928E-02 0.  1.
       -1    1    3    3    0  502 -0.10483579036E+04 -0.12142577324E+04  0.70984080809E+03  0.17542377569E+04  0.50400001928E-02 0. -1.
</event>
<event>
 5   0  0.1361743E-07  0.3606993E+04  0.7818609E-02  0.8088892E-01
       -1   -1    0    0    0  501  0.00000000000E+00  0.00000000000E+00  0.14046729761E+04  0.14046729761E+04  0.50400001928E-02 0.  1.
        1   -1    0    0  501    0  0.00000000000E+00  0.00000000000E+00 -0.23155562088E+04  0.23155562088E+04  0.50400001928E-02 0. -1.
    10030    2    1    2    0    0  0.00000000000E+00  0.00000000000E+00 -0.91088323266E+03  0.37202291849E+04  0.36069927813E+04 0.  0.
        5    1    3    3  502    0 -0.54289332683E+03 -0.16513399690E+04  0.40185961242E+02  0.17387621629E+04  0.46999998093E+01 0.  1.
       -5    1    3    3    0  502  0.54289332683E+03  0.16513399690E+04 -0.95106919390E+03  0.19814670220E+04  0.46999998093E+01 0. -1.
</event>
<event>
 5   0  0.1361743E-07  0.3618418E+04  0.7818609E-02  0.8086286E-01
       -1   -1    0    0    0  501  0.00000000000E+00  0.00000000000E+00  0.14464632290E+04  0.14464632290E+04  0.50400001928E-02 0. -1.
        1   -1    0    0  501    0  0.00000000000E+00  0.00000000000E+00 -0.22629242778E+04  0.22629242778E+04  0.50400001928E-02 0.  1.
    10030    2    1    2    0    0  0.00000000000E+00  0.00000000000E+00 -0.81646104885E+03  0.37093875068E+04  0.36184177524E+04 0.  0.
        5    1    3    3  502    0 -0.25005805897E+03  0.17889553415E+04 -0.51239421289E+03  0.18776208793E+04  0.46999998093E+01 0.  1.
       -5    1    3    3    0  502  0.25005805897E+03 -0.17889553415E+04 -0.30406683596E+03  0.18317666275E+04  0.46999998093E+01 0. -1.
</event>
<event>
 5   0  0.1361743E-07  0.3616653E+04  0.7818609E-02  0.8086688E-01
        1   -1    0    0  501    0  0.00000000000E+00  0.00000000000E+00  0.18124789218E+04  0.18124789218E+04  0.50400001928E-02 0.  1.
       -1   -1    0    0    0  501  0.00000000000E+00  0.00000000000E+00 -0.18041834762E+04  0.18041834762E+04  0.50400001928E-02 0. -1.
    10030    2    1    2    0    0  0.00000000000E+00  0.00000000000E+00  0.82954455373E+01  0.36166623980E+04  0.36166528845E+04 0.  0.
        5    1    3    3  502    0  0.12821273259E+04 -0.11314954209E+04 -0.58397801553E+03  0.18069822301E+04  0.46999998093E+01 0. -1.
       -5    1    3    3    0  502 -0.12821273259E+04  0.11314954209E+04  0.59227346106E+03  0.18096801679E+04  0.46999998093E+01 0.  1.
</event>
<event>
 5   0  0.1298250E-07  0.3704382E+04  0.7818609E-02  0.8066991E-01
        1   -1    0    0  501    0  0.00000000000E+00  0.00000000000E+00  0.26204640778E+04  0.26204640778E+04  0.50400001928E-02 0.  1.
       -1   -1    0    0    0  501  0.00000000000E+00  0.00000000000E+00 -0.13091617421E+04  0.13091617421E+04  0.50400001928E-02 0. -1.
    10030    2    1    2    0    0  0.00000000000E+00  0.00000000000E+00  0.13113023358E+04  0.39296258199E+04  0.37043819010E+04 0.  0.
        2    1    3    3  502    0 -0.13231415189E+04  0.51471082646E+03  0.19175097573E+04  0.23858906898E+04  0.25500000920E-02 0.  1.
       -2    1    3    3    0  502  0.13231415189E+04 -0.51471082646E+03 -0.60620742158E+03  0.15437351301E+04  0.25500000920E-02 0. -1.
</event>
<event>
 5   0  0.4115358E-07  0.3595391E+04  0.7818609E-02  0.8091548E-01
        2   -1    0    0  501    0  0.00000000000E+00  0.00000000000E+00  0.10683596676E+04  0.10683596676E+04  0.25500000920E-02 0. -1.
       -2   -1    0    0    0  501  0.00000000000E+00  0.00000000000E+00 -0.30249267899E+04  0.30249267899E+04  0.25500000920E-02 0.  1.
    10030    2    1    2    0    0  0.00000000000E+00  0.00000000000E+00 -0.19565671223E+04  0.40932864576E+04  0.35953913723E+04 0.  0.
        3    1    3    3  502    0  0.48021621069E+02  0.70769224015E+03 -0.28588727943E+04  0.29455539457E+04  0.10100000352E+00 0.  1.
       -3    1    3    3    0  502 -0.48021621069E+02 -0.70769224015E+03  0.90230567201E+03  0.11477325119E+04  0.10100000352E+00 0. -1.
</event>
<event>
 5   0  0.3880259E-07  0.3626808E+04  0.7818609E-02  0.8084378E-01
        2   -1    0    0  501    0  0.00000000000E+00  0.00000000000E+00  0.23450479961E+04  0.23450479962E+04  0.25500000920E-02 0.  1.
       -2   -1    0    0    0  501  0.00000000000E+00  0.00000000000E+00 -0.14022888651E+04  0.14022888651E+04  0.25500000920E-02 0. -1.
    10030    2    1    2    0    0  0.00000000000E+00  0.00000000000E+00  0.94275913100E+03  0.37473368613E+04  0.36268083452E+04 0.  0.
        5    1    3    3  502    0  0.29458851073E+03 -0.14165046317E+04 -0.65817807961E+03  0.15894930754E+04  0.46999998093E+01 0. -1.
       -5    1    3    3    0  502 -0.29458851073E+03  0.14165046317E+04  0.16009372106E+04  0.21578437859E+04  0.46999998093E+01 0.  1.
</event>
<event>
 5   0  0.4120440E-07  0.3587626E+04  0.7818609E-02  0.8093332E-01
        2   -1    0    0  501    0  0.00000000000E+00  0.00000000000E+00  0.24167389866E+04  0.24167389866E+04  0.25500000920E-02 0.  1.
       -2   -1    0    0    0  501  0.00000000000E+00  0.00000000000E+00 -0.13314493718E+04  0.13314493718E+04  0.25500000920E-02 0. -1.
    10030    2    1    2    0    0  0.00000000000E+00  0.00000000000E+00  0.10852896148E+04  0.37481883583E+04  0.35876262935E+04 0.  0.
        2    1    3    3  502    0  0.16123134207E+04 -0.78424184399E+03  0.60152085797E+03  0.18911417659E+04  0.25500000920E-02 0.  1.
       -2    1    3    3    0  502 -0.16123134207E+04  0.78424184399E+03  0.48376875685E+03  0.18570465924E+04  0.25500000920E-02 0. -1.
</event>
<event>
 5   0  0.1298250E-07  0.3591856E+04  0.7818609E-02  0.8092360E-01
        1   -1    0    0  501    0  0.00000000000E+00  0.00000000000E+00  0.21306502587E+04  0.21306502587E+04  0.50400001928E-02 0.  1.
       -1   -1    0    0    0  501  0.00000000000E+00  0.00000000000E+00 -0.15137905029E+04  0.15137905029E+04  0.50400001928E-02 0. -1.
    10030    2    1    2    0    0  0.00000000000E+00  0.00000000000E+00  0.61685975577E+03  0.36444407617E+04  0.35918564151E+04 0.  0.
        2    1    3    3  502    0  0.15370970533E+04  0.51764537329E+03 -0.47405026874E+03  0.16897774235E+04  0.25500000920E-02 0. -1.
       -2    1    3    3    0  502 -0.15370970533E+04 -0.51764537329E+03  0.10909100245E+04  0.19546633381E+04  0.25500000920E-02 0.  1.
</event>
<event>
 5   0  0.3993751E-07  0.3599265E+04  0.7818609E-02  0.8090660E-01
       -2   -1    0    0    0  501  0.00000000000E+00  0.00000000000E+00  0.20174500789E+04  0.20174500789E+04  0.25500000920E-02 0. -1.
        2   -1    0    0  501    0  0.00000000000E+00  0.00000000000E+00 -0.16053320394E+04  0.16053320394E+04  0.25500000920E-02 0.  1.
    10030    2    1    2    0    0  0.00000000000E+00  0.00000000000E+00  0.41211803942E+03  0.36227821183E+04  0.35992650636E+04 0.  0.
        1    1    3    3  502    0  0.20848171863E+03  0.17680214969E+04  0.47105208425E+03  0.18415359640E+04  0.50400001928E-02 0.  1.
       -1    1    3    3    0  502 -0.20848171863E+03 -0.17680214969E+04 -0.58934044827E+02  0.17812461543E+04  0.50400001928E-02 0. -1.
</event>
<event>
 5   0  0.1298250E-07  0.3599257E+04  0.7818609E-02  0.8090662E-01
        1   -1    0    0  501    0  0.00000000000E+00  0.00000000000E+00  0.22906419614E+04  0.22906419614E+04  0.50400001928E-02 0. -1.
       -1   -1    0    0    0  501  0.00000000000E+00  0.00000000000E+00 -0.14138670949E+04  0.14138670949E+04  0.50400001928E-02 0.  1.
    10030    2    1    2    0    0  0.00000000000E+00  0.00000000000E+00  0.87677486644E+03  0.37045090563E+04  0.35992573098E+04 0.  0.
        2    1    3    3  502    0  0.14263191646E+04 -0.46415517216E+03  0.14618691770E+04  0.20944898839E+04  0.25500000920E-02 0. -1.
       -2    1    3    3    0  502 -0.14263191646E+04  0.46415517216E+03 -0.58509431059E+03  0.16100191724E+04  0.25500000920E-02 0.  1.
</event>
<event>
 5   0  0.1298250E-07  0.3600033E+04  0.7818609E-02  0.8090484E-01
        1   -1    0    0  501    0  0.00000000000E+00  0.00000000000E+00  0.19323066301E+04  0.19323066301E+04  0.50400001928E-02 0. -1.
       -1   -1    0    0    0  501  0.00000000000E+00  0.00000000000E+00 -0.16767831389E+04  0.16767831389E+04  0.50400001928E-02 0.  1.
    10030    2    1    2    0    0  0.00000000000E+00  0.00000000000E+00  0.25552349123E+03  0.36090897690E+04  0.36000328757E+04 0.  0.
        1    1    3    3  502    0 -0.33946630143E+03  0.69835464173E+03  0.17557691585E+04  0.19198077803E+04  0.50400001928E-02 0. -1.
       -1    1    3    3    0  502  0.33946630143E+03 -0.69835464173E+03 -0.15002456672E+04  0.16892819888E+04  0.50400001928E-02 0.  1.
</event>
<event>
 5   0  0.1370997E-07  0.3585277E+04  0.7818609E-02  0.8093872E-01
       -1   -1    0    0    0  501  0.00000000000E+00  0.00000000000E+00  0.19288686560E+04  0.19288686560E+04  0.50400001928E-02 0. -1.
        1   -1    0    0  501    0  0.00000000000E+00  0.00000000000E+00 -0.16660303299E+04  0.16660303299E+04  0.50400001928E-02 0.  1.
    10030    2    1    2    0    0  0.00000000000E+00  0.00000000000E+00  0.26283832605E+03  0.35948989859E+04  0.35852774974E+04 0.  0.
        3    1    3    3  502    0 -0.10947640419E+04  0.65955864594E+03 -0.11289456633E+04  0.17052988699E+04  0.10100000352E+00 0.  1.
       -3    1    3    3    0  502  0.10947640419E+04 -0.65955864594E+03  0.13917839894E+04  0.18896001159E+04  0.10100000352E+00 0. -1.
</event>
<event>
 5   0  0.1298250E-07  0.3617040E+04  0.7818609E-02  0.8086599E-01
        1   -1    0    0  501    0  0.00000000000E+00  0.00000000000E+00  0.16881699959E+04  0.16881699959E+04  0.50400001928E-02 0.  1.
       -1   -1    0    0    0  501  0.00000000000E+00  0.00000000000E+00 -0.19374502780E+04  0.19374502780E+04  0.50400001928E-02 0. -1.
    10030    2    1    2    0    0  0.00000000000E+00  0.00000000000E+00 -0.24928028208E+03  0.36256202739E+04  0.36170404630E+04 0.  0.
        2    1    3    3  502    0 -0.46720267334E+03  0.12479453081E+04  0.11010029230E+04  0.17285407911E+04  0.25500000920E-02 0.  1.
       -2    1    3    3    0  502  0.46720267334E+03 -0.12479453081E+04 -0.13502832051E+04  0.18970794828E+04  0.25500000920E-02 0. -1.
</event>
<event>
 5   0  0.1370997E-07  0.3602733E+04  0.7818609E-02  0.8089866E-01
        1   -1    0    0  501    0  0.00000000000E+00  0.00000000000E+00  0.27253941427E+04  0.27253941427E+04  0.50400001928E-02 0. -1.
       -1   -1    0    0    0  501  0.00000000000E+00  0.00000000000E+00 -0.11906243938E+04  0.11906243938E+04  0.50400001928E-02 0.  1.
    10030    2    1    2    0    0  0.00000000000E+00  0.00000000000E+00  0.15347697490E+04  0.39160185365E+04  0.36027327123E+04 0.  0.
        3    1    3    3  502    0 -0.53624353087E+03 -0.14180030136E+04 -0.29017039321E+03  0.15435311912E+04  0.10100000352E+00 0.  1.
       -3    1    3    3    0  502  0.53624353087E+03  0.14180030136E+04  0.18249401422E+04  0.23724873453E+04  0.10100000352E+00 0. -1.
</event>
<event>
 5   0  0.1298250E-07  0.3572137E+04  0.7818609E-02  0.8096904E-01
        1   -1    0    0  501    0  0.00000000000E+00  0.00000000000E+00  0.19962277230E+04  0.19962277230E+04  0.50400001928E-02 0. -1.
       -1   -1    0    0    0  501  0.00000000000E+00  0.00000000000E+00 -0.15980340748E+04  0.15980340748E+04  0.50400001928E-02 0.  1.
    10030    2    1    2    0    0  0.00000000000E+00  0.00000000000E+00  0.39819364828E+03  0.35942617978E+04  0.35721365721E+04 0.  0.
        1    1    3    3  502    0 -0.45249440638E+03  0.11702809299E+04  0.14780840844E+04  0.19388246964E+04  0.50400001928E-02 0. -1.
       -1    1    3    3    0  502  0.45249440638E+03 -0.11702809299E+04 -0.10798904361E+04  0.16554371014E+04  0.50400001928E-02 0.  1.
</event>
<event>
 5   0  0.1298250E-07  0.3595017E+04  0.7818609E-02  0.8091634E-01
       -1   -1    0    0    0  501  0.00000000000E+00  0.00000000000E+00  0.15593202101E+04  0.15593202101E+04  0.50400001928E-02 0.  1.
        1   -1    0    0  501    0  0.00000000000E+00  0.00000000000E+00 -0.20720808787E+04  0.20720808788E+04  0.50400001928E-02 0. -1.
    10030    2    1    2    0    0  0.00000000000E+00  0.00000000000E+00 -0.51276066867E+03  0.36314010888E+04  0.35950174359E+04 0.  0.
        2    1    3    3  502    0  0.17944729419E+04  0.12553060208E+02 -0.15166403877E+03  0.18009144064E+04  0.25500000920E-02 0.  1.
       -2    1    3    3    0  502 -0.17944729419E+04 -0.12553060208E+02 -0.36109662990E+03  0.18304866824E+04  0.25500000920E-02 0. -1.
</event>
<event>
 5   0  0.4120440E-07  0.3605640E+04  0.7818609E-02  0.8089201E-01
        2   -1    0    0  501    0  0.00000000000E+00  0.00000000000E+00  0.15149353979E+04  0.15149353979E+04  0.25500000920E-02 0. -1.
       -2   -1    0    0    0  501  0.00000000000E+00  0.00000000000E+00 -0.21454119410E+04  0.21454119410E+04  0.25500000920E-02 0.  1.
    10030    2    1    2    0    0  0.00000000000E+00  0.00000000000E+00 -0.63047654311E+03  0.36603473389E+04  0.36056402995E+04 0.  0.
        2    1    3    3  502    0 -0.12330175631E+04  0.85008420860E+03  0.70357484675E+03  0.16546881995E+04  0.25500000920E-02 0. -1.
       -2    1    3    3    0  502  0.12330175631E+04 -0.85008420860E+03 -0.13340513899E+04  0.20056591394E+04  0.25500000920E-02 0.  1.
</event>
<event>
 5   0  0.1298250E-07  0.3596355E+04  0.7818609E-02  0.8091327E-01
       -1   -1    0    0    0  501  0.00000000000E+00  0.00000000000E+00  0.17109039301E+04  0.17109039301E+04  0.50400001928E-02 0.  1.
        1   -1    0    0  501    0  0.00000000000E+00  0.00000000000E+00 -0.18899028716E+04  0.18899028716E+04  0.50400001928E-02 0. -1.
    10030    2    1    2    0    0  0.00000000000E+00  0.00000000000E+00 -0.17899894146E+03  0.36008068017E+04  0.35963549606E+04 0.  0.
        2    1    3    3  502    0 -0.15756309199E+04  0.56361064716E+03 -0.74847259972E+03  0.18331614740E+04  0.25500000920E-02 0.  1.
       -2    1    3    3    0  502  0.15756309199E+04 -0.56361064716E+03  0.56947365826E+03  0.17676453277E+04  0.25500000920E-02 0. -1.
</event>
<event>
 5   0  0.1361743E-07  0.3810493E+04  0.7818609E-02  0.8043907E-01
        1   -1    0    0  501    0  0.00000000000E+00  0.00000000000E+00  0.18643318258E+04  0.18643318258E+04  0.50400001928E-02 0. -1.
       -1   -1    0    0    0  501  0.00000000000E+00  0.00000000000E+00 -0.19470594722E+04  0.19470594722E+04  0.50400001928E-02 0.  1.
    10030    2    1    2    0    0  0.00000000000E+00  0.00000000000E+00 -0.82727646422E+02  0.38113912981E+04  0.38104933753E+04 0.  0.
        5    1    3    3  502    0  0.15879442212E+04  0.73437129693E+03  0.71318440594E+03  0.18893179029E+04  0.46999998093E+01 0. -1.
       -5    1    3    3    0  502 -0.15879442212E+04 -0.73437129693E+03 -0.79591205236E+03  0.19220733952E+04  0.46999998093E+01 0.  1.
</event>
<event>
 5   0  0.4115358E-07  0.3661443E+04  0.7818609E-02  0.8076561E-01
        2   -1    0    0  501    0  0.00000000000E+00  0.00000000000E+00  0.24801650858E+04  0.24801650858E+04  0.25500000920E-02 0. -1.
       -2   -1    0    0    0  501  0.00000000000E+00  0.00000000000E+00 -0.13513379997E+04  0.13513379997E+04  0.25500000920E-02 0.  1.
    10030    2    1    2    0    0  0.00000000000E+00  0.00000000000E+00  0.11288270862E+04  0.38315030855E+04  0.36614430630E+04 0.  0.
        3    1    3    3  502    0 -0.12824382800E+04  0.10487846534E+04 -0.25083728826E+03  0.16755645457E+04  0.10100000352E+00 0.  1.
       -3    1    3    3    0  502  0.12824382800E+04 -0.10487846534E+04  0.13796643744E+04  0.21559385398E+04  0.10100000352E+00 0. -1.
</event>
<event>
 5   0  0.4115358E-07  0.3560143E+04  0.7818609E-02  0.8099683E-01
       -2   -1    0    0    0  501  0.00000000000E+00  0.00000000000E+00  0.11674374091E+04  0.11674374091E+04  0.25500000920E-02 0. -1.
        2   -1    0    0  501    0  0.00000000000E+00  0.00000000000E+00 -0.27141960150E+04  0.27141960150E+04  0.25500000920E-02 0.  1.
    10030    2    1    2    0    0  0.00000000000E+00  0.00000000000E+00 -0.15467586059E+04  0.38816334241E+04  0.35601426733E+04 0.  0.
        3    1    3    3  502    0 -0.88000043728E+02 -0.17755162864E+04 -0.67314339591E+03  0.19008745704E+04  0.10100000352E+00 0.  1.
       -3    1    3    3    0  502  0.88000043728E+02  0.17755162864E+04 -0.87361521000E+03  0.19807588536E+04  0.10100000352E+00 0. -1.
</event>
<event>
 5   0  0.4200635E-07  0.3619515E+04  0.7818609E-02  0.8086036E-01
        2   -1    0    0  501    0  0.00000000000E+00  0.00000000000E+00  0.23883802730E+04  0.23883802730E+04  0.25500000920E-02 0. -1.
       -2   -1    0    0    0  501  0.00000000000E+00  0.00000000000E+00 -0.13713151830E+04  0.13713151830E+04  0.25500000920E-02 0.  1.
    10030    2    1    2    0    0  0.00000000000E+00  0.00000000000E+00  0.10170650900E+04  0.37596954560E+04  0.36195149571E+04 0.  0.
        4    1    3    3  502    0  0.48969258968E+03  0.15867269825E+04  0.12559262138E+04  0.20820311277E+04  0.12699999809E+01 0. -1.
       -4    1    3    3    0  502 -0.48969258968E+03 -0.15867269825E+04 -0.23886112380E+03  0.16776643283E+04  0.12699999809E+01 0.  1.
</event>
<event>
 5   0  0.4115358E-07  0.3572718E+04  0.7818609E-02  0.8096770E-01
        2   -1    0    0  501    0  0.00000000000E+00  0.00000000000E+00  0.16483962006E+04  0.16483962006E+04  0.25500000920E-02 0. -1.
       -2   -1    0    0    0  501  0.00000000000E+00  0.00000000000E+00 -0.19358681786E+04  0.19358681786E+04  0.25500000920E-02 0.  1.
    10030    2    1    2    0    0  0.00000000000E+00  0.00000000000E+00 -0.28747197805E+03  0.35842643792E+04  0.35727175934E+04 0.  0.
        3    1    3    3  502    0  0.11254528126E+04  0.13540026698E+04  0.15908467536E+03  0.17678447917E+04  0.10100000352E+00 0.  1.
       -3    1    3    3    0  502 -0.11254528126E+04 -0.13540026698E+04 -0.44655665341E+03  0.18164195876E+04  0.10100000352E+00 0. -1.
</event>
<event>
 5   0  0.3993751E-07  0.3575530E+04  0.7818609E-02  0.8096120E-01
       -2   -1    0    0    0  501  0.00000000000E+00  0.00000000000E+00  0.11880032131E+04  0.11880032131E+04  0.25500000920E-02 0.  1.
        2   -1    0    0  501    0  0.00000000000E+00  0.00000000000E+00 -0.26903162397E+04  0.26903162397E+04  0.25500000920E-02 0. -1.
    10030    2    1    2    0    0  0.00000000000E+00  0.00000000000E+00 -0.15023130265E+04  0.38783194528E+04  0.35755303590E+04 0.  0.
        1    1    3    3  502    0  0.72436303437E+03  0.14039298849E+04 -0.16589164964E+04  0.22907913195E+04  0.50400001928E-02 0. -1.
       -1    1    3    3    0  502 -0.72436303437E+03 -0.14039298849E+04  0.15660346993E+03  0.15875281333E+04  0.50400001928E-02 0.  1.
</event>
<event>
 5   0  0.4115358E-07  0.3610198E+04  0.7818609E-02  0.8088160E-01
       -2   -1    0    0    0  501  0.00000000000E+00  0.00000000000E+00  0.11940952891E+04  0.11940952892E+04  0.25500000920E-02 0.  1.
        2   -1    0    0  501    0  0.00000000000E+00  0.00000000000E+00 -0.27287463446E+04  0.27287463446E+04  0.25500000920E-02 0. -1.
    10030    2    1    2    0    0  0.00000000000E+00  0.00000000000E+00 -0.15346510555E+04  0.39228416338E+04  0.36101984186E+04 0.  0.
        3    1    3    3  502    0  0.16237780514E+04  0.73382865857E+03 -0.45385793195E+03  0.18387894640E+04  0.10100000352E+00 0.  1.
       -3    1    3    3    0  502 -0.16237780514E+04 -0.73382865857E+03 -0.10807931235E+04  0.20840521698E+04  0.10100000352E+00 0. -1.
</event>
<event>
 5   0  0.3880259E-07  0.3589509E+04  0.7818609E-02  0.8092899E-01
       -2   -1    0    0    0  501  0.00000000000E+00  0.00000000000E+00  0.13423855688E+04  0.13423855688E+04  0.25500000920E-02 0. -1.
        2   -1    0    0  501    0  0.00000000000E+00  0.00000000000E+00 -0.23995669598E+04  0.23995669598E+04  0.25500000920E-02 0.  1.
    10030    2    1    2    0    0  0.00000000000E+00  0.00000000000E+00 -0.10571813909E+04  0.37419525286E+04  0.35895091911E+04 0.  0.
        5    1    3    3  502    0  0.68646083954E+03 -0.15328517378E+04  0.13093812041E+03  0.16846453086E+04  0.46999998093E+01 0. -1.
       -5    1    3    3    0  502 -0.68646083954E+03  0.15328517378E+04 -0.11881195114E+04  0.20573072200E+04  0.46999998093E+01 0.  1.
</event>
<event>
 5   0  0.1370997E-07  0.3607850E+04  0.7818609E-02  0.8088696E-01
        1   -1    0    0  501    0  0.00000000000E+00  0.00000000000E+00  0.16132561321E+04  0.16132561321E+04  0.50400001928E-02 0. -1.
       -1   -1    0    0    0  501  0.00000000000E+00  0.00000000000E+00 -0.20171290465E+04  0.20171290465E+04  0.50400001928E-02 0.  1.
    10030    2    1    2    0    0  0.00000000000E+00  0.00000000000E+00 -0.40387291437E+03  0.36303851786E+04  0.36078502206E+04 0.  0.
        3    1    3    3  502    0  0.90750799415E+03 -0.76621028781E+03 -0.15681714463E+04  0.19671834331E+04  0.10100000352E+00 0.  1.
       -3    1    3    3    0  502 -0.90750799415E+03  0.76621028781E+03  0.11642985319E+04  0.16632017455E+04  0.10100000352E+00 0. -1.
</event>
<event>
 5   0  0.1298250E-07  0.3622853E+04  0.7818609E-02  0.8085277E-01
       -1   -1    0    0    0  501  0.00000000000E+00  0.00000000000E+00  0.15883156873E+04  0.15883156873E+04  0.50400001928E-02 0. -1.
        1   -1    0    0  501    0  0.00000000000E+00  0.00000000000E+00 -0.20658777357E+04  0.20658777357E+04  0.50400001928E-02 0.  1.
    10030    2    1    2    0    0  0.00000000000E+00  0.00000000000E+00 -0.47756204837E+03  0.36541934231E+04  0.36228530281E+04 0.  0.
        1    1    3    3  502    0  0.46353380479E+03 -0.15770579515E+04  0.52891461442E+03  0.17267675118E+04  0.50400001928E-02 0. -1.
       -1    1    3    3    0  502 -0.46353380479E+03  0.15770579515E+04 -0.10064766628E+04  0.19274259112E+04  0.50400001928E-02 0.  1.
</event>
<event>
 5   0  0.1370997E-07  0.3634481E+04  0.7818609E-02  0.8082639E-01
        1   -1    0    0  501    0  0.00000000000E+00  0.00000000000E+00  0.16870911178E+04  0.16870911178E+04  0.50400001928E-02 0. -1.
       -1   -1    0    0    0  501  0.00000000000E+00  0.00000000000E+00 -0.19574304542E+04  0.19574304542E+04  0.50400001928E-02 0.  1.
    10030    2    1    2    0    0  0.00000000000E+00  0.00000000000E+00 -0.27033933638E+03  0.36445215720E+04  0.36344812741E+04 0.  0.
        3    1    3    3  502    0  0.80029678179E+03  0.10000965411E+04 -0.14277984164E+04  0.19181439880E+04  0.10100000352E+00 0.  1.
       -3    1    3    3    0  502 -0.80029678179E+03 -0.10000965411E+04  0.11574590800E+04  0.17263775840E+04  0.10100000352E+00 0. -1.
</event>
<event>
 5   0  0.1298250E-07  0.3589765E+04  0.7818609E-02  0.8092840E-01
        1   -1    0    0  501    0  0.00000000000E+00  0.00000000000E+00  0.25216796496E+04  0.25216796496E+04  0.50400001928E-02 0.  1.
       -1   -1    0    0    0  501  0.00000000000E+00  0.00000000000E+00 -0.12775624997E+04  0.12775624997E+04  0.50400001928E-02 0. -1.
    10030    2    1    2    0    0  0.00000000000E+00  0.00000000000E+00  0.12441171499E+04  0.37992421492E+04  0.35897650934E+04 0.  0.
        1    1    3    3  502    0 -0.11473702568E+04 -0.91001265566E+03  0.17204147471E+04  0.22592937927E+04  0.50400001928E-02 0.  1.
       -1    1    3    3    0  502  0.11473702568E+04  0.91001265566E+03 -0.47629759719E+03  0.15399483565E+04  0.50400001928E-02 0. -1.
</event>
<event>
 5   0  0.1348226E-07  0.3616960E+04  0.7818609E-02  0.8086618E-01
       -1   -1    0    0    0  501  0.00000000000E+00  0.00000000000E+00  0.11380433763E+04  0.11380433763E+04  0.50400001928E-02 0.  1.
        1   -1    0    0  501    0  0.00000000000E+00  0.00000000000E+00 -0.28738805605E+04  0.28738805605E+04  0.50400001928E-02 0. -1.
    10030    2    1    2    0    0  0.00000000000E+00  0.00000000000E+00 -0.17358371843E+04  0.40119239368E+04  0.36169604566E+04 0.  0.
        4    1    3    3  502    0 -0.31203821542E+03  0.12248348102E+04  0.56677224032E+03  0.13852149816E+04  0.12699999809E+01 0.  1.
       -4    1    3    3    0  502  0.31203821542E+03 -0.12248348102E+04 -0.23026094246E+04  0.26267089552E+04  0.12699999809E+01 0. -1.
</event>
<event>
 5   0  0.4200635E-07  0.3627555E+04  0.7818609E-02  0.8084209E-01
       -2   -1    0    0    0  501  0.00000000000E+00  0.00000000000E+00  0.24608153797E+04  0.24608153797E+04  0.25500000920E-02 0. -1.
        2   -1    0    0  501    0  0.00000000000E+00  0.00000000000E+00 -0.13368693404E+04  0.13368693404E+04  0.25500000920E-02 0.  1.
    10030    2    1    2    0    0  0.00000000000E+00  0.00000000000E+00  0.11239460393E+04  0.37976847202E+04  0.36275548975E+04 0.  0.
        4    1    3    3  502    0  0.59246805611E+03  0.92194560791E+03  0.20750177779E+04  0.23466364211E+04  0.12699999809E+01 0. -1.
       -4    1    3    3    0  502 -0.59246805611E+03 -0.92194560791E+03 -0.95107173857E+03  0.14510482991E+04  0.12699999809E+01 0.  1.
</event>
<event>
 5   0  0.3880259E-07  0.3575095E+04  0.7818609E-02  0.8096220E-01
        2   -1    0    0  501    0  0.00000000000E+00  0.00000000000E+00  0.28542265075E+04  0.28542265075E+04  0.25500000920E-02 0. -1.
       -2   -1    0    0    0  501  0.00000000000E+00  0.00000000000E+00 -0.11195066755E+04  0.11195066755E+04  0.25500000920E-02 0.  1.
    10030    2    1    2    0    0  0.00000000000E+00  0.00000000000E+00  0.17347198320E+04  0.39737331830E+04  0.35750947559E+04 0.  0.
        5    1    3    3  502    0  0.13341504927E+04  0.73542608554E+02 -0.45244905062E+03  0.14107084340E+04  0.46999998093E+01 0. -1.
       -5    1    3    3    0  502 -0.13341504927E+04 -0.73542608554E+02  0.21871688826E+04  0.25630247489E+04  0.46999998093E+01 0.  1.
</event>
<event>
 5   0  0.1298250E-07  0.3636176E+04  0.7818609E-02  0.8082255E-01
        1   -1    0    0  501    0  0.00000000000E+00  0.00000000000E+00  0.18929771207E+04  0.18929771207E+04  0.50400001928E-02 0. -1.
       -1   -1    0    0    0  501  0.00000000000E+00  0.00000000000E+00 -0.17461617636E+04  0.17461617636E+04  0.50400001928E-02 0.  1.
    10030    2    1    2    0    0  0.00000000000E+00  0.00000000000E+00  0.14681535711E+03  0.36391388842E+04  0.36361761604E+04 0.  0.
        1    1    3    3  502    0  0.13484430308E+04  0.58615760892E+03  0.11436549443E+04  0.18627468914E+04  0.50400001928E-02 0. -1.
       -1    1    3    3    0  502 -0.13484430308E+04 -0.58615760892E+03 -0.99683958716E+03  0.17763919929E+04  0.50400001928E-02 0.  1.
</event>
<event>
 5   0  0.4115358E-07  0.3604277E+04  0.7818609E-02  0.8089513E-01
       -2   -1    0    0    0  501  0.00000000000E+00  0.00000000000E+00  0.16621420464E+04  0.16621420464E+04  0.25500000920E-02 0. -1.
        2   -1    0    0  501    0  0.00000000000E+00  0.00000000000E+00 -0.19539261566E+04  0.19539261566E+04  0.25500000920E-02 0.  1.
    10030    2    1    2    0    0  0.00000000000E+00  0.00000000000E+00 -0.29178411021E+03  0.36160682030E+04  0.36042768042E+04 0.  0.
        3    1    3    3  502    0 -0.15920661062E+04  0.75083077843E+03  0.24174155132E+03  0.17767555634E+04  0.10100000352E+00 0. -1.
       -3    1    3    3    0  502  0.15920661062E+04 -0.75083077843E+03 -0.53352566154E+03  0.18393126396E+04  0.10100000352E+00 0.  1.
</event>
<event>
 5   0  0.3993751E-07  0.3596146E+04  0.7818609E-02  0.8091375E-01
       -2   -1    0    0    0  501  0.00000000000E+00  0.00000000000E+00  0.21311488594E+04  0.21311488594E+04  0.25500000920E-02 0.  1.
        2   -1    0    0  501    0  0.00000000000E+00  0.00000000000E+00 -0.15170533918E+04  0.15170533918E+04  0.25500000920E-02 0. -1.
    10030    2    1    2    0    0  0.00000000000E+00  0.00000000000E+00  0.61409546757E+03  0.36482022511E+04  0.35961460513E+04 0.  0.
        1    1    3    3  502    0 -0.84986514405E+03 -0.13583715402E+03  0.19086164879E+04  0.20936903767E+04  0.50400001928E-02 0.  1.
       -1    1    3    3    0  502  0.84986514405E+03  0.13583715402E+03 -0.12945210204E+04  0.15545118744E+04  0.50400001928E-02 0. -1.
</event>
<event>
 5   0  0.4120440E-07  0.3696021E+04  0.7818609E-02  0.8068844E-01
        2   -1    0    0  501    0  0.00000000000E+00  0.00000000000E+00  0.17778636716E+04  0.17778636716E+04  0.25500000920E-02 0.  1.
       -2   -1    0    0    0  501  0.00000000000E+00  0.00000000000E+00 -0.19209254560E+04  0.19209254560E+04  0.25500000920E-02 0. -1.
    10030    2    1    2    0    0  0.00000000000E+00  0.00000000000E+00 -0.14306178446E+03  0.36987891276E+04  0.36960214199E+04 0.  0.
        2    1    3    3  502    0 -0.13287361955E+04  0.20210332848E+03 -0.13408489139E+04  0.18984892526E+04  0.25500000920E-02 0. -1.
       -2    1    3    3    0  502  0.13287361955E+04 -0.20210332848E+03  0.11977871294E+04  0.18002998750E+04  0.25500000920E-02 0.  1.
</event>
<event>
 5   0  0.1298250E-07  0.3576653E+04  0.7818609E-02  0.8095861E-01
       -1   -1    0    0    0  501  0.00000000000E+00  0.00000000000E+00  0.13910524482E+04  0.13910524482E+04  0.50400001928E-02 0. -1.
        1   -1    0    0  501    0  0.00000000000E+00  0.00000000000E+00 -0.22990584350E+04  0.22990584350E+04  0.50400001928E-02 0.  1.
    10030    2    1    2    0    0  0.00000000000E+00  0.00000000000E+00 -0.90800598678E+03  0.36901108832E+04  0.35766525493E+04 0.  0.
        2    1    3    3  502    0  0.36050773376E+03 -0.81214561974E+03  0.11471830891E+04  0.14510600862E+04  0.25500000920E-02 0. -1.
       -2    1    3    3    0  502 -0.36050773376E+03  0.81214561974E+03 -0.20551890759E+04  0.22390507970E+04  0.25500000920E-02 0.  1.
</event>
<event>
 5   0  0.1348226E-07  0.3578255E+04  0.7818609E-02  0.8095491E-01
        1   -1    0    0  501    0  0.00000000000E+00  0.00000000000E+00  0.18647159953E+04  0.18647159953E+04  0.50400001928E-02 0.  1.
       -1   -1    0    0    0  501  0.00000000000E+00  0.00000000000E+00 -0.17166029371E+04  0.17166029372E+04  0.50400001928E-02 0. -1.
    10030    2    1    2    0    0  0.00000000000E+00  0.00000000000E+00  0.14811305811E+03  0.35813189324E+04  0.35782548564E+04 0.  0.
        4    1    3    3  502    0 -0.15570722202E+04 -0.78644836870E+03 -0.32377649457E+03  0.17742062357E+04  0.12699999809E+01 0. -1.
       -4    1    3    3    0  502  0.15570722202E+04  0.78644836870E+03  0.47188955268E+03  0.18071126967E+04  0.12699999809E+01 0.  1.
</event>
<event>
 5   0  0.3880259E-07  0.3591744E+04  0.7818609E-02  0.8092385E-01
        2   -1    0    0  501    0  0.00000000000E+00  0.00000000000E+00  0.23350104594E+04  0.23350104594E+04  0.25500000920E-02 0.  1.
       -2   -1    0    0    0  501  0.00000000000E+00  0.00000000000E+00 -0.13812169954E+04  0.13812169954E+04  0.25500000920E-02 0. -1.
    10030    2    1    2    0    0  0.00000000000E+00  0.00000000000E+00  0.95379346394E+03  0.37162274548E+04  0.35917439391E+04 0.  0.
        5    1    3    3  502    0  0.84755283961E+03  0.67102115354E+03 -0.10068619248E+04  0.14772976105E+04  0.46999998093E+01 0. -1.
       -5    1    3    3    0  502 -0.84755283961E+03 -0.67102115354E+03  0.19606553887E+04  0.22389298443E+04  0.46999998093E+01 0.  1.
</event>
<event>
 5   0  0.1298250E-07  0.3590284E+04  0.7818609E-02  0.8092721E-01
       -4   -1    0    0    0  501  0.00000000000E+00  0.00000000000E+00  0.28473267191E+04  0.28473270023E+04  0.12699999809E+01 0. -1.
        4   -1    0    0  501    0  0.00000000000E+00  0.00000000000E+00 -0.11317746544E+04  0.11317753670E+04  0.12699999809E+01 0.  1.
    10030    2    1    2    0    0  0.00000000000E+00  0.00000000000E+00  0.17155520647E+04  0.39791023693E+04  0.35902836627E+04 0.  0.
        3    1    3    3  502    0 -0.44273371954E+03  0.24409830584E+03  0.27667961967E+04  0.28126070351E+04  0.10100000352E+00 0. -1.
       -3    1    3    3    0  502  0.44273371954E+03 -0.24409830584E+03 -0.10512441320E+04  0.11664953342E+04  0.10100000352E+00 0.  1.
</event>
<event>
 5   0  0.1361743E-07  0.3597216E+04  0.7818609E-02  0.8091130E-01
       -1   -1    0    0    0  501  0.00000000000E+00  0.00000000000E+00  0.16490608957E+04  0.16490608957E+04  0.50400001928E-02 0.  1.
        1   -1    0    0  501    0  0.00000000000E+00  0.00000000000E+00 -0.19617166042E+04  0.19617166042E+04  0.50400001928E-02 0. -1.
    10030    2    1    2    0    0  0.00000000000E+00  0.00000000000E+00 -0.31265570850E+03  0.36107775000E+04  0.35972156680E+04 0.  0.
        5    1    3    3  502    0 -0.16913699944E+04  0.57664552708E+03 -0.36134166945E+03  0.18231408102E+04  0.46999998093E+01 0.  1.
       -5    1    3    3    0  502  0.16913699944E+04 -0.57664552708E+03  0.48685960947E+02  0.17876366898E+04  0.46999998093E+01 0. -1.
</event>
<event>
 5   0  0.1348226E-07  0.3567193E+04  0.7818609E-02  0.8098048E-01
        1   -1    0    0  501    0  0.00000000000E+00  0.00000000000E+00  0.18862610798E+04  0.18862610798E+04  0.50400001928E-02 0.  1.
       -1   -1    0    0    0  501  0.00000000000E+00  0.00000000000E+00 -0.16865195105E+04  0.16865195105E+04  0.50400001928E-02 0. -1.
    10030    2    1    2    0    0  0.00000000000E+00  0.00000000000E+00  0.19974156923E+03  0.35727805903E+04  0.35671927972E+04 0.  0.
        4    1    3    3  502    0  0.30160378043E+03  0.85785764468E+03 -0.14369153198E+04  0.17004740010E+04  0.12699999809E+01 0. -1.
       -4    1    3    3    0  502 -0.30160378043E+03 -0.85785764468E+03  0.16366568891E+04  0.18723065893E+04  0.12699999809E+01 0.  1.
</event>
<event>
 5   0  0.1370997E-07  0.3644810E+04  0.7818609E-02  0.8080304E-01
        1   -1    0    0  501    0  0.00000000000E+00  0.00000000000E+00  0.27560041430E+04  0.27560041430E+04  0.50400001928E-02 0.  1.
       -1   -1    0    0    0  501  0.00000000000E+00  0.00000000000E+00 -0.12050637288E+04  0.12050637288E+04  0.50400001928E-02 0. -1.
    10030    2    1    2    0    0  0.00000000000E+00  0.00000000000E+00  0.15509404142E+04  0.39610678719E+04  0.36448103540E+04 0.  0.
        3    1    3    3  502    0  0.10271947144E+03 -0.17849927929E+04  0.39214701594E+03  0.18304452608E+04  0.10100000352E+00 0. -1.
       -3    1    3    3    0  502 -0.10271947144E+03  0.17849927929E+04  0.11587933983E+04  0.21306226110E+04  0.10100000352E+00 0.  1.
</event>
<event>
 5   0  0.1361743E-07  0.3614368E+04  0.7818609E-02  0.8087209E-01
       -1   -1    0    0    0  501  0.00000000000E+00  0.00000000000E+00  0.16116642471E+04  0.16116642471E+04  0.50400001928E-02 0.  1.
        1   -1    0    0  501    0  0.00000000000E+00  0.00000000000E+00 -0.20264228673E+04  0.20264228673E+04  0.50400001928E-02 0. -1.
    10030    2    1    2    0    0  0.00000000000E+00  0.00000000000E+00 -0.41475862021E+03  0.36380871144E+04  0.36143675988E+04 0.  0.
        5    1    3    3  502    0 -0.86060652016E+03  0.11648825246E+04 -0.12953502050E+04  0.19430772301E+04  0.46999998093E+01 0. -1.
       -5    1    3    3    0  502  0.86060652016E+03 -0.11648825246E+04  0.88059158475E+03  0.16950098843E+04  0.46999998093E+01 0.  1.
</event>
<event>
 5   0  0.1298250E-07  0.3601571E+04  0.7818609E-02  0.8090132E-01
        1   -1    0    0  501    0  0.00000000000E+00  0.00000000000E+00  0.12889061012E+04  0.12889061012E+04  0.50400001928E-02 0. -1.
       -1   -1    0    0    0  501  0.00000000000E+00  0.00000000000E+00 -0.25159536225E+04  0.25159536225E+04  0.50400001928E-02 0.  1.
    10030    2    1    2    0    0  0.00000000000E+00  0.00000000000E+00 -0.12270475213E+04  0.38048597237E+04  0.36015707542E+04 0.  0.
        1    1    3    3  502    0  0.53737828400E+03  0.81554303891E+03  0.98479759791E+03  0.13869795158E+04  0.50400001928E-02 0. -1.
       -1    1    3    3    0  502 -0.53737828400E+03 -0.81554303891E+03 -0.22118451192E+04  0.24178802079E+04  0.50400001928E-02 0.  1.
</event>
<event>
 5   0  0.3993751E-07  0.3602942E+04  0.7818609E-02  0.8089818E-01
       -2   -1    0    0    0  501  0.00000000000E+00  0.00000000000E+00  0.20817741712E+04  0.20817741712E+04  0.25500000920E-02 0.  1.
        2   -1    0    0  501    0  0.00000000000E+00  0.00000000000E+00 -0.15589098156E+04  0.15589098156E+04  0.25500000920E-02 0. -1.
    10030    2    1    2    0    0  0.00000000000E+00  0.00000000000E+00  0.52286435562E+03  0.36406839868E+04  0.36029422362E+04 0.  0.
        1    1    3    3  502    0 -0.11736567231E+03 -0.10769242953E+04  0.17158699653E+04  0.20292240824E+04  0.50400001928E-02 0.  1.
       -1    1    3    3    0  502  0.11736567231E+03  0.10769242953E+04 -0.11930056096E+04  0.16114599044E+04  0.50400001928E-02 0. -1.
</event>
<event>
 5   0  0.1298250E-07  0.3579838E+04  0.7818609E-02  0.8095126E-01
       -1   -1    0    0    0  501  0.00000000000E+00  0.00000000000E+00  0.12297521633E+04  0.12297521634E+04  0.50400001928E-02 0.  1.
        1   -1    0    0  501    0  0.00000000000E+00  0.00000000000E+00 -0.26052482053E+04  0.26052482053E+04  0.50400001928E-02 0. -1.
    10030    2    1    2    0    0  0.00000000000E+00  0.00000000000E+00 -0.13754960419E+04  0.38350003687E+04  0.35798377709E+04 0.  0.
        1    1    3    3  502    0 -0.63738807466E+03 -0.10061530055E+03 -0.24763078574E+04  0.25590012897E+04  0.50400001928E-02 0. -1.
       -1    1    3    3    0  502  0.63738807466E+03  0.10061530055E+03  0.11008118154E+04  0.12759990789E+04  0.50400001928E-02 0.  1.
</event>
<event>
 5   0  0.4200635E-07  0.3594362E+04  0.7818609E-02  0.8091784E-01
       -2   -1    0    0    0  501  0.00000000000E+00  0.00000000000E+00  0.14323871521E+04  0.14323871521E+04  0.25500000920E-02 0.  1.
        2   -1    0    0  501    0  0.00000000000E+00  0.00000000000E+00 -0.22548787607E+04  0.22548787607E+04  0.25500000920E-02 0. -1.
    10030    2    1    2    0    0  0.00000000000E+00  0.00000000000E+00 -0.82249160856E+03  0.36872659128E+04  0.35943618997E+04 0.  0.
        4    1    3    3  502    0  0.12871034065E+04  0.98090678896E+03 -0.12131436688E+04  0.20225064850E+04  0.12699999809E+01 0. -1.
       -4    1    3    3    0  502 -0.12871034065E+04 -0.98090678896E+03  0.39065206025E+03  0.16647594279E+04  0.12699999809E+01 0.  1.
</event>
<event>
 5   0  0.3880259E-07  0.3622016E+04  0.7818609E-02  0.8085467E-01
        2   -1    0    0  501    0  0.00000000000E+00  0.00000000000E+00  0.18212374980E+04  0.18212374980E+04  0.25500000920E-02 0.  1.
       -2   -1    0    0    0  501  0.00000000000E+00  0.00000000000E+00 -0.18008364456E+04  0.18008364456E+04  0.25500000920E-02 0. -1.
    10030    2    1    2    0    0  0.00000000000E+00  0.00000000000E+00  0.20401052382E+02  0.36220739436E+04  0.36220164895E+04 0.  0.
        5    1    3    3  502    0  0.88165065266E+03  0.15147373543E+03 -0.15644598399E+04  0.18021678186E+04  0.46999998093E+01 0. -1.
       -5    1    3    3    0  502 -0.88165065266E+03 -0.15147373543E+03  0.15848608923E+04  0.18199061250E+04  0.46999998093E+01 0.  1.
</event>
<event>
 5   0  0.1298250E-07  0.3609430E+04  0.7818609E-02  0.8088335E-01
        1   -1    0    0  501    0  0.00000000000E+00  0.00000000000E+00  0.19787784098E+04  0.19787784098E+04  0.50400001928E-02 0.  1.
       -1   -1    0    0    0  501  0.00000000000E+00  0.00000000000E+00 -0.16459626711E+04  0.16459626711E+04  0.50400001928E-02 0. -1.
    10030    2    1    2    0    0  0.00000000000E+00  0.00000000000E+00  0.33281573870E+03  0.36247410809E+04  0.36094295377E+04 0.  0.
        2    1    3    3  502    0  0.50728495822E+03  0.30494675831E+03  0.18785345721E+04  0.19695742415E+04  0.25500000920E-02 0.  1.
       -2    1    3    3    0  502 -0.50728495822E+03 -0.30494675831E+03 -0.15457188334E+04  0.16551668394E+04  0.25500000920E-02 0. -1.
</event>
<event>
 5   0  0.1298250E-07  0.3580156E+04  0.7818609E-02  0.8095052E-01
       -1   -1    0    0    0  501  0.00000000000E+00  0.00000000000E+00  0.19518664412E+04  0.19518664412E+04  0.50400001928E-02 0. -1.
        1   -1    0    0  501    0  0.00000000000E+00  0.00000000000E+00 -0.16417001860E+04  0.16417001860E+04  0.50400001928E-02 0.  1.
    10030    2    1    2    0    0  0.00000000000E+00  0.00000000000E+00  0.31016625515E+03  0.35935666272E+04  0.35801561416E+04 0.  0.
        1    1    3    3  502    0 -0.17115013652E+04 -0.45216044439E+03 -0.11179532038E+03  0.17737486248E+04  0.50400001928E-02 0. -1.
       -1    1    3    3    0  502  0.17115013652E+04  0.45216044439E+03  0.42196157553E+03  0.18198180023E+04  0.50400001928E-02 0.  1.
</event>
<event>
 5   0  0.4120440E-07  0.3532758E+04  0.7818609E-02  0.8106070E-01
        2   -1    0    0  501    0  0.00000000000E+00  0.00000000000E+00  0.15779522454E+04  0.15779522454E+04  0.25500000920E-02 0. -1.
       -2   -1    0    0    0  501  0.00000000000E+00  0.00000000000E+00 -0.19773061388E+04  0.19773061388E+04  0.25500000920E-02 0.  1.
    10030    2    1    2    0    0  0.00000000000E+00  0.00000000000E+00 -0.39935389341E+03  0.35552583841E+04  0.35327579376E+04 0.  0.
        2    1    3    3  502    0 -0.32558075308E+03 -0.86243731034E+03 -0.17160229550E+04  0.19479568073E+04  0.25500000920E-02 0.  1.
       -2    1    3    3    0  502  0.32558075308E+03  0.86243731034E+03  0.13166690616E+04  0.16073015768E+04  0.25500000920E-02 0. -1.
</event>
<event>
 5   0  0.1370997E-07  0.3602386E+04  0.7818609E-02  0.8089945E-01
       -1   -1    0    0    0  501  0.00000000000E+00  0.00000000000E+00  0.18575022779E+04  0.18575022779E+04  0.50400001928E-02 0. -1.
        1   -1    0    0  501    0  0.00000000000E+00  0.00000000000E+00 -0.17465905488E+04  0.17465905488E+04  0.50400001928E-02 0.  1.
    10030    2    1    2    0    0  0.00000000000E+00  0.00000000000E+00  0.11091172909E+03  0.36040928266E+04  0.36023858332E+04 0.  0.
        3    1    3    3  502    0 -0.80823455671E+03  0.11966717039E+04  0.11325483961E+04  0.18351926725E+04  0.10100000352E+00 0. -1.
       -3    1    3    3    0  502  0.80823455671E+03 -0.11966717039E+04 -0.10216366670E+04  0.17689001541E+04  0.10100000352E+00 0.  1.
</event>
<event>
 5   0  0.1370997E-07  0.3647503E+04  0.7818609E-02  0.8079696E-01
        1   -1    0    0  501    0  0.00000000000E+00  0.00000000000E+00  0.27676842821E+04  0.27676842821E+04  0.50400001928E-02 0.  1.
       -1   -1    0    0    0  501  0.00000000000E+00  0.00000000000E+00 -0.12017517973E+04  0.12017517973E+04  0.50400001928E-02 0. -1.
    10030    2    1    2    0    0  0.00000000000E+00  0.00000000000E+00  0.15659324848E+04  0.39694360794E+04  0.36475030146E+04 0.  0.
        3    1    3    3  502    0  0.10020334640E+04 -0.14113074661E+04  0.14083233380E+04  0.22314198309E+04  0.10100000352E+00 0.  1.
       -3    1    3    3    0  502 -0.10020334640E+04  0.14113074661E+04  0.15760914679E+03  0.17380162486E+04  0.10100000352E+00 0. -1.
</event>
<event>
 5   0  0.4120440E-07  0.3669141E+04  0.7818609E-02  0.8074835E-01
        2   -1    0    0  501    0  0.00000000000E+00  0.00000000000E+00  0.33046756867E+04  0.33046756867E+04  0.25500000920E-02 0. -1.
       -2   -1    0    0    0  501  0.00000000000E+00  0.00000000000E+00 -0.10184507219E+04  0.10184507219E+04  0.25500000920E-02 0.  1.
    10030    2    1    2    0    0  0.00000000000E+00  0.00000000000E+00  0.22862249648E+04  0.43231264085E+04  0.36691412285E+04 0.  0.
        2    1    3    3  502    0  0.12400587201E+02  0.55904255029E+03  0.32018195734E+04  0.32502816691E+04  0.25500000920E-02 0. -1.
       -2    1    3    3    0  502 -0.12400587201E+02 -0.55904255029E+03 -0.91559460864E+03  0.10728447395E+04  0.25500000920E-02 0.  1.
</event>
<event>
 5   0  0.1361743E-07  0.3600942E+04  0.7818609E-02  0.8090276E-01
        1   -1    0    0  501    0  0.00000000000E+00  0.00000000000E+00  0.22033502254E+04  0.22033502254E+04  0.50400001928E-02 0.  1.
       -1   -1    0    0    0  501  0.00000000000E+00  0.00000000000E+00 -0.14712575683E+04  0.14712575683E+04  0.50400001928E-02 0. -1.
    10030    2    1    2    0    0  0.00000000000E+00  0.00000000000E+00  0.73209265714E+03  0.36746077937E+04  0.36009419294E+04 0.  0.
        5    1    3    3  502    0  0.46383737381E+03  0.46915236903E+03 -0.13434633323E+04  0.14967180329E+04  0.46999998093E+01 0. -1.
       -5    1    3    3    0  502 -0.46383737381E+03 -0.46915236903E+03  0.20755559895E+04  0.21778897608E+04  0.46999998093E+01 0.  1.
</event>
<event>
 5   0  0.4115358E-07  0.3585327E+04  0.7818609E-02  0.8093861E-01
       -2   -1    0    0    0  501  0.00000000000E+00  0.00000000000E+00  0.14448754916E+04  0.14448754916E+04  0.25500000920E-02 0.  1.
        2   -1    0    0  501    0  0.00000000000E+00  0.00000000000E+00 -0.22241651138E+04  0.22241651138E+04  0.25500000920E-02 0. -1.
    10030    2    1    2    0    0  0.00000000000E+00  0.00000000000E+00 -0.77928962221E+03  0.36690406054E+04  0.35853265749E+04 0.  0.
        3    1    3    3  502    0  0.16523542756E+04 -0.54250110918E+03  0.55317373394E+02  0.17400121056E+04  0.10100000352E+00 0.  1.
       -3    1    3    3    0  502 -0.16523542756E+04  0.54250110918E+03 -0.83460699561E+03  0.19290284998E+04  0.10100000352E+00 0. -1.
</event>
<event>
 5   0  0.4115358E-07  0.3585506E+04  0.7818609E-02  0.8093820E-01
        2   -1    0    0  501    0  0.00000000000E+00  0.00000000000E+00  0.20388497535E+04  0.20388497535E+04  0.25500000920E-02 0.  1.
       -2   -1    0    0    0  501  0.00000000000E+00  0.00000000000E+00 -0.15763609318E+04  0.15763609318E+04  0.25500000920E-02 0. -1.
    10030    2    1    2    0    0  0.00000000000E+00  0.00000000000E+00  0.46248882172E+03  0.36152106853E+04  0.35855058763E+04 0.  0.
        3    1    3    3  502    0 -0.11740356002E+04 -0.13345496048E+04 -0.43165497611E+01  0.17774703601E+04  0.10100000352E+00 0. -1.
       -3    1    3    3    0  502  0.11740356002E+04  0.13345496048E+04  0.46680537148E+03  0.18377403253E+04  0.10100000352E+00 0.  1.
</event>
<event>
 5   0  0.4120440E-07  0.3594414E+04  0.7818609E-02  0.8091772E-01
       -2   -1    0    0    0  501  0.00000000000E+00  0.00000000000E+00  0.18854411381E+04  0.18854411381E+04  0.25500000920E-02 0.  1.
        2   -1    0    0  501    0  0.00000000000E+00  0.00000000000E+00 -0.17131019564E+04  0.17131019564E+04  0.25500000920E-02 0. -1.
    10030    2    1    2    0    0  0.00000000000E+00  0.00000000000E+00  0.17233918167E+03  0.35985430945E+04  0.35944139452E+04 0.  0.
        2    1    3    3  502    0 -0.60009794245E+03  0.23197490078E+03 -0.15938591709E+04  0.17188126576E+04  0.25500000920E-02 0. -1.
       -2    1    3    3    0  502  0.60009794245E+03 -0.23197490078E+03  0.17661983526E+04  0.18797304370E+04  0.25500000920E-02 0.  1.
</event>
<event>
 5   0  0.1348226E-07  0.3652617E+04  0.7818609E-02  0.8078544E-01
       -1   -1    0    0    0  501  0.00000000000E+00  0.00000000000E+00  0.11346342272E+04  0.11346342272E+04  0.50400001928E-02 0. -1.
        1   -1    0    0  501    0  0.00000000000E+00  0.00000000000E+00 -0.29396277547E+04  0.29396277547E+04  0.50400001928E-02 0.  1.
    10030    2    1    2    0    0  0.00000000000E+00  0.00000000000E+00 -0.18049935275E+04  0.40742619819E+04  0.36526167418E+04 0.  0.
        4    1    3    3  502    0 -0.68376312456E+03 -0.33929464658E+02 -0.27910850419E+04  0.28738198522E+04  0.12699999809E+01 0.  1.
       -4    1    3    3    0  502  0.68376312456E+03  0.33929464658E+02  0.98609151438E+03  0.12004421297E+04  0.12699999809E+01 0. -1.
</event>
<event>
 5   0  0.3993751E-07  0.3607803E+04  0.7818609E-02  0.8088707E-01
       -2   -1    0    0    0  501  0.00000000000E+00  0.00000000000E+00  0.13090556699E+04  0.13090556699E+04  0.25500000920E-02 0.  1.
        2   -1    0    0  501    0  0.00000000000E+00  0.00000000000E+00 -0.24858082628E+04  0.24858082628E+04  0.25500000920E-02 0. -1.
    10030    2    1    2    0    0  0.00000000000E+00  0.00000000000E+00 -0.11767525929E+04  0.37948639327E+04  0.36078034319E+04 0.  0.
        1    1    3    3  502    0 -0.37203455864E+03  0.19098894433E+03 -0.24341162831E+04  0.24697790528E+04  0.50400001928E-02 0. -1.
       -1    1    3    3    0  502  0.37203455864E+03 -0.19098894433E+03  0.12573636902E+04  0.13250848800E+04  0.50400001928E-02 0.  1.
</event>
<event>
 5   0  0.4120440E-07  0.3603657E+04  0.7818609E-02  0.8089655E-01
       -2   -1    0    0    0  501  0.00000000000E+00  0.00000000000E+00  0.16769319464E+04  0.16769319465E+04  0.25500000920E-02 0.  1.
        2   -1    0    0  501    0  0.00000000000E+00  0.00000000000E+00 -0.19360269319E+04  0.19360269320E+04  0.25500000920E-02 0. -1.
    10030    2    1    2    0    0  0.00000000000E+00  0.00000000000E+00 -0.25909498550E+03  0.36129588784E+04  0.36036567047E+04 0.  0.
        2    1    3    3  502    0  0.39416656787E+03 -0.91072528853E+03  0.13782620020E+04  0.16983503704E+04  0.25500000920E-02 0.  1.
       -2    1    3    3    0  502 -0.39416656787E+03  0.91072528853E+03 -0.16373569875E+04  0.19146085080E+04  0.25500000920E-02 0. -1.
</event>
<event>
 5   0  0.3993751E-07  0.3819430E+04  0.7818609E-02  0.8041998E-01
        2   -1    0    0  501    0  0.00000000000E+00  0.00000000000E+00  0.13221020165E+04  0.13221020165E+04  0.25500000920E-02 0.  1.
       -2   -1    0    0    0  501  0.00000000000E+00  0.00000000000E+00 -0.27584946725E+04  0.27584946725E+04  0.25500000920E-02 0. -1.
    10030    2    1    2    0    0  0.00000000000E+00  0.00000000000E+00 -0.14363926559E+04  0.40805966890E+04  0.38194299936E+04 0.  0.
        1    1    3    3  502    0 -0.18601715046E+04  0.36732340408E+03 -0.47492756594E+03  0.19546663917E+04  0.50400001928E-02 0. -1.
       -1    1    3    3    0  502  0.18601715046E+04 -0.36732340408E+03 -0.96146509000E+03  0.21259302973E+04  0.50400001928E-02 0.  1.
</event>
<event>
 5   0  0.4115358E-07  0.3583086E+04  0.7818609E-02  0.8094377E-01
       -2   -1    0    0    0  501  0.00000000000E+00  0.00000000000E+00  0.12699483902E+04  0.12699483902E+04  0.25500000920E-02 0. -1.
        2   -1    0    0  501    0  0.00000000000E+00  0.00000000000E+00 -0.25273672321E+04  0.25273672321E+04  0.25500000920E-02 0.  1.
    10030    2    1    2    0    0  0.00000000000E+00  0.00000000000E+00 -0.12574188419E+04  0.37973156224E+04  0.35830857919E+04 0.  0.
        3    1    3    3  502    0  0.14573019999E+04 -0.10191894802E+04 -0.39858717808E+03  0.18224566015E+04  0.10100000352E+00 0. -1.
       -3    1    3    3    0  502 -0.14573019999E+04  0.10191894802E+04 -0.85883166382E+03  0.19748590209E+04  0.10100000352E+00 0.  1.
</event>
<event>
 5   0  0.1298250E-07  0.3594729E+04  0.7818609E-02  0.8091700E-01
        1   -1    0    0  501    0  0.00000000000E+00  0.00000000000E+00  0.18509053023E+04  0.18509053023E+04  0.50400001928E-02 0.  1.
       -1   -1    0    0    0  501  0.00000000000E+00  0.00000000000E+00 -0.17453720123E+04  0.17453720123E+04  0.50400001928E-02 0. -1.
    10030    2    1    2    0    0  0.00000000000E+00  0.00000000000E+00  0.10553328999E+03  0.35962773147E+04  0.35947285362E+04 0.  0.
        2    1    3    3  502    0 -0.62006014780E+02  0.97864532295E+03  0.15597113821E+04  0.18423601737E+04  0.25500000920E-02 0.  1.
       -2    1    3    3    0  502  0.62006014780E+02 -0.97864532295E+03 -0.14541780921E+04  0.17539171410E+04  0.25500000920E-02 0. -1.
</event>
<event>
 5   0  0.3993751E-07  0.3545848E+04  0.7818609E-02  0.8103010E-01
        2   -1    0    0  501    0  0.00000000000E+00  0.00000000000E+00  0.25924849145E+04  0.25924849145E+04  0.25500000920E-02 0.  1.
       -2   -1    0    0    0  501  0.00000000000E+00  0.00000000000E+00 -0.12124503179E+04  0.12124503179E+04  0.25500000920E-02 0. -1.
    10030    2    1    2    0    0  0.00000000000E+00  0.00000000000E+00  0.13800345966E+04  0.38049352324E+04  0.35458478020E+04 0.  0.
        1    1    3    3  502    0  0.16627992683E+04 -0.37765802744E+03  0.16901864343E+03  0.17135035145E+04  0.50400001928E-02 0. -1.
       -1    1    3    3    0  502 -0.16627992683E+04  0.37765802744E+03  0.12110159531E+04  0.20914317180E+04  0.50400001928E-02 0.  1.
</event>
<event>
 5   0  0.4200635E-07  0.3647808E+04  0.7818609E-02  0.8079628E-01
        2   -1    0    0  501    0  0.00000000000E+00  0.00000000000E+00  0.18599048260E+04  0.18599048260E+04  0.25500000920E-02 0.  1.
       -2   -1    0    0    0  501  0.00000000000E+00  0.00000000000E+00 -0.17885995625E+04  0.17885995625E+04  0.25500000920E-02 0. -1.
    10030    2    1    2    0    0  0.00000000000E+00  0.00000000000E+00  0.71305263523E+02  0.36485043886E+04  0.36478075378E+04 0.  0.
        4    1    3    3  502    0  0.95440701642E+03 -0.13616589352E+04 -0.71390065586E+03  0.18096031521E+04  0.12699999809E+01 0. -1.
       -4    1    3    3    0  502 -0.95440701642E+03  0.13616589352E+04  0.78520591939E+03  0.18389012365E+04  0.12699999809E+01 0.  1.
</event>
<event>
 5   0  0.1298250E-07  0.3587283E+04  0.7818609E-02  0.8093411E-01
        1   -1    0    0  501    0  0.00000000000E+00  0.00000000000E+00  0.21999146462E+04  0.21999146462E+04  0.50400001928E-02 0.  1.
       -1   -1    0    0    0  501  0.00000000000E+00  0.00000000000E+00 -0.14623978608E+04  0.14623978608E+04  0.50400001928E-02 0. -1.
    10030    2    1    2    0    0  0.00000000000E+00  0.00000000000E+00  0.73751678539E+03  0.36623125071E+04  0.35872833580E+04 0.  0.
        1    1    3    3  502    0 -0.96054539405E+03  0.13094378001E+04 -0.40866420375E+03  0.16745988289E+04  0.50400001928E-02 0. -1.
       -1    1    3    3    0  502  0.96054539405E+03 -0.13094378001E+04  0.11461809891E+04  0.19877136781E+04  0.50400001928E-02 0.  1.
</event>
<event>
 5   0  0.1298250E-07  0.3601504E+04  0.7818609E-02  0.8090147E-01
       -1   -1    0    0    0  501  0.00000000000E+00  0.00000000000E+00  0.22356200010E+04  0.22356200010E+04  0.50400001928E-02 0.  1.
        1   -1    0    0  501    0  0.00000000000E+00  0.00000000000E+00 -0.14504734877E+04  0.14504734877E+04  0.50400001928E-02 0. -1.
    10030    2    1    2    0    0  0.00000000000E+00  0.00000000000E+00  0.78514651332E+03  0.36860934887E+04  0.36015038748E+04 0.  0.
        2    1    3    3  502    0 -0.47676051271E+00  0.69969463214E+03 -0.13056555064E+04  0.14813200556E+04  0.25500000920E-02 0. -1.
       -2    1    3    3    0  502  0.47676051271E+00 -0.69969463214E+03  0.20908020198E+04  0.22047734331E+04  0.25500000920E-02 0.  1.
</event>
<event>
 5   0  0.1361743E-07  0.3607226E+04  0.7818609E-02  0.8088838E-01
        1   -1    0    0  501    0  0.00000000000E+00  0.00000000000E+00  0.31872742448E+04  0.31872742448E+04  0.50400001928E-02 0.  1.
       -1   -1    0    0    0  501  0.00000000000E+00  0.00000000000E+00 -0.10206277911E+04  0.10206277911E+04  0.50400001928E-02 0. -1.
    10030    2    1    2    0    0  0.00000000000E+00  0.00000000000E+00  0.21666464537E+04  0.42079020358E+04  0.36072264536E+04 0.  0.
        5    1    3    3  502    0  0.14278525711E+03 -0.57112524357E+03  0.30720353266E+04  0.31279377889E+04  0.46999998093E+01 0.  1.
       -5    1    3    3    0  502 -0.14278525711E+03  0.57112524357E+03 -0.90538887288E+03  0.10799642469E+04  0.46999998093E+01 0. -1.
</event>
<event>
 5   0  0.1370997E-07  0.3575824E+04  0.7818609E-02  0.8096052E-01
       -1   -1    0    0    0  501  0.00000000000E+00  0.00000000000E+00  0.14015475958E+04  0.14015475958E+04  0.50400001928E-02 0.  1.
        1   -1    0    0  501    0  0.00000000000E+00  0.00000000000E+00 -0.22807853262E+04  0.22807853262E+04  0.50400001928E-02 0. -1.
    10030    2    1    2    0    0  0.00000000000E+00  0.00000000000E+00 -0.87923773047E+03  0.36823329220E+04  0.35758239277E+04 0.  0.
        3    1    3    3  502    0  0.97487003661E+03 -0.12592985249E+04 -0.12764900548E+04  0.20409878082E+04  0.10100000352E+00 0. -1.
       -3    1    3    3    0  502 -0.97487003661E+03  0.12592985249E+04  0.39725232436E+03  0.16413451138E+04  0.10100000352E+00 0.  1.
</event>
<event>
 5   0  0.4200635E-07  0.3598785E+04  0.7818609E-02  0.8090770E-01
        2   -1    0    0  501    0  0.00000000000E+00  0.00000000000E+00  0.14522981646E+04  0.14522981646E+04  0.25500000920E-02 0.  1.
       -2   -1    0    0    0  501  0.00000000000E+00  0.00000000000E+00 -0.22294416603E+04  0.22294416603E+04  0.25500000920E-02 0. -1.
    10030    2    1    2    0    0  0.00000000000E+00  0.00000000000E+00 -0.77714349574E+03  0.36817398249E+04  0.35987853680E+04 0.  0.
        4    1    3    3  502    0 -0.43919009206E+03  0.13057906286E+04  0.79562226120E+03  0.15909096449E+04  0.12699999809E+01 0.  1.
       -4    1    3    3    0  502  0.43919009206E+03 -0.13057906286E+04 -0.15727657569E+04  0.20908301800E+04  0.12699999809E+01 0. -1.
</event>
<event>
 5   0  0.1298250E-07  0.3605618E+04  0.7818609E-02  0.8089206E-01
        1   -1    0    0  501    0  0.00000000000E+00  0.00000000000E+00  0.18145535093E+04  0.18145535093E+04  0.50400001928E-02 0. -1.
       -1   -1    0    0    0  501  0.00000000000E+00  0.00000000000E+00 -0.17911400782E+04  0.17911400782E+04  0.50400001928E-02 0.  1.
    10030    2    1    2    0    0  0.00000000000E+00  0.00000000000E+00  0.23413431027E+02  0.36056935875E+04  0.36056175696E+04 0.  0.
        1    1    3    3  502    0  0.47640724582E+03  0.93959528634E+03 -0.14513061343E+04  0.17933467767E+04  0.50400001928E-02 0.  1.
       -1    1    3    3    0  502 -0.47640724582E+03 -0.93959528634E+03  0.14747195654E+04  0.18123468108E+04  0.50400001928E-02 0. -1.
</event>
<event>
 5   0  0.3880259E-07  0.3678865E+04  0.7818609E-02  0.8072662E-01
        2   -1    0    0  501    0  0.00000000000E+00  0.00000000000E+00  0.23434411070E+04  0.23434411070E+04  0.25500000920E-02 0. -1.
       -2   -1    0    0    0  501  0.00000000000E+00  0.00000000000E+00 -0.14438217912E+04  0.14438217912E+04  0.25500000920E-02 0.  1.
    10030    2    1    2    0    0  0.00000000000E+00  0.00000000000E+00  0.89961931586E+03  0.37872628982E+04  0.36788646818E+04 0.  0.
        5    1    3    3  502    0 -0.16000239124E+04 -0.88119822365E+02 -0.47993336346E+03  0.16727820380E+04  0.46999998093E+01 0. -1.
       -5    1    3    3    0  502  0.16000239124E+04  0.88119822365E+02  0.13795526793E+04  0.21144808602E+04  0.46999998093E+01 0.  1.
</event>
<event>
 5   0  0.3880259E-07  0.3604716E+04  0.7818609E-02  0.8089412E-01
        2   -1    0    0  501    0  0.00000000000E+00  0.00000000000E+00  0.15474929591E+04  0.15474929591E+04  0.25500000920E-02 0. -1.
       -2   -1    0    0    0  501  0.00000000000E+00  0.00000000000E+00 -0.20991982535E+04  0.20991982535E+04  0.25500000920E-02 0.  1.
    10030    2    1    2    0    0  0.00000000000E+00  0.00000000000E+00 -0.55170529440E+03  0.36466912125E+04  0.36047160870E+04 0.  0.
        5    1    3    3  502    0 -0.62178277512E+02 -0.19436866044E+03  0.15357614820E+04  0.15492678058E+04  0.46999998093E+01 0. -1.
       -5    1    3    3    0  502  0.62178277512E+02  0.19436866044E+03 -0.20874667764E+04  0.20974234067E+04  0.46999998093E+01 0.  1.
</event>
<event>
 5   0  0.3880259E-07  0.3762513E+04  0.7818609E-02  0.8054248E-01
        2   -1    0    0  501    0  0.00000000000E+00  0.00000000000E+00  0.16148101719E+04  0.16148101719E+04  0.25500000920E-02 0. -1.
       -2   -1    0    0    0  501  0.00000000000E+00  0.00000000000E+00 -0.21916668696E+04  0.21916668696E+04  0.25500000920E-02 0.  1.
    10030    2    1    2    0    0  0.00000000000E+00  0.00000000000E+00 -0.57685669777E+03  0.38064770415E+04  0.37625129658E+04 0.  0.
        5    1    3    3  502    0 -0.50114108168E+03  0.62133421858E+03  0.14349745736E+04  0.16420635529E+04  0.46999998093E+01 0. -1.
       -5    1    3    3    0  502  0.50114108168E+03 -0.62133421858E+03 -0.20118312714E+04  0.21644134886E+04  0.46999998093E+01 0.  1.
</event>
<event>
 5   0  0.4120440E-07  0.3593730E+04  0.7818609E-02  0.8091929E-01
       -2   -1    0    0    0  501  0.00000000000E+00  0.00000000000E+00  0.17260620703E+04  0.17260620703E+04  0.25500000920E-02 0. -1.
        2   -1    0    0  501    0  0.00000000000E+00  0.00000000000E+00 -0.18705722782E+04  0.18705722782E+04  0.25500000920E-02 0.  1.
    10030    2    1    2    0    0  0.00000000000E+00  0.00000000000E+00 -0.14451020791E+03  0.35966343484E+04  0.35937300171E+04 0.  0.
        2    1    3    3  502    0  0.27079534710E+03  0.16521343379E+04 -0.72535115754E+03  0.18245581087E+04  0.25500000920E-02 0. -1.
       -2    1    3    3    0  502 -0.27079534710E+03 -0.16521343379E+04  0.58084094963E+03  0.17720762397E+04  0.25500000920E-02 0.  1.
</event>
<event>
 5   0  0.1348226E-07  0.3548735E+04  0.7818609E-02  0.8102337E-01
        1   -1    0    0  501    0  0.00000000000E+00  0.00000000000E+00  0.17303302641E+04  0.17303302641E+04  0.50400001928E-02 0.  1.
       -1   -1    0    0    0  501  0.00000000000E+00  0.00000000000E+00 -0.18195254008E+04  0.18195254008E+04  0.50400001928E-02 0. -1.
    10030    2    1    2    0    0  0.00000000000E+00  0.00000000000E+00 -0.89195136670E+02  0.35498556649E+04  0.35487349111E+04 0.  0.
        4    1    3    3  502    0 -0.15070941652E+04  0.22289033963E+03  0.86528594303E+03  0.17520657243E+04  0.12699999809E+01 0.  1.
       -4    1    3    3    0  502  0.15070941652E+04 -0.22289033963E+03 -0.95448107970E+03  0.17977899406E+04  0.12699999809E+01 0. -1.
</event>
<event>
 5   0  0.3993751E-07  0.3572216E+04  0.7818609E-02  0.8096886E-01
        2   -1    0    0  501    0  0.00000000000E+00  0.00000000000E+00  0.21094445868E+04  0.21094445868E+04  0.25500000920E-02 0.  1.
       -2   -1    0    0    0  501  0.00000000000E+00  0.00000000000E+00 -0.15123324102E+04  0.15123324102E+04  0.25500000920E-02 0. -1.
    10030    2    1    2    0    0  0.00000000000E+00  0.00000000000E+00  0.59711217653E+03  0.36217769970E+04  0.35722157920E+04 0.  0.
        1    1    3    3  502    0 -0.75742620312E+03  0.14629891622E+03 -0.13347203454E+04  0.15416148113E+04  0.50400001928E-02 0. -1.
       -1    1    3    3    0  502  0.75742620312E+03 -0.14629891622E+03  0.19318325219E+04  0.20801621857E+04  0.50400001928E-02 0.  1.
</event>
<event>
 5   0  0.3880259E-07  0.3624967E+04  0.7818609E-02  0.8084796E-01
       -2   -1    0    0    0  501  0.00000000000E+00  0.00000000000E+00  0.16964426669E+04  0.16964426669E+04  0.25500000920E-02 0. -1.
        2   -1    0    0  501    0  0.00000000000E+00  0.00000000000E+00 -0.19364621018E+04  0.19364621018E+04  0.25500000920E-02 0.  1.
    10030    2    1    2    0    0  0.00000000000E+00  0.00000000000E+00 -0.24001943492E+03  0.36329047686E+04  0.36249672728E+04 0.  0.
        5    1    3    3  502    0 -0.68248581430E+03  0.35776443480E+03  0.15240984220E+04  0.17078291388E+04  0.46999998093E+01 0. -1.
       -5    1    3    3    0  502  0.68248581430E+03 -0.35776443480E+03 -0.17641178569E+04  0.19250756298E+04  0.46999998093E+01 0.  1.
</event>
<event>
 5   0  0.4200635E-07  0.3505017E+04  0.7818609E-02  0.8112602E-01
       -2   -1    0    0    0  501  0.00000000000E+00  0.00000000000E+00  0.15300701184E+04  0.15300701184E+04  0.25500000920E-02 0. -1.
        2   -1    0    0  501    0  0.00000000000E+00  0.00000000000E+00 -0.20072846682E+04  0.20072846682E+04  0.25500000920E-02 0.  1.
    10030    2    1    2    0    0  0.00000000000E+00  0.00000000000E+00 -0.47721454981E+03  0.35373547866E+04  0.35050171412E+04 0.  0.
        4    1    3    3  502    0 -0.66844705107E+03 -0.77679515167E+03  0.11961461591E+04  0.15751188572E+04  0.12699999809E+01 0. -1.
       -4    1    3    3    0  502  0.66844705107E+03  0.77679515167E+03 -0.16733607089E+04  0.19622359294E+04  0.12699999809E+01 0.  1.
</event>
<event>
 5   0  0.4115358E-07  0.3607935E+04  0.7818609E-02  0.8088677E-01
       -2   -1    0    0    0  501  0.00000000000E+00  0.00000000000E+00  0.15545968232E+04  0.15545968232E+04  0.25500000920E-02 0.  1.
        2   -1    0    0  501    0  0.00000000000E+00  0.00000000000E+00 -0.20933390774E+04  0.20933390774E+04  0.25500000920E-02 0. -1.
    10030    2    1    2    0    0  0.00000000000E+00  0.00000000000E+00 -0.53874225419E+03  0.36479359006E+04  0.36079347442E+04 0.  0.
        3    1    3    3  502    0 -0.99932904687E+03 -0.14366936735E+04  0.17314668055E+03  0.17586150911E+04  0.10100000352E+00 0.  1.
       -3    1    3    3    0  502  0.99932904687E+03  0.14366936735E+04 -0.71188893474E+03  0.18893208095E+04  0.10100000352E+00 0. -1.
</event>
<event>
 5   0  0.3880259E-07  0.3570725E+04  0.7818609E-02  0.8097230E-01
       -2   -1    0    0    0  501  0.00000000000E+00  0.00000000000E+00  0.12587859197E+04  0.12587859197E+04  0.25500000920E-02 0.  1.
        2   -1    0    0  501    0  0.00000000000E+00  0.00000000000E+00 -0.25322177445E+04  0.25322177445E+04  0.25500000920E-02 0. -1.
    10030    2    1    2    0    0  0.00000000000E+00  0.00000000000E+00 -0.12734318248E+04  0.37910036641E+04  0.35707254402E+04 0.  0.
        5    1    3    3  502    0  0.40727498663E+03  0.19353389841E+03 -0.24707588642E+04  0.25115731604E+04  0.46999998093E+01 0. -1.
       -5    1    3    3    0  502 -0.40727498663E+03 -0.19353389841E+03  0.11973270395E+04  0.12794305038E+04  0.46999998093E+01 0.  1.
</event>
<event>
 5   0  0.1348226E-07  0.3610528E+04  0.7818609E-02  0.8088084E-01
       -1   -1    0    0    0  501  0.00000000000E+00  0.00000000000E+00  0.29036471310E+04  0.29036471311E+04  0.50400001928E-02 0. -1.
        1   -1    0    0  501    0  0.00000000000E+00  0.00000000000E+00 -0.11223742315E+04  0.11223742315E+04  0.50400001928E-02 0.  1.
    10030    2    1    2    0    0  0.00000000000E+00  0.00000000000E+00  0.17812728996E+04  0.40260213625E+04  0.36105283365E+04 0.  0.
        4    1    3    3  502    0  0.63080163014E+03  0.49436209157E+03  0.26944016536E+04  0.28110685616E+04  0.12699999809E+01 0. -1.
       -4    1    3    3    0  502 -0.63080163014E+03 -0.49436209157E+03 -0.91312875404E+03  0.12149528009E+04  0.12699999809E+01 0.  1.
</event>
<event>
 5   0  0.1370997E-07  0.3603312E+04  0.7818609E-02  0.8089734E-01
       -1   -1    0    0    0  501  0.00000000000E+00  0.00000000000E+00  0.15960496030E+04  0.15960496030E+04  0.50400001928E-02 0.  1.
        1   -1    0    0  501    0  0.00000000000E+00  0.00000000000E+00 -0.20337488087E+04  0.20337488087E+04  0.50400001928E-02 0. -1.
    10030    2    1    2    0    0  0.00000000000E+00  0.00000000000E+00 -0.43769920575E+03  0.36297984118E+04  0.36033117982E+04 0.  0.
        3    1    3    3  502    0 -0.17801042019E+04  0.98575089997E+02  0.42821140339E+02  0.17833456419E+04  0.10100000352E+00 0.  1.
       -3    1    3    3    0  502  0.17801042019E+04 -0.98575089997E+02 -0.48052034608E+03  0.18464527699E+04  0.10100000352E+00 0. -1.
</event>
<event>
 5   0  0.1361743E-07  0.3595655E+04  0.7818609E-02  0.8091488E-01
        1   -1    0    0  501    0  0.00000000000E+00  0.00000000000E+00  0.17440552320E+04  0.17440552320E+04  0.50400001928E-02 0.  1.
       -1   -1    0    0    0  501  0.00000000000E+00  0.00000000000E+00 -0.18532572425E+04  0.18532572425E+04  0.50400001928E-02 0. -1.
    10030    2    1    2    0    0  0.00000000000E+00  0.00000000000E+00 -0.10920201053E+03  0.35973124745E+04  0.35956545941E+04 0.  0.
        5    1    3    3  502    0 -0.11798242127E+04 -0.12759128754E+04  0.40628706030E+03  0.17846652638E+04  0.46999998093E+01 0. -1.
       -5    1    3    3    0  502  0.11798242127E+04  0.12759128754E+04 -0.51548907082E+03  0.18126472107E+04  0.46999998093E+01 0.  1.
</event>
<event>
 5   0  0.3993751E-07  0.3550334E+04  0.7818609E-02  0.8101964E-01
        2   -1    0    0  501    0  0.00000000000E+00  0.00000000000E+00  0.17740435232E+04  0.17740435232E+04  0.25500000920E-02 0.  1.
       -2   -1    0    0    0  501  0.00000000000E+00  0.00000000000E+00 -0.17762916202E+04  0.17762916202E+04  0.25500000920E-02 0. -1.
    10030    2    1    2    0    0  0.00000000000E+00  0.00000000000E+00 -0.22480970308E+01  0.35503351434E+04  0.35503344317E+04 0.  0.
        1    1    3    3  502    0 -0.12072357598E+04  0.22390867026E+03  0.12809313445E+04  0.17743557653E+04  0.50400001928E-02 0.  1.
       -1    1    3    3    0  502  0.12072357598E+04 -0.22390867026E+03 -0.12831794415E+04  0.17759793782E+04  0.50400001928E-02 0. -1.
</event>
<event>
 5   0  0.3880259E-07  0.3610511E+04  0.7818609E-02  0.8088088E-01
       -2   -1    0    0    0  501  0.00000000000E+00  0.00000000000E+00  0.14111671809E+04  0.14111671809E+04  0.25500000920E-02 0. -1.
        2   -1    0    0  501    0  0.00000000000E+00  0.00000000000E+00 -0.23093982919E+04  0.23093982919E+04  0.25500000920E-02 0.  1.
    10030    2    1    2    0    0  0.00000000000E+00  0.00000000000E+00 -0.89823111107E+03  0.37205654728E+04  0.36105108099E+04 0.  0.
        5    1    3    3  502    0  0.53842946603E+03 -0.50481281945E+03 -0.21468112296E+04  0.22701459904E+04  0.46999998093E+01 0.  1.
       -5    1    3    3    0  502 -0.53842946603E+03  0.50481281945E+03  0.12485801185E+04  0.14504194824E+04  0.46999998093E+01 0. -1.
</event>
<event>
 5   0  0.1361743E-07  0.3562565E+04  0.7818609E-02  0.8099121E-01
        1   -1    0    0  501    0  0.00000000000E+00  0.00000000000E+00  0.31994901228E+04  0.31994901228E+04  0.50400001928E-02 0. -1.
       -1   -1    0    0    0  501  0.00000000000E+00  0.00000000000E+00 -0.99171006462E+03  0.99171006463E+03  0.50400001928E-02 0.  1.
    10030    2    1    2    0    0  0.00000000000E+00  0.00000000000E+00  0.22077800582E+04  0.41912001874E+04  0.35625645574E+04 0.  0.
        5    1    3    3  502    0 -0.40106124375E+03  0.40740648704E+03  0.30886218401E+04  0.31410885259E+04  0.46999998093E+01 0. -1.
       -5    1    3    3    0  502  0.40106124375E+03 -0.40740648704E+03 -0.88084178187E+03  0.10501116615E+04  0.46999998093E+01 0.  1.
</event>
<event>
 5   0  0.1298250E-07  0.3598470E+04  0.7818609E-02  0.8090842E-01
       -1   -1    0    0    0  501  0.00000000000E+00  0.00000000000E+00  0.10326233723E+04  0.10326233723E+04  0.50400001928E-02 0. -1.
        1   -1    0    0  501    0  0.00000000000E+00  0.00000000000E+00 -0.31349725499E+04  0.31349725499E+04  0.50400001928E-02 0.  1.
    10030    2    1    2    0    0  0.00000000000E+00  0.00000000000E+00 -0.21023491776E+04  0.41675959223E+04  0.35984696340E+04 0.  0.
        1    1    3    3  502    0  0.48282886802E+03  0.69294292354E+03  0.78878521341E+03  0.11556278484E+04  0.50400001928E-02 0. -1.
       -1    1    3    3    0  502 -0.48282886802E+03 -0.69294292354E+03 -0.28911343910E+04  0.30119680739E+04  0.50400001928E-02 0.  1.
</event>
<event>
 5   0  0.4200635E-07  0.3578626E+04  0.7818609E-02  0.8095405E-01
        2   -1    0    0  501    0  0.00000000000E+00  0.00000000000E+00  0.22621336659E+04  0.22621336659E+04  0.25500000920E-02 0. -1.
       -2   -1    0    0    0  501  0.00000000000E+00  0.00000000000E+00 -0.14153193265E+04  0.14153193265E+04  0.25500000920E-02 0.  1.
    10030    2    1    2    0    0  0.00000000000E+00  0.00000000000E+00  0.84681433932E+03  0.36774529924E+04  0.35786262708E+04 0.  0.
        4    1    3    3  502    0  0.17366845636E+04  0.56802540548E+02 -0.15398122510E+02  0.17376819378E+04  0.12699999809E+01 0.  1.
       -4    1    3    3    0  502 -0.17366845636E+04 -0.56802540548E+02  0.86221246183E+03  0.19397710546E+04  0.12699999809E+01 0. -1.
</event>
<event>
 5   0  0.1298250E-07  0.3246485E+04  0.7818609E-02  0.8176647E-01
       -1   -1    0    0    0  501  0.00000000000E+00  0.00000000000E+00  0.16852797739E+04  0.16852797739E+04  0.50400001928E-02 0.  1.
        1   -1    0    0  501    0  0.00000000000E+00  0.00000000000E+00 -0.15634886012E+04  0.15634886012E+04  0.50400001928E-02 0. -1.
    10030    2    1    2    0    0  0.00000000000E+00  0.00000000000E+00  0.12179117268E+03  0.32487683751E+04  0.32464846935E+04 0.  0.
        1    1    3    3  502    0 -0.68808884153E+03  0.13397028673E+04  0.66683427302E+03  0.16470998677E+04  0.50400001928E-02 0.  1.
       -1    1    3    3    0  502  0.68808884153E+03 -0.13397028673E+04 -0.54504310034E+03  0.16016685074E+04  0.50400001928E-02 0. -1.
</event>
<event>
 5   0  0.4200635E-07  0.3605248E+04  0.7818609E-02  0.8089291E-01
        2   -1    0    0  501    0  0.00000000000E+00  0.00000000000E+00  0.26751370848E+04  0.26751370848E+04  0.25500000920E-02 0. -1.
       -2   -1    0    0    0  501  0.00000000000E+00  0.00000000000E+00 -0.12146864681E+04  0.12146864681E+04  0.25500000920E-02 0.  1.
    10030    2    1    2    0    0  0.00000000000E+00  0.00000000000E+00  0.14604506167E+04  0.38898235528E+04  0.36052477402E+04 0.  0.
        4    1    3    3  502    0 -0.10700627575E+04  0.14487646925E+04  0.81022491788E+03  0.19749479664E+04  0.12699999809E+01 0.  1.
       -4    1    3    3    0  502  0.10700627575E+04 -0.14487646925E+04  0.65022569881E+03  0.19148755865E+04  0.12699999809E+01 0. -1.
</event>
<event>
 5   0  0.3993751E-07  0.3595706E+04  0.7818609E-02  0.8091476E-01
       -2   -1    0    0    0  501  0.00000000000E+00  0.00000000000E+00  0.24489522939E+04  0.24489522939E+04  0.25500000920E-02 0. -1.
        2   -1    0    0  501    0  0.00000000000E+00  0.00000000000E+00 -0.13198605680E+04  0.13198605680E+04  0.25500000920E-02 0.  1.
    10030    2    1    2    0    0  0.00000000000E+00  0.00000000000E+00  0.11290917259E+04  0.37688128618E+04  0.35957060867E+04 0.  0.
        1    1    3    3  502    0 -0.16621012999E+04  0.53150758607E+03  0.11105665755E+03  0.17485464325E+04  0.50400001928E-02 0.  1.
       -1    1    3    3    0  502  0.16621012999E+04 -0.53150758607E+03  0.10180350684E+04  0.20202664294E+04  0.50400001928E-02 0. -1.
</event>
<event>
 5   0  0.3880259E-07  0.3596247E+04  0.7818609E-02  0.8091352E-01
       -2   -1    0    0    0  501  0.00000000000E+00  0.00000000000E+00  0.15053830275E+04  0.15053830275E+04  0.25500000920E-02 0.  1.
        2   -1    0    0  501    0  0.00000000000E+00  0.00000000000E+00 -0.21477909876E+04  0.21477909876E+04  0.25500000920E-02 0. -1.
    10030    2    1    2    0    0  0.00000000000E+00  0.00000000000E+00 -0.64240796007E+03  0.36531740151E+04  0.35962469878E+04 0.  0.
        5    1    3    3  502    0 -0.13232438350E+04 -0.33795547729E+03 -0.15093502437E+04  0.20355216530E+04  0.46999998093E+01 0. -1.
       -5    1    3    3    0  502  0.13232438350E+04  0.33795547729E+03  0.86694228362E+03  0.16176523621E+04  0.46999998093E+01 0.  1.
</event>
<event>
 5   0  0.1298250E-07  0.3613465E+04  0.7818609E-02  0.8087414E-01
       -1   -1    0    0    0  501  0.00000000000E+00  0.00000000000E+00  0.15231537827E+04  0.15231537827E+04  0.50400001928E-02 0.  1.
        1   -1    0    0  501    0  0.00000000000E+00  0.00000000000E+00 -0.21431075018E+04  0.21431075018E+04  0.50400001928E-02 0. -1.
    10030    2    1    2    0    0  0.00000000000E+00  0.00000000000E+00 -0.61995371912E+03  0.36662612845E+04  0.36134649843E+04 0.  0.
        1    1    3    3  502    0  0.87829107309E+03 -0.21276098619E+03  0.12773689345E+04  0.15647152588E+04  0.50400001928E-02 0.  1.
       -1    1    3    3    0  502 -0.87829107309E+03  0.21276098619E+03 -0.18973226536E+04  0.21015460257E+04  0.50400001928E-02 0. -1.
</event>
<event>
 5   0  0.4200635E-07  0.3596164E+04  0.7818609E-02  0.8091371E-01
        2   -1    0    0  501    0  0.00000000000E+00  0.00000000000E+00  0.24338689802E+04  0.24338689802E+04  0.25500000920E-02 0.  1.
       -2   -1    0    0    0  501  0.00000000000E+00  0.00000000000E+00 -0.13283783976E+04  0.13283783976E+04  0.25500000920E-02 0. -1.
    10030    2    1    2    0    0  0.00000000000E+00  0.00000000000E+00  0.11054905826E+04  0.37622473778E+04  0.35961640541E+04 0.  0.
        4    1    3    3  502    0  0.21500303780E+03  0.16034501053E+04 -0.26823802174E+03  0.16398877387E+04  0.12699999809E+01 0. -1.
       -4    1    3    3    0  502 -0.21500303780E+03 -0.16034501053E+04  0.13737286044E+04  0.21223596391E+04  0.12699999809E+01 0.  1.
</event>
<event>
 5   0  0.1348226E-07  0.3586901E+04  0.7818609E-02  0.8093499E-01
       -1   -1    0    0    0  501  0.00000000000E+00  0.00000000000E+00  0.18327004116E+04  0.18327004116E+04  0.50400001928E-02 0.  1.
        1   -1    0    0  501    0  0.00000000000E+00  0.00000000000E+00 -0.17550415743E+04  0.17550415743E+04  0.50400001928E-02 0. -1.
    10030    2    1    2    0    0  0.00000000000E+00  0.00000000000E+00  0.77658837345E+02  0.35877419859E+04  0.35869014012E+04 0.  0.
        4    1    3    3  502    0  0.16709814247E+04 -0.64243133492E+03  0.14640396373E+03  0.17961995088E+04  0.12699999809E+01 0.  1.
       -4    1    3    3    0  502 -0.16709814247E+04  0.64243133492E+03 -0.68745126388E+02  0.17915424771E+04  0.12699999809E+01 0. -1.
</event>
<event>
 5   0  0.4200635E-07  0.3634200E+04  0.7818609E-02  0.8082702E-01
       -2   -1    0    0    0  501  0.00000000000E+00  0.00000000000E+00  0.13483884867E+04  0.13483884867E+04  0.25500000920E-02 0. -1.
        2   -1    0    0  501    0  0.00000000000E+00  0.00000000000E+00 -0.24487393539E+04  0.24487393539E+04  0.25500000920E-02 0.  1.
    10030    2    1    2    0    0  0.00000000000E+00  0.00000000000E+00 -0.11003508672E+04  0.37971278407E+04  0.36341997479E+04 0.  0.
        4    1    3    3  502    0 -0.17332317601E+04 -0.54538307136E+03 -0.56872848836E+03  0.19039403182E+04  0.12699999809E+01 0. -1.
       -4    1    3    3    0  502  0.17332317601E+04  0.54538307136E+03 -0.53162237885E+03  0.18931875225E+04  0.12699999809E+01 0.  1.
</event>
<event>
 5   0  0.1298250E-07  0.3661682E+04  0.7818609E-02  0.8076507E-01
       -1   -1    0    0    0  501  0.00000000000E+00  0.00000000000E+00  0.17700849969E+04  0.17700849969E+04  0.50400001928E-02 0. -1.
        1   -1    0    0  501    0  0.00000000000E+00  0.00000000000E+00 -0.18936825845E+04  0.18936825845E+04  0.50400001928E-02 0.  1.
    10030    2    1    2    0    0  0.00000000000E+00  0.00000000000E+00 -0.12359758763E+03  0.36637675814E+04  0.36616821991E+04 0.  0.
        2    1    3    3  502    0  0.16123954277E+04  0.66286362850E+03 -0.62137746061E+03  0.18507612363E+04  0.25500000920E-02 0.  1.
       -2    1    3    3    0  502 -0.16123954277E+04 -0.66286362850E+03  0.49777987298E+03  0.18130063451E+04  0.25500000920E-02 0. -1.
</event>
<event>
 5   0  0.3993751E-07  0.3587602E+04  0.7818609E-02  0.8093338E-01
        2   -1    0    0  501    0  0.00000000000E+00  0.00000000000E+00  0.19032653945E+04  0.19032653945E+04  0.25500000920E-02 0. -1.
       -2   -1    0    0    0  501  0.00000000000E+00  0.00000000000E+00 -0.16906322330E+04  0.16906322330E+04  0.25500000920E-02 0.  1.
    10030    2    1    2    0    0  0.00000000000E+00  0.00000000000E+00  0.21263316141E+03  0.35938976275E+04  0.35876018865E+04 0.  0.
        1    1    3    3  502    0  0.13572868519E+03  0.13460072934E+04  0.12863327456E+04  0.18667645385E+04  0.50400001928E-02 0. -1.
       -1    1    3    3    0  502 -0.13572868519E+03 -0.13460072934E+04 -0.10736995842E+04  0.17271330890E+04  0.50400001928E-02 0.  1.
</event>
<event>
 5   0  0.1370997E-07  0.3546941E+04  0.7818609E-02  0.8102755E-01
       -1   -1    0    0    0  501  0.00000000000E+00  0.00000000000E+00  0.12799192969E+04  0.12799192969E+04  0.50400001928E-02 0. -1.
        1   -1    0    0  501    0  0.00000000000E+00  0.00000000000E+00 -0.24573402369E+04  0.24573402369E+04  0.50400001928E-02 0.  1.
    10030    2    1    2    0    0  0.00000000000E+00  0.00000000000E+00 -0.11774209400E+04  0.37372595338E+04  0.35469407597E+04 0.  0.
        3    1    3    3  502    0 -0.15502523622E+04 -0.83821389151E+03 -0.79762245182E+03  0.19344473372E+04  0.10100000352E+00 0.  1.
       -3    1    3    3    0  502  0.15502523622E+04  0.83821389151E+03 -0.37979848815E+03  0.18028121966E+04  0.10100000352E+00 0. -1.
</event>
<event>
 5   0  0.1298250E-07  0.3604895E+04  0.7818609E-02  0.8089371E-01
       -1   -1    0    0    0  501  0.00000000000E+00  0.00000000000E+00  0.23764705069E+04  0.23764705069E+04  0.50400001928E-02 0. -1.
        1   -1    0    0  501    0  0.00000000000E+00  0.00000000000E+00 -0.13670767220E+04  0.13670767220E+04  0.50400001928E-02 0.  1.
    10030    2    1    2    0    0  0.00000000000E+00  0.00000000000E+00  0.10093937850E+04  0.37435472289E+04  0.36048952886E+04 0.  0.
        1    1    3    3  502    0 -0.13247073384E+04  0.11049305020E+04  0.10473830952E+04  0.20181011607E+04  0.50400001928E-02 0. -1.
       -1    1    3    3    0  502  0.13247073384E+04 -0.11049305020E+04 -0.37989310228E+02  0.17254460682E+04  0.50400001928E-02 0.  1.
</event>
<event>
 5   0  0.1370997E-07  0.3570637E+04  0.7818609E-02  0.8097251E-01
       -1   -1    0    0    0  501  0.00000000000E+00  0.00000000000E+00  0.15894563296E+04  0.15894563296E+04  0.50400001928E-02 0. -1.
        1   -1    0    0  501    0  0.00000000000E+00  0.00000000000E+00 -0.20053156791E+04  0.20053156791E+04  0.50400001928E-02 0.  1.
    10030    2    1    2    0    0  0.00000000000E+00  0.00000000000E+00 -0.41585934949E+03  0.35947720087E+04  0.35706367494E+04 0.  0.
        3    1    3    3  502    0  0.17520639935E+04  0.28351947213E+02  0.13618418111E+03  0.17575773701E+04  0.10100000352E+00 0.  1.
       -3    1    3    3    0  502 -0.17520639935E+04 -0.28351947213E+02 -0.55204353059E+03  0.18371946386E+04  0.10100000352E+00 0. -1.
</event>
<event>
 5   0  0.4115358E-07  0.3291581E+04  0.7818609E-02  0.8165041E-01
        2   -1    0    0  501    0  0.00000000000E+00  0.00000000000E+00  0.24885766554E+04  0.24885766554E+04  0.25500000920E-02 0.  1.
       -2   -1    0    0    0  501  0.00000000000E+00  0.00000000000E+00 -0.10884237529E+04  0.10884237529E+04  0.25500000920E-02 0. -1.
    10030    2    1    2    0    0  0.00000000000E+00  0.00000000000E+00  0.14001529025E+04  0.35770004083E+04  0.32915807404E+04 0.  0.
        3    1    3    3  502    0 -0.52619915796E+03 -0.12958952457E+04 -0.24254579412E+03  0.14195275673E+04  0.10100000352E+00 0. -1.
       -3    1    3    3    0  502  0.52619915796E+03  0.12958952457E+04  0.16426986966E+04  0.21574728411E+04  0.10100000352E+00 0.  1.
</event>
<event>
 5   0  0.4120440E-07  0.3517577E+04  0.7818609E-02  0.8109637E-01
        2   -1    0    0  501    0  0.00000000000E+00  0.00000000000E+00  0.17713819350E+04  0.17713819350E+04  0.25500000920E-02 0.  1.
       -2   -1    0    0    0  501  0.00000000000E+00  0.00000000000E+00 -0.17462850027E+04  0.17462850027E+04  0.25500000920E-02 0. -1.
    10030    2    1    2    0    0  0.00000000000E+00  0.00000000000E+00  0.25096932325E+02  0.35176669378E+04  0.35175774091E+04 0.  0.
        2    1    3    3  502    0 -0.22493107347E+03 -0.15944522615E+04  0.72000247967E+03  0.17638808272E+04  0.25500000920E-02 0.  1.
       -2    1    3    3    0  502  0.22493107347E+03  0.15944522615E+04 -0.69490554734E+03  0.17537861106E+04  0.25500000920E-02 0. -1.
</event>
<event>
 5   0  0.1348226E-07  0.3597111E+04  0.7818609E-02  0.8091154E-01
       -1   -1    0    0    0  501  0.00000000000E+00  0.00000000000E+00  0.16763092506E+04  0.16763092506E+04  0.50400001928E-02 0.  1.
        1   -1    0    0  501    0  0.00000000000E+00  0.00000000000E+00 -0.19297161814E+04  0.19297161814E+04  0.50400001928E-02 0. -1.
    10030    2    1    2    0    0  0.00000000000E+00  0.00000000000E+00 -0.25340693076E+03  0.36060254320E+04  0.35971105549E+04 0.  0.
        4    1    3    3  502    0  0.27097135648E+03  0.13517295564E+04 -0.12846424177E+04  0.18843847866E+04  0.12699999809E+01 0. -1.
       -4    1    3    3    0  502 -0.27097135648E+03 -0.13517295564E+04  0.10312354869E+04  0.17216406455E+04  0.12699999809E+01 0.  1.
</event>
<event>
 5   0  0.3993751E-07  0.3333851E+04  0.7818609E-02  0.8154335E-01
        2   -1    0    0  501    0  0.00000000000E+00  0.00000000000E+00  0.27397089034E+04  0.27397089034E+04  0.25500000920E-02 0. -1.
       -2   -1    0    0    0  501  0.00000000000E+00  0.00000000000E+00 -0.10142101691E+04  0.10142101691E+04  0.25500000920E-02 0.  1.
    10030    2    1    2    0    0  0.00000000000E+00  0.00000000000E+00  0.17254987343E+04  0.37539190725E+04  0.33338510046E+04 0.  0.
        1    1    3    3  502    0  0.14473630591E+04 -0.77921197519E+03  0.55109010243E+03  0.17337045389E+04  0.50400001928E-02 0.  1.
       -1    1    3    3    0  502 -0.14473630591E+04  0.77921197519E+03  0.11744086319E+04  0.20202145336E+04  0.50400001928E-02 0. -1.
</event>
<event>
 5   0  0.3880259E-07  0.3579231E+04  0.7818609E-02  0.8095266E-01
       -2   -1    0    0    0  501  0.00000000000E+00  0.00000000000E+00  0.18682958180E+04  0.18682958180E+04  0.25500000920E-02 0.  1.
        2   -1    0    0  501    0  0.00000000000E+00  0.00000000000E+00 -0.17142482721E+04  0.17142482721E+04  0.25500000920E-02 0. -1.
    10030    2    1    2    0    0  0.00000000000E+00  0.00000000000E+00  0.15404754584E+03  0.35825440901E+04  0.35792305753E+04 0.  0.
        5    1    3    3  502    0  0.11129629862E+04  0.73600329577E+03 -0.11166880823E+04  0.17399430517E+04  0.46999998093E+01 0. -1.
       -5    1    3    3    0  502 -0.11129629862E+04 -0.73600329577E+03  0.12707356281E+04  0.18426010384E+04  0.46999998093E+01 0.  1.
</event>
<event>
 5   0  0.1348226E-07  0.3654729E+04  0.7818609E-02  0.8078069E-01
        1   -1    0    0  501    0  0.00000000000E+00  0.00000000000E+00  0.29071297215E+04  0.29071297215E+04  0.50400001928E-02 0. -1.
       -1   -1    0    0    0  501  0.00000000000E+00  0.00000000000E+00 -0.11486452193E+04  0.11486452194E+04  0.50400001928E-02 0.  1.
    10030    2    1    2    0    0  0.00000000000E+00  0.00000000000E+00  0.17584845022E+04  0.40557749409E+04  0.36547288034E+04 0.  0.
        4    1    3    3  502    0  0.15742019926E+04 -0.47159148668E+03 -0.76761639388E+01  0.16433414070E+04  0.12699999809E+01 0.  1.
       -4    1    3    3    0  502 -0.15742019926E+04  0.47159148668E+03  0.17661606661E+04  0.24124335338E+04  0.12699999809E+01 0. -1.
</event>
<event>
 5   0  0.3993751E-07  0.3595084E+04  0.7818609E-02  0.8091619E-01
        2   -1    0    0  501    0  0.00000000000E+00  0.00000000000E+00  0.21880783919E+04  0.21880783919E+04  0.25500000920E-02 0.  1.
       -2   -1    0    0    0  501  0.00000000000E+00  0.00000000000E+00 -0.14767099518E+04  0.14767099518E+04  0.25500000920E-02 0. -1.
    10030    2    1    2    0    0  0.00000000000E+00  0.00000000000E+00  0.71136844005E+03  0.36647883437E+04  0.35950839415E+04 0.  0.
        1    1    3    3  502    0 -0.92053504842E+03 -0.11928852499E+04 -0.64352334515E+03  0.16384389798E+04  0.50400001928E-02 0. -1.
       -1    1    3    3    0  502  0.92053504842E+03  0.11928852499E+04  0.13548917852E+04  0.20263493639E+04  0.50400001928E-02 0.  1.
</event>
<event>
 5   0  0.1298250E-07  0.3577332E+04  0.7818609E-02  0.8095704E-01
       -1   -1    0    0    0  501  0.00000000000E+00  0.00000000000E+00  0.14582738521E+04  0.14582738521E+04  0.50400001928E-02 0.  1.
        1   -1    0    0  501    0  0.00000000000E+00  0.00000000000E+00 -0.21939127953E+04  0.21939127953E+04  0.50400001928E-02 0. -1.
    10030    2    1    2    0    0  0.00000000000E+00  0.00000000000E+00 -0.73563894319E+03  0.36521866474E+04  0.35773317784E+04 0.  0.
        1    1    3    3  502    0  0.30700301793E+03 -0.15543512154E+04 -0.12152898049E+04  0.19967943970E+04  0.50400001928E-02 0. -1.
       -1    1    3    3    0  502 -0.30700301793E+03  0.15543512154E+04  0.47965086176E+03  0.16553922505E+04  0.50400001928E-02 0.  1.
</event>
<event>
 5   0  0.3993751E-07  0.3567612E+04  0.7818609E-02  0.8097951E-01
       -2   -1    0    0    0  501  0.00000000000E+00  0.00000000000E+00  0.16578384383E+04  0.16578384383E+04  0.25500000920E-02 0.  1.
        2   -1    0    0  501    0  0.00000000000E+00  0.00000000000E+00 -0.19193445566E+04  0.19193445566E+04  0.25500000920E-02 0. -1.
    10030    2    1    2    0    0  0.00000000000E+00  0.00000000000E+00 -0.26150611831E+03  0.35771829949E+04  0.35676116281E+04 0.  0.
        1    1    3    3  502    0 -0.17821993109E+04 -0.21983918699E+02 -0.58132887697E+02  0.17832826779E+04  0.50400001928E-02 0. -1.
       -1    1    3    3    0  502  0.17821993109E+04  0.21983918699E+02 -0.20337323061E+03  0.17939003170E+04  0.50400001928E-02 0.  1.
</event>
<event>
 5   0  0.1348226E-07  0.3535497E+04  0.7818609E-02  0.8105429E-01
       -1   -1    0    0    0  501  0.00000000000E+00  0.00000000000E+00  0.23412848633E+04  0.23412848633E+04  0.50400001928E-02 0.  1.
        1   -1    0    0  501    0  0.00000000000E+00  0.00000000000E+00 -0.13347096738E+04  0.13347096738E+04  0.50400001928E-02 0. -1.
    10030    2    1    2    0    0  0.00000000000E+00  0.00000000000E+00  0.10065751895E+04  0.36759945371E+04  0.35354974508E+04 0.  0.
        4    1    3    3  502    0  0.99151536005E+03 -0.14634984300E+04  0.50132044293E+03  0.18374586154E+04  0.12699999809E+01 0. -1.
       -4    1    3    3    0  502 -0.99151536005E+03  0.14634984300E+04  0.50525474656E+03  0.18385359218E+04  0.12699999809E+01 0.  1.
</event>
<event>
 5   0  0.4120440E-07  0.3588415E+04  0.7818609E-02  0.8093151E-01
       -2   -1    0    0    0  501  0.00000000000E+00  0.00000000000E+00  0.20442749537E+04  0.20442749537E+04  0.25500000920E-02 0.  1.
        2   -1    0    0  501    0  0.00000000000E+00  0.00000000000E+00 -0.15747298493E+04  0.15747298493E+04  0.25500000920E-02 0. -1.
    10030    2    1    2    0    0  0.00000000000E+00  0.00000000000E+00  0.46954510440E+03  0.36190048031E+04  0.35884151320E+04 0.  0.
        2    1    3    3  502    0  0.29522811525E+03  0.34557825621E+03  0.19852518813E+04  0.20366170488E+04  0.25500000920E-02 0.  1.
       -2    1    3    3    0  502 -0.29522811525E+03 -0.34557825621E+03 -0.15157067769E+04  0.15823877543E+04  0.25500000920E-02 0. -1.
</event>
<event>
 5   0  0.4120440E-07  0.3592350E+04  0.7818609E-02  0.8092246E-01
        2   -1    0    0  501    0  0.00000000000E+00  0.00000000000E+00  0.20386561229E+04  0.20386561229E+04  0.25500000920E-02 0.  1.
       -2   -1    0    0    0  501  0.00000000000E+00  0.00000000000E+00 -0.15825345721E+04  0.15825345722E+04  0.25500000920E-02 0. -1.
    10030    2    1    2    0    0  0.00000000000E+00  0.00000000000E+00  0.45612155079E+03  0.36211906951E+04  0.35923495349E+04 0.  0.
        2    1    3    3  502    0  0.16835044245E+04 -0.56241323895E+03 -0.49372394886E+02  0.17756501435E+04  0.25500000920E-02 0. -1.
       -2    1    3    3    0  502 -0.16835044245E+04  0.56241323895E+03  0.50549394568E+03  0.18455405516E+04  0.25500000920E-02 0.  1.
</event>
<event>
 5   0  0.1348226E-07  0.3592956E+04  0.7818609E-02  0.8092107E-01
       -1   -1    0    0    0  501  0.00000000000E+00  0.00000000000E+00  0.21383574631E+04  0.21383574631E+04  0.50400001928E-02 0. -1.
        1   -1    0    0  501    0  0.00000000000E+00  0.00000000000E+00 -0.15092584073E+04  0.15092584073E+04  0.50400001928E-02 0.  1.
    10030    2    1    2    0    0  0.00000000000E+00  0.00000000000E+00  0.62909905580E+03  0.36476158705E+04  0.35929564312E+04 0.  0.
        4    1    3    3  502    0 -0.76660450271E+03  0.12330558305E+03  0.19592087940E+04  0.21074599502E+04  0.12699999809E+01 0. -1.
       -4    1    3    3    0  502  0.76660450271E+03 -0.12330558305E+03 -0.13301097382E+04  0.15401559203E+04  0.12699999809E+01 0.  1.
</event>
<event>
 5   0  0.1361743E-07  0.3597883E+04  0.7818609E-02  0.8090977E-01
        1   -1    0    0  501    0  0.00000000000E+00  0.00000000000E+00  0.16493531449E+04  0.16493531449E+04  0.50400001928E-02 0. -1.
       -1   -1    0    0    0  501  0.00000000000E+00  0.00000000000E+00 -0.19620971052E+04  0.19620971052E+04  0.50400001928E-02 0.  1.
    10030    2    1    2    0    0  0.00000000000E+00  0.00000000000E+00 -0.31274396028E+03  0.36114502501E+04  0.35978832838E+04 0.  0.
        5    1    3    3  502    0  0.14205068520E+04 -0.26778215285E+03  0.91847017304E+03  0.17126460658E+04  0.46999998093E+01 0. -1.
       -5    1    3    3    0  502 -0.14205068520E+04  0.26778215285E+03 -0.12312141333E+04  0.18988041842E+04  0.46999998093E+01 0.  1.
</event>
<event>
 5   0  0.1298250E-07  0.3598723E+04  0.7818609E-02  0.8090784E-01
       -1   -1    0    0    0  501  0.00000000000E+00  0.00000000000E+00  0.11566651286E+04  0.11566651286E+04  0.50400001928E-02 0.  1.
        1   -1    0    0  501    0  0.00000000000E+00  0.00000000000E+00 -0.27991695330E+04  0.27991695330E+04  0.50400001928E-02 0. -1.
    10030    2    1    2    0    0  0.00000000000E+00  0.00000000000E+00 -0.16425044044E+04  0.39558346617E+04  0.35987229891E+04 0.  0.
        2    1    3    3  502    0  0.11663280229E+04  0.57241959541E+03 -0.21896609666E+04  0.25460951276E+04  0.25500000920E-02 0. -1.
       -2    1    3    3    0  502 -0.11663280229E+04 -0.57241959541E+03  0.54715656225E+03  0.14097395340E+04  0.25500000920E-02 0.  1.
</event>
<event>
 5   0  0.4115358E-07  0.3601709E+04  0.7818609E-02  0.8090100E-01
       -2   -1    0    0    0  501  0.00000000000E+00  0.00000000000E+00  0.17621305376E+04  0.17621305376E+04  0.25500000920E-02 0. -1.
        2   -1    0    0  501    0  0.00000000000E+00  0.00000000000E+00 -0.18404293067E+04  0.18404293067E+04  0.25500000920E-02 0.  1.
    10030    2    1    2    0    0  0.00000000000E+00  0.00000000000E+00 -0.78298769136E+02  0.36025598443E+04  0.36017088631E+04 0.  0.
        3    1    3    3  502    0  0.13257543609E+04 -0.12185171366E+04 -0.13296889412E+02  0.18007180388E+04  0.10100000352E+00 0.  1.
       -3    1    3    3    0  502 -0.13257543609E+04  0.12185171366E+04 -0.65001879724E+02  0.18018418056E+04  0.10100000352E+00 0. -1.
</event>
<event>
 5   0  0.1298250E-07  0.3586079E+04  0.7818609E-02  0.8093688E-01
        1   -1    0    0  501    0  0.00000000000E+00  0.00000000000E+00  0.27115278002E+04  0.27115278002E+04  0.50400001928E-02 0.  1.
       -1   -1    0    0    0  501  0.00000000000E+00  0.00000000000E+00 -0.11856747403E+04  0.11856747404E+04  0.50400001928E-02 0. -1.
    10030    2    1    2    0    0  0.00000000000E+00  0.00000000000E+00  0.15258530599E+04  0.38972025406E+04  0.35860786497E+04 0.  0.
        2    1    3    3  502    0  0.18040027720E+03  0.17271612443E+04  0.12481613498E+04  0.21385829371E+04  0.25500000920E-02 0.  1.
       -2    1    3    3    0  502 -0.18040027720E+03 -0.17271612443E+04  0.27769171008E+03  0.17586196035E+04  0.25500000920E-02 0. -1.
</event>
<event>
 5   0  0.1298250E-07  0.3627729E+04  0.7818609E-02  0.8084170E-01
       -1   -1    0    0    0  501  0.00000000000E+00  0.00000000000E+00  0.14338705776E+04  0.14338705776E+04  0.50400001928E-02 0.  1.
        1   -1    0    0  501    0  0.00000000000E+00  0.00000000000E+00 -0.22945610942E+04  0.22945610942E+04  0.50400001928E-02 0. -1.
    10030    2    1    2    0    0  0.00000000000E+00  0.00000000000E+00 -0.86069051661E+03  0.37284316717E+04  0.36277285683E+04 0.  0.
        1    1    3    3  502    0 -0.12664732885E+04 -0.56970335350E+03  0.76891688273E+03  0.15873719394E+04  0.50400001928E-02 0.  1.
       -1    1    3    3    0  502  0.12664732885E+04  0.56970335350E+03 -0.16296073993E+04  0.21410597323E+04  0.50400001928E-02 0. -1.
</event>
<event>
 5   0  0.3993751E-07  0.3601192E+04  0.7818609E-02  0.8090219E-01
       -2   -1    0    0    0  501  0.00000000000E+00  0.00000000000E+00  0.20192993211E+04  0.20192993211E+04  0.25500000920E-02 0.  1.
        2   -1    0    0  501    0  0.00000000000E+00  0.00000000000E+00 -0.16055798948E+04  0.16055798948E+04  0.25500000920E-02 0. -1.
    10030    2    1    2    0    0  0.00000000000E+00  0.00000000000E+00  0.41371942626E+03  0.36248792159E+04  0.36011922423E+04 0.  0.
        1    1    3    3  502    0  0.44650391968E+03  0.14594085557E+04 -0.75488670202E+03  0.17026723160E+04  0.50400001928E-02 0. -1.
       -1    1    3    3    0  502 -0.44650391968E+03 -0.14594085557E+04  0.11686061283E+04  0.19222068999E+04  0.50400001928E-02 0.  1.
</event>
<event>
 5   0  0.1298250E-07  0.3593540E+04  0.7818609E-02  0.8091973E-01
       -3   -1    0    0    0  501  0.00000000000E+00  0.00000000000E+00  0.12156134204E+04  0.12156134246E+04  0.10100000352E+00 0. -1.
        3   -1    0    0  501    0  0.00000000000E+00  0.00000000000E+00 -0.26557635468E+04  0.26557635487E+04  0.10100000352E+00 0.  1.
    10030    2    1    2    0    0  0.00000000000E+00  0.00000000000E+00 -0.14401501264E+04  0.38713769733E+04  0.35935396593E+04 0.  0.
        3    1    3    3  502    0  0.23736342631E+03  0.32330704307E+03 -0.26069200584E+04  0.26375937976E+04  0.10100000352E+00 0.  1.
       -3    1    3    3    0  502 -0.23736342631E+03 -0.32330704307E+03  0.11667699320E+04  0.12337831757E+04  0.10100000352E+00 0. -1.
</event>
<event>
 5   0  0.1361743E-07  0.3595565E+04  0.7818609E-02  0.8091508E-01
        1   -1    0    0  501    0  0.00000000000E+00  0.00000000000E+00  0.11330909659E+04  0.11330909659E+04  0.50400001928E-02 0.  1.
       -1   -1    0    0    0  501  0.00000000000E+00  0.00000000000E+00 -0.28523942835E+04  0.28523942835E+04  0.50400001928E-02 0. -1.
    10030    2    1    2    0    0  0.00000000000E+00  0.00000000000E+00 -0.17193033176E+04  0.39854852495E+04  0.35955651539E+04 0.  0.
        5    1    3    3  502    0  0.99283429146E+03 -0.93675669950E+03 -0.21564690193E+04  0.25521782394E+04  0.46999998093E+01 0. -1.
       -5    1    3    3    0  502 -0.99283429146E+03  0.93675669950E+03  0.43716570173E+03  0.14333070101E+04  0.46999998093E+01 0.  1.
</event>
<event>
 5   0  0.4120440E-07  0.3603451E+04  0.7818609E-02  0.8089702E-01
       -2   -1    0    0    0  501  0.00000000000E+00  0.00000000000E+00  0.17322629215E+04  0.17322629215E+04  0.25500000920E-02 0.  1.
        2   -1    0    0  501    0  0.00000000000E+00  0.00000000000E+00 -0.18739734046E+04  0.18739734046E+04  0.25500000920E-02 0. -1.
    10030    2    1    2    0    0  0.00000000000E+00  0.00000000000E+00 -0.14171048314E+03  0.36062363261E+04  0.36034509263E+04 0.  0.
        2    1    3    3  502    0  0.16984948679E+04 -0.42745549019E+01  0.53070136122E+03  0.17794794247E+04  0.25500000920E-02 0.  1.
       -2    1    3    3    0  502 -0.16984948679E+04  0.42745549019E+01 -0.67241184436E+03  0.18267569013E+04  0.25500000920E-02 0. -1.
</event>
<event>
 5   0  0.4120440E-07  0.3614001E+04  0.7818609E-02  0.8087292E-01
        2   -1    0    0  501    0  0.00000000000E+00  0.00000000000E+00  0.21306379182E+04  0.21306379182E+04  0.25500000920E-02 0.  1.
       -2   -1    0    0    0  501  0.00000000000E+00  0.00000000000E+00 -0.15325224166E+04  0.15325224166E+04  0.25500000920E-02 0. -1.
    10030    2    1    2    0    0  0.00000000000E+00  0.00000000000E+00  0.59811550154E+03  0.36631603348E+04  0.36140007589E+04 0.  0.
        2    1    3    3  502    0  0.10074262026E+04  0.72908326343E+03 -0.10297981414E+04  0.16146065065E+04  0.25500000920E-02 0. -1.
       -2    1    3    3    0  502 -0.10074262026E+04 -0.72908326343E+03  0.16279136430E+04  0.20485538284E+04  0.25500000920E-02 0.  1.
</event>
<event>
 5   0  0.1370997E-07  0.3588379E+04  0.7818609E-02  0.8093159E-01
        1   -1    0    0  501    0  0.00000000000E+00  0.00000000000E+00  0.17222797468E+04  0.17222797468E+04  0.50400001928E-02 0. -1.
       -1   -1    0    0    0  501  0.00000000000E+00  0.00000000000E+00 -0.18691020669E+04  0.18691020669E+04  0.50400001928E-02 0.  1.
    10030    2    1    2    0    0  0.00000000000E+00  0.00000000000E+00 -0.14682232010E+03  0.35913818137E+04  0.35883793749E+04 0.  0.
        3    1    3    3  502    0  0.10446306411E+04  0.98163812242E+02 -0.15300420288E+04  0.18552406665E+04  0.10100000352E+00 0.  1.
       -3    1    3    3    0  502 -0.10446306411E+04 -0.98163812242E+02  0.13832197087E+04  0.17361411473E+04  0.10100000352E+00 0. -1.
</event>
<event>
 5   0  0.3880259E-07  0.3648629E+04  0.7818609E-02  0.8079443E-01
       -2   -1    0    0    0  501  0.00000000000E+00  0.00000000000E+00  0.15509960982E+04  0.15509960982E+04  0.25500000920E-02 0.  1.
        2   -1    0    0  501    0  0.00000000000E+00  0.00000000000E+00 -0.21457969504E+04  0.21457969504E+04  0.25500000920E-02 0. -1.
    10030    2    1    2    0    0  0.00000000000E+00  0.00000000000E+00 -0.59480085214E+03  0.36967930486E+04  0.36486286178E+04 0.  0.
        5    1    3    3  502    0  0.88144705870E+03 -0.12709120729E+04  0.68280733238E+03  0.16906845825E+04  0.46999998093E+01 0.  1.
       -5    1    3    3    0  502 -0.88144705870E+03  0.12709120729E+04 -0.12776081845E+04  0.20061084661E+04  0.46999998093E+01 0. -1.
</event>
<event>
 5   0  0.1348226E-07  0.3600591E+04  0.7818609E-02  0.8090356E-01
        1   -1    0    0  501    0  0.00000000000E+00  0.00000000000E+00  0.23202069033E+04  0.23202069033E+04  0.50400001928E-02 0.  1.
       -1   -1    0    0    0  501  0.00000000000E+00  0.00000000000E+00 -0.13968858892E+04  0.13968858892E+04  0.50400001928E-02 0. -1.
    10030    2    1    2    0    0  0.00000000000E+00  0.00000000000E+00  0.92332101407E+03  0.37170927926E+04  0.36005912200E+04 0.  0.
        4    1    3    3  502    0  0.39943235990E+03  0.16552244088E+04 -0.14184740427E+03  0.17086358162E+04  0.12699999809E+01 0. -1.
       -4    1    3    3    0  502 -0.39943235990E+03 -0.16552244088E+04  0.10651684183E+04  0.20084569763E+04  0.12699999809E+01 0.  1.
</event>
<event>
 5   0  0.4120440E-07  0.3573017E+04  0.7818609E-02  0.8096701E-01
       -2   -1    0    0    0  501  0.00000000000E+00  0.00000000000E+00  0.17716854657E+04  0.17716854657E+04  0.25500000920E-02 0. -1.
        2   -1    0    0  501    0  0.00000000000E+00  0.00000000000E+00 -0.18014556086E+04  0.18014556086E+04  0.25500000920E-02 0.  1.
    10030    2    1    2    0    0  0.00000000000E+00  0.00000000000E+00 -0.29770142915E+02  0.35731410743E+04  0.35730170550E+04 0.  0.
        2    1    3    3  502    0  0.14762338892E+04  0.30077142141E+03 -0.97506566567E+03  0.17945704210E+04  0.25500000920E-02 0.  1.
       -2    1    3    3    0  502 -0.14762338892E+04 -0.30077142141E+03  0.94529552276E+03  0.17785706533E+04  0.25500000920E-02 0. -1.
</event>
<event>
 5   0  0.1361743E-07  0.3575214E+04  0.7818609E-02  0.8096193E-01
       -1   -1    0    0    0  501  0.00000000000E+00  0.00000000000E+00  0.18775988364E+04  0.18775988364E+04  0.50400001928E-02 0.  1.
        1   -1    0    0  501    0  0.00000000000E+00  0.00000000000E+00 -0.17019279824E+04  0.17019279824E+04  0.50400001928E-02 0. -1.
    10030    2    1    2    0    0  0.00000000000E+00  0.00000000000E+00  0.17567085404E+03  0.35795268188E+04  0.35752135598E+04 0.  0.
        5    1    3    3  502    0  0.14047597265E+04 -0.25621054025E+03 -0.98887920463E+03  0.17369219618E+04  0.46999998093E+01 0. -1.
       -5    1    3    3    0  502 -0.14047597265E+04  0.25621054025E+03  0.11645500587E+04  0.18426048570E+04  0.46999998093E+01 0.  1.
</event>
<event>
 5   0  0.1298250E-07  0.3624531E+04  0.7818609E-02  0.8084896E-01
       -3   -1    0    0    0  501  0.00000000000E+00  0.00000000000E+00  0.24548166560E+04  0.24548166581E+04  0.10100000352E+00 0. -1.
        3   -1    0    0  501    0  0.00000000000E+00  0.00000000000E+00 -0.13379025308E+04  0.13379025346E+04  0.10100000352E+00 0.  1.
    10030    2    1    2    0    0  0.00000000000E+00  0.00000000000E+00  0.11169141252E+04  0.37927191926E+04  0.36245305504E+04 0.  0.
        3    1    3    3  502    0 -0.52327235397E+03 -0.12401222250E+04 -0.71135544818E+03  0.15224137655E+04  0.10100000352E+00 0.  1.
       -3    1    3    3    0  502  0.52327235397E+03  0.12401222250E+04  0.18282695734E+04  0.22703054272E+04  0.10100000352E+00 0. -1.
</event>
<event>
 5   0  0.1298250E-07  0.3595669E+04  0.7818609E-02  0.8091484E-01
        1   -1    0    0  501    0  0.00000000000E+00  0.00000000000E+00  0.18154472724E+04  0.18154472724E+04  0.50400001928E-02 0.  1.
       -1   -1    0    0    0  501  0.00000000000E+00  0.00000000000E+00 -0.17803927615E+04  0.17803927615E+04  0.50400001928E-02 0. -1.
    10030    2    1    2    0    0  0.00000000000E+00  0.00000000000E+00  0.35054510939E+02  0.35958400339E+04  0.35956691632E+04 0.  0.
        2    1    3    3  502    0 -0.16471512096E+04  0.66389206921E+03  0.29745017816E+03  0.18006488817E+04  0.25500000920E-02 0.  1.
       -2    1    3    3    0  502  0.16471512096E+04 -0.66389206921E+03 -0.26239566722E+03  0.17951911522E+04  0.25500000920E-02 0. -1.
</event>
<event>
 5   0  0.1361743E-07  0.3617286E+04  0.7818609E-02  0.8086543E-01
        1   -1    0    0  501    0  0.00000000000E+00  0.00000000000E+00  0.16830865532E+04  0.16830865533E+04  0.50400001928E-02 0. -1.
       -1   -1    0    0    0  501  0.00000000000E+00  0.00000000000E+00 -0.19435661770E+04  0.19435661770E+04  0.50400001928E-02 0.  1.
    10030    2    1    2    0    0  0.00000000000E+00  0.00000000000E+00 -0.26047962377E+03  0.36266527303E+04  0.36172863298E+04 0.  0.
        5    1    3    3  502    0  0.17962016862E+04 -0.16510031181E+03 -0.26313263201E+03  0.18228712194E+04  0.46999998093E+01 0.  1.
       -5    1    3    3    0  502 -0.17962016862E+04  0.16510031181E+03  0.26530082386E+01  0.18037815109E+04  0.46999998093E+01 0. -1.
</event>
<event>
 5   0  0.4120440E-07  0.3605687E+04  0.7818609E-02  0.8089190E-01
       -2   -1    0    0    0  501  0.00000000000E+00  0.00000000000E+00  0.19279943694E+04  0.19279943694E+04  0.25500000920E-02 0. -1.
        2   -1    0    0  501    0  0.00000000000E+00  0.00000000000E+00 -0.16858162149E+04  0.16858162149E+04  0.25500000920E-02 0.  1.
    10030    2    1    2    0    0  0.00000000000E+00  0.00000000000E+00  0.24217815450E+03  0.36138105843E+04  0.36056867142E+04 0.  0.
        2    1    3    3  502    0  0.59474522977E+03 -0.15273681596E+03  0.18199579228E+04  0.19207543477E+04  0.25500000920E-02 0. -1.
       -2    1    3    3    0  502 -0.59474522977E+03  0.15273681596E+03 -0.15777797683E+04  0.16930562367E+04  0.25500000920E-02 0.  1.
</event>
<event>
 5   0  0.4120440E-07  0.3582246E+04  0.7818609E-02  0.8094571E-01
       -2   -1    0    0    0  501  0.00000000000E+00  0.00000000000E+00  0.15027170260E+04  0.15027170260E+04  0.25500000920E-02 0.  1.
        2   -1    0    0  501    0  0.00000000000E+00  0.00000000000E+00 -0.21348807824E+04  0.21348807824E+04  0.25500000920E-02 0. -1.
    10030    2    1    2    0    0  0.00000000000E+00  0.00000000000E+00 -0.63216375634E+03  0.36375978084E+04  0.35822460553E+04 0.  0.
        2    1    3    3  502    0  0.97880179529E+03 -0.65022319970E+03 -0.16887376573E+04  0.20573473307E+04  0.25500000920E-02 0. -1.
       -2    1    3    3    0  502 -0.97880179529E+03  0.65022319970E+03  0.10565739010E+04  0.15802504777E+04  0.25500000920E-02 0.  1.
</event>
<event>
 5   0  0.1348226E-07  0.3616576E+04  0.7818609E-02  0.8086705E-01
       -1   -1    0    0    0  501  0.00000000000E+00  0.00000000000E+00  0.12045910691E+04  0.12045910691E+04  0.50400001928E-02 0.  1.
        1   -1    0    0  501    0  0.00000000000E+00  0.00000000000E+00 -0.27145349793E+04  0.27145349793E+04  0.50400001928E-02 0. -1.
    10030    2    1    2    0    0  0.00000000000E+00  0.00000000000E+00 -0.15099439101E+04  0.39191260484E+04  0.36165755034E+04 0.  0.
        4    1    3    3  502    0 -0.36050084349E+03 -0.17469574904E+04 -0.43335834946E+03  0.18356531271E+04  0.12699999809E+01 0. -1.
       -4    1    3    3    0  502  0.36050084349E+03  0.17469574904E+04 -0.10765855607E+04  0.20834729213E+04  0.12699999809E+01 0.  1.
</event>
<event>
 5   0  0.4200635E-07  0.3569601E+04  0.7818609E-02  0.8097491E-01
       -2   -1    0    0    0  501  0.00000000000E+00  0.00000000000E+00  0.17950779881E+04  0.17950779881E+04  0.25500000920E-02 0.  1.
        2   -1    0    0  501    0  0.00000000000E+00  0.00000000000E+00 -0.17745816438E+04  0.17745816438E+04  0.25500000920E-02 0. -1.
    10030    2    1    2    0    0  0.00000000000E+00  0.00000000000E+00  0.20496344291E+02  0.35696596319E+04  0.35696007883E+04 0.  0.
        4    1    3    3  502    0  0.83820436450E+03  0.13589078450E+04  0.80794154958E+03  0.17894100280E+04  0.12699999809E+01 0. -1.
       -4    1    3    3    0  502 -0.83820436450E+03 -0.13589078450E+04 -0.78744520529E+03  0.17802496039E+04  0.12699999809E+01 0.  1.
</event>
<event>
 5   0  0.1298250E-07  0.3547646E+04  0.7818609E-02  0.8102590E-01
       -3   -1    0    0    0  501  0.00000000000E+00  0.00000000000E+00  0.18304038881E+04  0.18304038909E+04  0.10100000352E+00 0.  1.
        3   -1    0    0  501    0  0.00000000000E+00  0.00000000000E+00 -0.17189915521E+04  0.17189915550E+04  0.10100000352E+00 0. -1.
    10030    2    1    2    0    0  0.00000000000E+00  0.00000000000E+00  0.11141233606E+03  0.35493954459E+04  0.35476464484E+04 0.  0.
        3    1    3    3  502    0  0.10624436217E+02  0.60878816176E+03 -0.16111622898E+04  0.17223762187E+04  0.10100000352E+00 0. -1.
       -3    1    3    3    0  502 -0.10624436217E+02 -0.60878816176E+03  0.17225746259E+04  0.18270192272E+04  0.10100000352E+00 0.  1.
</event>
<event>
 5   0  0.1370997E-07  0.3581925E+04  0.7818609E-02  0.8094645E-01
        1   -1    0    0  501    0  0.00000000000E+00  0.00000000000E+00  0.11702146117E+04  0.11702146117E+04  0.50400001928E-02 0. -1.
       -1   -1    0    0    0  501  0.00000000000E+00  0.00000000000E+00 -0.27409900298E+04  0.27409900298E+04  0.50400001928E-02 0.  1.
    10030    2    1    2    0    0  0.00000000000E+00  0.00000000000E+00 -0.15707754181E+04  0.39112046416E+04  0.35819249482E+04 0.  0.
        3    1    3    3  502    0  0.12070774677E+04 -0.25990806857E+02  0.65902936026E+03  0.13755112660E+04  0.10100000352E+00 0. -1.
       -3    1    3    3    0  502 -0.12070774677E+04  0.25990806857E+02 -0.22298047784E+04  0.25356933756E+04  0.10100000352E+00 0.  1.
</event>
<event>
 5   0  0.4120440E-07  0.3647316E+04  0.7818609E-02  0.8079738E-01
       -2   -1    0    0    0  501  0.00000000000E+00  0.00000000000E+00  0.16892952156E+04  0.16892952156E+04  0.25500000920E-02 0.  1.
        2   -1    0    0  501    0  0.00000000000E+00  0.00000000000E+00 -0.19687081502E+04  0.19687081502E+04  0.25500000920E-02 0. -1.
    10030    2    1    2    0    0  0.00000000000E+00  0.00000000000E+00 -0.27941293457E+03  0.36580033657E+04  0.36473164156E+04 0.  0.
        2    1    3    3  502    0  0.62327789342E+03 -0.77834362578E+03 -0.16710841976E+04  0.19459744417E+04  0.25500000920E-02 0. -1.
       -2    1    3    3    0  502 -0.62327789342E+03  0.77834362578E+03  0.13916712631E+04  0.17120289240E+04  0.25500000920E-02 0.  1.
</event>
<event>
 5   0  0.1298250E-07  0.3588530E+04  0.7818609E-02  0.8093124E-01
       -1   -1    0    0    0  501  0.00000000000E+00  0.00000000000E+00  0.95336124864E+03  0.95336124866E+03  0.50400001928E-02 0. -1.
        1   -1    0    0  501    0  0.00000000000E+00  0.00000000000E+00 -0.33768806176E+04  0.33768806176E+04  0.50400001928E-02 0.  1.
    10030    2    1    2    0    0  0.00000000000E+00  0.00000000000E+00 -0.24235193689E+04  0.43302418662E+04  0.35885301292E+04 0.  0.
        1    1    3    3  502    0  0.98151237656E+03  0.18461961632E+03 -0.30104705058E+04  0.31718107785E+04  0.50400001928E-02 0.  1.
       -1    1    3    3    0  502 -0.98151237656E+03 -0.18461961632E+03  0.58695113685E+03  0.11584310878E+04  0.50400001928E-02 0. -1.
</event>
<event>
 5   0  0.4120440E-07  0.3597042E+04  0.7818609E-02  0.8091170E-01
       -2   -1    0    0    0  501  0.00000000000E+00  0.00000000000E+00  0.20667302650E+04  0.20667302650E+04  0.25500000920E-02 0. -1.
        2   -1    0    0  501    0  0.00000000000E+00  0.00000000000E+00 -0.15651181190E+04  0.15651181191E+04  0.25500000920E-02 0.  1.
    10030    2    1    2    0    0  0.00000000000E+00  0.00000000000E+00  0.50161214594E+03  0.36318483840E+04  0.35970415538E+04 0.  0.
        2    1    3    3  502    0  0.14582588719E+04  0.10504320991E+04  0.18121560719E+03  0.18063127162E+04  0.25500000920E-02 0. -1.
       -2    1    3    3    0  502 -0.14582588719E+04 -0.10504320991E+04  0.32039653875E+03  0.18255356678E+04  0.25500000920E-02 0.  1.
</event>
<event>
 5   0  0.4120440E-07  0.3591209E+04  0.7818609E-02  0.8092508E-01
       -2   -1    0    0    0  501  0.00000000000E+00  0.00000000000E+00  0.20813606867E+04  0.20813606867E+04  0.25500000920E-02 0. -1.
        2   -1    0    0  501    0  0.00000000000E+00  0.00000000000E+00 -0.15490809697E+04  0.15490809697E+04  0.25500000920E-02 0.  1.
    10030    2    1    2    0    0  0.00000000000E+00  0.00000000000E+00  0.53227971697E+03  0.36304416564E+04  0.35912093957E+04 0.  0.
        2    1    3    3  502    0 -0.79263118954E+02 -0.72586838639E+03  0.19244963527E+04  0.20583619138E+04  0.25500000920E-02 0. -1.
       -2    1    3    3    0  502  0.79263118954E+02  0.72586838639E+03 -0.13922166358E+04  0.15720797427E+04  0.25500000920E-02 0.  1.
</event>
<event>
 5   0  0.1370997E-07  0.3614070E+04  0.7818609E-02  0.8087276E-01
       -1   -1    0    0    0  501  0.00000000000E+00  0.00000000000E+00  0.19490559459E+04  0.19490559459E+04  0.50400001928E-02 0.  1.
        1   -1    0    0  501    0  0.00000000000E+00  0.00000000000E+00 -0.16753630471E+04  0.16753630471E+04  0.50400001928E-02 0. -1.
    10030    2    1    2    0    0  0.00000000000E+00  0.00000000000E+00  0.27369289879E+03  0.36244189929E+04  0.36140704522E+04 0.  0.
        3    1    3    3  502    0  0.51289244137E+03 -0.15853734838E+04  0.83806856249E+03  0.18651612973E+04  0.10100000352E+00 0.  1.
       -3    1    3    3    0  502 -0.51289244137E+03  0.15853734838E+04 -0.56437566370E+03  0.17592576956E+04  0.10100000352E+00 0. -1.
</event>
<event>
 5   0  0.1298250E-07  0.3591833E+04  0.7818609E-02  0.8092365E-01
        1   -1    0    0  501    0  0.00000000000E+00  0.00000000000E+00  0.21823810572E+04  0.21823810572E+04  0.50400001928E-02 0. -1.
       -1   -1    0    0    0  501  0.00000000000E+00  0.00000000000E+00 -0.14778882450E+04  0.14778882450E+04  0.50400001928E-02 0.  1.
    10030    2    1    2    0    0  0.00000000000E+00  0.00000000000E+00  0.70449281222E+03  0.36602693022E+04  0.35918325744E+04 0.  0.
        1    1    3    3  502    0  0.18556904282E+03 -0.14679512884E+04  0.13894798437E+04  0.20297711918E+04  0.50400001928E-02 0. -1.
       -1    1    3    3    0  502 -0.18556904282E+03  0.14679512884E+04 -0.68498703150E+03  0.16304981105E+04  0.50400001928E-02 0.  1.
</event>
<event>
 5   0  0.1370997E-07  0.3584880E+04  0.7818609E-02  0.8093964E-01
        1   -1    0    0  501    0  0.00000000000E+00  0.00000000000E+00  0.27748426662E+04  0.27748426662E+04  0.50400001928E-02 0.  1.
       -1   -1    0    0    0  501  0.00000000000E+00  0.00000000000E+00 -0.11578462367E+04  0.11578462367E+04  0.50400001928E-02 0. -1.
    10030    2    1    2    0    0  0.00000000000E+00  0.00000000000E+00  0.16169964295E+04  0.39326889029E+04  0.35848799916E+04 0.  0.
        3    1    3    3  502    0 -0.11988069521E+04  0.12855369468E+04  0.42360515647E+03  0.18080886839E+04  0.10100000352E+00 0.  1.
       -3    1    3    3    0  502  0.11988069521E+04 -0.12855369468E+04  0.11933912731E+04  0.21246002191E+04  0.10100000352E+00 0. -1.
</event>
<event>
 5   0  0.1348226E-07  0.3649156E+04  0.7818609E-02  0.8079324E-01
       -1   -1    0    0    0  501  0.00000000000E+00  0.00000000000E+00  0.14305847148E+04  0.14305847148E+04  0.50400001928E-02 0. -1.
        1   -1    0    0  501    0  0.00000000000E+00  0.00000000000E+00 -0.23270798611E+04  0.23270798611E+04  0.50400001928E-02 0.  1.
    10030    2    1    2    0    0  0.00000000000E+00  0.00000000000E+00 -0.89649514636E+03  0.37576645759E+04  0.36491560007E+04 0.  0.
        4    1    3    3  502    0  0.78651559753E+03 -0.26526678675E+03 -0.21214041813E+04  0.22780102210E+04  0.12699999809E+01 0.  1.
       -4    1    3    3    0  502 -0.78651559753E+03  0.26526678675E+03  0.12249090350E+04  0.14796543550E+04  0.12699999809E+01 0. -1.
</event>
<event>
 5   0  0.1348226E-07  0.3573997E+04  0.7818609E-02  0.8096474E-01
        1   -1    0    0  501    0  0.00000000000E+00  0.00000000000E+00  0.13537030378E+04  0.13537030378E+04  0.50400001928E-02 0.  1.
       -1   -1    0    0    0  501  0.00000000000E+00  0.00000000000E+00 -0.23589833864E+04  0.23589833865E+04  0.50400001928E-02 0. -1.
    10030    2    1    2    0    0  0.00000000000E+00  0.00000000000E+00 -0.10052803487E+04  0.37126864242E+04  0.35739966291E+04 0.  0.
        4    1    3    3  502    0 -0.80680937123E+03  0.99790748469E+03 -0.17945233017E+04  0.22061451001E+04  0.12699999809E+01 0. -1.
       -4    1    3    3    0  502  0.80680937123E+03 -0.99790748469E+03  0.78924295300E+03  0.15065413241E+04  0.12699999809E+01 0.  1.
</event>
<event>
 5   0  0.3993751E-07  0.3498657E+04  0.7818609E-02  0.8114108E-01
        2   -1    0    0  501    0  0.00000000000E+00  0.00000000000E+00  0.19718805329E+04  0.19718805329E+04  0.25500000920E-02 0. -1.
       -2   -1    0    0    0  501  0.00000000000E+00  0.00000000000E+00 -0.15518940598E+04  0.15518940598E+04  0.25500000920E-02 0.  1.
    10030    2    1    2    0    0  0.00000000000E+00  0.00000000000E+00  0.41998647301E+03  0.35237745927E+04  0.34986567055E+04 0.  0.
        1    1    3    3  502    0  0.80768470844E+03  0.74664145706E+03  0.15800242617E+04  0.19251765429E+04  0.50400001928E-02 0. -1.
       -1    1    3    3    0  502 -0.80768470844E+03 -0.74664145706E+03 -0.11600377887E+04  0.15985980498E+04  0.50400001928E-02 0.  1.
</event>
<event>
 5   0  0.4115358E-07  0.3611202E+04  0.7818609E-02  0.8087931E-01
       -2   -1    0    0    0  501  0.00000000000E+00  0.00000000000E+00  0.11825860528E+04  0.11825860528E+04  0.25500000920E-02 0. -1.
        2   -1    0    0  501    0  0.00000000000E+00  0.00000000000E+00 -0.27568355905E+04  0.27568355905E+04  0.25500000920E-02 0.  1.
    10030    2    1    2    0    0  0.00000000000E+00  0.00000000000E+00 -0.15742495376E+04  0.39394216433E+04  0.36112021928E+04 0.  0.
        3    1    3    3  502    0 -0.14392818059E+04  0.17749966264E+03 -0.19606078061E+04  0.24386515181E+04  0.10100000352E+00 0.  1.
       -3    1    3    3    0  502  0.14392818059E+04 -0.17749966264E+03  0.38635826847E+03  0.15007701252E+04  0.10100000352E+00 0. -1.
</event>
<event>
 5   0  0.1298250E-07  0.3610980E+04  0.7818609E-02  0.8087981E-01
        3   -1    0    0  501    0  0.00000000000E+00  0.00000000000E+00  0.15734752827E+04  0.15734752859E+04  0.10100000352E+00 0. -1.
       -3   -1    0    0    0  501  0.00000000000E+00  0.00000000000E+00 -0.20717161018E+04  0.20717161042E+04  0.10100000352E+00 0.  1.
    10030    2    1    2    0    0  0.00000000000E+00  0.00000000000E+00 -0.49824081910E+03  0.36451913901E+04  0.36109799718E+04 0.  0.
        3    1    3    3  502    0 -0.72766710052E+03  0.13491272611E+03  0.14133256511E+04  0.15953652431E+04  0.10100000352E+00 0. -1.
       -3    1    3    3    0  502  0.72766710052E+03 -0.13491272611E+03 -0.19115664702E+04  0.20498261470E+04  0.10100000352E+00 0.  1.
</event>
<event>
 5   0  0.4120440E-07  0.3571727E+04  0.7818609E-02  0.8096999E-01
        2   -1    0    0  501    0  0.00000000000E+00  0.00000000000E+00  0.13846256052E+04  0.13846256052E+04  0.25500000920E-02 0.  1.
       -2   -1    0    0    0  501  0.00000000000E+00  0.00000000000E+00 -0.23033729527E+04  0.23033729527E+04  0.25500000920E-02 0. -1.
    10030    2    1    2    0    0  0.00000000000E+00  0.00000000000E+00 -0.91874734755E+03  0.36879985579E+04  0.35717274076E+04 0.  0.
        2    1    3    3  502    0  0.10500071229E+04 -0.35398321891E+03 -0.19054975463E+04  0.22042549708E+04  0.25500000920E-02 0. -1.
       -2    1    3    3    0  502 -0.10500071229E+04  0.35398321891E+03  0.98675019876E+03  0.14837435871E+04  0.25500000920E-02 0.  1.
</event>
<event>
 5   0  0.4200635E-07  0.3625934E+04  0.7818609E-02  0.8084577E-01
        2   -1    0    0  501    0  0.00000000000E+00  0.00000000000E+00  0.23364608732E+04  0.23364608732E+04  0.25500000920E-02 0. -1.
       -2   -1    0    0    0  501  0.00000000000E+00  0.00000000000E+00 -0.14067642401E+04  0.14067642401E+04  0.25500000920E-02 0.  1.
    10030    2    1    2    0    0  0.00000000000E+00  0.00000000000E+00  0.92969663306E+03  0.37432251133E+04  0.36259341444E+04 0.  0.
        4    1    3    3  502    0  0.14082511060E+04 -0.70438853605E+03 -0.46283758796E+03  0.16412052379E+04  0.12699999809E+01 0.  1.
       -4    1    3    3    0  502 -0.14082511060E+04  0.70438853605E+03  0.13925342210E+04  0.21020198754E+04  0.12699999809E+01 0. -1.
</event>
<event>
 5   0  0.1348226E-07  0.3637633E+04  0.7818609E-02  0.8081925E-01
        1   -1    0    0  501    0  0.00000000000E+00  0.00000000000E+00  0.22488021196E+04  0.22488021196E+04  0.50400001928E-02 0. -1.
       -1   -1    0    0    0  501  0.00000000000E+00  0.00000000000E+00 -0.14710468423E+04  0.14710468423E+04  0.50400001928E-02 0.  1.
    10030    2    1    2    0    0  0.00000000000E+00  0.00000000000E+00  0.77775527732E+03  0.37198489619E+04  0.36376328880E+04 0.  0.
        4    1    3    3  502    0 -0.66071137738E+03  0.45170816916E+02  0.21211271201E+04  0.22221075130E+04  0.12699999809E+01 0. -1.
       -4    1    3    3    0  502  0.66071137738E+03 -0.45170816916E+02 -0.13433718428E+04  0.14977414489E+04  0.12699999809E+01 0.  1.
</event>
<event>
 5   0  0.3880259E-07  0.3541591E+04  0.7818609E-02  0.8104003E-01
        2   -1    0    0  501    0  0.00000000000E+00  0.00000000000E+00  0.25196874614E+04  0.25196874614E+04  0.25500000920E-02 0. -1.
       -2   -1    0    0    0  501  0.00000000000E+00  0.00000000000E+00 -0.12444866887E+04  0.12444866887E+04  0.25500000920E-02 0.  1.
    10030    2    1    2    0    0  0.00000000000E+00  0.00000000000E+00  0.12752007728E+04  0.37641741501E+04  0.35415914532E+04 0.  0.
        5    1    3    3  502    0 -0.68086145380E+03 -0.34994139950E+03 -0.10595203214E+04  0.13071483098E+04  0.46999998093E+01 0.  1.
       -5    1    3    3    0  502  0.68086145380E+03  0.34994139950E+03  0.23347210942E+04  0.24570258403E+04  0.46999998093E+01 0. -1.
</event>
<event>
 5   0  0.4115358E-07  0.3649677E+04  0.7818609E-02  0.8079207E-01
        2   -1    0    0  501    0  0.00000000000E+00  0.00000000000E+00  0.19481087485E+04  0.19481087485E+04  0.25500000920E-02 0. -1.
       -2   -1    0    0    0  501  0.00000000000E+00  0.00000000000E+00 -0.17093680116E+04  0.17093680116E+04  0.25500000920E-02 0.  1.
    10030    2    1    2    0    0  0.00000000000E+00  0.00000000000E+00  0.23874073696E+03  0.36574767601E+04  0.36496765763E+04 0.  0.
        3    1    3    3  502    0  0.15663753907E+04 -0.24281074948E+03  0.10254852276E+04  0.18878847652E+04  0.10100000352E+00 0. -1.
       -3    1    3    3    0  502 -0.15663753907E+04  0.24281074948E+03 -0.78674449062E+03  0.17695919949E+04  0.10100000352E+00 0.  1.
</event>
<event>
 5   0  0.1348226E-07  0.3595118E+04  0.7818609E-02  0.8091611E-01
       -1   -1    0    0    0  501  0.00000000000E+00  0.00000000000E+00  0.17294799214E+04  0.17294799214E+04  0.50400001928E-02 0. -1.
        1   -1    0    0  501    0  0.00000000000E+00  0.00000000000E+00 -0.18683181467E+04  0.18683181467E+04  0.50400001928E-02 0.  1.
    10030    2    1    2    0    0  0.00000000000E+00  0.00000000000E+00 -0.13883822534E+03  0.35977980681E+04  0.35951182019E+04 0.  0.
        4    1    3    3  502    0  0.92702069803E+03 -0.15337239196E+04 -0.20931126859E+03  0.18042974411E+04  0.12699999809E+01 0. -1.
       -4    1    3    3    0  502 -0.92702069803E+03  0.15337239196E+04  0.70473043258E+02  0.17935006269E+04  0.12699999809E+01 0.  1.
</event>
<event>
 5   0  0.1370997E-07  0.3582804E+04  0.7818609E-02  0.8094442E-01
        1   -1    0    0  501    0  0.00000000000E+00  0.00000000000E+00  0.22133076106E+04  0.22133076106E+04  0.50400001928E-02 0.  1.
       -1   -1    0    0    0  501  0.00000000000E+00  0.00000000000E+00 -0.14499206530E+04  0.14499206530E+04  0.50400001928E-02 0. -1.
    10030    2    1    2    0    0  0.00000000000E+00  0.00000000000E+00  0.76338695760E+03  0.36632282636E+04  0.35828036039E+04 0.  0.
        3    1    3    3  502    0  0.11175423178E+04 -0.38340069160E+03 -0.99509317205E+03  0.15447029985E+04  0.10100000352E+00 0. -1.
       -3    1    3    3    0  502 -0.11175423178E+04  0.38340069160E+03  0.17584801296E+04  0.21185252651E+04  0.10100000352E+00 0.  1.
</event>
<event>
 5   0  0.4200635E-07  0.3599184E+04  0.7818609E-02  0.8090679E-01
       -2   -1    0    0    0  501  0.00000000000E+00  0.00000000000E+00  0.24144297224E+04  0.24144297224E+04  0.25500000920E-02 0.  1.
        2   -1    0    0  501    0  0.00000000000E+00  0.00000000000E+00 -0.13413236430E+04  0.13413236430E+04  0.25500000920E-02 0. -1.
    10030    2    1    2    0    0  0.00000000000E+00  0.00000000000E+00  0.10731060794E+04  0.37557533654E+04  0.35991841692E+04 0.  0.
        4    1    3    3  502    0  0.66925852951E+03  0.13564372806E+04 -0.48090138911E+03  0.15871662907E+04  0.12699999809E+01 0.  1.
       -4    1    3    3    0  502 -0.66925852951E+03 -0.13564372806E+04  0.15540074685E+04  0.21685870747E+04  0.12699999809E+01 0. -1.
</event>
<event>
 5   0  0.4115358E-07  0.3470372E+04  0.7818609E-02  0.8120848E-01
       -2   -1    0    0    0  501  0.00000000000E+00  0.00000000000E+00  0.24500435554E+04  0.24500435554E+04  0.25500000920E-02 0. -1.
        2   -1    0    0  501    0  0.00000000000E+00  0.00000000000E+00 -0.12289047293E+04  0.12289047293E+04  0.25500000920E-02 0.  1.
    10030    2    1    2    0    0  0.00000000000E+00  0.00000000000E+00  0.12211388261E+04  0.36789482848E+04  0.34703718027E+04 0.  0.
        3    1    3    3  502    0 -0.10291340478E+04  0.10853633757E+04  0.15430613324E+04  0.21489925155E+04  0.10100000352E+00 0. -1.
       -3    1    3    3    0  502  0.10291340478E+04 -0.10853633757E+04 -0.32192250628E+03  0.15299557693E+04  0.10100000352E+00 0.  1.
</event>
<event>
 5   0  0.4120440E-07  0.3869107E+04  0.7818609E-02  0.8031485E-01
       -2   -1    0    0    0  501  0.00000000000E+00  0.00000000000E+00  0.24969735416E+04  0.24969735416E+04  0.25500000920E-02 0. -1.
        2   -1    0    0  501    0  0.00000000000E+00  0.00000000000E+00 -0.14988136094E+04  0.14988136094E+04  0.25500000920E-02 0.  1.
    10030    2    1    2    0    0  0.00000000000E+00  0.00000000000E+00  0.99815993230E+03  0.39957871510E+04  0.38691073526E+04 0.  0.
        2    1    3    3  502    0  0.13615532803E+04 -0.51906505591E+03  0.18132375756E+04  0.23261741923E+04  0.25500000920E-02 0. -1.
       -2    1    3    3    0  502 -0.13615532803E+04  0.51906505591E+03 -0.81507764329E+03  0.16696129587E+04  0.25500000920E-02 0.  1.
</event>
<event>
 5   0  0.4120440E-07  0.3449401E+04  0.7818609E-02  0.8125887E-01
        2   -1    0    0  501    0  0.00000000000E+00  0.00000000000E+00  0.10412217211E+04  0.10412217211E+04  0.25500000920E-02 0.  1.
       -2   -1    0    0    0  501  0.00000000000E+00  0.00000000000E+00 -0.28568288582E+04  0.28568288582E+04  0.25500000920E-02 0. -1.
    10030    2    1    2    0    0  0.00000000000E+00  0.00000000000E+00 -0.18156071370E+04  0.38980505793E+04  0.34494012586E+04 0.  0.
        2    1    3    3  502    0 -0.55006383594E+03 -0.17997535215E+03 -0.27438148912E+04  0.28041899914E+04  0.25500000920E-02 0. -1.
       -2    1    3    3    0  502  0.55006383594E+03  0.17997535215E+03  0.92820775411E+03  0.10938605879E+04  0.25500000920E-02 0.  1.
</event>
<event>
 5   0  0.4200635E-07  0.3597603E+04  0.7818609E-02  0.8091041E-01
       -2   -1    0    0    0  501  0.00000000000E+00  0.00000000000E+00  0.14832825358E+04  0.14832825358E+04  0.25500000920E-02 0. -1.
        2   -1    0    0  501    0  0.00000000000E+00  0.00000000000E+00 -0.21814362114E+04  0.21814362114E+04  0.25500000920E-02 0.  1.
    10030    2    1    2    0    0  0.00000000000E+00  0.00000000000E+00 -0.69815367563E+03  0.36647187472E+04  0.35976026658E+04 0.  0.
        4    1    3    3  502    0 -0.35076732149E+03 -0.16778921946E+04  0.20637056725E+03  0.17265428910E+04  0.12699999809E+01 0.  1.
       -4    1    3    3    0  502  0.35076732149E+03  0.16778921946E+04 -0.90452424287E+03  0.19381758562E+04  0.12699999809E+01 0. -1.
</event>
<event>
 5   0  0.3880259E-07  0.3584839E+04  0.7818609E-02  0.8093973E-01
       -2   -1    0    0    0  501  0.00000000000E+00  0.00000000000E+00  0.24896469864E+04  0.24896469864E+04  0.25500000920E-02 0. -1.
        2   -1    0    0  501    0  0.00000000000E+00  0.00000000000E+00 -0.12904512060E+04  0.12904512060E+04  0.25500000920E-02 0.  1.
    10030    2    1    2    0    0  0.00000000000E+00  0.00000000000E+00  0.11991957803E+04  0.37800981924E+04  0.35848391630E+04 0.  0.
        5    1    3    3  502    0 -0.92185427002E+03  0.10897970962E+04 -0.54355089600E+03  0.15273973526E+04  0.46999998093E+01 0.  1.
       -5    1    3    3    0  502  0.92185427002E+03 -0.10897970962E+04  0.17427466763E+04  0.22527008399E+04  0.46999998093E+01 0. -1.
</event>
<event>
 5   0  0.3880259E-07  0.3588585E+04  0.7818609E-02  0.8093111E-01
       -2   -1    0    0    0  501  0.00000000000E+00  0.00000000000E+00  0.15341170838E+04  0.15341170838E+04  0.25500000920E-02 0.  1.
        2   -1    0    0  501    0  0.00000000000E+00  0.00000000000E+00 -0.20985916246E+04  0.20985916246E+04  0.25500000920E-02 0. -1.
    10030    2    1    2    0    0  0.00000000000E+00  0.00000000000E+00 -0.56447454083E+03  0.36327087085E+04  0.35885848260E+04 0.  0.
        5    1    3    3  502    0  0.12619385385E+04 -0.55050719260E+02 -0.15722465822E+04  0.20168046167E+04  0.46999998093E+01 0. -1.
       -5    1    3    3    0  502 -0.12619385385E+04  0.55050719260E+02  0.10077720414E+04  0.16159040918E+04  0.46999998093E+01 0.  1.
</event>
<event>
 5   0  0.4115358E-07  0.3560979E+04  0.7818609E-02  0.8099489E-01
        2   -1    0    0  501    0  0.00000000000E+00  0.00000000000E+00  0.21091070466E+04  0.21091070466E+04  0.25500000920E-02 0. -1.
       -2   -1    0    0    0  501  0.00000000000E+00  0.00000000000E+00 -0.15030733963E+04  0.15030733963E+04  0.25500000920E-02 0.  1.
    10030    2    1    2    0    0  0.00000000000E+00  0.00000000000E+00  0.60603365032E+03  0.36121804429E+04  0.35609789057E+04 0.  0.
        3    1    3    3  502    0 -0.11150337247E+04  0.13323818698E+04  0.69797500065E+03  0.18723543377E+04  0.10100000352E+00 0. -1.
       -3    1    3    3    0  502  0.11150337247E+04 -0.13323818698E+04 -0.91941350327E+02  0.17398261052E+04  0.10100000352E+00 0.  1.
</event>
<event>
 5   0  0.1298250E-07  0.3606897E+04  0.7818609E-02  0.8088914E-01
        1   -1    0    0  501    0  0.00000000000E+00  0.00000000000E+00  0.15924548420E+04  0.15924548420E+04  0.50400001928E-02 0.  1.
       -1   -1    0    0    0  501  0.00000000000E+00  0.00000000000E+00 -0.20423978065E+04  0.20423978065E+04  0.50400001928E-02 0. -1.
    10030    2    1    2    0    0  0.00000000000E+00  0.00000000000E+00 -0.44994296450E+03  0.36348526485E+04  0.36068968802E+04 0.  0.
        1    1    3    3  502    0  0.16168186860E+04  0.57587662899E+02 -0.10280211998E+04  0.19168324365E+04  0.50400001928E-02 0. -1.
       -1    1    3    3    0  502 -0.16168186860E+04 -0.57587662899E+02  0.57807823535E+03  0.17180202119E+04  0.50400001928E-02 0.  1.
</event>
<event>
 5   0  0.1298250E-07  0.3636715E+04  0.7818609E-02  0.8082133E-01
       -1   -1    0    0    0  501  0.00000000000E+00  0.00000000000E+00  0.18301481677E+04  0.18301481677E+04  0.50400001928E-02 0. -1.
        1   -1    0    0  501    0  0.00000000000E+00  0.00000000000E+00 -0.18066424819E+04  0.18066424819E+04  0.50400001928E-02 0.  1.
    10030    2    1    2    0    0  0.00000000000E+00  0.00000000000E+00  0.23505685786E+02  0.36367906495E+04  0.36367146866E+04 0.  0.
        1    1    3    3  502    0 -0.15549908845E+03 -0.17479589663E+04 -0.46457938553E+03  0.18153166445E+04  0.50400001928E-02 0.  1.
       -1    1    3    3    0  502  0.15549908845E+03  0.17479589663E+04  0.48808507132E+03  0.18214740051E+04  0.50400001928E-02 0. -1.
</event>
<event>
 5   0  0.4120440E-07  0.3593201E+04  0.7818609E-02  0.8092051E-01
       -2   -1    0    0    0  501  0.00000000000E+00  0.00000000000E+00  0.21008402911E+04  0.21008402911E+04  0.25500000920E-02 0. -1.
        2   -1    0    0  501    0  0.00000000000E+00  0.00000000000E+00 -0.15364199389E+04  0.15364199389E+04  0.25500000920E-02 0.  1.
    10030    2    1    2    0    0  0.00000000000E+00  0.00000000000E+00  0.56442035226E+03  0.36372602300E+04  0.35932007523E+04 0.  0.
        2    1    3    3  502    0 -0.73254672042E+03  0.14156846823E+04  0.11212190403E+04  0.19488252753E+04  0.25500000920E-02 0. -1.
       -2    1    3    3    0  502  0.73254672042E+03 -0.14156846823E+04 -0.55679868799E+03  0.16884349547E+04  0.25500000920E-02 0.  1.
</event>
<event>
 5   0  0.4200635E-07  0.3615593E+04  0.7818609E-02  0.8086929E-01
        2   -1    0    0  501    0  0.00000000000E+00  0.00000000000E+00  0.14750769955E+04  0.14750769955E+04  0.25500000920E-02 0.  1.
       -2   -1    0    0    0  501  0.00000000000E+00  0.00000000000E+00 -0.22155642191E+04  0.22155642191E+04  0.25500000920E-02 0. -1.
    10030    2    1    2    0    0  0.00000000000E+00  0.00000000000E+00 -0.74048722358E+03  0.36906412146E+04  0.36155927932E+04 0.  0.
        4    1    3    3  502    0  0.10829808316E+04 -0.79625563514E+03 -0.16041591170E+04  0.20928924013E+04  0.12699999809E+01 0. -1.
       -4    1    3    3    0  502 -0.10829808316E+04  0.79625563514E+03  0.86367189337E+03  0.15977488133E+04  0.12699999809E+01 0.  1.
</event>
<event>
 5   0  0.1361743E-07  0.3627891E+04  0.7818609E-02  0.8084133E-01
       -1   -1    0    0    0  501  0.00000000000E+00  0.00000000000E+00  0.33793608866E+04  0.33793608866E+04  0.50400001928E-02 0.  1.
        1   -1    0    0  501    0  0.00000000000E+00  0.00000000000E+00 -0.97367489374E+03  0.97367489375E+03  0.50400001928E-02 0. -1.
    10030    2    1    2    0    0  0.00000000000E+00  0.00000000000E+00  0.24056859928E+04  0.43530357803E+04  0.36278913171E+04 0.  0.
        5    1    3    3  502    0  0.13551177825E+04  0.99753097467E+03  0.20157250249E+04  0.26257535520E+04  0.46999998093E+01 0.  1.
       -5    1    3    3    0  502 -0.13551177825E+04 -0.99753097467E+03  0.38996096795E+03  0.17272822283E+04  0.46999998093E+01 0. -1.
</event>
<event>
 5   0  0.3993751E-07  0.3610067E+04  0.7818609E-02  0.8088190E-01
        2   -1    0    0  501    0  0.00000000000E+00  0.00000000000E+00  0.23933567353E+04  0.23933567353E+04  0.25500000920E-02 0. -1.
       -2   -1    0    0    0  501  0.00000000000E+00  0.00000000000E+00 -0.13613293284E+04  0.13613293284E+04  0.25500000920E-02 0.  1.
    10030    2    1    2    0    0  0.00000000000E+00  0.00000000000E+00  0.10320274070E+04  0.37546860637E+04  0.36100674326E+04 0.  0.
        1    1    3    3  502    0 -0.26870072205E+03 -0.55285035933E+02 -0.13395212736E+04  0.13673235739E+04  0.50400001928E-02 0.  1.
       -1    1    3    3    0  502  0.26870072205E+03  0.55285035933E+02  0.23715486806E+04  0.23873624898E+04  0.50400001928E-02 0. -1.
</event>
<event>
 5   0  0.1361743E-07  0.3616528E+04  0.7818609E-02  0.8086716E-01
        1   -1    0    0  501    0  0.00000000000E+00  0.00000000000E+00  0.22701945587E+04  0.22701945587E+04  0.50400001928E-02 0. -1.
       -1   -1    0    0    0  501  0.00000000000E+00  0.00000000000E+00 -0.14403252518E+04  0.14403252518E+04  0.50400001928E-02 0.  1.
    10030    2    1    2    0    0  0.00000000000E+00  0.00000000000E+00  0.82986930693E+03  0.37105198104E+04  0.36165279201E+04 0.  0.
        5    1    3    3  502    0 -0.34178335590E+03 -0.14214812116E+04  0.15067204693E+04  0.20994412018E+04  0.46999998093E+01 0. -1.
       -5    1    3    3    0  502  0.34178335590E+03  0.14214812116E+04 -0.67685116239E+03  0.16110786086E+04  0.46999998093E+01 0.  1.
</event>
<event>
 5   0  0.1348226E-07  0.3587771E+04  0.7818609E-02  0.8093299E-01
       -1   -1    0    0    0  501  0.00000000000E+00  0.00000000000E+00  0.15803968264E+04  0.15803968264E+04  0.50400001928E-02 0. -1.
        1   -1    0    0  501    0  0.00000000000E+00  0.00000000000E+00 -0.20362139464E+04  0.20362139465E+04  0.50400001928E-02 0.  1.
    10030    2    1    2    0    0  0.00000000000E+00  0.00000000000E+00 -0.45581712006E+03  0.36166107728E+04  0.35877714859E+04 0.  0.
        4    1    3    3  502    0  0.15646919611E+04 -0.74213956971E+03  0.24381926197E+03  0.17488514859E+04  0.12699999809E+01 0. -1.
       -4    1    3    3    0  502 -0.15646919611E+04  0.74213956971E+03 -0.69963638203E+03  0.18677592870E+04  0.12699999809E+01 0.  1.
</event>
<event>
 5   0  0.1298250E-07  0.3601161E+04  0.7818609E-02  0.8090226E-01
        1   -1    0    0  501    0  0.00000000000E+00  0.00000000000E+00  0.20218650124E+04  0.20218650124E+04  0.50400001928E-02 0. -1.
       -1   -1    0    0    0  501  0.00000000000E+00  0.00000000000E+00 -0.16035149252E+04  0.16035149252E+04  0.50400001928E-02 0.  1.
    10030    2    1    2    0    0  0.00000000000E+00  0.00000000000E+00  0.41835008719E+03  0.36253799376E+04  0.36011613261E+04 0.  0.
        1    1    3    3  502    0 -0.74869091153E+03  0.73568003292E+03  0.16819997767E+04  0.19826463227E+04  0.50400001928E-02 0. -1.
       -1    1    3    3    0  502  0.74869091153E+03 -0.73568003292E+03 -0.12636496895E+04  0.16427336150E+04  0.50400001928E-02 0.  1.
</event>
<event>
 5   0  0.1298250E-07  0.3583043E+04  0.7818609E-02  0.8094387E-01
        1   -1    0    0  501    0  0.00000000000E+00  0.00000000000E+00  0.11609611242E+04  0.11609611243E+04  0.50400001928E-02 0.  1.
       -1   -1    0    0    0  501  0.00000000000E+00  0.00000000000E+00 -0.27645627688E+04  0.27645627688E+04  0.50400001928E-02 0. -1.
    10030    2    1    2    0    0  0.00000000000E+00  0.00000000000E+00 -0.16036016446E+04  0.39255238931E+04  0.35830433434E+04 0.  0.
        1    1    3    3  502    0 -0.86541830388E+02  0.13245855382E+04  0.51633415539E+03  0.14242953684E+04  0.50400001928E-02 0.  1.
       -1    1    3    3    0  502  0.86541830388E+02 -0.13245855382E+04 -0.21199358000E+04  0.25012285246E+04  0.50400001928E-02 0. -1.
</event>
<event>
 5   0  0.1298250E-07  0.3578104E+04  0.7818609E-02  0.8095526E-01
        1   -1    0    0  501    0  0.00000000000E+00  0.00000000000E+00  0.19240576654E+04  0.19240576654E+04  0.50400001928E-02 0. -1.
       -1   -1    0    0    0  501  0.00000000000E+00  0.00000000000E+00 -0.16635190529E+04  0.16635190529E+04  0.50400001928E-02 0.  1.
    10030    2    1    2    0    0  0.00000000000E+00  0.00000000000E+00  0.26053861249E+03  0.35875767183E+04  0.35781037354E+04 0.  0.
        1    1    3    3  502    0  0.90997060530E+02  0.13683281461E+04  0.12822690350E+04  0.18774494024E+04  0.50400001928E-02 0. -1.
       -1    1    3    3    0  502 -0.90997060530E+02 -0.13683281461E+04 -0.10217304226E+04  0.17101273159E+04  0.50400001928E-02 0.  1.
</event>
<event>
 5   0  0.1298250E-07  0.3517380E+04  0.7818609E-02  0.8109683E-01
        1   -1    0    0  501    0  0.00000000000E+00  0.00000000000E+00  0.21193523567E+04  0.21193523567E+04  0.50400001928E-02 0. -1.
       -1   -1    0    0    0  501  0.00000000000E+00  0.00000000000E+00 -0.14594039531E+04  0.14594039531E+04  0.50400001928E-02 0.  1.
    10030    2    1    2    0    0  0.00000000000E+00  0.00000000000E+00  0.65994840358E+03  0.35787563098E+04  0.35173803931E+04 0.  0.
        2    1    3    3  502    0  0.15413273714E+04 -0.77097417951E+03 -0.26713924411E+02  0.17236022990E+04  0.25500000920E-02 0.  1.
       -2    1    3    3    0  502 -0.15413273714E+04  0.77097417951E+03  0.68666232799E+03  0.18551540108E+04  0.25500000920E-02 0. -1.
</event>
<event>
 5   0  0.1361743E-07  0.3661212E+04  0.7818609E-02  0.8076612E-01
        1   -1    0    0  501    0  0.00000000000E+00  0.00000000000E+00  0.20592615782E+04  0.20592615782E+04  0.50400001928E-02 0. -1.
       -1   -1    0    0    0  501  0.00000000000E+00  0.00000000000E+00 -0.16273401204E+04  0.16273401204E+04  0.50400001928E-02 0.  1.
    10030    2    1    2    0    0  0.00000000000E+00  0.00000000000E+00  0.43192145783E+03  0.36866016986E+04  0.36612123591E+04 0.  0.
        5    1    3    3  502    0 -0.38591716128E+03  0.82205855400E+03  0.18164435961E+04  0.20308130759E+04  0.46999998093E+01 0. -1.
       -5    1    3    3    0  502  0.38591716128E+03 -0.82205855400E+03 -0.13845221383E+04  0.16557886227E+04  0.46999998093E+01 0.  1.
</event>
<event>
 5   0  0.4115358E-07  0.3608241E+04  0.7818609E-02  0.8088607E-01
       -2   -1    0    0    0  501  0.00000000000E+00  0.00000000000E+00  0.13041767391E+04  0.13041767391E+04  0.25500000920E-02 0.  1.
        2   -1    0    0  501    0  0.00000000000E+00  0.00000000000E+00 -0.24957125069E+04  0.24957125069E+04  0.25500000920E-02 0. -1.
    10030    2    1    2    0    0  0.00000000000E+00  0.00000000000E+00 -0.11915357678E+04  0.37998892461E+04  0.36082406788E+04 0.  0.
        3    1    3    3  502    0  0.17187524460E+04  0.19050042927E+02 -0.11729448688E+04  0.20809306932E+04  0.10100000352E+00 0. -1.
       -3    1    3    3    0  502 -0.17187524460E+04 -0.19050042927E+02 -0.18590898979E+02  0.17189585528E+04  0.10100000352E+00 0.  1.
</event>
<event>
 5   0  0.1370997E-07  0.3591285E+04  0.7818609E-02  0.8092491E-01
       -1   -1    0    0    0  501  0.00000000000E+00  0.00000000000E+00  0.23764347961E+04  0.23764347961E+04  0.50400001928E-02 0.  1.
        1   -1    0    0  501    0  0.00000000000E+00  0.00000000000E+00 -0.13567940947E+04  0.13567940947E+04  0.50400001928E-02 0. -1.
    10030    2    1    2    0    0  0.00000000000E+00  0.00000000000E+00  0.10196407014E+04  0.37332288908E+04  0.35912853954E+04 0.  0.
        3    1    3    3  502    0  0.36195535400E+03  0.82749850612E+03  0.21231164564E+04  0.23072470508E+04  0.10100000352E+00 0.  1.
       -3    1    3    3    0  502 -0.36195535400E+03 -0.82749850612E+03 -0.11034757550E+04  0.14259818400E+04  0.10100000352E+00 0. -1.
</event>
<event>
 5   0  0.1298250E-07  0.3590537E+04  0.7818609E-02  0.8092663E-01
       -1   -1    0    0    0  501  0.00000000000E+00  0.00000000000E+00  0.11286987630E+04  0.11286987631E+04  0.50400001928E-02 0. -1.
        1   -1    0    0  501    0  0.00000000000E+00  0.00000000000E+00 -0.28554903258E+04  0.28554903258E+04  0.50400001928E-02 0.  1.
    10030    2    1    2    0    0  0.00000000000E+00  0.00000000000E+00 -0.17267915627E+04  0.39841890888E+04  0.35905366722E+04 0.  0.
        2    1    3    3  502    0 -0.54561234400E+03  0.11039310352E+04  0.58621195021E+03  0.13638185404E+04  0.25500000920E-02 0. -1.
       -2    1    3    3    0  502  0.54561234400E+03 -0.11039310352E+04 -0.23130035129E+04  0.26203705485E+04  0.25500000920E-02 0.  1.
</event>
<event>
 5   0  0.3880259E-07  0.3584864E+04  0.7818609E-02  0.8093968E-01
        2   -1    0    0  501    0  0.00000000000E+00  0.00000000000E+00  0.14948706622E+04  0.14948706622E+04  0.25500000920E-02 0.  1.
       -2   -1    0    0    0  501  0.00000000000E+00  0.00000000000E+00 -0.21492241728E+04  0.21492241728E+04  0.25500000920E-02 0. -1.
    10030    2    1    2    0    0  0.00000000000E+00  0.00000000000E+00 -0.65435351055E+03  0.36440948350E+04  0.35848638258E+04 0.  0.
        5    1    3    3  502    0  0.17713629560E+04 -0.13270806434E+03 -0.83525147295E+02  0.17782960081E+04  0.46999998093E+01 0.  1.
       -5    1    3    3    0  502 -0.17713629560E+04  0.13270806434E+03 -0.57082836325E+03  0.18657988269E+04  0.46999998093E+01 0. -1.
</event>
<event>
 5   0  0.4115358E-07  0.3609778E+04  0.7818609E-02  0.8088256E-01
       -2   -1    0    0    0  501  0.00000000000E+00  0.00000000000E+00  0.21558663581E+04  0.21558663582E+04  0.25500000920E-02 0. -1.
        2   -1    0    0  501    0  0.00000000000E+00  0.00000000000E+00 -0.15110509905E+04  0.15110509905E+04  0.25500000920E-02 0.  1.
    10030    2    1    2    0    0  0.00000000000E+00  0.00000000000E+00  0.64481536766E+03  0.36669173486E+04  0.36097778302E+04 0.  0.
        3    1    3    3  502    0  0.10876824282E+04 -0.38145441539E+03 -0.10884847487E+04  0.15853578757E+04  0.10100000352E+00 0.  1.
       -3    1    3    3    0  502 -0.10876824282E+04  0.38145441539E+03  0.17333001164E+04  0.20815594729E+04  0.10100000352E+00 0. -1.
</event>
<event>
 5   0  0.1298250E-07  0.3593800E+04  0.7818609E-02  0.8091913E-01
       -1   -1    0    0    0  501  0.00000000000E+00  0.00000000000E+00  0.27190832361E+04  0.27190832361E+04  0.50400001928E-02 0.  1.
        1   -1    0    0  501    0  0.00000000000E+00  0.00000000000E+00 -0.11874774848E+04  0.11874774848E+04  0.50400001928E-02 0. -1.
    10030    2    1    2    0    0  0.00000000000E+00  0.00000000000E+00  0.15316057514E+04  0.39065607209E+04  0.35938002850E+04 0.  0.
        1    1    3    3  502    0 -0.16310098230E+04 -0.47269196812E+02  0.15839114909E+04  0.22740279310E+04  0.50400001928E-02 0.  1.
       -1    1    3    3    0  502  0.16310098230E+04  0.47269196812E+02 -0.52305739584E+02  0.16325327899E+04  0.50400001928E-02 0. -1.
</event>
<event>
 5   0  0.4200635E-07  0.3594987E+04  0.7818609E-02  0.8091641E-01
       -2   -1    0    0    0  501  0.00000000000E+00  0.00000000000E+00  0.12332209689E+04  0.12332209689E+04  0.25500000920E-02 0.  1.
        2   -1    0    0  501    0  0.00000000000E+00  0.00000000000E+00 -0.26199544267E+04  0.26199544267E+04  0.25500000920E-02 0. -1.
    10030    2    1    2    0    0  0.00000000000E+00  0.00000000000E+00 -0.13867334578E+04  0.38531753957E+04  0.35949869189E+04 0.  0.
        4    1    3    3  502    0  0.22613801215E+03  0.13274120537E+04 -0.19696057159E+04  0.23858980384E+04  0.12699999809E+01 0. -1.
       -4    1    3    3    0  502 -0.22613801215E+03 -0.13274120537E+04  0.58287225808E+03  0.14672773572E+04  0.12699999809E+01 0.  1.
</event>
<event>
 5   0  0.3993751E-07  0.3578497E+04  0.7818609E-02  0.8095435E-01
        2   -1    0    0  501    0  0.00000000000E+00  0.00000000000E+00  0.25829567959E+04  0.25829567959E+04  0.25500000920E-02 0.  1.
       -2   -1    0    0    0  501  0.00000000000E+00  0.00000000000E+00 -0.12394359306E+04  0.12394359307E+04  0.25500000920E-02 0. -1.
    10030    2    1    2    0    0  0.00000000000E+00  0.00000000000E+00  0.13435208653E+04  0.38223927266E+04  0.35784965895E+04 0.  0.
        1    1    3    3  502    0  0.16867687577E+04  0.39675077620E+03  0.19549046246E+03  0.17437937210E+04  0.50400001928E-02 0.  1.
       -1    1    3    3    0  502 -0.16867687577E+04 -0.39675077620E+03  0.11480304028E+04  0.20785990056E+04  0.50400001928E-02 0. -1.
</event>
<event>
 5   0  0.4115358E-07  0.3578842E+04  0.7818609E-02  0.8095356E-01
       -2   -1    0    0    0  501  0.00000000000E+00  0.00000000000E+00  0.27546525569E+04  0.27546525569E+04  0.25500000920E-02 0. -1.
        2   -1    0    0  501    0  0.00000000000E+00  0.00000000000E+00 -0.11624068363E+04  0.11624068363E+04  0.25500000920E-02 0.  1.
    10030    2    1    2    0    0  0.00000000000E+00  0.00000000000E+00  0.15922457207E+04  0.39170593932E+04  0.35788416918E+04 0.  0.
        3    1    3    3  502    0  0.35480020434E+03 -0.12978478634E+04  0.20873299299E+04  0.24833925400E+04  0.10100000352E+00 0. -1.
       -3    1    3    3    0  502 -0.35480020434E+03  0.12978478634E+04 -0.49508420923E+03  0.14336668532E+04  0.10100000352E+00 0.  1.
</event>
<event>
 5   0  0.1361743E-07  0.3599263E+04  0.7818609E-02  0.8090661E-01
       -1   -1    0    0    0  501  0.00000000000E+00  0.00000000000E+00  0.11890757070E+04  0.11890757070E+04  0.50400001928E-02 0. -1.
        1   -1    0    0  501    0  0.00000000000E+00  0.00000000000E+00 -0.27236900330E+04  0.27236900330E+04  0.50400001928E-02 0.  1.
    10030    2    1    2    0    0  0.00000000000E+00  0.00000000000E+00 -0.15346143260E+04  0.39127657400E+04  0.35992630644E+04 0.  0.
        5    1    3    3  502    0  0.91983082563E+03 -0.10893620259E+04 -0.19610684087E+04  0.24245844520E+04  0.46999998093E+01 0.  1.
       -5    1    3    3    0  502 -0.91983082563E+03  0.10893620259E+04  0.42645408276E+03  0.14881812880E+04  0.46999998093E+01 0. -1.
</event>
<event>
 5   0  0.1298250E-07  0.3488502E+04  0.7818609E-02  0.8116520E-01
       -1   -1    0    0    0  501  0.00000000000E+00  0.00000000000E+00  0.12614083621E+04  0.12614083622E+04  0.50400001928E-02 0.  1.
        1   -1    0    0  501    0  0.00000000000E+00  0.00000000000E+00 -0.24119164465E+04  0.24119164465E+04  0.50400001928E-02 0. -1.
    10030    2    1    2    0    0  0.00000000000E+00  0.00000000000E+00 -0.11505080844E+04  0.36733248087E+04  0.34885020134E+04 0.  0.
        2    1    3    3  502    0 -0.10227741990E+04  0.14393494042E+03  0.90478392805E+03  0.13731053440E+04  0.25500000920E-02 0.  1.
       -2    1    3    3    0  502  0.10227741990E+04 -0.14393494042E+03 -0.20552920124E+04  0.23002194647E+04  0.25500000920E-02 0. -1.
</event>
<event>
 5   0  0.1370997E-07  0.3586417E+04  0.7818609E-02  0.8093610E-01
       -1   -1    0    0    0  501  0.00000000000E+00  0.00000000000E+00  0.22461738829E+04  0.22461738829E+04  0.50400001928E-02 0.  1.
        1   -1    0    0  501    0  0.00000000000E+00  0.00000000000E+00 -0.14315883334E+04  0.14315883334E+04  0.50400001928E-02 0. -1.
    10030    2    1    2    0    0  0.00000000000E+00  0.00000000000E+00  0.81458554943E+03  0.36777622163E+04  0.35864167776E+04 0.  0.
        3    1    3    3  502    0  0.10194730871E+04  0.59670637978E+03 -0.97622240293E+03  0.15324470853E+04  0.10100000352E+00 0. -1.
       -3    1    3    3    0  502 -0.10194730871E+04 -0.59670637978E+03  0.17908079524E+04  0.21453151310E+04  0.10100000352E+00 0.  1.
</event>
<event>
 5   0  0.4120440E-07  0.3633780E+04  0.7818609E-02  0.8082797E-01
       -2   -1    0    0    0  501  0.00000000000E+00  0.00000000000E+00  0.19397276420E+04  0.19397276420E+04  0.25500000920E-02 0. -1.
        2   -1    0    0  501    0  0.00000000000E+00  0.00000000000E+00 -0.17018314354E+04  0.17018314354E+04  0.25500000920E-02 0.  1.
    10030    2    1    2    0    0  0.00000000000E+00  0.00000000000E+00  0.23789620654E+03  0.36415590774E+04  0.36337801129E+04 0.  0.
        2    1    3    3  502    0  0.11693957796E+04  0.61982990619E+03 -0.11284711320E+04  0.17392879859E+04  0.25500000920E-02 0.  1.
       -2    1    3    3    0  502 -0.11693957796E+04 -0.61982990619E+03  0.13663673386E+04  0.19022710916E+04  0.25500000920E-02 0. -1.
</event>
<event>
 5   0  0.4200635E-07  0.3594377E+04  0.7818609E-02  0.8091781E-01
        2   -1    0    0  501    0  0.00000000000E+00  0.00000000000E+00  0.16141972692E+04  0.16141972692E+04  0.25500000920E-02 0. -1.
       -2   -1    0    0    0  501  0.00000000000E+00  0.00000000000E+00 -0.20009244507E+04  0.20009244507E+04  0.25500000920E-02 0.  1.
    10030    2    1    2    0    0  0.00000000000E+00  0.00000000000E+00 -0.38672718145E+03  0.36151217199E+04  0.35943771556E+04 0.  0.
        4    1    3    3  502    0  0.11546880267E+04 -0.11670978374E+04 -0.92865290067E+03  0.18862183394E+04  0.12699999809E+01 0.  1.
       -4    1    3    3    0  502 -0.11546880267E+04  0.11670978374E+04  0.54192571922E+03  0.17289033805E+04  0.12699999809E+01 0. -1.
</event>
<event>
 5   0  0.1298250E-07  0.3645474E+04  0.7818609E-02  0.8080154E-01
        1   -1    0    0  501    0  0.00000000000E+00  0.00000000000E+00  0.20324255872E+04  0.20324255872E+04  0.50400001928E-02 0. -1.
       -1   -1    0    0    0  501  0.00000000000E+00  0.00000000000E+00 -0.16346823203E+04  0.16346823203E+04  0.50400001928E-02 0.  1.
    10030    2    1    2    0    0  0.00000000000E+00  0.00000000000E+00  0.39774326689E+03  0.36671079075E+04  0.36454740020E+04 0.  0.
        2    1    3    3  502    0 -0.14596795890E+03 -0.48006597828E+03  0.19615834676E+04  0.20247418820E+04  0.25500000920E-02 0. -1.
       -2    1    3    3    0  502  0.14596795890E+03  0.48006597828E+03 -0.15638402007E+04  0.16423660255E+04  0.25500000920E-02 0.  1.
</event>
<event>
 5   0  0.1361743E-07  0.3552120E+04  0.7818609E-02  0.8101548E-01
        1   -1    0    0  501    0  0.00000000000E+00  0.00000000000E+00  0.18775417410E+04  0.18775417410E+04  0.50400001928E-02 0.  1.
       -1   -1    0    0    0  501  0.00000000000E+00  0.00000000000E+00 -0.16800631353E+04  0.16800631353E+04  0.50400001928E-02 0. -1.
    10030    2    1    2    0    0  0.00000000000E+00  0.00000000000E+00  0.19747860572E+03  0.35576048764E+04  0.35521197413E+04 0.  0.
        5    1    3    3  502    0 -0.30293791061E+03 -0.19139923917E+02  0.18513640391E+04  0.18760886465E+04  0.46999998093E+01 0.  1.
       -5    1    3    3    0  502  0.30293791061E+03  0.19139923917E+02 -0.16538854334E+04  0.16815162298E+04  0.46999998093E+01 0. -1.
</event>
<event>
 5   0  0.1298250E-07  0.3601308E+04  0.7818609E-02  0.8090192E-01
        1   -1    0    0  501    0  0.00000000000E+00  0.00000000000E+00  0.19095835965E+04  0.19095835965E+04  0.50400001928E-02 0.  1.
       -1   -1    0    0    0  501  0.00000000000E+00  0.00000000000E+00 -0.16979383322E+04  0.16979383322E+04  0.50400001928E-02 0. -1.
    10030    2    1    2    0    0  0.00000000000E+00  0.00000000000E+00  0.21164526432E+03  0.36075219287E+04  0.36013081996E+04 0.  0.
        2    1    3    3  502    0 -0.15689957847E+04 -0.86263072862E+03  0.29713813143E+03  0.18149850179E+04  0.25500000920E-02 0. -1.
       -2    1    3    3    0  502  0.15689957847E+04  0.86263072862E+03 -0.85492867117E+02  0.17925369108E+04  0.25500000920E-02 0.  1.
</event>
<event>
 5   0  0.4120440E-07  0.3623065E+04  0.7818609E-02  0.8085229E-01
       -2   -1    0    0    0  501  0.00000000000E+00  0.00000000000E+00  0.15902941848E+04  0.15902941848E+04  0.25500000920E-02 0.  1.
        2   -1    0    0  501    0  0.00000000000E+00  0.00000000000E+00 -0.20635486463E+04  0.20635486463E+04  0.25500000920E-02 0. -1.
    10030    2    1    2    0    0  0.00000000000E+00  0.00000000000E+00 -0.47325446146E+03  0.36538428311E+04  0.36230646763E+04 0.  0.
        2    1    3    3  502    0 -0.16750978250E+03  0.11351582256E+03  0.15788610969E+04  0.15917750257E+04  0.25500000920E-02 0.  1.
       -2    1    3    3    0  502  0.16750978250E+03 -0.11351582256E+03 -0.20521155583E+04  0.20620678054E+04  0.25500000920E-02 0. -1.
</event>
<event>
 5   0  0.4115358E-07  0.3589045E+04  0.7818609E-02  0.8093006E-01
        2   -1    0    0  501    0  0.00000000000E+00  0.00000000000E+00  0.23034244778E+04  0.23034244778E+04  0.25500000920E-02 0.  1.
       -2   -1    0    0    0  501  0.00000000000E+00  0.00000000000E+00 -0.13980535650E+04  0.13980535650E+04  0.25500000920E-02 0. -1.
    10030    2    1    2    0    0  0.00000000000E+00  0.00000000000E+00  0.90537091277E+03  0.37014780428E+04  0.35890448885E+04 0.  0.
        3    1    3    3  502    0  0.21391487996E+03 -0.12167469140E+04 -0.88965602069E+03  0.15224061462E+04  0.10100000352E+00 0. -1.
       -3    1    3    3    0  502 -0.21391487996E+03  0.12167469140E+04  0.17950269335E+04  0.21790718966E+04  0.10100000352E+00 0.  1.
</event>
<event>
 5   0  0.4120440E-07  0.3755842E+04  0.7818609E-02  0.8055698E-01
        2   -1    0    0  501    0  0.00000000000E+00  0.00000000000E+00  0.31572214652E+04  0.31572214652E+04  0.25500000920E-02 0. -1.
       -2   -1    0    0    0  501  0.00000000000E+00  0.00000000000E+00 -0.11169908825E+04  0.11169908825E+04  0.25500000920E-02 0.  1.
    10030    2    1    2    0    0  0.00000000000E+00  0.00000000000E+00  0.20402305826E+04  0.42742123477E+04  0.37558421643E+04 0.  0.
        2    1    3    3  502    0  0.11426810815E+04 -0.14646034260E+04  0.13334408337E+04  0.22866673800E+04  0.25500000920E-02 0. -1.
       -2    1    3    3    0  502 -0.11426810815E+04  0.14646034260E+04  0.70678974889E+03  0.19875449677E+04  0.25500000920E-02 0.  1.
</event>
<event>
 5   0  0.1370997E-07  0.3554448E+04  0.7818609E-02  0.8101006E-01
        1   -1    0    0  501    0  0.00000000000E+00  0.00000000000E+00  0.19797566798E+04  0.19797566798E+04  0.50400001928E-02 0. -1.
       -1   -1    0    0    0  501  0.00000000000E+00  0.00000000000E+00 -0.15954109858E+04  0.15954109858E+04  0.50400001928E-02 0.  1.
    10030    2    1    2    0    0  0.00000000000E+00  0.00000000000E+00  0.38434569400E+03  0.35751676657E+04  0.35544482308E+04 0.  0.
        3    1    3    3  502    0 -0.13345016545E+03  0.62700183703E+03  0.18594193391E+04  0.19668199051E+04  0.10100000352E+00 0. -1.
       -3    1    3    3    0  502  0.13345016545E+03 -0.62700183703E+03 -0.14750736451E+04  0.16083477606E+04  0.10100000352E+00 0.  1.
</event>
<event>
 5   0  0.1361743E-07  0.3597257E+04  0.7818609E-02  0.8091120E-01
        1   -1    0    0  501    0  0.00000000000E+00  0.00000000000E+00  0.23548998940E+04  0.23548998940E+04  0.50400001928E-02 0.  1.
       -1   -1    0    0    0  501  0.00000000000E+00  0.00000000000E+00 -0.13737587558E+04  0.13737587558E+04  0.50400001928E-02 0. -1.
    10030    2    1    2    0    0  0.00000000000E+00  0.00000000000E+00  0.98114113813E+03  0.37286586498E+04  0.35972569263E+04 0.  0.
        5    1    3    3  502    0  0.63142402286E+03  0.34488422806E+03 -0.12180987488E+04  0.14147183745E+04  0.46999998093E+01 0. -1.
       -5    1    3    3    0  502 -0.63142402286E+03 -0.34488422806E+03  0.21992398869E+04  0.23139402753E+04  0.46999998093E+01 0.  1.
</event>
<event>
 5   0  0.3880259E-07  0.3759489E+04  0.7818609E-02  0.8054905E-01
        2   -1    0    0  501    0  0.00000000000E+00  0.00000000000E+00  0.20984008123E+04  0.20984008124E+04  0.25500000920E-02 0. -1.
       -2   -1    0    0    0  501  0.00000000000E+00  0.00000000000E+00 -0.16838724798E+04  0.16838724798E+04  0.25500000920E-02 0.  1.
    10030    2    1    2    0    0  0.00000000000E+00  0.00000000000E+00  0.41452833255E+03  0.37822732922E+04  0.37594889969E+04 0.  0.
        5    1    3    3  502    0  0.56704263643E+03 -0.40825680070E+03 -0.15483636345E+04  0.16987239332E+04  0.46999998093E+01 0.  1.
       -5    1    3    3    0  502 -0.56704263643E+03  0.40825680070E+03  0.19628919670E+04  0.20835493589E+04  0.46999998093E+01 0. -1.
</event>
<event>
 5   0  0.1361743E-07  0.3597973E+04  0.7818609E-02  0.8090956E-01
       -1   -1    0    0    0  501  0.00000000000E+00  0.00000000000E+00  0.10853461578E+04  0.10853461578E+04  0.50400001928E-02 0.  1.
        1   -1    0    0  501    0  0.00000000000E+00  0.00000000000E+00 -0.29818623237E+04  0.29818623238E+04  0.50400001928E-02 0. -1.
    10030    2    1    2    0    0  0.00000000000E+00  0.00000000000E+00 -0.18965161660E+04  0.40672084815E+04  0.35979732162E+04 0.  0.
        5    1    3    3  502    0  0.15700240776E+04  0.71587790973E+03 -0.37310602868E+03  0.17654141114E+04  0.46999998093E+01 0.  1.
       -5    1    3    3    0  502 -0.15700240776E+04 -0.71587790973E+03 -0.15234101373E+04  0.23017943701E+04  0.46999998093E+01 0. -1.
</event>
<event>
 5   0  0.1298250E-07  0.3600464E+04  0.7818609E-02  0.8090385E-01
       -1   -1    0    0    0  501  0.00000000000E+00  0.00000000000E+00  0.16679613088E+04  0.16679613089E+04  0.50400001928E-02 0.  1.
        1   -1    0    0  501    0  0.00000000000E+00  0.00000000000E+00 -0.19429917422E+04  0.19429917422E+04  0.50400001928E-02 0. -1.
    10030    2    1    2    0    0  0.00000000000E+00  0.00000000000E+00 -0.27503043339E+03  0.36109530511E+04  0.36004638865E+04 0.  0.
        2    1    3    3  502    0 -0.78523200237E+03  0.11584590090E+04 -0.12731649362E+04  0.18919739765E+04  0.25500000920E-02 0. -1.
       -2    1    3    3    0  502  0.78523200237E+03 -0.11584590090E+04  0.99813450283E+03  0.17189790746E+04  0.25500000920E-02 0.  1.
</event>
<event>
 5   0  0.3880259E-07  0.3588527E+04  0.7818609E-02  0.8093125E-01
        2   -1    0    0  501    0  0.00000000000E+00  0.00000000000E+00  0.23908811004E+04  0.23908811004E+04  0.25500000920E-02 0.  1.
       -2   -1    0    0    0  501  0.00000000000E+00  0.00000000000E+00 -0.13465249415E+04  0.13465249415E+04  0.25500000920E-02 0. -1.
    10030    2    1    2    0    0  0.00000000000E+00  0.00000000000E+00  0.10443561589E+04  0.37374060419E+04  0.35885267360E+04 0.  0.
        5    1    3    3  502    0 -0.96201633553E+03 -0.14923447229E+04  0.25301701877E+03  0.17934904247E+04  0.46999998093E+01 0. -1.
       -5    1    3    3    0  502  0.96201633553E+03  0.14923447229E+04  0.79133914015E+03  0.19439156171E+04  0.46999998093E+01 0.  1.
</event>
<event>
 5   0  0.1298250E-07  0.3629493E+04  0.7818609E-02  0.8083769E-01
        1   -1    0    0  501    0  0.00000000000E+00  0.00000000000E+00  0.18948584916E+04  0.18948584916E+04  0.50400001928E-02 0.  1.
       -1   -1    0    0    0  501  0.00000000000E+00  0.00000000000E+00 -0.17380214323E+04  0.17380214323E+04  0.50400001928E-02 0. -1.
    10030    2    1    2    0    0  0.00000000000E+00  0.00000000000E+00  0.15683705927E+03  0.36328799240E+04  0.36294928955E+04 0.  0.
        1    1    3    3  502    0 -0.10589740707E+04 -0.57899325261E+03 -0.12780750754E+04  0.17578780297E+04  0.50400001928E-02 0. -1.
       -1    1    3    3    0  502  0.10589740707E+04  0.57899325261E+03  0.14349121347E+04  0.18750018942E+04  0.50400001928E-02 0.  1.
</event>
<event>
 5   0  0.4115358E-07  0.3622813E+04  0.7818609E-02  0.8085286E-01
        2   -1    0    0  501    0  0.00000000000E+00  0.00000000000E+00  0.13668045567E+04  0.13668045567E+04  0.25500000920E-02 0. -1.
       -2   -1    0    0    0  501  0.00000000000E+00  0.00000000000E+00 -0.24006309512E+04  0.24006309512E+04  0.25500000920E-02 0.  1.
    10030    2    1    2    0    0  0.00000000000E+00  0.00000000000E+00 -0.10338263945E+04  0.37674355079E+04  0.36228128977E+04 0.  0.
        3    1    3    3  502    0  0.75913076859E+03 -0.52965591060E+03 -0.21361118169E+04  0.23280439454E+04  0.10100000352E+00 0.  1.
       -3    1    3    3    0  502 -0.75913076859E+03  0.52965591060E+03  0.11022854224E+04  0.14393915624E+04  0.10100000352E+00 0. -1.
</event>
<event>
 5   0  0.3993751E-07  0.3594868E+04  0.7818609E-02  0.8091668E-01
        2   -1    0    0  501    0  0.00000000000E+00  0.00000000000E+00  0.13318725195E+04  0.13318725195E+04  0.25500000920E-02 0.  1.
       -2   -1    0    0    0  501  0.00000000000E+00  0.00000000000E+00 -0.24257341717E+04  0.24257341717E+04  0.25500000920E-02 0. -1.
    10030    2    1    2    0    0  0.00000000000E+00  0.00000000000E+00 -0.10938616522E+04  0.37576066913E+04  0.35948678324E+04 0.  0.
        1    1    3    3  502    0  0.16814172610E+04 -0.60297084682E+03 -0.33779630875E+03  0.18179230440E+04  0.50400001928E-02 0.  1.
       -1    1    3    3    0  502 -0.16814172610E+04  0.60297084682E+03 -0.75606534344E+03  0.19396836472E+04  0.50400001928E-02 0. -1.
</event>
<event>
 5   0  0.4115358E-07  0.3580407E+04  0.7818609E-02  0.8094994E-01
       -2   -1    0    0    0  501  0.00000000000E+00  0.00000000000E+00  0.14060205829E+04  0.14060205829E+04  0.25500000920E-02 0.  1.
        2   -1    0    0  501    0  0.00000000000E+00  0.00000000000E+00 -0.22793616077E+04  0.22793616077E+04  0.25500000920E-02 0. -1.
    10030    2    1    2    0    0  0.00000000000E+00  0.00000000000E+00 -0.87334102485E+03  0.36853821906E+04  0.35804074272E+04 0.  0.
        3    1    3    3  502    0  0.39138486684E+03  0.76715150070E+03 -0.20521199853E+04  0.22255111734E+04  0.10100000352E+00 0. -1.
       -3    1    3    3    0  502 -0.39138486684E+03 -0.76715150070E+03  0.11787789604E+04  0.14598710171E+04  0.10100000352E+00 0.  1.
</event>
<event>
 5   0  0.1298250E-07  0.3598104E+04  0.7818609E-02  0.8090926E-01
        1   -1    0    0  501    0  0.00000000000E+00  0.00000000000E+00  0.15191605900E+04  0.15191605900E+04  0.50400001928E-02 0.  1.
       -1   -1    0    0    0  501  0.00000000000E+00  0.00000000000E+00 -0.21305107598E+04  0.21305107598E+04  0.50400001928E-02 0. -1.
    10030    2    1    2    0    0  0.00000000000E+00  0.00000000000E+00 -0.61135016977E+03  0.36496713498E+04  0.35981039356E+04 0.  0.
        2    1    3    3  502    0  0.12930060669E+04 -0.12416348570E+04 -0.15162290331E+03  0.17990306590E+04  0.25500000920E-02 0.  1.
       -2    1    3    3    0  502 -0.12930060669E+04  0.12416348570E+04 -0.45972726646E+03  0.18506406908E+04  0.25500000920E-02 0. -1.
</event>
<event>
 5   0  0.4200635E-07  0.3597505E+04  0.7818609E-02  0.8091063E-01
       -2   -1    0    0    0  501  0.00000000000E+00  0.00000000000E+00  0.24689226506E+04  0.24689226506E+04  0.25500000920E-02 0. -1.
        2   -1    0    0  501    0  0.00000000000E+00  0.00000000000E+00 -0.13104948994E+04  0.13104948994E+04  0.25500000920E-02 0.  1.
    10030    2    1    2    0    0  0.00000000000E+00  0.00000000000E+00  0.11584277511E+04  0.37794175500E+04  0.35975049913E+04 0.  0.
        4    1    3    3  502    0 -0.30341788955E+03  0.99800981806E+03  0.21187229808E+04  0.23615830908E+04  0.12699999809E+01 0. -1.
       -4    1    3    3    0  502  0.30341788955E+03 -0.99800981806E+03 -0.96029522966E+03  0.14178344592E+04  0.12699999809E+01 0.  1.
</event>
<event>
 5   0  0.1361743E-07  0.3607565E+04  0.7818609E-02  0.8088761E-01
        1   -1    0    0  501    0  0.00000000000E+00  0.00000000000E+00  0.15416280690E+04  0.15416280690E+04  0.50400001928E-02 0. -1.
       -1   -1    0    0    0  501  0.00000000000E+00  0.00000000000E+00 -0.21105161075E+04  0.21105161076E+04  0.50400001928E-02 0.  1.
    10030    2    1    2    0    0  0.00000000000E+00  0.00000000000E+00 -0.56888803851E+03  0.36521441766E+04  0.36075647584E+04 0.  0.
        5    1    3    3  502    0 -0.17060672393E+04  0.58484310290E+03 -0.25404123505E+03  0.18213363004E+04  0.46999998093E+01 0. -1.
       -5    1    3    3    0  502  0.17060672393E+04 -0.58484310290E+03 -0.31484680346E+03  0.18308078762E+04  0.46999998093E+01 0.  1.
</event>
<event>
 5   0  0.1298250E-07  0.3601682E+04  0.7818609E-02  0.8090106E-01
       -1   -1    0    0    0  501  0.00000000000E+00  0.00000000000E+00  0.20480625919E+04  0.20480625919E+04  0.50400001928E-02 0. -1.
        1   -1    0    0  501    0  0.00000000000E+00  0.00000000000E+00 -0.15834619597E+04  0.15834619597E+04  0.50400001928E-02 0.  1.
    10030    2    1    2    0    0  0.00000000000E+00  0.00000000000E+00  0.46460063220E+03  0.36315245516E+04  0.36016824987E+04 0.  0.
        2    1    3    3  502    0 -0.71129280245E+03 -0.47757121254E+03 -0.13648117971E+04  0.16114350609E+04  0.25500000920E-02 0.  1.
       -2    1    3    3    0  502  0.71129280245E+03  0.47757121254E+03  0.18294124293E+04  0.20200894907E+04  0.25500000920E-02 0. -1.
</event>
<event>
 5   0  0.1298250E-07  0.3598554E+04  0.7818609E-02  0.8090823E-01
        1   -1    0    0  501    0  0.00000000000E+00  0.00000000000E+00  0.17394049792E+04  0.17394049792E+04  0.50400001928E-02 0.  1.
       -1   -1    0    0    0  501  0.00000000000E+00  0.00000000000E+00 -0.18612101238E+04  0.18612101238E+04  0.50400001928E-02 0. -1.
    10030    2    1    2    0    0  0.00000000000E+00  0.00000000000E+00 -0.12180514452E+03  0.36006151030E+04  0.35985542412E+04 0.  0.
        2    1    3    3  502    0  0.91119363474E+03 -0.95139866757E+03 -0.12871512053E+04  0.18417902948E+04  0.25500000920E-02 0. -1.
       -2    1    3    3    0  502 -0.91119363474E+03  0.95139866757E+03  0.11653460608E+04  0.17588248082E+04  0.25500000920E-02 0.  1.
</event>
<event>
 5   0  0.1370997E-07  0.3581819E+04  0.7818609E-02  0.8094669E-01
       -1   -1    0    0    0  501  0.00000000000E+00  0.00000000000E+00  0.19358334723E+04  0.19358334723E+04  0.50400001928E-02 0. -1.
        1   -1    0    0  501    0  0.00000000000E+00  0.00000000000E+00 -0.16568352827E+04  0.16568352827E+04  0.50400001928E-02 0.  1.
    10030    2    1    2    0    0  0.00000000000E+00  0.00000000000E+00  0.27899818962E+03  0.35926687550E+04  0.35818192016E+04 0.  0.
        3    1    3    3  502    0  0.58723932887E+03  0.73450659517E+02  0.18349185459E+04  0.19279966569E+04  0.10100000352E+00 0. -1.
       -3    1    3    3    0  502 -0.58723932887E+03 -0.73450659517E+02 -0.15559203563E+04  0.16646720981E+04  0.10100000352E+00 0.  1.
</event>
<event>
 5   0  0.1361743E-07  0.3628277E+04  0.7818609E-02  0.8084045E-01
       -1   -1    0    0    0  501  0.00000000000E+00  0.00000000000E+00  0.27983781655E+04  0.27983781655E+04  0.50400001928E-02 0. -1.
        1   -1    0    0  501    0  0.00000000000E+00  0.00000000000E+00 -0.11760735014E+04  0.11760735014E+04  0.50400001928E-02 0.  1.
    10030    2    1    2    0    0  0.00000000000E+00  0.00000000000E+00  0.16223046641E+04  0.39744516670E+04  0.36282769505E+04 0.  0.
        5    1    3    3  502    0  0.10882027742E+04 -0.73507423886E+03 -0.55988688478E+03  0.14275905674E+04  0.46999998093E+01 0.  1.
       -5    1    3    3    0  502 -0.10882027742E+04  0.73507423886E+03  0.21821915489E+04  0.25468610996E+04  0.46999998093E+01 0. -1.
</event>
<event>
 5   0  0.3880259E-07  0.3573243E+04  0.7818609E-02  0.8096648E-01
       -2   -1    0    0    0  501  0.00000000000E+00  0.00000000000E+00  0.17584506574E+04  0.17584506574E+04  0.25500000920E-02 0. -1.
        2   -1    0    0  501    0  0.00000000000E+00  0.00000000000E+00 -0.18152439204E+04  0.18152439204E+04  0.25500000920E-02 0.  1.
    10030    2    1    2    0    0  0.00000000000E+00  0.00000000000E+00 -0.56793263050E+02  0.35736945778E+04  0.35732432691E+04 0.  0.
        5    1    3    3  502    0  0.14820219219E+04  0.57739872922E+03  0.78547301100E+03  0.17739132477E+04  0.46999998093E+01 0.  1.
       -5    1    3    3    0  502 -0.14820219219E+04 -0.57739872922E+03 -0.84226627405E+03  0.17997813300E+04  0.46999998093E+01 0. -1.
</event>
<event>
 5   0  0.1298250E-07  0.3591485E+04  0.7818609E-02  0.8092445E-01
       -1   -1    0    0    0  501  0.00000000000E+00  0.00000000000E+00  0.26782051561E+04  0.26782051561E+04  0.50400001928E-02 0. -1.
        1   -1    0    0  501    0  0.00000000000E+00  0.00000000000E+00 -0.12040493347E+04  0.12040493347E+04  0.50400001928E-02 0.  1.
    10030    2    1    2    0    0  0.00000000000E+00  0.00000000000E+00  0.14741558214E+04  0.38822544909E+04  0.35914850057E+04 0.  0.
        1    1    3    3  502    0 -0.14777454671E+04 -0.87990626256E+03  0.12953441301E+04  0.21531101021E+04  0.50400001928E-02 0. -1.
       -1    1    3    3    0  502  0.14777454671E+04  0.87990626256E+03  0.17881169134E+03  0.17291443888E+04  0.50400001928E-02 0.  1.
</event>
<event>
 5   0  0.1361743E-07  0.3575978E+04  0.7818609E-02  0.8096016E-01
       -1   -1    0    0    0  501  0.00000000000E+00  0.00000000000E+00  0.17011315337E+04  0.17011315337E+04  0.50400001928E-02 0. -1.
        1   -1    0    0  501    0  0.00000000000E+00  0.00000000000E+00 -0.18792816466E+04  0.18792816466E+04  0.50400001928E-02 0.  1.
    10030    2    1    2    0    0  0.00000000000E+00  0.00000000000E+00 -0.17815011287E+03  0.35804131803E+04  0.35759783387E+04 0.  0.
        5    1    3    3  502    0 -0.12748907127E+04  0.55133020660E+03 -0.12163362627E+04  0.18462955667E+04  0.46999998093E+01 0. -1.
       -5    1    3    3    0  502  0.12748907127E+04 -0.55133020660E+03  0.10381861498E+04  0.17341176135E+04  0.46999998093E+01 0.  1.
</event>
<event>
 5   0  0.1348226E-07  0.3593015E+04  0.7818609E-02  0.8092094E-01
        1   -1    0    0  501    0  0.00000000000E+00  0.00000000000E+00  0.23751147248E+04  0.23751147248E+04  0.50400001928E-02 0.  1.
       -1   -1    0    0    0  501  0.00000000000E+00  0.00000000000E+00 -0.13588558014E+04  0.13588558014E+04  0.50400001928E-02 0. -1.
    10030    2    1    2    0    0  0.00000000000E+00  0.00000000000E+00  0.10162589233E+04  0.37339705262E+04  0.35930145688E+04 0.  0.
        4    1    3    3  502    0 -0.20557178121E+03 -0.12206657283E+04  0.18611869849E+04  0.22352411912E+04  0.12699999809E+01 0.  1.
       -4    1    3    3    0  502  0.20557178121E+03  0.12206657283E+04 -0.84492806151E+03  0.14987293350E+04  0.12699999809E+01 0. -1.
</event>
<event>
 5   0  0.1298250E-07  0.3640997E+04  0.7818609E-02  0.8081165E-01
       -1   -1    0    0    0  501  0.00000000000E+00  0.00000000000E+00  0.35997021374E+04  0.35997021374E+04  0.50400001928E-02 0. -1.
        1   -1    0    0  501    0  0.00000000000E+00  0.00000000000E+00 -0.92069122302E+03  0.92069122304E+03  0.50400001928E-02 0.  1.
    10030    2    1    2    0    0  0.00000000000E+00  0.00000000000E+00  0.26790109144E+04  0.45203933604E+04  0.36409966567E+04 0.  0.
        2    1    3    3  502    0  0.16168641066E+04 -0.16701449337E+03  0.32170309104E+03  0.16569961554E+04  0.25500000920E-02 0.  1.
       -2    1    3    3    0  502 -0.16168641066E+04  0.16701449337E+03  0.23573078233E+04  0.28633972051E+04  0.25500000920E-02 0. -1.
</event>
<event>
 5   0  0.4120440E-07  0.3591950E+04  0.7818609E-02  0.8092338E-01
       -2   -1    0    0    0  501  0.00000000000E+00  0.00000000000E+00  0.15045504931E+04  0.15045504931E+04  0.25500000920E-02 0. -1.
        2   -1    0    0  501    0  0.00000000000E+00  0.00000000000E+00 -0.21438473006E+04  0.21438473006E+04  0.25500000920E-02 0.  1.
    10030    2    1    2    0    0  0.00000000000E+00  0.00000000000E+00 -0.63929680754E+03  0.36483977937E+04  0.35919501741E+04 0.  0.
        2    1    3    3  502    0 -0.38170464178E+03 -0.86761813882E+03 -0.18690939215E+04  0.20957031650E+04  0.25500000920E-02 0.  1.
       -2    1    3    3    0  502  0.38170464178E+03  0.86761813882E+03  0.12297971140E+04  0.15526946287E+04  0.25500000920E-02 0. -1.
</event>
<event>
 5   0  0.4115358E-07  0.3331964E+04  0.7818609E-02  0.8154810E-01
        2   -1    0    0  501    0  0.00000000000E+00  0.00000000000E+00  0.12371255178E+04  0.12371255178E+04  0.25500000920E-02 0. -1.
       -2   -1    0    0    0  501  0.00000000000E+00  0.00000000000E+00 -0.22435034224E+04  0.22435034224E+04  0.25500000920E-02 0.  1.
    10030    2    1    2    0    0  0.00000000000E+00  0.00000000000E+00 -0.10063779046E+04  0.34806289402E+04  0.33319635851E+04 0.  0.
        3    1    3    3  502    0 -0.13675955782E+04  0.72280411350E+03 -0.11494452595E+04  0.19271709491E+04  0.10100000352E+00 0.  1.
       -3    1    3    3    0  502  0.13675955782E+04 -0.72280411350E+03  0.14306735491E+03  0.15534579912E+04  0.10100000352E+00 0. -1.
</event>
<event>
 5   0  0.4200635E-07  0.3747489E+04  0.7818609E-02  0.8057518E-01
       -2   -1    0    0    0  501  0.00000000000E+00  0.00000000000E+00  0.15903856933E+04  0.15903856933E+04  0.25500000920E-02 0. -1.
        2   -1    0    0  501    0  0.00000000000E+00  0.00000000000E+00 -0.22075896914E+04  0.22075896914E+04  0.25500000920E-02 0.  1.
    10030    2    1    2    0    0  0.00000000000E+00  0.00000000000E+00 -0.61720399807E+03  0.37979753847E+04  0.37474893258E+04 0.  0.
        4    1    3    3  502    0 -0.99816616331E+03  0.13543924607E+04 -0.11444570204E+04  0.20348213955E+04  0.12699999809E+01 0.  1.
       -4    1    3    3    0  502  0.99816616331E+03 -0.13543924607E+04  0.52725302233E+03  0.17631539892E+04  0.12699999809E+01 0. -1.
</event>
<event>
 5   0  0.1361743E-07  0.3188263E+04  0.7818609E-02  0.8191924E-01
       -1   -1    0    0    0  501  0.00000000000E+00  0.00000000000E+00  0.15503757866E+04  0.15503757866E+04  0.50400001928E-02 0. -1.
        1   -1    0    0  501    0  0.00000000000E+00  0.00000000000E+00 -0.16391224900E+04  0.16391224900E+04  0.50400001928E-02 0.  1.
    10030    2    1    2    0    0  0.00000000000E+00  0.00000000000E+00 -0.88746703395E+02  0.31894982766E+04  0.31882633641E+04 0.  0.
        5    1    3    3  502    0 -0.14465516849E+04 -0.50663250605E+03 -0.48277300428E+03  0.16069474593E+04  0.46999998093E+01 0.  1.
       -5    1    3    3    0  502  0.14465516849E+04  0.50663250605E+03  0.39402630089E+03  0.15825508172E+04  0.46999998093E+01 0. -1.
</event>
<event>
 5   0  0.3993751E-07  0.3635070E+04  0.7818609E-02  0.8082505E-01
       -2   -1    0    0    0  501  0.00000000000E+00  0.00000000000E+00  0.27419960516E+04  0.27419960516E+04  0.25500000920E-02 0. -1.
        2   -1    0    0  501    0  0.00000000000E+00  0.00000000000E+00 -0.12047548257E+04  0.12047548257E+04  0.25500000920E-02 0.  1.
    10030    2    1    2    0    0  0.00000000000E+00  0.00000000000E+00  0.15372412258E+04  0.39467508773E+04  0.36350697244E+04 0.  0.
        1    1    3    3  502    0 -0.52221896868E+02  0.17052840441E+04  0.88220850980E+02  0.17083628760E+04  0.50400001928E-02 0. -1.
       -1    1    3    3    0  502  0.52221896868E+02 -0.17052840441E+04  0.14490203748E+04  0.22383880013E+04  0.50400001928E-02 0.  1.
</event>
<event>
 5   0  0.3880259E-07  0.3611721E+04  0.7818609E-02  0.8087812E-01
       -2   -1    0    0    0  501  0.00000000000E+00  0.00000000000E+00  0.16780712977E+04  0.16780712977E+04  0.25500000920E-02 0. -1.
        2   -1    0    0  501    0  0.00000000000E+00  0.00000000000E+00 -0.19433807901E+04  0.19433807901E+04  0.25500000920E-02 0.  1.
    10030    2    1    2    0    0  0.00000000000E+00  0.00000000000E+00 -0.26530949241E+03  0.36214520877E+04  0.36117206560E+04 0.  0.
        5    1    3    3  502    0 -0.45478825499E+03 -0.16629933333E+04  0.40612930933E+03  0.17712544394E+04  0.46999998093E+01 0. -1.
       -5    1    3    3    0  502  0.45478825499E+03  0.16629933333E+04 -0.67143880174E+03  0.18501976483E+04  0.46999998093E+01 0.  1.
</event>
<event>
 5   0  0.1348226E-07  0.3603924E+04  0.7818609E-02  0.8089594E-01
       -1   -1    0    0    0  501  0.00000000000E+00  0.00000000000E+00  0.17040421288E+04  0.17040421288E+04  0.50400001928E-02 0.  1.
        1   -1    0    0  501    0  0.00000000000E+00  0.00000000000E+00 -0.19055082223E+04  0.19055082223E+04  0.50400001928E-02 0. -1.
    10030    2    1    2    0    0  0.00000000000E+00  0.00000000000E+00 -0.20146609355E+03  0.36095503511E+04  0.36039235772E+04 0.  0.
        4    1    3    3  502    0 -0.73384886759E+03 -0.10162233116E+04 -0.13972891266E+04  0.18771421086E+04  0.12699999809E+01 0. -1.
       -4    1    3    3    0  502  0.73384886759E+03  0.10162233116E+04  0.11958230330E+04  0.17324082426E+04  0.12699999809E+01 0.  1.
</event>
<event>
 5   0  0.1298250E-07  0.3469124E+04  0.7818609E-02  0.8121146E-01
        1   -1    0    0  501    0  0.00000000000E+00  0.00000000000E+00  0.19900032709E+04  0.19900032709E+04  0.50400001928E-02 0. -1.
       -1   -1    0    0    0  501  0.00000000000E+00  0.00000000000E+00 -0.15119097883E+04  0.15119097883E+04  0.50400001928E-02 0.  1.
    10030    2    1    2    0    0  0.00000000000E+00  0.00000000000E+00  0.47809348261E+03  0.35019130592E+04  0.34691240531E+04 0.  0.
        2    1    3    3  502    0  0.60912225379E+03 -0.15403594025E+04 -0.28056934035E+03  0.16800167153E+04  0.25500000920E-02 0.  1.
       -2    1    3    3    0  502 -0.60912225379E+03  0.15403594025E+04  0.75866282296E+03  0.18218963439E+04  0.25500000920E-02 0. -1.
</event>
<event>
 5   0  0.1298250E-07  0.3602084E+04  0.7818609E-02  0.8090014E-01
       -1   -1    0    0    0  501  0.00000000000E+00  0.00000000000E+00  0.27099994792E+04  0.27099994792E+04  0.50400001928E-02 0.  1.
        1   -1    0    0  501    0  0.00000000000E+00  0.00000000000E+00 -0.11969570972E+04  0.11969570972E+04  0.50400001928E-02 0. -1.
    10030    2    1    2    0    0  0.00000000000E+00  0.00000000000E+00  0.15130423820E+04  0.39069565764E+04  0.36020844577E+04 0.  0.
        2    1    3    3  502    0 -0.16783890437E+04  0.25458765284E+03  0.14090625701E+04  0.22061872045E+04  0.25500000920E-02 0. -1.
       -2    1    3    3    0  502  0.16783890437E+04 -0.25458765284E+03  0.10397981182E+03  0.17007693718E+04  0.25500000920E-02 0.  1.
</event>
<event>
 5   0  0.1361743E-07  0.3586380E+04  0.7818609E-02  0.8093619E-01
        1   -1    0    0  501    0  0.00000000000E+00  0.00000000000E+00  0.19434059665E+04  0.19434059665E+04  0.50400001928E-02 0. -1.
       -1   -1    0    0    0  501  0.00000000000E+00  0.00000000000E+00 -0.16545847886E+04  0.16545847886E+04  0.50400001928E-02 0.  1.
    10030    2    1    2    0    0  0.00000000000E+00  0.00000000000E+00  0.28882117795E+03  0.35979907551E+04  0.35863797625E+04 0.  0.
        5    1    3    3  502    0  0.16396939731E+04 -0.58960062743E+03  0.56919921633E+03  0.18330943956E+04  0.46999998093E+01 0. -1.
       -5    1    3    3    0  502 -0.16396939731E+04  0.58960062743E+03 -0.28037803838E+03  0.17648963595E+04  0.46999998093E+01 0.  1.
</event>
<event>
 5   0  0.1298250E-07  0.3601402E+04  0.7818609E-02  0.8090171E-01
        1   -1    0    0  501    0  0.00000000000E+00  0.00000000000E+00  0.15675395887E+04  0.15675395887E+04  0.50400001928E-02 0.  1.
       -1   -1    0    0    0  501  0.00000000000E+00  0.00000000000E+00 -0.20685441340E+04  0.20685441340E+04  0.50400001928E-02 0. -1.
    10030    2    1    2    0    0  0.00000000000E+00  0.00000000000E+00 -0.50100454533E+03  0.36360837227E+04  0.36014024052E+04 0.  0.
        2    1    3    3  502    0  0.14047837877E+04 -0.43947276674E+03  0.79677700678E+03  0.16737405418E+04  0.25500000920E-02 0.  1.
       -2    1    3    3    0  502 -0.14047837877E+04  0.43947276674E+03 -0.12977815521E+04  0.19623431809E+04  0.25500000920E-02 0. -1.
</event>
<event>
 5   0  0.4120440E-07  0.3601928E+04  0.7818609E-02  0.8090050E-01
       -2   -1    0    0    0  501  0.00000000000E+00  0.00000000000E+00  0.12433608318E+04  0.12433608318E+04  0.25500000920E-02 0.  1.
        2   -1    0    0  501    0  0.00000000000E+00  0.00000000000E+00 -0.26086324725E+04  0.26086324725E+04  0.25500000920E-02 0. -1.
    10030    2    1    2    0    0  0.00000000000E+00  0.00000000000E+00 -0.13652716407E+04  0.38519933043E+04  0.36019280619E+04 0.  0.
        2    1    3    3  502    0  0.17929957256E+04  0.89277519553E+02 -0.83637773613E+03  0.19804877847E+04  0.25500000920E-02 0. -1.
       -2    1    3    3    0  502 -0.17929957256E+04 -0.89277519553E+02 -0.52889390453E+03  0.18715055196E+04  0.25500000920E-02 0.  1.
</event>
<event>
 5   0  0.4120440E-07  0.3598789E+04  0.7818609E-02  0.8090769E-01
        2   -1    0    0  501    0  0.00000000000E+00  0.00000000000E+00  0.24423104611E+04  0.24423104611E+04  0.25500000920E-02 0. -1.
       -2   -1    0    0    0  501  0.00000000000E+00  0.00000000000E+00 -0.13257201941E+04  0.13257201941E+04  0.25500000920E-02 0.  1.
    10030    2    1    2    0    0  0.00000000000E+00  0.00000000000E+00  0.11165902670E+04  0.37680306552E+04  0.35987888510E+04 0.  0.
        2    1    3    3  502    0  0.10064884021E+04 -0.89574010742E+03  0.18070486577E+04  0.22540616883E+04  0.25500000920E-02 0.  1.
       -2    1    3    3    0  502 -0.10064884021E+04  0.89574010742E+03 -0.69045839063E+03  0.15139689669E+04  0.25500000920E-02 0. -1.
</event>
<event>
 5   0  0.4115358E-07  0.3482705E+04  0.7818609E-02  0.8117901E-01
       -2   -1    0    0    0  501  0.00000000000E+00  0.00000000000E+00  0.13470745831E+04  0.13470745831E+04  0.25500000920E-02 0. -1.
        2   -1    0    0  501    0  0.00000000000E+00  0.00000000000E+00 -0.22510318742E+04  0.22510318742E+04  0.25500000920E-02 0.  1.
    10030    2    1    2    0    0  0.00000000000E+00  0.00000000000E+00 -0.90395729105E+03  0.35981064573E+04  0.34827045947E+04 0.  0.
        3    1    3    3  502    0 -0.11753846764E+04  0.12449899101E+04 -0.77995456654E+03  0.18814510756E+04  0.10100000352E+00 0. -1.
       -3    1    3    3    0  502  0.11753846764E+04 -0.12449899101E+04 -0.12400272451E+03  0.17166553817E+04  0.10100000352E+00 0.  1.
</event>
<event>
 5   0  0.1298250E-07  0.3603864E+04  0.7818609E-02  0.8089607E-01
        1   -1    0    0  501    0  0.00000000000E+00  0.00000000000E+00  0.22947687403E+04  0.22947687403E+04  0.50400001928E-02 0. -1.
       -1   -1    0    0    0  501  0.00000000000E+00  0.00000000000E+00 -0.14149397705E+04  0.14149397705E+04  0.50400001928E-02 0.  1.
    10030    2    1    2    0    0  0.00000000000E+00  0.00000000000E+00  0.87982896977E+03  0.37097085108E+04  0.36038643453E+04 0.  0.
        1    1    3    3  502    0  0.10727696518E+04  0.30012281803E+03  0.18978635426E+04  0.22006350125E+04  0.50400001928E-02 0. -1.
       -1    1    3    3    0  502 -0.10727696518E+04 -0.30012281803E+03 -0.10180345729E+04  0.15090734983E+04  0.50400001928E-02 0.  1.
</event>
<event>
 5   0  0.1298250E-07  0.3531447E+04  0.7818609E-02  0.8106378E-01
        1   -1    0    0  501    0  0.00000000000E+00  0.00000000000E+00  0.22678057907E+04  0.22678057907E+04  0.50400001928E-02 0. -1.
       -1   -1    0    0    0  501  0.00000000000E+00  0.00000000000E+00 -0.13747998777E+04  0.13747998777E+04  0.50400001928E-02 0.  1.
    10030    2    1    2    0    0  0.00000000000E+00  0.00000000000E+00  0.89300591297E+03  0.36426056684E+04  0.35314467991E+04 0.  0.
        2    1    3    3  502    0 -0.15764990674E+04  0.75977244320E+03  0.20421422588E+03  0.17619043462E+04  0.25500000920E-02 0. -1.
       -2    1    3    3    0  502  0.15764990674E+04 -0.75977244320E+03  0.68879168709E+03  0.18807013222E+04  0.25500000920E-02 0.  1.
</event>
<event>
 5   0  0.1298250E-07  0.3473820E+04  0.7818609E-02  0.8120023E-01
       -1   -1    0    0    0  501  0.00000000000E+00  0.00000000000E+00  0.26568789511E+04  0.26568789511E+04  0.50400001928E-02 0.  1.
        1   -1    0    0  501    0  0.00000000000E+00  0.00000000000E+00 -0.11354885089E+04  0.11354885089E+04  0.50400001928E-02 0. -1.
    10030    2    1    2    0    0  0.00000000000E+00  0.00000000000E+00  0.15213904422E+04  0.37923674601E+04  0.34738195225E+04 0.  0.
        2    1    3    3  502    0  0.88450191909E+03  0.14835305717E+04  0.56043776160E+03  0.18158461077E+04  0.25500000920E-02 0. -1.
       -2    1    3    3    0  502 -0.88450191909E+03 -0.14835305717E+04  0.96095268061E+03  0.19765213524E+04  0.25500000920E-02 0.  1.
</event>
<event>
 5   0  0.4115358E-07  0.3585099E+04  0.7818609E-02  0.8093913E-01
        2   -1    0    0  501    0  0.00000000000E+00  0.00000000000E+00  0.15969591816E+04  0.15969591816E+04  0.25500000920E-02 0.  1.
       -2   -1    0    0    0  501  0.00000000000E+00  0.00000000000E+00 -0.20120951329E+04  0.20120951329E+04  0.25500000920E-02 0. -1.
    10030    2    1    2    0    0  0.00000000000E+00  0.00000000000E+00 -0.41513595129E+03  0.36090543144E+04  0.35850990484E+04 0.  0.
        3    1    3    3  502    0 -0.18029827044E+03  0.17399888510E+04 -0.60154617842E+03  0.18498449889E+04  0.10100000352E+00 0. -1.
       -3    1    3    3    0  502  0.18029827044E+03 -0.17399888510E+04  0.18641022713E+03  0.17592093255E+04  0.10100000352E+00 0.  1.
</event>
<event>
 5   0  0.4120440E-07  0.3622422E+04  0.7818609E-02  0.8085375E-01
        2   -1    0    0  501    0  0.00000000000E+00  0.00000000000E+00  0.19504883311E+04  0.19504883311E+04  0.25500000920E-02 0.  1.
       -2   -1    0    0    0  501  0.00000000000E+00  0.00000000000E+00 -0.16818785881E+04  0.16818785881E+04  0.25500000920E-02 0. -1.
    10030    2    1    2    0    0  0.00000000000E+00  0.00000000000E+00  0.26860974299E+03  0.36323669192E+04  0.36224215991E+04 0.  0.
        2    1    3    3  502    0  0.12274027718E+04 -0.12976255273E+04  0.43535402982E+03  0.18384457307E+04  0.25500000920E-02 0.  1.
       -2    1    3    3    0  502 -0.12274027718E+04  0.12976255273E+04 -0.16674428683E+03  0.17939211885E+04  0.25500000920E-02 0. -1.
</event>
<event>
 5   0  0.4120440E-07  0.3579073E+04  0.7818609E-02  0.8095302E-01
        2   -1    0    0  501    0  0.00000000000E+00  0.00000000000E+00  0.20907734547E+04  0.20907734547E+04  0.25500000920E-02 0. -1.
       -2   -1    0    0    0  501  0.00000000000E+00  0.00000000000E+00 -0.15317019374E+04  0.15317019374E+04  0.25500000920E-02 0.  1.
    10030    2    1    2    0    0  0.00000000000E+00  0.00000000000E+00  0.55907151724E+03  0.36224753921E+04  0.35790734842E+04 0.  0.
        2    1    3    3  502    0  0.17463466723E+04 -0.37018009595E+03  0.15279039975E+03  0.17916765639E+04  0.25500000920E-02 0.  1.
       -2    1    3    3    0  502 -0.17463466723E+04  0.37018009595E+03  0.40628111748E+03  0.18307988283E+04  0.25500000920E-02 0. -1.
</event>
<event>
 5   0  0.1348226E-07  0.3598608E+04  0.7818609E-02  0.8090811E-01
       -1   -1    0    0    0  501  0.00000000000E+00  0.00000000000E+00  0.18847721120E+04  0.18847721120E+04  0.50400001928E-02 0. -1.
        1   -1    0    0  501    0  0.00000000000E+00  0.00000000000E+00 -0.17177117927E+04  0.17177117927E+04  0.50400001928E-02 0.  1.
    10030    2    1    2    0    0  0.00000000000E+00  0.00000000000E+00  0.16706031930E+03  0.36024839048E+04  0.35986082218E+04 0.  0.
        4    1    3    3  502    0  0.10070361262E+04 -0.11352181145E+04  0.10513452547E+04  0.18461230686E+04  0.12699999809E+01 0. -1.
       -4    1    3    3    0  502 -0.10070361262E+04  0.11352181145E+04 -0.88428493536E+03  0.17563608362E+04  0.12699999809E+01 0.  1.
</event>
<event>
 5   0  0.3993751E-07  0.3608499E+04  0.7818609E-02  0.8088548E-01
       -2   -1    0    0    0  501  0.00000000000E+00  0.00000000000E+00  0.19192030271E+04  0.19192030271E+04  0.25500000920E-02 0.  1.
        2   -1    0    0  501    0  0.00000000000E+00  0.00000000000E+00 -0.16961816024E+04  0.16961816024E+04  0.25500000920E-02 0. -1.
    10030    2    1    2    0    0  0.00000000000E+00  0.00000000000E+00  0.22302142469E+03  0.36153846295E+04  0.36084993367E+04 0.  0.
        1    1    3    3  502    0  0.42636722281E+03 -0.35294012658E+03  0.18320413129E+04  0.19138263019E+04  0.50400001928E-02 0.  1.
       -1    1    3    3    0  502 -0.42636722281E+03  0.35294012658E+03 -0.16090198882E+04  0.17015583276E+04  0.50400001928E-02 0. -1.
</event>
<event>
 5   0  0.4115358E-07  0.3590434E+04  0.7818609E-02  0.8092686E-01
        2   -1    0    0  501    0  0.00000000000E+00  0.00000000000E+00  0.20897889316E+04  0.20897889316E+04  0.25500000920E-02 0.  1.
       -2   -1    0    0    0  501  0.00000000000E+00  0.00000000000E+00 -0.15421674410E+04  0.15421674410E+04  0.25500000920E-02 0. -1.
    10030    2    1    2    0    0  0.00000000000E+00  0.00000000000E+00  0.54762149060E+03  0.36319563726E+04  0.35904342071E+04 0.  0.
        3    1    3    3  502    0 -0.58120135906E+03  0.72731343415E+03 -0.12788749767E+04  0.15818663242E+04  0.10100000352E+00 0. -1.
       -3    1    3    3    0  502  0.58120135906E+03 -0.72731343415E+03  0.18264964673E+04  0.20500900484E+04  0.10100000352E+00 0.  1.
</event>
<event>
 5   0  0.1298250E-07  0.3607677E+04  0.7818609E-02  0.8088735E-01
       -1   -1    0    0    0  501  0.00000000000E+00  0.00000000000E+00  0.16117373687E+04  0.16117373687E+04  0.50400001928E-02 0. -1.
        1   -1    0    0  501    0  0.00000000000E+00  0.00000000000E+00 -0.20188361789E+04  0.20188361789E+04  0.50400001928E-02 0.  1.
    10030    2    1    2    0    0  0.00000000000E+00  0.00000000000E+00 -0.40709881023E+03  0.36305735476E+04  0.36076772089E+04 0.  0.
        2    1    3    3  502    0  0.17695494863E+04 -0.34357393049E+03 -0.27094668751E+03  0.18228440793E+04  0.25500000920E-02 0.  1.
       -2    1    3    3    0  502 -0.17695494863E+04  0.34357393049E+03 -0.13615212271E+03  0.18077294683E+04  0.25500000920E-02 0. -1.
</event>
<event>
 5   0  0.4115358E-07  0.3596790E+04  0.7818609E-02  0.8091227E-01
       -2   -1    0    0    0  501  0.00000000000E+00  0.00000000000E+00  0.25604955359E+04  0.25604955359E+04  0.25500000920E-02 0. -1.
        2   -1    0    0  501    0  0.00000000000E+00  0.00000000000E+00 -0.12631246834E+04  0.12631246834E+04  0.25500000920E-02 0.  1.
    10030    2    1    2    0    0  0.00000000000E+00  0.00000000000E+00  0.12973708525E+04  0.38236202193E+04  0.35967902987E+04 0.  0.
        3    1    3    3  502    0  0.10243233687E+04  0.32233016341E+03  0.21822605776E+04  0.24321587812E+04  0.10100000352E+00 0. -1.
       -3    1    3    3    0  502 -0.10243233687E+04 -0.32233016341E+03 -0.88488972518E+03  0.13914614382E+04  0.10100000352E+00 0.  1.
</event>
<event>
 5   0  0.4120440E-07  0.3630810E+04  0.7818609E-02  0.8083471E-01
        2   -1    0    0  501    0  0.00000000000E+00  0.00000000000E+00  0.27685794929E+04  0.27685794929E+04  0.25500000920E-02 0. -1.
       -2   -1    0    0    0  501  0.00000000000E+00  0.00000000000E+00 -0.11903922503E+04  0.11903922503E+04  0.25500000920E-02 0.  1.
    10030    2    1    2    0    0  0.00000000000E+00  0.00000000000E+00  0.15781872426E+04  0.39589717432E+04  0.36308101425E+04 0.  0.
        2    1    3    3  502    0 -0.11327148784E+04 -0.12371203394E+04  0.15462508791E+04  0.22813157412E+04  0.25500000920E-02 0. -1.
       -2    1    3    3    0  502  0.11327148784E+04  0.12371203394E+04  0.31936363551E+02  0.16776560020E+04  0.25500000920E-02 0.  1.
</event>
<event>
 5   0  0.3880259E-07  0.3590988E+04  0.7818609E-02  0.8092559E-01
        2   -1    0    0  501    0  0.00000000000E+00  0.00000000000E+00  0.21347028954E+04  0.21347028954E+04  0.25500000920E-02 0. -1.
       -2   -1    0    0    0  501  0.00000000000E+00  0.00000000000E+00 -0.15101857221E+04  0.15101857221E+04  0.25500000920E-02 0.  1.
    10030    2    1    2    0    0  0.00000000000E+00  0.00000000000E+00  0.62451717331E+03  0.36448886175E+04  0.35909875152E+04 0.  0.
        5    1    3    3  502    0 -0.26054910175E+03  0.23578670966E+03 -0.14749360141E+04  0.15162254260E+04  0.46999998093E+01 0.  1.
       -5    1    3    3    0  502  0.26054910175E+03 -0.23578670966E+03  0.20994531874E+04  0.21286631915E+04  0.46999998093E+01 0. -1.
</event>
<event>
 5   0  0.1361743E-07  0.3321367E+04  0.7818609E-02  0.8157480E-01
       -1   -1    0    0    0  501  0.00000000000E+00  0.00000000000E+00  0.12440892651E+04  0.12440892651E+04  0.50400001928E-02 0.  1.
        1   -1    0    0  501    0  0.00000000000E+00  0.00000000000E+00 -0.22167779255E+04  0.22167779255E+04  0.50400001928E-02 0. -1.
    10030    2    1    2    0    0  0.00000000000E+00  0.00000000000E+00 -0.97268866037E+03  0.34608671906E+04  0.33213669597E+04 0.  0.
        5    1    3    3  502    0 -0.50175887288E+03 -0.15523643844E+04 -0.80961723301E+03  0.18212905596E+04  0.46999998093E+01 0.  1.
       -5    1    3    3    0  502  0.50175887288E+03  0.15523643844E+04 -0.16307142736E+03  0.16395766310E+04  0.46999998093E+01 0. -1.
</event>
<event>
 5   0  0.1361743E-07  0.3576295E+04  0.7818609E-02  0.8095943E-01
       -1   -1    0    0    0  501  0.00000000000E+00  0.00000000000E+00  0.16296619424E+04  0.16296619424E+04  0.50400001928E-02 0.  1.
        1   -1    0    0  501    0  0.00000000000E+00  0.00000000000E+00 -0.19620461236E+04  0.19620461237E+04  0.50400001928E-02 0. -1.
    10030    2    1    2    0    0  0.00000000000E+00  0.00000000000E+00 -0.33238418122E+03  0.35917080661E+04  0.35762952322E+04 0.  0.
        5    1    3    3  502    0  0.32128087496E+03 -0.13099647977E+04 -0.13452280214E+04  0.19049644856E+04  0.46999998093E+01 0.  1.
       -5    1    3    3    0  502 -0.32128087496E+03  0.13099647977E+04  0.10128438401E+04  0.16867435805E+04  0.46999998093E+01 0. -1.
</event>
<event>
 5   0  0.3993751E-07  0.3607247E+04  0.7818609E-02  0.8088834E-01
        2   -1    0    0  501    0  0.00000000000E+00  0.00000000000E+00  0.19784562510E+04  0.19784562510E+04  0.25500000920E-02 0.  1.
       -2   -1    0    0    0  501  0.00000000000E+00  0.00000000000E+00 -0.16442401556E+04  0.16442401556E+04  0.25500000920E-02 0. -1.
    10030    2    1    2    0    0  0.00000000000E+00  0.00000000000E+00  0.33421609540E+03  0.36226964065E+04  0.36072467140E+04 0.  0.
        1    1    3    3  502    0  0.15581781884E+04 -0.39048614077E+03  0.99077836931E+03  0.18873368724E+04  0.50400001928E-02 0.  1.
       -1    1    3    3    0  502 -0.15581781884E+04  0.39048614077E+03 -0.65656227392E+03  0.17353595341E+04  0.50400001928E-02 0. -1.
</event>
<event>
 5   0  0.1348226E-07  0.3579826E+04  0.7818609E-02  0.8095129E-01
       -1   -1    0    0    0  501  0.00000000000E+00  0.00000000000E+00  0.18617549341E+04  0.18617549341E+04  0.50400001928E-02 0.  1.
        1   -1    0    0  501    0  0.00000000000E+00  0.00000000000E+00 -0.17208430390E+04  0.17208430390E+04  0.50400001928E-02 0. -1.
    10030    2    1    2    0    0  0.00000000000E+00  0.00000000000E+00  0.14091189506E+03  0.35825979731E+04  0.35798257045E+04 0.  0.
        4    1    3    3  502    0  0.97707943788E+03 -0.14209967618E+04 -0.40936333977E+03  0.17724265801E+04  0.12699999809E+01 0. -1.
       -4    1    3    3    0  502 -0.97707943788E+03  0.14209967618E+04  0.55027523483E+03  0.18101713930E+04  0.12699999809E+01 0.  1.
</event>
<event>
 5   0  0.4120440E-07  0.3586137E+04  0.7818609E-02  0.8093674E-01
       -2   -1    0    0    0  501  0.00000000000E+00  0.00000000000E+00  0.16665298150E+04  0.16665298150E+04  0.25500000920E-02 0.  1.
        2   -1    0    0  501    0  0.00000000000E+00  0.00000000000E+00 -0.19292155930E+04  0.19292155930E+04  0.25500000920E-02 0. -1.
    10030    2    1    2    0    0  0.00000000000E+00  0.00000000000E+00 -0.26268577799E+03  0.35957454081E+04  0.35861373679E+04 0.  0.
        2    1    3    3  502    0  0.21078900895E+03 -0.29081672978E+03 -0.18927763067E+04  0.19265535352E+04  0.25500000920E-02 0. -1.
       -2    1    3    3    0  502 -0.21078900895E+03  0.29081672978E+03  0.16300905287E+04  0.16691918729E+04  0.25500000920E-02 0.  1.
</event>
<event>
 5   0  0.1298250E-07  0.3625836E+04  0.7818609E-02  0.8084599E-01
       -1   -1    0    0    0  501  0.00000000000E+00  0.00000000000E+00  0.13647298240E+04  0.13647298240E+04  0.50400001928E-02 0. -1.
        1   -1    0    0  501    0  0.00000000000E+00  0.00000000000E+00 -0.24082953771E+04  0.24082953771E+04  0.50400001928E-02 0.  1.
    10030    2    1    2    0    0  0.00000000000E+00  0.00000000000E+00 -0.10435655531E+04  0.37730252011E+04  0.36258364696E+04 0.  0.
        1    1    3    3  502    0 -0.13193501743E+04 -0.17308364869E+01 -0.18156332275E+04  0.22443733859E+04  0.50400001928E-02 0. -1.
       -1    1    3    3    0  502  0.13193501743E+04  0.17308364869E+01  0.77206767440E+03  0.15286518152E+04  0.50400001928E-02 0.  1.
</event>
<event>
 5   0  0.4200635E-07  0.3587410E+04  0.7818609E-02  0.8093382E-01
       -2   -1    0    0    0  501  0.00000000000E+00  0.00000000000E+00  0.15193023023E+04  0.15193023023E+04  0.25500000920E-02 0.  1.
        2   -1    0    0  501    0  0.00000000000E+00  0.00000000000E+00 -0.21176680872E+04  0.21176680872E+04  0.25500000920E-02 0. -1.
    10030    2    1    2    0    0  0.00000000000E+00  0.00000000000E+00 -0.59836578487E+03  0.36369703896E+04  0.35874102082E+04 0.  0.
        4    1    3    3  502    0 -0.17763119132E+03 -0.17637156402E+04 -0.57706936656E+03  0.18642039498E+04  0.12699999809E+01 0. -1.
       -4    1    3    3    0  502  0.17763119132E+03  0.17637156402E+04 -0.21296418306E+02  0.17727664398E+04  0.12699999809E+01 0.  1.
</event>
<event>
 5   0  0.1348226E-07  0.3620593E+04  0.7818609E-02  0.8085791E-01
        1   -1    0    0  501    0  0.00000000000E+00  0.00000000000E+00  0.28044900621E+04  0.28044900621E+04  0.50400001928E-02 0. -1.
       -1   -1    0    0    0  501  0.00000000000E+00  0.00000000000E+00 -0.11685452720E+04  0.11685452720E+04  0.50400001928E-02 0.  1.
    10030    2    1    2    0    0  0.00000000000E+00  0.00000000000E+00  0.16359447901E+04  0.39730353341E+04  0.36205931020E+04 0.  0.
        4    1    3    3  502    0  0.10931979972E+04  0.21932443630E+03  0.23829812016E+04  0.26309287503E+04  0.12699999809E+01 0. -1.
       -4    1    3    3    0  502 -0.10931979972E+04 -0.21932443630E+03 -0.74703641143E+03  0.13421065838E+04  0.12699999809E+01 0.  1.
</event>
<event>
 5   0  0.3880259E-07  0.3623694E+04  0.7818609E-02  0.8085086E-01
       -2   -1    0    0    0  501  0.00000000000E+00  0.00000000000E+00  0.13637432797E+04  0.13637432797E+04  0.25500000920E-02 0. -1.
        2   -1    0    0  501    0  0.00000000000E+00  0.00000000000E+00 -0.24071908872E+04  0.24071908872E+04  0.25500000920E-02 0.  1.
    10030    2    1    2    0    0  0.00000000000E+00  0.00000000000E+00 -0.10434476075E+04  0.37709341669E+04  0.36236944658E+04 0.  0.
        5    1    3    3  502    0 -0.30582952002E+03  0.13146526171E+04  0.73607551195E+03  0.15374239650E+04  0.46999998093E+01 0. -1.
       -5    1    3    3    0  502  0.30582952002E+03 -0.13146526171E+04 -0.17795231195E+04  0.22335102019E+04  0.46999998093E+01 0.  1.
</event>
<event>
 5   0  0.1348226E-07  0.3641095E+04  0.7818609E-02  0.8081143E-01
        1   -1    0    0  501    0  0.00000000000E+00  0.00000000000E+00  0.17101071781E+04  0.17101071781E+04  0.50400001928E-02 0.  1.
       -1   -1    0    0    0  501  0.00000000000E+00  0.00000000000E+00 -0.19381199174E+04  0.19381199174E+04  0.50400001928E-02 0. -1.
    10030    2    1    2    0    0  0.00000000000E+00  0.00000000000E+00 -0.22801273936E+03  0.36482270955E+04  0.36410947709E+04 0.  0.
        4    1    3    3  502    0 -0.46756946769E+03  0.99268027816E+03 -0.15695583706E+04  0.19150849676E+04  0.12699999809E+01 0. -1.
       -4    1    3    3    0  502  0.46756946769E+03 -0.99268027816E+03  0.13415456312E+04  0.17331421278E+04  0.12699999809E+01 0.  1.
</event>
<event>
 5   0  0.1361743E-07  0.3602584E+04  0.7818609E-02  0.8089900E-01
       -1   -1    0    0    0  501  0.00000000000E+00  0.00000000000E+00  0.15389758803E+04  0.15389758803E+04  0.50400001928E-02 0. -1.
        1   -1    0    0  501    0  0.00000000000E+00  0.00000000000E+00 -0.21083193975E+04  0.21083193975E+04  0.50400001928E-02 0.  1.
    10030    2    1    2    0    0  0.00000000000E+00  0.00000000000E+00 -0.56934351717E+03  0.36472952778E+04  0.36025839065E+04 0.  0.
        5    1    3    3  502    0  0.43793060994E+03  0.15816288458E+04 -0.10363809578E+04  0.19409895942E+04  0.46999998093E+01 0. -1.
       -5    1    3    3    0  502 -0.43793060994E+03 -0.15816288458E+04  0.46703744064E+03  0.17063056836E+04  0.46999998093E+01 0.  1.
</event>
<event>
 5   0  0.3993751E-07  0.3599696E+04  0.7818609E-02  0.8090561E-01
       -2   -1    0    0    0  501  0.00000000000E+00  0.00000000000E+00  0.20339024505E+04  0.20339024505E+04  0.25500000920E-02 0.  1.
        2   -1    0    0  501    0  0.00000000000E+00  0.00000000000E+00 -0.15927280661E+04  0.15927280661E+04  0.25500000920E-02 0. -1.
    10030    2    1    2    0    0  0.00000000000E+00  0.00000000000E+00  0.44117438442E+03  0.36266305165E+04  0.35996963853E+04 0.  0.
        1    1    3    3  502    0  0.10027543422E+04 -0.11301601821E+04  0.12060033964E+04  0.19331897217E+04  0.50400001928E-02 0. -1.
       -1    1    3    3    0  502 -0.10027543422E+04  0.11301601821E+04 -0.76482901201E+03  0.16934407948E+04  0.50400001928E-02 0.  1.
</event>
<event>
 5   0  0.1361743E-07  0.3593928E+04  0.7818609E-02  0.8091884E-01
       -1   -1    0    0    0  501  0.00000000000E+00  0.00000000000E+00  0.14524674903E+04  0.14524674903E+04  0.50400001928E-02 0.  1.
        1   -1    0    0  501    0  0.00000000000E+00  0.00000000000E+00 -0.22231681213E+04  0.22231681213E+04  0.50400001928E-02 0. -1.
    10030    2    1    2    0    0  0.00000000000E+00  0.00000000000E+00 -0.77070063109E+03  0.36756356116E+04  0.35939278911E+04 0.  0.
        5    1    3    3  502    0  0.16616679462E+03  0.99357812530E+03 -0.19072157907E+04  0.21569198078E+04  0.46999998093E+01 0. -1.
       -5    1    3    3    0  502 -0.16616679462E+03 -0.99357812530E+03  0.11365151596E+04  0.15187158038E+04  0.46999998093E+01 0.  1.
</event>
<event>
 5   0  0.3993751E-07  0.3836958E+04  0.7818609E-02  0.8038270E-01
        2   -1    0    0  501    0  0.00000000000E+00  0.00000000000E+00  0.29054339546E+04  0.29054339546E+04  0.25500000920E-02 0.  1.
       -2   -1    0    0    0  501  0.00000000000E+00  0.00000000000E+00 -0.12667852386E+04  0.12667852386E+04  0.25500000920E-02 0. -1.
    10030    2    1    2    0    0  0.00000000000E+00  0.00000000000E+00  0.16386487161E+04  0.41722191932E+04  0.38369575683E+04 0.  0.
        1    1    3    3  502    0  0.63985712999E+03  0.30323524978E+02 -0.11470621374E+04  0.13138067628E+04  0.50400001928E-02 0. -1.
       -1    1    3    3    0  502 -0.63985712999E+03 -0.30323524978E+02  0.27857108535E+04  0.28584124304E+04  0.50400001928E-02 0.  1.
</event>
<event>
 5   0  0.1370997E-07  0.3593215E+04  0.7818609E-02  0.8092048E-01
       -1   -1    0    0    0  501  0.00000000000E+00  0.00000000000E+00  0.18955997915E+04  0.18955997915E+04  0.50400001928E-02 0.  1.
        1   -1    0    0  501    0  0.00000000000E+00  0.00000000000E+00 -0.17027844724E+04  0.17027844724E+04  0.50400001928E-02 0. -1.
    10030    2    1    2    0    0  0.00000000000E+00  0.00000000000E+00  0.19281531911E+03  0.35983842639E+04  0.35932146560E+04 0.  0.
        3    1    3    3  502    0  0.14435958934E+04  0.10218276607E+04 -0.21979494379E+03  0.17822487759E+04  0.10100000352E+00 0. -1.
       -3    1    3    3    0  502 -0.14435958934E+04 -0.10218276607E+04  0.41261026291E+03  0.18161354880E+04  0.10100000352E+00 0.  1.
</event>
<event>
 5   0  0.1361743E-07  0.3526541E+04  0.7818609E-02  0.8107529E-01
       -1   -1    0    0    0  501  0.00000000000E+00  0.00000000000E+00  0.19428398059E+04  0.19428398059E+04  0.50400001928E-02 0.  1.
        1   -1    0    0  501    0  0.00000000000E+00  0.00000000000E+00 -0.16002976607E+04  0.16002976608E+04  0.50400001928E-02 0. -1.
    10030    2    1    2    0    0  0.00000000000E+00  0.00000000000E+00  0.34254214512E+03  0.35431374666E+04  0.35265405125E+04 0.  0.
        5    1    3    3  502    0 -0.15748339423E+04  0.71360142466E+03  0.51897924956E+03  0.18051843370E+04  0.46999998093E+01 0.  1.
       -5    1    3    3    0  502  0.15748339423E+04 -0.71360142466E+03 -0.17643710444E+03  0.17379531296E+04  0.46999998093E+01 0. -1.
</event>
<event>
 5   0  0.4200635E-07  0.3419712E+04  0.7818609E-02  0.8133085E-01
       -2   -1    0    0    0  501  0.00000000000E+00  0.00000000000E+00  0.14244895654E+04  0.14244895654E+04  0.25500000920E-02 0.  1.
        2   -1    0    0  501    0  0.00000000000E+00  0.00000000000E+00 -0.20523893312E+04  0.20523893312E+04  0.25500000920E-02 0. -1.
    10030    2    1    2    0    0  0.00000000000E+00  0.00000000000E+00 -0.62789976575E+03  0.34768788966E+04  0.34197117928E+04 0.  0.
        4    1    3    3  502    0  0.67145471816E+03 -0.14522452067E+04  0.29923916887E+03  0.16277018376E+04  0.12699999809E+01 0.  1.
       -4    1    3    3    0  502 -0.67145471816E+03  0.14522452067E+04 -0.92713893462E+03  0.18491770591E+04  0.12699999809E+01 0. -1.
</event>
<event>
 5   0  0.4120440E-07  0.3596402E+04  0.7818609E-02  0.8091316E-01
        2   -1    0    0  501    0  0.00000000000E+00  0.00000000000E+00  0.18322337830E+04  0.18322337830E+04  0.25500000920E-02 0.  1.
       -2   -1    0    0    0  501  0.00000000000E+00  0.00000000000E+00 -0.17648004291E+04  0.17648004291E+04  0.25500000920E-02 0. -1.
    10030    2    1    2    0    0  0.00000000000E+00  0.00000000000E+00  0.67433353861E+02  0.35970342121E+04  0.35964020723E+04 0.  0.
        2    1    3    3  502    0  0.82836667024E+03  0.14644677376E+04  0.66839095443E+03  0.18104153012E+04  0.25500000920E-02 0.  1.
       -2    1    3    3    0  502 -0.82836667024E+03 -0.14644677376E+04 -0.60095760056E+03  0.17866189109E+04  0.25500000920E-02 0. -1.
</event>
<event>
 5   0  0.1348226E-07  0.3359296E+04  0.7818609E-02  0.8147969E-01
       -1   -1    0    0    0  501  0.00000000000E+00  0.00000000000E+00  0.11420205473E+04  0.11420205473E+04  0.50400001928E-02 0. -1.
        1   -1    0    0  501    0  0.00000000000E+00  0.00000000000E+00 -0.24703742108E+04  0.24703742108E+04  0.50400001928E-02 0.  1.
    10030    2    1    2    0    0  0.00000000000E+00  0.00000000000E+00 -0.13283536635E+04  0.36123947581E+04  0.33592964193E+04 0.  0.
        4    1    3    3  502    0  0.78148793775E+03  0.42956741087E+03  0.86642715042E+03  0.12433620459E+04  0.12699999809E+01 0. -1.
       -4    1    3    3    0  502 -0.78148793775E+03 -0.42956741087E+03 -0.21947808139E+04  0.23690327122E+04  0.12699999809E+01 0.  1.
</event>
<event>
 5   0  0.3880259E-07  0.3605692E+04  0.7818609E-02  0.8089189E-01
       -2   -1    0    0    0  501  0.00000000000E+00  0.00000000000E+00  0.29121623316E+04  0.29121623316E+04  0.25500000920E-02 0.  1.
        2   -1    0    0  501    0  0.00000000000E+00  0.00000000000E+00 -0.11160962663E+04  0.11160962663E+04  0.25500000920E-02 0. -1.
    10030    2    1    2    0    0  0.00000000000E+00  0.00000000000E+00  0.17960660652E+04  0.40282585979E+04  0.36056918921E+04 0.  0.
        5    1    3    3  502    0 -0.14072657860E+04  0.11178099748E+04  0.73871906988E+03  0.19430965201E+04  0.46999998093E+01 0. -1.
       -5    1    3    3    0  502  0.14072657860E+04 -0.11178099748E+04  0.10573469954E+04  0.20851620778E+04  0.46999998093E+01 0.  1.
</event>
<event>
 5   0  0.1298250E-07  0.3629343E+04  0.7818609E-02  0.8083803E-01
       -1   -1    0    0    0  501  0.00000000000E+00  0.00000000000E+00  0.23416586748E+04  0.23416586748E+04  0.50400001928E-02 0.  1.
        1   -1    0    0  501    0  0.00000000000E+00  0.00000000000E+00 -0.14062819077E+04  0.14062819077E+04  0.50400001928E-02 0. -1.
    10030    2    1    2    0    0  0.00000000000E+00  0.00000000000E+00  0.93537676708E+03  0.37479405825E+04  0.36293427661E+04 0.  0.
        1    1    3    3  502    0  0.29046398790E+03 -0.48369797413E+02 -0.13814455312E+04  0.14124803437E+04  0.50400001928E-02 0. -1.
       -1    1    3    3    0  502 -0.29046398790E+03  0.48369797413E+02  0.23168222983E+04  0.23354602389E+04  0.50400001928E-02 0.  1.
</event>
<event>
 5   0  0.4200635E-07  0.3595222E+04  0.7818609E-02  0.8091587E-01
       -2   -1    0    0    0  501  0.00000000000E+00  0.00000000000E+00  0.17260670287E+04  0.17260670287E+04  0.25500000920E-02 0.  1.
        2   -1    0    0  501    0  0.00000000000E+00  0.00000000000E+00 -0.18721208623E+04  0.18721208623E+04  0.25500000920E-02 0. -1.
    10030    2    1    2    0    0  0.00000000000E+00  0.00000000000E+00 -0.14605383367E+03  0.35981878910E+04  0.35952224377E+04 0.  0.
        4    1    3    3  502    0 -0.64616920998E+03 -0.43186174057E+03 -0.16952788473E+04  0.18649426785E+04  0.12699999809E+01 0. -1.
       -4    1    3    3    0  502  0.64616920998E+03  0.43186174057E+03  0.15492250137E+04  0.17332452125E+04  0.12699999809E+01 0.  1.
</event>
<event>
 5   0  0.1298250E-07  0.3552078E+04  0.7818609E-02  0.8101558E-01
        1   -1    0    0  501    0  0.00000000000E+00  0.00000000000E+00  0.18997292559E+04  0.18997292559E+04  0.50400001928E-02 0.  1.
       -1   -1    0    0    0  501  0.00000000000E+00  0.00000000000E+00 -0.16604017308E+04  0.16604017308E+04  0.50400001928E-02 0. -1.
    10030    2    1    2    0    0  0.00000000000E+00  0.00000000000E+00  0.23932752508E+03  0.35601309867E+04  0.35520775580E+04 0.  0.
        2    1    3    3  502    0  0.27755780693E+03  0.11381674461E+04  0.14575498613E+04  0.18700040293E+04  0.25500000920E-02 0.  1.
       -2    1    3    3    0  502 -0.27755780693E+03 -0.11381674461E+04 -0.12182223362E+04  0.16901269574E+04  0.25500000920E-02 0. -1.
</event>
<event>
 5   0  0.1298250E-07  0.3593359E+04  0.7818609E-02  0.8092015E-01
        1   -1    0    0  501    0  0.00000000000E+00  0.00000000000E+00  0.28094794657E+04  0.28094794657E+04  0.50400001928E-02 0.  1.
       -1   -1    0    0    0  501  0.00000000000E+00  0.00000000000E+00 -0.11489873591E+04  0.11489873591E+04  0.50400001928E-02 0. -1.
    10030    2    1    2    0    0  0.00000000000E+00  0.00000000000E+00  0.16604921067E+04  0.39584668248E+04  0.35933585358E+04 0.  0.
        2    1    3    3  502    0 -0.39793450087E+03 -0.17405585729E+04  0.10510085812E+04  0.20718385677E+04  0.25500000920E-02 0. -1.
       -2    1    3    3    0  502  0.39793450087E+03  0.17405585729E+04  0.60948352546E+03  0.18866282571E+04  0.25500000920E-02 0.  1.
</event>
<event>
 5   0  0.4120440E-07  0.3596206E+04  0.7818609E-02  0.8091361E-01
       -2   -1    0    0    0  501  0.00000000000E+00  0.00000000000E+00  0.20621127030E+04  0.20621127030E+04  0.25500000920E-02 0. -1.
        2   -1    0    0  501    0  0.00000000000E+00  0.00000000000E+00 -0.15678940701E+04  0.15678940701E+04  0.25500000920E-02 0.  1.
    10030    2    1    2    0    0  0.00000000000E+00  0.00000000000E+00  0.49421863293E+03  0.36300067731E+04  0.35962059334E+04 0.  0.
        2    1    3    3  502    0  0.24553198347E+03  0.60618891849E+03 -0.14435732849E+04  0.15848201124E+04  0.25500000920E-02 0.  1.
       -2    1    3    3    0  502 -0.24553198347E+03 -0.60618891849E+03  0.19377919179E+04  0.20451866606E+04  0.25500000920E-02 0. -1.
</event>
<event>
 5   0  0.1298250E-07  0.3664616E+04  0.7818609E-02  0.8075849E-01
       -3   -1    0    0    0  501  0.00000000000E+00  0.00000000000E+00  0.20060662070E+04  0.20060662095E+04  0.10100000352E+00 0.  1.
        3   -1    0    0  501    0  0.00000000000E+00  0.00000000000E+00 -0.16735999371E+04  0.16735999401E+04  0.10100000352E+00 0. -1.
    10030    2    1    2    0    0  0.00000000000E+00  0.00000000000E+00  0.33246626989E+03  0.36796661497E+04  0.36646158260E+04 0.  0.
        2    1    3    3  502    0  0.16081530382E+04 -0.52618890425E+03 -0.53973425479E+03  0.17760473032E+04  0.25500000920E-02 0. -1.
       -2    1    3    3    0  502 -0.16081530382E+04  0.52618890425E+03  0.87220052468E+03  0.19036188465E+04  0.25500000920E-02 0.  1.
</event>
<event>
 5   0  0.1298250E-07  0.3587790E+04  0.7818609E-02  0.8093294E-01
        1   -1    0    0  501    0  0.00000000000E+00  0.00000000000E+00  0.19590443780E+04  0.19590443780E+04  0.50400001928E-02 0.  1.
       -1   -1    0    0    0  501  0.00000000000E+00  0.00000000000E+00 -0.16426677131E+04  0.16426677131E+04  0.50400001928E-02 0. -1.
    10030    2    1    2    0    0  0.00000000000E+00  0.00000000000E+00  0.31637666490E+03  0.36017120911E+04  0.35877898201E+04 0.  0.
        1    1    3    3  502    0 -0.43413624477E+03 -0.53633619676E+02 -0.15883063607E+04  0.16474428486E+04  0.50400001928E-02 0. -1.
       -1    1    3    3    0  502  0.43413624477E+03  0.53633619676E+02  0.19046830256E+04  0.19542692425E+04  0.50400001928E-02 0.  1.
</event>
<event>
 5   0  0.1361743E-07  0.3594781E+04  0.7818609E-02  0.8091688E-01
       -1   -1    0    0    0  501  0.00000000000E+00  0.00000000000E+00  0.13286341497E+04  0.13286341497E+04  0.50400001928E-02 0. -1.
        1   -1    0    0  501    0  0.00000000000E+00  0.00000000000E+00 -0.24315284910E+04  0.24315284910E+04  0.50400001928E-02 0.  1.
    10030    2    1    2    0    0  0.00000000000E+00  0.00000000000E+00 -0.11028943412E+04  0.37601626407E+04  0.35947805436E+04 0.  0.
        5    1    3    3  502    0 -0.38806370117E+03  0.77280392629E+03  0.10967247967E+04  0.13966555460E+04  0.46999998093E+01 0. -1.
       -5    1    3    3    0  502  0.38806370117E+03 -0.77280392629E+03 -0.21996191379E+04  0.23635070947E+04  0.46999998093E+01 0.  1.
</event>
<event>
 5   0  0.4120440E-07  0.3602175E+04  0.7818609E-02  0.8089994E-01
       -2   -1    0    0    0  501  0.00000000000E+00  0.00000000000E+00  0.20591460148E+04  0.20591460148E+04  0.25500000920E-02 0.  1.
        2   -1    0    0  501    0  0.00000000000E+00  0.00000000000E+00 -0.15753693308E+04  0.15753693308E+04  0.25500000920E-02 0. -1.
    10030    2    1    2    0    0  0.00000000000E+00  0.00000000000E+00  0.48377668400E+03  0.36345153455E+04  0.36021746094E+04 0.  0.
        2    1    3    3  502    0  0.17199388833E+04 -0.35616786674E+03 -0.16027540891E+03  0.17637271667E+04  0.25500000920E-02 0.  1.
       -2    1    3    3    0  502 -0.17199388833E+04  0.35616786674E+03  0.64405209291E+03  0.18707881789E+04  0.25500000920E-02 0. -1.
</event>
<event>
 5   0  0.4120440E-07  0.3486306E+04  0.7818609E-02  0.8117043E-01
       -2   -1    0    0    0  501  0.00000000000E+00  0.00000000000E+00  0.11564557090E+04  0.11564557090E+04  0.25500000920E-02 0. -1.
        2   -1    0    0  501    0  0.00000000000E+00  0.00000000000E+00 -0.26274962729E+04  0.26274962729E+04  0.25500000920E-02 0.  1.
    10030    2    1    2    0    0  0.00000000000E+00  0.00000000000E+00 -0.14710405639E+04  0.37839519819E+04  0.34863063923E+04 0.  0.
        2    1    3    3  502    0 -0.17076113355E+04  0.19834031447E+03 -0.10487930664E+04  0.20137632059E+04  0.25500000920E-02 0.  1.
       -2    1    3    3    0  502  0.17076113355E+04 -0.19834031447E+03 -0.42224749751E+03  0.17701887760E+04  0.25500000920E-02 0. -1.
</event>
<event>
 5   0  0.1298250E-07  0.3599179E+04  0.7818609E-02  0.8090680E-01
       -1   -1    0    0    0  501  0.00000000000E+00  0.00000000000E+00  0.16396660346E+04  0.16396660346E+04  0.50400001928E-02 0. -1.
        1   -1    0    0  501    0  0.00000000000E+00  0.00000000000E+00 -0.19751104299E+04  0.19751104299E+04  0.50400001928E-02 0.  1.
    10030    2    1    2    0    0  0.00000000000E+00  0.00000000000E+00 -0.33544439534E+03  0.36147764645E+04  0.35991785098E+04 0.  0.
        1    1    3    3  502    0 -0.63294042906E+03  0.13728522743E+04  0.81282059562E+03  0.17163957220E+04  0.50400001928E-02 0. -1.
       -1    1    3    3    0  502  0.63294042906E+03 -0.13728522743E+04 -0.11482649910E+04  0.18983807425E+04  0.50400001928E-02 0.  1.
</event>
<event>
 5   0  0.4115358E-07  0.3623653E+04  0.7818609E-02  0.8085095E-01
        2   -1    0    0  501    0  0.00000000000E+00  0.00000000000E+00  0.20589938805E+04  0.20589938805E+04  0.25500000920E-02 0.  1.
       -2   -1    0    0    0  501  0.00000000000E+00  0.00000000000E+00 -0.15943299291E+04  0.15943299291E+04  0.25500000920E-02 0. -1.
    10030    2    1    2    0    0  0.00000000000E+00  0.00000000000E+00  0.46466395138E+03  0.36533238096E+04  0.36236531663E+04 0.  0.
        3    1    3    3  502    0  0.18096138623E+04  0.43951180687E+02  0.31095461619E+03  0.18366618688E+04  0.10100000352E+00 0.  1.
       -3    1    3    3    0  502 -0.18096138623E+04 -0.43951180687E+02  0.15370933519E+03  0.18166619407E+04  0.10100000352E+00 0. -1.
</event>
<event>
 5   0  0.4115358E-07  0.3594248E+04  0.7818609E-02  0.8091811E-01
       -2   -1    0    0    0  501  0.00000000000E+00  0.00000000000E+00  0.17008801558E+04  0.17008801558E+04  0.25500000920E-02 0.  1.
        2   -1    0    0  501    0  0.00000000000E+00  0.00000000000E+00 -0.18988136149E+04  0.18988136149E+04  0.25500000920E-02 0. -1.
    10030    2    1    2    0    0  0.00000000000E+00  0.00000000000E+00 -0.19793345915E+03  0.35996937707E+04  0.35942478474E+04 0.  0.
        3    1    3    3  502    0  0.10711960430E+04  0.33361321071E+03 -0.15049797765E+04  0.18771581912E+04  0.10100000352E+00 0. -1.
       -3    1    3    3    0  502 -0.10711960430E+04 -0.33361321071E+03  0.13070463173E+04  0.17225355795E+04  0.10100000352E+00 0.  1.
</event>
<event>
 5   0  0.4200635E-07  0.3581338E+04  0.7818609E-02  0.8094780E-01
        2   -1    0    0  501    0  0.00000000000E+00  0.00000000000E+00  0.30612273135E+04  0.30612273135E+04  0.25500000920E-02 0. -1.
       -2   -1    0    0    0  501  0.00000000000E+00  0.00000000000E+00 -0.10474539618E+04  0.10474539618E+04  0.25500000920E-02 0.  1.
    10030    2    1    2    0    0  0.00000000000E+00  0.00000000000E+00  0.20137733518E+04  0.41086812753E+04  0.35813375588E+04 0.  0.
        4    1    3    3  502    0  0.10986385176E+04  0.83889688700E+03 -0.29903122360E+03  0.14142757386E+04  0.12699999809E+01 0.  1.
       -4    1    3    3    0  502 -0.10986385176E+04 -0.83889688700E+03  0.23128045754E+04  0.26944055367E+04  0.12699999809E+01 0. -1.
</event>
<event>
 5   0  0.1348226E-07  0.3587403E+04  0.7818609E-02  0.8093383E-01
        1   -1    0    0  501    0  0.00000000000E+00  0.00000000000E+00  0.19518352944E+04  0.19518352944E+04  0.50400001928E-02 0.  1.
       -1   -1    0    0    0  501  0.00000000000E+00  0.00000000000E+00 -0.16483794411E+04  0.16483794412E+04  0.50400001928E-02 0. -1.
    10030    2    1    2    0    0  0.00000000000E+00  0.00000000000E+00  0.30345585321E+03  0.36002147355E+04  0.35874030561E+04 0.  0.
        4    1    3    3  502    0  0.96165831783E+03 -0.83338710936E+03  0.14203796971E+04  0.19070398242E+04  0.12699999809E+01 0.  1.
       -4    1    3    3    0  502 -0.96165831783E+03  0.83338710936E+03 -0.11169238439E+04  0.16931749113E+04  0.12699999809E+01 0. -1.
</event>
<event>
 5   0  0.1348226E-07  0.3602281E+04  0.7818609E-02  0.8089969E-01
        1   -1    0    0  501    0  0.00000000000E+00  0.00000000000E+00  0.18658811872E+04  0.18658811872E+04  0.50400001928E-02 0. -1.
       -1   -1    0    0    0  501  0.00000000000E+00  0.00000000000E+00 -0.17386457908E+04  0.17386457908E+04  0.50400001928E-02 0.  1.
    10030    2    1    2    0    0  0.00000000000E+00  0.00000000000E+00  0.12723539644E+03  0.36045269781E+04  0.36022806511E+04 0.  0.
        4    1    3    3  502    0  0.16656637217E+04 -0.13008690496E+03 -0.60966638037E+03  0.17784973840E+04  0.12699999809E+01 0.  1.
       -4    1    3    3    0  502 -0.16656637217E+04  0.13008690496E+03  0.73690177681E+03  0.18260295940E+04  0.12699999809E+01 0. -1.
</event>
<event>
 5   0  0.3880259E-07  0.3561195E+04  0.7818609E-02  0.8099439E-01
       -2   -1    0    0    0  501  0.00000000000E+00  0.00000000000E+00  0.14437814230E+04  0.14437814230E+04  0.25500000920E-02 0. -1.
        2   -1    0    0  501    0  0.00000000000E+00  0.00000000000E+00 -0.21959886377E+04  0.21959886377E+04  0.25500000920E-02 0.  1.
    10030    2    1    2    0    0  0.00000000000E+00  0.00000000000E+00 -0.75220721469E+03  0.36397700607E+04  0.35611950805E+04 0.  0.
        5    1    3    3  502    0 -0.22870110497E+03  0.88796651566E+03 -0.19361221038E+04  0.21422837392E+04  0.46999998093E+01 0.  1.
       -5    1    3    3    0  502  0.22870110497E+03 -0.88796651566E+03  0.11839148892E+04  0.14974863215E+04  0.46999998093E+01 0. -1.
</event>
<event>
 5   0  0.1348226E-07  0.3611676E+04  0.7818609E-02  0.8087822E-01
       -1   -1    0    0    0  501  0.00000000000E+00  0.00000000000E+00  0.19540324230E+04  0.19540324230E+04  0.50400001928E-02 0.  1.
        1   -1    0    0  501    0  0.00000000000E+00  0.00000000000E+00 -0.16688829696E+04  0.16688829696E+04  0.50400001928E-02 0. -1.
    10030    2    1    2    0    0  0.00000000000E+00  0.00000000000E+00  0.28514945340E+03  0.36229153926E+04  0.36116763049E+04 0.  0.
        4    1    3    3  502    0 -0.11497718132E+04 -0.73088836824E+03 -0.10463886870E+04  0.17178777391E+04  0.12699999809E+01 0. -1.
       -4    1    3    3    0  502  0.11497718132E+04  0.73088836824E+03  0.13315381404E+04  0.19050376536E+04  0.12699999809E+01 0.  1.
</event>
<event>
 5   0  0.4115358E-07  0.3611187E+04  0.7818609E-02  0.8087934E-01
        2   -1    0    0  501    0  0.00000000000E+00  0.00000000000E+00  0.27750471844E+04  0.27750471844E+04  0.25500000920E-02 0. -1.
       -2   -1    0    0    0  501  0.00000000000E+00  0.00000000000E+00 -0.11748152750E+04  0.11748152750E+04  0.25500000920E-02 0.  1.
    10030    2    1    2    0    0  0.00000000000E+00  0.00000000000E+00  0.16002319094E+04  0.39498624595E+04  0.36111869635E+04 0.  0.
        3    1    3    3  502    0 -0.13319841384E+04 -0.10548475311E+03  0.21284498519E+04  0.25130872568E+04  0.10100000352E+00 0. -1.
       -3    1    3    3    0  502  0.13319841384E+04  0.10548475311E+03 -0.52821794247E+03  0.14367752027E+04  0.10100000352E+00 0.  1.
</event>
<event>
 5   0  0.4115358E-07  0.3533276E+04  0.7818609E-02  0.8105949E-01
       -2   -1    0    0    0  501  0.00000000000E+00  0.00000000000E+00  0.12498776759E+04  0.12498776759E+04  0.25500000920E-02 0.  1.
        2   -1    0    0  501    0  0.00000000000E+00  0.00000000000E+00 -0.24970515492E+04  0.24970515492E+04  0.25500000920E-02 0. -1.
    10030    2    1    2    0    0  0.00000000000E+00  0.00000000000E+00 -0.12471738733E+04  0.37469292251E+04  0.35332755267E+04 0.  0.
        3    1    3    3  502    0  0.63346848818E+03  0.12111059072E+04 -0.18106251622E+04  0.22685729727E+04  0.10100000352E+00 0. -1.
       -3    1    3    3    0  502 -0.63346848818E+03 -0.12111059072E+04  0.56345128886E+03  0.14783562525E+04  0.10100000352E+00 0.  1.
</event>
<event>
 5   0  0.1348226E-07  0.3642254E+04  0.7818609E-02  0.8080881E-01
        1   -1    0    0  501    0  0.00000000000E+00  0.00000000000E+00  0.28547510897E+04  0.28547510897E+04  0.50400001928E-02 0. -1.
       -1   -1    0    0    0  501  0.00000000000E+00  0.00000000000E+00 -0.11617488612E+04  0.11617488612E+04  0.50400001928E-02 0.  1.
    10030    2    1    2    0    0  0.00000000000E+00  0.00000000000E+00  0.16930022285E+04  0.40164999509E+04  0.36422541523E+04 0.  0.
        4    1    3    3  502    0  0.10901773157E+04  0.12896441969E+03 -0.75586264078E+03  0.13328347031E+04  0.12699999809E+01 0.  1.
       -4    1    3    3    0  502 -0.10901773157E+04 -0.12896441969E+03  0.24488648693E+04  0.26836652478E+04  0.12699999809E+01 0. -1.
</event>
<event>
 5   0  0.1370997E-07  0.3677076E+04  0.7818609E-02  0.8073061E-01
       -1   -1    0    0    0  501  0.00000000000E+00  0.00000000000E+00  0.11065970969E+04  0.11065970969E+04  0.50400001928E-02 0. -1.
        1   -1    0    0  501    0  0.00000000000E+00  0.00000000000E+00 -0.30546092154E+04  0.30546092154E+04  0.50400001928E-02 0.  1.
    10030    2    1    2    0    0  0.00000000000E+00  0.00000000000E+00 -0.19480121184E+04  0.41612063123E+04  0.36770758437E+04 0.  0.
        3    1    3    3  502    0 -0.14033085186E+04 -0.11159819675E+04 -0.14344285187E+04  0.22961436661E+04  0.10100000352E+00 0.  1.
       -3    1    3    3    0  502  0.14033085186E+04  0.11159819675E+04 -0.51358359974E+03  0.18650626462E+04  0.10100000352E+00 0. -1.
</event>
<event>
 5   0  0.1348226E-07  0.3599883E+04  0.7818609E-02  0.8090519E-01
        1   -1    0    0  501    0  0.00000000000E+00  0.00000000000E+00  0.20541126976E+04  0.20541126976E+04  0.50400001928E-02 0.  1.
       -1   -1    0    0    0  501  0.00000000000E+00  0.00000000000E+00 -0.15772204521E+04  0.15772204521E+04  0.50400001928E-02 0. -1.
    10030    2    1    2    0    0  0.00000000000E+00  0.00000000000E+00  0.47689224551E+03  0.36313331497E+04  0.35998825300E+04 0.  0.
        4    1    3    3  502    0  0.10399551430E+04 -0.11428876410E+04 -0.69270465691E+03  0.16933812961E+04  0.12699999809E+01 0. -1.
       -4    1    3    3    0  502 -0.10399551430E+04  0.11428876410E+04  0.11695969024E+04  0.19379518535E+04  0.12699999809E+01 0.  1.
</event>
<event>
 5   0  0.3880259E-07  0.3605497E+04  0.7818609E-02  0.8089234E-01
       -2   -1    0    0    0  501  0.00000000000E+00  0.00000000000E+00  0.15536905501E+04  0.15536905501E+04  0.25500000920E-02 0.  1.
        2   -1    0    0  501    0  0.00000000000E+00  0.00000000000E+00 -0.20917308710E+04  0.20917308710E+04  0.25500000920E-02 0. -1.
    10030    2    1    2    0    0  0.00000000000E+00  0.00000000000E+00 -0.53804032091E+03  0.36454214211E+04  0.36054971850E+04 0.  0.
        5    1    3    3  502    0 -0.17621920903E+03 -0.18456748907E+03 -0.20733713648E+04  0.20890211282E+04  0.46999998093E+01 0. -1.
       -5    1    3    3    0  502  0.17621920903E+03  0.18456748907E+03  0.15353310439E+04  0.15564002930E+04  0.46999998093E+01 0.  1.
</event>
<event>
 5   0  0.1348226E-07  0.3614042E+04  0.7818609E-02  0.8087283E-01
       -1   -1    0    0    0  501  0.00000000000E+00  0.00000000000E+00  0.12787209258E+04  0.12787209259E+04  0.50400001928E-02 0. -1.
        1   -1    0    0  501    0  0.00000000000E+00  0.00000000000E+00 -0.25535865330E+04  0.25535865330E+04  0.50400001928E-02 0.  1.
    10030    2    1    2    0    0  0.00000000000E+00  0.00000000000E+00 -0.12748656071E+04  0.38323074588E+04  0.36140418015E+04 0.  0.
        4    1    3    3  502    0 -0.60100034434E+03  0.16123080645E+04 -0.12226551059E+04  0.21108353393E+04  0.12699999809E+01 0.  1.
       -4    1    3    3    0  502  0.60100034434E+03 -0.16123080645E+04 -0.52210501237E+02  0.17214721195E+04  0.12699999809E+01 0. -1.
</event>
<event>
 5   0  0.1298250E-07  0.3626852E+04  0.7818609E-02  0.8084368E-01
       -1   -1    0    0    0  501  0.00000000000E+00  0.00000000000E+00  0.16109404871E+04  0.16109404872E+04  0.50400001928E-02 0. -1.
        1   -1    0    0  501    0  0.00000000000E+00  0.00000000000E+00 -0.20413627837E+04  0.20413627837E+04  0.50400001928E-02 0.  1.
    10030    2    1    2    0    0  0.00000000000E+00  0.00000000000E+00 -0.43042229652E+03  0.36523032708E+04  0.36268520550E+04 0.  0.
        2    1    3    3  502    0 -0.12863925771E+04 -0.12513118465E+04 -0.47766770949E+03  0.18570820230E+04  0.25500000920E-02 0.  1.
       -2    1    3    3    0  502  0.12863925771E+04  0.12513118465E+04  0.47245412970E+02  0.17952212478E+04  0.25500000920E-02 0. -1.
</event>
<event>
 5   0  0.1298250E-07  0.3598370E+04  0.7818609E-02  0.8090865E-01
       -3   -1    0    0    0  501  0.00000000000E+00  0.00000000000E+00  0.17260871228E+04  0.17260871257E+04  0.10100000352E+00 0.  1.
        3   -1    0    0  501    0  0.00000000000E+00  0.00000000000E+00 -0.18753784613E+04  0.18753784640E+04  0.10100000352E+00 0. -1.
    10030    2    1    2    0    0  0.00000000000E+00  0.00000000000E+00 -0.14929133856E+03  0.36014655898E+04  0.35983699769E+04 0.  0.
        2    1    3    3  502    0  0.62178591582E+03 -0.16883256708E+04 -0.72335679887E+02  0.18006370390E+04  0.25500000920E-02 0.  1.
       -2    1    3    3    0  502 -0.62178591582E+03  0.16883256708E+04 -0.76955658677E+02  0.18008285507E+04  0.25500000920E-02 0. -1.
</event>
<event>
 5   0  0.4120440E-07  0.3584593E+04  0.7818609E-02  0.8094030E-01
       -2   -1    0    0    0  501  0.00000000000E+00  0.00000000000E+00  0.29610144094E+04  0.29610144094E+04  0.25500000920E-02 0. -1.
        2   -1    0    0  501    0  0.00000000000E+00  0.00000000000E+00 -0.10848739601E+04  0.10848739601E+04  0.25500000920E-02 0.  1.
    10030    2    1    2    0    0  0.00000000000E+00  0.00000000000E+00  0.18761404493E+04  0.40458883696E+04  0.35845933819E+04 0.  0.
        2    1    3    3  502    0 -0.12860649212E+04 -0.43991291193E+03  0.22566762007E+04  0.26344019865E+04  0.25500000920E-02 0. -1.
       -2    1    3    3    0  502  0.12860649212E+04  0.43991291193E+03 -0.38053575141E+03  0.14114863831E+04  0.25500000920E-02 0.  1.
</event>
<event>
 5   0  0.4200635E-07  0.3596984E+04  0.7818609E-02  0.8091183E-01
       -2   -1    0    0    0  501  0.00000000000E+00  0.00000000000E+00  0.11668849348E+04  0.11668849349E+04  0.25500000920E-02 0. -1.
        2   -1    0    0  501    0  0.00000000000E+00  0.00000000000E+00 -0.27719735405E+04  0.27719735405E+04  0.25500000920E-02 0.  1.
    10030    2    1    2    0    0  0.00000000000E+00  0.00000000000E+00 -0.16050886057E+04  0.39388584754E+04  0.35969843838E+04 0.  0.
        4    1    3    3  502    0  0.15761209035E+04 -0.49146974684E+03 -0.21390589343E+02  0.16511083504E+04  0.12699999809E+01 0. -1.
       -4    1    3    3    0  502 -0.15761209035E+04  0.49146974684E+03 -0.15836980163E+04  0.22877501250E+04  0.12699999809E+01 0.  1.
</event>
<event>
 5   0  0.4115358E-07  0.3605283E+04  0.7818609E-02  0.8089283E-01
       -2   -1    0    0    0  501  0.00000000000E+00  0.00000000000E+00  0.17294817022E+04  0.17294817022E+04  0.25500000920E-02 0. -1.
        2   -1    0    0  501    0  0.00000000000E+00  0.00000000000E+00 -0.18788960194E+04  0.18788960194E+04  0.25500000920E-02 0.  1.
    10030    2    1    2    0    0  0.00000000000E+00  0.00000000000E+00 -0.14941431725E+03  0.36083777216E+04  0.36052829492E+04 0.  0.
        3    1    3    3  502    0 -0.52409048960E+03  0.16624985126E+04 -0.53438795432E+03  0.18232231465E+04  0.10100000352E+00 0.  1.
       -3    1    3    3    0  502  0.52409048960E+03 -0.16624985126E+04  0.38497363707E+03  0.17851545752E+04  0.10100000352E+00 0. -1.
</event>
<event>
 5   0  0.1298250E-07  0.3605786E+04  0.7818609E-02  0.8089168E-01
       -1   -1    0    0    0  501  0.00000000000E+00  0.00000000000E+00  0.11421602920E+04  0.11421602920E+04  0.50400001928E-02 0.  1.
        1   -1    0    0  501    0  0.00000000000E+00  0.00000000000E+00 -0.28458549952E+04  0.28458549952E+04  0.50400001928E-02 0. -1.
    10030    2    1    2    0    0  0.00000000000E+00  0.00000000000E+00 -0.17036947032E+04  0.39880152872E+04  0.36057856688E+04 0.  0.
        1    1    3    3  502    0  0.16050071911E+04  0.78779243325E+03 -0.11082820114E+04  0.21035574673E+04  0.50400001928E-02 0. -1.
       -1    1    3    3    0  502 -0.16050071911E+04 -0.78779243325E+03 -0.59541269186E+03  0.18844578199E+04  0.50400001928E-02 0.  1.
</event>
<event>
 5   0  0.1370997E-07  0.3650805E+04  0.7818609E-02  0.8078952E-01
        1   -1    0    0  501    0  0.00000000000E+00  0.00000000000E+00  0.16009241772E+04  0.16009241772E+04  0.50400001928E-02 0. -1.
       -1   -1    0    0    0  501  0.00000000000E+00  0.00000000000E+00 -0.20813565882E+04  0.20813565882E+04  0.50400001928E-02 0.  1.
    10030    2    1    2    0    0  0.00000000000E+00  0.00000000000E+00 -0.48043241102E+03  0.36822807654E+04  0.36508048885E+04 0.  0.
        3    1    3    3  502    0  0.16187336276E+04 -0.83542654255E+03 -0.12148122648E+03  0.18256488610E+04  0.10100000352E+00 0. -1.
       -3    1    3    3    0  502 -0.16187336276E+04  0.83542654255E+03 -0.35895118454E+03  0.18566319044E+04  0.10100000352E+00 0.  1.
</event>
<event>
 5   0  0.1361743E-07  0.3597588E+04  0.7818609E-02  0.8091045E-01
       -1   -1    0    0    0  501  0.00000000000E+00  0.00000000000E+00  0.11288436896E+04  0.11288436896E+04  0.50400001928E-02 0.  1.
        1   -1    0    0  501    0  0.00000000000E+00  0.00000000000E+00 -0.28663482001E+04  0.28663482002E+04  0.50400001928E-02 0. -1.
    10030    2    1    2    0    0  0.00000000000E+00  0.00000000000E+00 -0.17375045105E+04  0.39951918898E+04  0.35975875683E+04 0.  0.
        5    1    3    3  502    0 -0.12341820092E+04  0.89759235990E+03 -0.19262327789E+04  0.24574930488E+04  0.46999998093E+01 0. -1.
       -5    1    3    3    0  502  0.12341820092E+04 -0.89759235990E+03  0.18872826830E+03  0.15376988410E+04  0.46999998093E+01 0.  1.
</event>
<event>
 5   0  0.1361743E-07  0.3597030E+04  0.7818609E-02  0.8091172E-01
        1   -1    0    0  501    0  0.00000000000E+00  0.00000000000E+00  0.24226820044E+04  0.24226820044E+04  0.50400001928E-02 0. -1.
       -1   -1    0    0    0  501  0.00000000000E+00  0.00000000000E+00 -0.13351553969E+04  0.13351553970E+04  0.50400001928E-02 0.  1.
    10030    2    1    2    0    0  0.00000000000E+00  0.00000000000E+00  0.10875266075E+04  0.37578374014E+04  0.35970304159E+04 0.  0.
        5    1    3    3  502    0 -0.10146734259E+04  0.14771950940E+04  0.38543834674E+03  0.18330991015E+04  0.46999998093E+01 0. -1.
       -5    1    3    3    0  502  0.10146734259E+04 -0.14771950940E+04  0.70208826072E+03  0.19247382998E+04  0.46999998093E+01 0.  1.
</event>
<event>
 5   0  0.4120440E-07  0.3615803E+04  0.7818609E-02  0.8086881E-01
       -2   -1    0    0    0  501  0.00000000000E+00  0.00000000000E+00  0.16158652820E+04  0.16158652820E+04  0.25500000920E-02 0.  1.
        2   -1    0    0  501    0  0.00000000000E+00  0.00000000000E+00 -0.20227601497E+04  0.20227601497E+04  0.25500000920E-02 0. -1.
    10030    2    1    2    0    0  0.00000000000E+00  0.00000000000E+00 -0.40689486770E+03  0.36386254317E+04  0.36158030365E+04 0.  0.
        2    1    3    3  502    0 -0.11576277160E+04  0.15890827888E+03  0.11848085891E+04  0.16640688576E+04  0.25500000920E-02 0.  1.
       -2    1    3    3    0  502  0.11576277160E+04 -0.15890827888E+03 -0.15917034568E+04  0.19745565741E+04  0.25500000920E-02 0. -1.
</event>
<event>
 5   0  0.4120440E-07  0.3469238E+04  0.7818609E-02  0.8121119E-01
       -2   -1    0    0    0  501  0.00000000000E+00  0.00000000000E+00  0.20680119728E+04  0.20680119728E+04  0.25500000920E-02 0. -1.
        2   -1    0    0  501    0  0.00000000000E+00  0.00000000000E+00 -0.14549738963E+04  0.14549738963E+04  0.25500000920E-02 0.  1.
    10030    2    1    2    0    0  0.00000000000E+00  0.00000000000E+00  0.61303807651E+03  0.35229858691E+04  0.34692382090E+04 0.  0.
        2    1    3    3  502    0 -0.12215792360E+04 -0.12311161615E+04  0.33864144362E+03  0.17670825844E+04  0.25500000920E-02 0.  1.
       -2    1    3    3    0  502  0.12215792360E+04  0.12311161615E+04  0.27439663288E+03  0.17559032847E+04  0.25500000920E-02 0. -1.
</event>
<event>
 5   0  0.1370997E-07  0.3603031E+04  0.7818609E-02  0.8089798E-01
       -1   -1    0    0    0  501  0.00000000000E+00  0.00000000000E+00  0.20996395377E+04  0.20996395377E+04  0.50400001928E-02 0.  1.
        1   -1    0    0  501    0  0.00000000000E+00  0.00000000000E+00 -0.15457218374E+04  0.15457218374E+04  0.50400001928E-02 0. -1.
    10030    2    1    2    0    0  0.00000000000E+00  0.00000000000E+00  0.55391770023E+03  0.36453613751E+04  0.36030313260E+04 0.  0.
        3    1    3    3  502    0  0.14021984395E+04 -0.83819056279E+03  0.10453115554E+04  0.19394329433E+04  0.10100000352E+00 0.  1.
       -3    1    3    3    0  502 -0.14021984395E+04  0.83819056279E+03 -0.49139385521E+03  0.17059284318E+04  0.10100000352E+00 0. -1.
</event>
<event>
 5   0  0.1298250E-07  0.3474028E+04  0.7818609E-02  0.8119973E-01
        1   -1    0    0  501    0  0.00000000000E+00  0.00000000000E+00  0.19857996458E+04  0.19857996458E+04  0.50400001928E-02 0. -1.
       -1   -1    0    0    0  501  0.00000000000E+00  0.00000000000E+00 -0.15193965767E+04  0.15193965767E+04  0.50400001928E-02 0.  1.
    10030    2    1    2    0    0  0.00000000000E+00  0.00000000000E+00  0.46640306914E+03  0.35051962226E+04  0.34740277396E+04 0.  0.
        1    1    3    3  502    0 -0.61166602527E+03 -0.47258392561E+03  0.18027111095E+04  0.19614377985E+04  0.50400001928E-02 0. -1.
       -1    1    3    3    0  502  0.61166602527E+03  0.47258392561E+03 -0.13363080403E+04  0.15437584241E+04  0.50400001928E-02 0.  1.
</event>
<event>
 5   0  0.3993751E-07  0.3611859E+04  0.7818609E-02  0.8087781E-01
        2   -1    0    0  501    0  0.00000000000E+00  0.00000000000E+00  0.19462100642E+04  0.19462100642E+04  0.25500000920E-02 0.  1.
       -2   -1    0    0    0  501  0.00000000000E+00  0.00000000000E+00 -0.16757597871E+04  0.16757597871E+04  0.25500000920E-02 0. -1.
    10030    2    1    2    0    0  0.00000000000E+00  0.00000000000E+00  0.27045027709E+03  0.36219698513E+04  0.36118585592E+04 0.  0.
        1    1    3    3  502    0 -0.14952952995E+04 -0.96747928983E+03  0.43515499023E+03  0.18333805045E+04  0.50400001928E-02 0. -1.
       -1    1    3    3    0  502  0.14952952995E+04  0.96747928983E+03 -0.16470471314E+03  0.17885893468E+04  0.50400001928E-02 0.  1.
</event>
<event>
 5   0  0.3880259E-07  0.3573390E+04  0.7818609E-02  0.8096614E-01
        2   -1    0    0  501    0  0.00000000000E+00  0.00000000000E+00  0.17221846618E+04  0.17221846618E+04  0.25500000920E-02 0. -1.
       -2   -1    0    0    0  501  0.00000000000E+00  0.00000000000E+00 -0.18536217445E+04  0.18536217445E+04  0.25500000920E-02 0.  1.
    10030    2    1    2    0    0  0.00000000000E+00  0.00000000000E+00 -0.13143708269E+03  0.35758064063E+04  0.35733899520E+04 0.  0.
        5    1    3    3  502    0  0.12199474868E+03  0.17737916910E+04  0.11057427294E+03  0.17814231507E+04  0.46999998093E+01 0. -1.
       -5    1    3    3    0  502 -0.12199474868E+03 -0.17737916910E+04 -0.24201135563E+03  0.17943832556E+04  0.46999998093E+01 0.  1.
</event>
<event>
 5   0  0.1298250E-07  0.3532413E+04  0.7818609E-02  0.8106151E-01
       -1   -1    0    0    0  501  0.00000000000E+00  0.00000000000E+00  0.21166515082E+04  0.21166515082E+04  0.50400001928E-02 0. -1.
        1   -1    0    0  501    0  0.00000000000E+00  0.00000000000E+00 -0.14737835902E+04  0.14737835902E+04  0.50400001928E-02 0.  1.
    10030    2    1    2    0    0  0.00000000000E+00  0.00000000000E+00  0.64286791797E+03  0.35904350984E+04  0.35324134860E+04 0.  0.
        2    1    3    3  502    0  0.68516801391E+02  0.10130986165E+04  0.17903087245E+04  0.20582197861E+04  0.25500000920E-02 0. -1.
       -2    1    3    3    0  502 -0.68516801391E+02 -0.10130986165E+04 -0.11474408065E+04  0.15322153123E+04  0.25500000920E-02 0.  1.
</event>
<event>
 5   0  0.1298250E-07  0.3584807E+04  0.7818609E-02  0.8093981E-01
        1   -1    0    0  501    0  0.00000000000E+00  0.00000000000E+00  0.15234007684E+04  0.15234007684E+04  0.50400001928E-02 0.  1.
       -1   -1    0    0    0  501  0.00000000000E+00  0.00000000000E+00 -0.21089065274E+04  0.21089065274E+04  0.50400001928E-02 0. -1.
    10030    2    1    2    0    0  0.00000000000E+00  0.00000000000E+00 -0.58550575906E+03  0.36323072958E+04  0.35848067308E+04 0.  0.
        2    1    3    3  502    0  0.17162489846E+04  0.44069768443E+02 -0.81460847870E+03  0.19002735843E+04  0.25500000920E-02 0. -1.
       -2    1    3    3    0  502 -0.17162489846E+04 -0.44069768443E+02  0.22910271964E+03  0.17320337115E+04  0.25500000920E-02 0.  1.
</event>
<event>
 5   0  0.1370997E-07  0.3616046E+04  0.7818609E-02  0.8086826E-01
        1   -1    0    0  501    0  0.00000000000E+00  0.00000000000E+00  0.33707615345E+04  0.33707615345E+04  0.50400001928E-02 0. -1.
       -1   -1    0    0    0  501  0.00000000000E+00  0.00000000000E+00 -0.96979469568E+03  0.96979469570E+03  0.50400001928E-02 0.  1.
    10030    2    1    2    0    0  0.00000000000E+00  0.00000000000E+00  0.24009668388E+04  0.43405562302E+04  0.36160457169E+04 0.  0.
        3    1    3    3  502    0  0.29712757707E+03 -0.14885743305E+04  0.23795327942E+04  0.28224660606E+04  0.10100000352E+00 0. -1.
       -3    1    3    3    0  502 -0.29712757707E+03  0.14885743305E+04  0.21434044590E+02  0.15180901696E+04  0.10100000352E+00 0.  1.
</event>
<event>
 5   0  0.4115358E-07  0.3591945E+04  0.7818609E-02  0.8092339E-01
       -2   -1    0    0    0  501  0.00000000000E+00  0.00000000000E+00  0.27533220659E+04  0.27533220660E+04  0.25500000920E-02 0.  1.
        2   -1    0    0  501    0  0.00000000000E+00  0.00000000000E+00 -0.11715001107E+04  0.11715001107E+04  0.25500000920E-02 0. -1.
    10030    2    1    2    0    0  0.00000000000E+00  0.00000000000E+00  0.15818219553E+04  0.39248221766E+04  0.35919449355E+04 0.  0.
        3    1    3    3  502    0  0.13970601793E+04  0.11066432535E+04  0.54883844690E+03  0.18648485424E+04  0.10100000352E+00 0. -1.
       -3    1    3    3    0  502 -0.13970601793E+04 -0.11066432535E+04  0.10329835084E+04  0.20599736342E+04  0.10100000352E+00 0.  1.
</event>
<event>
 5   0  0.1361743E-07  0.3484300E+04  0.7818609E-02  0.8117521E-01
        1   -1    0    0  501    0  0.00000000000E+00  0.00000000000E+00  0.18839244066E+04  0.18839244066E+04  0.50400001928E-02 0. -1.
       -1   -1    0    0    0  501  0.00000000000E+00  0.00000000000E+00 -0.16110449685E+04  0.16110449685E+04  0.50400001928E-02 0.  1.
    10030    2    1    2    0    0  0.00000000000E+00  0.00000000000E+00  0.27287943806E+03  0.34949693751E+04  0.34843001801E+04 0.  0.
        5    1    3    3  502    0  0.41501025515E+03 -0.10044206649E+04  0.15022149003E+04  0.18541213770E+04  0.46999998093E+01 0. -1.
       -5    1    3    3    0  502 -0.41501025515E+03  0.10044206649E+04 -0.12293354623E+04  0.16408479981E+04  0.46999998093E+01 0.  1.
</event>
<event>
 5   0  0.1298250E-07  0.3600971E+04  0.7818609E-02  0.8090269E-01
        1   -1    0    0  501    0  0.00000000000E+00  0.00000000000E+00  0.23179113850E+04  0.23179113850E+04  0.50400001928E-02 0. -1.
       -1   -1    0    0    0  501  0.00000000000E+00  0.00000000000E+00 -0.13985645773E+04  0.13985645773E+04  0.50400001928E-02 0.  1.
    10030    2    1    2    0    0  0.00000000000E+00  0.00000000000E+00  0.91934680777E+03  0.37164759623E+04  0.36009714003E+04 0.  0.
        2    1    3    3  502    0 -0.68957042887E+03 -0.42349053072E+03  0.21196472185E+04  0.22688666635E+04  0.25500000920E-02 0. -1.
       -2    1    3    3    0  502  0.68957042887E+03  0.42349053072E+03 -0.12003004107E+04  0.14476092988E+04  0.25500000920E-02 0.  1.
</event>
<event>
 5   0  0.4115358E-07  0.3572839E+04  0.7818609E-02  0.8096742E-01
       -2   -1    0    0    0  501  0.00000000000E+00  0.00000000000E+00  0.14172334920E+04  0.14172334920E+04  0.25500000920E-02 0.  1.
        2   -1    0    0  501    0  0.00000000000E+00  0.00000000000E+00 -0.22517771502E+04  0.22517771502E+04  0.25500000920E-02 0. -1.
    10030    2    1    2    0    0  0.00000000000E+00  0.00000000000E+00 -0.83454365821E+03  0.36690106422E+04  0.35728386439E+04 0.  0.
        3    1    3    3  502    0 -0.35653575948E+03  0.78618770882E+03  0.11888236197E+04  0.14691870100E+04  0.10100000352E+00 0.  1.
       -3    1    3    3    0  502  0.35653575948E+03 -0.78618770882E+03 -0.20233672779E+04  0.21998236322E+04  0.10100000352E+00 0. -1.
</event>
<event>
 5   0  0.3880259E-07  0.3597891E+04  0.7818609E-02  0.8090975E-01
        2   -1    0    0  501    0  0.00000000000E+00  0.00000000000E+00  0.19318386300E+04  0.19318386300E+04  0.25500000920E-02 0.  1.
       -2   -1    0    0    0  501  0.00000000000E+00  0.00000000000E+00 -0.16751940336E+04  0.16751940336E+04  0.25500000920E-02 0. -1.
    10030    2    1    2    0    0  0.00000000000E+00  0.00000000000E+00  0.25664459640E+03  0.36070326635E+04  0.35978907970E+04 0.  0.
        5    1    3    3  502    0 -0.63936063515E+03 -0.10453637809E+04 -0.11920720188E+04  0.17095687305E+04  0.46999998093E+01 0. -1.
       -5    1    3    3    0  502  0.63936063515E+03  0.10453637809E+04  0.14487166152E+04  0.18974639331E+04  0.46999998093E+01 0.  1.
</event>
<event>
 5   0  0.3880259E-07  0.3599327E+04  0.7818609E-02  0.8090646E-01
       -2   -1    0    0    0  501  0.00000000000E+00  0.00000000000E+00  0.13869155578E+04  0.13869155578E+04  0.25500000920E-02 0. -1.
        2   -1    0    0  501    0  0.00000000000E+00  0.00000000000E+00 -0.23352460475E+04  0.23352460475E+04  0.25500000920E-02 0.  1.
    10030    2    1    2    0    0  0.00000000000E+00  0.00000000000E+00 -0.94833048966E+03  0.37221616053E+04  0.35993272008E+04 0.  0.
        5    1    3    3  502    0 -0.52279340157E+02  0.16671359851E+04 -0.11730174549E+04  0.20391340225E+04  0.46999998093E+01 0.  1.
       -5    1    3    3    0  502  0.52279340157E+02 -0.16671359851E+04  0.22468696521E+03  0.16830275828E+04  0.46999998093E+01 0. -1.
</event>
<event>
 5   0  0.3880259E-07  0.3574463E+04  0.7818609E-02  0.8096366E-01
        2   -1    0    0  501    0  0.00000000000E+00  0.00000000000E+00  0.18193116694E+04  0.18193116694E+04  0.25500000920E-02 0. -1.
       -2   -1    0    0    0  501  0.00000000000E+00  0.00000000000E+00 -0.17557171001E+04  0.17557171001E+04  0.25500000920E-02 0.  1.
    10030    2    1    2    0    0  0.00000000000E+00  0.00000000000E+00  0.63594569297E+02  0.35750287695E+04  0.35744630972E+04 0.  0.
        5    1    3    3  502    0  0.15342100832E+04 -0.44411563245E+03 -0.77028676156E+03  0.17732464745E+04  0.46999998093E+01 0.  1.
       -5    1    3    3    0  502 -0.15342100832E+04  0.44411563245E+03  0.83388133085E+03  0.18017822949E+04  0.46999998093E+01 0. -1.
</event>
<event>
 5   0  0.4120440E-07  0.3607668E+04  0.7818609E-02  0.8088737E-01
       -2   -1    0    0    0  501  0.00000000000E+00  0.00000000000E+00  0.10800033926E+04  0.10800033926E+04  0.25500000920E-02 0.  1.
        2   -1    0    0  501    0  0.00000000000E+00  0.00000000000E+00 -0.30127848790E+04  0.30127848790E+04  0.25500000920E-02 0. -1.
    10030    2    1    2    0    0  0.00000000000E+00  0.00000000000E+00 -0.19327814864E+04  0.40927882716E+04  0.36076684385E+04 0.  0.
        2    1    3    3  502    0  0.24733999962E+03 -0.15539512899E+04 -0.19669617268E+04  0.25189045479E+04  0.25500000920E-02 0. -1.
       -2    1    3    3    0  502 -0.24733999962E+03  0.15539512899E+04  0.34180240352E+02  0.15738837237E+04  0.25500000920E-02 0.  1.
</event>
<event>
 5   0  0.4200635E-07  0.3595935E+04  0.7818609E-02  0.8091424E-01
        2   -1    0    0  501    0  0.00000000000E+00  0.00000000000E+00  0.27922306971E+04  0.27922306971E+04  0.25500000920E-02 0. -1.
       -2   -1    0    0    0  501  0.00000000000E+00  0.00000000000E+00 -0.11577433904E+04  0.11577433904E+04  0.25500000920E-02 0.  1.
    10030    2    1    2    0    0  0.00000000000E+00  0.00000000000E+00  0.16344873067E+04  0.39499740875E+04  0.35959347236E+04 0.  0.
        4    1    3    3  502    0 -0.25891973723E+03  0.17021996701E+04  0.13860716495E+04  0.22103663447E+04  0.12699999809E+01 0.  1.
       -4    1    3    3    0  502  0.25891973723E+03 -0.17021996701E+04  0.24841565718E+03  0.17396077428E+04  0.12699999809E+01 0. -1.
</event>
<event>
 5   0  0.4115358E-07  0.3548516E+04  0.7818609E-02  0.8102388E-01
       -2   -1    0    0    0  501  0.00000000000E+00  0.00000000000E+00  0.18180753991E+04  0.18180753991E+04  0.25500000920E-02 0.  1.
        2   -1    0    0  501    0  0.00000000000E+00  0.00000000000E+00 -0.17314966902E+04  0.17314966902E+04  0.25500000920E-02 0. -1.
    10030    2    1    2    0    0  0.00000000000E+00  0.00000000000E+00  0.86578708883E+02  0.35495720893E+04  0.35485160482E+04 0.  0.
        3    1    3    3  502    0  0.15953744123E+04  0.50580741623E+02 -0.73167574177E+03  0.17558836317E+04  0.10100000352E+00 0.  1.
       -3    1    3    3    0  502 -0.15953744123E+04 -0.50580741623E+02  0.81825445065E+03  0.17936884576E+04  0.10100000352E+00 0. -1.
</event>
<event>
 5   0  0.3880259E-07  0.3604575E+04  0.7818609E-02  0.8089445E-01
        2   -1    0    0  501    0  0.00000000000E+00  0.00000000000E+00  0.19224558658E+04  0.19224558658E+04  0.25500000920E-02 0.  1.
       -2   -1    0    0    0  501  0.00000000000E+00  0.00000000000E+00 -0.16896301661E+04  0.16896301661E+04  0.25500000920E-02 0. -1.
    10030    2    1    2    0    0  0.00000000000E+00  0.00000000000E+00  0.23282569978E+03  0.36120860319E+04  0.36045745512E+04 0.  0.
        5    1    3    3  502    0 -0.67108373107E+03 -0.17433634662E+03  0.17834512235E+04  0.19134959870E+04  0.46999998093E+01 0.  1.
       -5    1    3    3    0  502  0.67108373107E+03  0.17433634662E+03 -0.15506255237E+04  0.16985900449E+04  0.46999998093E+01 0. -1.
</event>
<event>
 5   0  0.3993751E-07  0.3615424E+04  0.7818609E-02  0.8086968E-01
        2   -1    0    0  501    0  0.00000000000E+00  0.00000000000E+00  0.13070122873E+04  0.13070122873E+04  0.25500000920E-02 0.  1.
       -2   -1    0    0    0  501  0.00000000000E+00  0.00000000000E+00 -0.25002236121E+04  0.25002236121E+04  0.25500000920E-02 0. -1.
    10030    2    1    2    0    0  0.00000000000E+00  0.00000000000E+00 -0.11932113248E+04  0.38072358994E+04  0.36154241699E+04 0.  0.
        1    1    3    3  502    0  0.15782751871E+04 -0.57408724387E+01  0.33153886679E+03  0.16127317024E+04  0.50400001928E-02 0.  1.
       -1    1    3    3    0  502 -0.15782751871E+04  0.57408724387E+01 -0.15247501916E+04  0.21945041970E+04  0.50400001928E-02 0. -1.
</event>
<event>
 5   0  0.3993751E-07  0.3601741E+04  0.7818609E-02  0.8090093E-01
       -2   -1    0    0    0  501  0.00000000000E+00  0.00000000000E+00  0.15098953083E+04  0.15098953083E+04  0.25500000920E-02 0. -1.
        2   -1    0    0  501    0  0.00000000000E+00  0.00000000000E+00 -0.21479197729E+04  0.21479197729E+04  0.25500000920E-02 0.  1.
    10030    2    1    2    0    0  0.00000000000E+00  0.00000000000E+00 -0.63802446464E+03  0.36578150812E+04  0.36017406835E+04 0.  0.
        1    1    3    3  502    0  0.13591044426E+04  0.17685905064E+03 -0.15053990318E+04  0.20358463240E+04  0.50400001928E-02 0.  1.
       -1    1    3    3    0  502 -0.13591044426E+04 -0.17685905064E+03  0.86737456720E+03  0.16219687573E+04  0.50400001928E-02 0. -1.
</event>
<event>
 5   0  0.1298250E-07  0.3671591E+04  0.7818609E-02  0.8074287E-01
        1   -1    0    0  501    0  0.00000000000E+00  0.00000000000E+00  0.27180511895E+04  0.27180511895E+04  0.50400001928E-02 0. -1.
       -1   -1    0    0    0  501  0.00000000000E+00  0.00000000000E+00 -0.12399124936E+04  0.12399124936E+04  0.50400001928E-02 0.  1.
    10030    2    1    2    0    0  0.00000000000E+00  0.00000000000E+00  0.14781386959E+04  0.39579636831E+04  0.36715912779E+04 0.  0.
        2    1    3    3  502    0  0.45216610492E+03 -0.14468928384E+04 -0.37716111142E+03  0.15621150970E+04  0.25500000920E-02 0.  1.
       -2    1    3    3    0  502 -0.45216610492E+03  0.14468928384E+04  0.18552998073E+04  0.23958485861E+04  0.25500000920E-02 0. -1.
</event>
<event>
 5   0  0.4115358E-07  0.3560274E+04  0.7818609E-02  0.8099653E-01
        2   -1    0    0  501    0  0.00000000000E+00  0.00000000000E+00  0.28471873066E+04  0.28471873066E+04  0.25500000920E-02 0. -1.
       -2   -1    0    0    0  501  0.00000000000E+00  0.00000000000E+00 -0.11129886009E+04  0.11129886009E+04  0.25500000920E-02 0.  1.
    10030    2    1    2    0    0  0.00000000000E+00  0.00000000000E+00  0.17341987058E+04  0.39601759075E+04  0.35602735945E+04 0.  0.
        3    1    3    3  502    0  0.17675163157E+04  0.15211066348E+03  0.10307108562E+04  0.20517349876E+04  0.10100000352E+00 0. -1.
       -3    1    3    3    0  502 -0.17675163157E+04 -0.15211066348E+03  0.70348784959E+03  0.19084409199E+04  0.10100000352E+00 0.  1.
</event>
<event>
 5   0  0.1348226E-07  0.3642528E+04  0.7818609E-02  0.8080819E-01
       -1   -1    0    0    0  501  0.00000000000E+00  0.00000000000E+00  0.28788543284E+04  0.28788543284E+04  0.50400001928E-02 0.  1.
        1   -1    0    0  501    0  0.00000000000E+00  0.00000000000E+00 -0.11521950997E+04  0.11521950997E+04  0.50400001928E-02 0. -1.
    10030    2    1    2    0    0  0.00000000000E+00  0.00000000000E+00  0.17266592287E+04  0.40310494281E+04  0.36425276114E+04 0.  0.
        4    1    3    3  502    0 -0.11960628303E+04  0.23529044826E+03  0.23608337243E+04  0.26569654450E+04  0.12699999809E+01 0.  1.
       -4    1    3    3    0  502  0.11960628303E+04 -0.23529044826E+03 -0.63417449556E+03  0.13740839832E+04  0.12699999809E+01 0. -1.
</event>
<event>
 5   0  0.1298250E-07  0.3598791E+04  0.7818609E-02  0.8090769E-01
       -1   -1    0    0    0  501  0.00000000000E+00  0.00000000000E+00  0.21285723623E+04  0.21285723623E+04  0.50400001928E-02 0. -1.
        1   -1    0    0  501    0  0.00000000000E+00  0.00000000000E+00 -0.15211251189E+04  0.15211251189E+04  0.50400001928E-02 0.  1.
    10030    2    1    2    0    0  0.00000000000E+00  0.00000000000E+00  0.60744724345E+03  0.36496974812E+04  0.35987914014E+04 0.  0.
        1    1    3    3  502    0  0.20691182104E+03 -0.16982019735E+04  0.86939716091E+03  0.19189981417E+04  0.50400001928E-02 0.  1.
       -1    1    3    3    0  502 -0.20691182104E+03  0.16982019735E+04 -0.26194991746E+03  0.17306993395E+04  0.50400001928E-02 0. -1.
</event>
<event>
 5   0  0.1361743E-07  0.3604753E+04  0.7818609E-02  0.8089404E-01
        1   -1    0    0  501    0  0.00000000000E+00  0.00000000000E+00  0.18202302920E+04  0.18202302920E+04  0.50400001928E-02 0.  1.
       -1   -1    0    0    0  501  0.00000000000E+00  0.00000000000E+00 -0.17846979514E+04  0.17846979514E+04  0.50400001928E-02 0. -1.
    10030    2    1    2    0    0  0.00000000000E+00  0.00000000000E+00  0.35532340575E+02  0.36049282434E+04  0.36047531251E+04 0.  0.
        5    1    3    3  502    0 -0.17929848349E+03 -0.17930588270E+04 -0.18722311764E+02  0.18021044693E+04  0.46999998093E+01 0.  1.
       -5    1    3    3    0  502  0.17929848349E+03  0.17930588270E+04  0.54254652339E+02  0.18028237741E+04  0.46999998093E+01 0. -1.
</event>
<event>
 5   0  0.4200635E-07  0.3607593E+04  0.7818609E-02  0.8088755E-01
       -2   -1    0    0    0  501  0.00000000000E+00  0.00000000000E+00  0.13852532629E+04  0.13852532629E+04  0.25500000920E-02 0.  1.
        2   -1    0    0  501    0  0.00000000000E+00  0.00000000000E+00 -0.23487998297E+04  0.23487998297E+04  0.25500000920E-02 0. -1.
    10030    2    1    2    0    0  0.00000000000E+00  0.00000000000E+00 -0.96354656686E+03  0.37340530926E+04  0.36075934516E+04 0.  0.
        4    1    3    3  502    0 -0.39212255002E+03  0.13318997709E+04  0.71009634307E+03  0.15594728350E+04  0.12699999809E+01 0.  1.
       -4    1    3    3    0  502  0.39212255002E+03 -0.13318997709E+04 -0.16736429099E+04  0.21745802576E+04  0.12699999809E+01 0. -1.
</event>
<event>
 5   0  0.1298250E-07  0.3483075E+04  0.7818609E-02  0.8117813E-01
        1   -1    0    0  501    0  0.00000000000E+00  0.00000000000E+00  0.20929654263E+04  0.20929654263E+04  0.50400001928E-02 0.  1.
       -1   -1    0    0    0  501  0.00000000000E+00  0.00000000000E+00 -0.14491174583E+04  0.14491174584E+04  0.50400001928E-02 0. -1.
    10030    2    1    2    0    0  0.00000000000E+00  0.00000000000E+00  0.64384796799E+03  0.35420828847E+04  0.34830749283E+04 0.  0.
        2    1    3    3  502    0  0.11348835571E+04 -0.11991303551E+04 -0.24161059096E+03  0.16686071960E+04  0.25500000920E-02 0.  1.
       -2    1    3    3    0  502 -0.11348835571E+04  0.11991303551E+04  0.88545855895E+03  0.18734756887E+04  0.25500000920E-02 0. -1.
</event>
<event>
 5   0  0.4120440E-07  0.3592250E+04  0.7818609E-02  0.8092269E-01
       -2   -1    0    0    0  501  0.00000000000E+00  0.00000000000E+00  0.13981539030E+04  0.13981539030E+04  0.25500000920E-02 0.  1.
        2   -1    0    0  501    0  0.00000000000E+00  0.00000000000E+00 -0.23073748453E+04  0.23073748453E+04  0.25500000920E-02 0. -1.
    10030    2    1    2    0    0  0.00000000000E+00  0.00000000000E+00 -0.90922094227E+03  0.37055287483E+04  0.35922500724E+04 0.  0.
        2    1    3    3  502    0 -0.31046367205E+03  0.44427340290E+03 -0.22210050415E+04  0.22861823948E+04  0.25500000920E-02 0. -1.
       -2    1    3    3    0  502  0.31046367205E+03 -0.44427340290E+03  0.13117840992E+04  0.14193463535E+04  0.25500000920E-02 0.  1.
</event>
<event>
 5   0  0.3993751E-07  0.3607225E+04  0.7818609E-02  0.8088839E-01
       -2   -1    0    0    0  501  0.00000000000E+00  0.00000000000E+00  0.16484220327E+04  0.16484220327E+04  0.25500000920E-02 0.  1.
        2   -1    0    0  501    0  0.00000000000E+00  0.00000000000E+00 -0.19734133317E+04  0.19734133317E+04  0.25500000920E-02 0. -1.
    10030    2    1    2    0    0  0.00000000000E+00  0.00000000000E+00 -0.32499129904E+03  0.36218353644E+04  0.36072249808E+04 0.  0.
        1    1    3    3  502    0  0.75017707161E+03  0.50723383090E+03 -0.17286101635E+04  0.19514468723E+04  0.50400001928E-02 0. -1.
       -1    1    3    3    0  502 -0.75017707161E+03 -0.50723383090E+03  0.14036188644E+04  0.16703884921E+04  0.50400001928E-02 0.  1.
</event>
<event>
 5   0  0.3880259E-07  0.3515672E+04  0.7818609E-02  0.8110086E-01
        2   -1    0    0  501    0  0.00000000000E+00  0.00000000000E+00  0.22114914128E+04  0.22114914128E+04  0.25500000920E-02 0. -1.
       -2   -1    0    0    0  501  0.00000000000E+00  0.00000000000E+00 -0.13972416587E+04  0.13972416587E+04  0.25500000920E-02 0.  1.
    10030    2    1    2    0    0  0.00000000000E+00  0.00000000000E+00  0.81424975412E+03  0.36087330716E+04  0.35156722998E+04 0.  0.
        5    1    3    3  502    0 -0.11799017275E+04  0.44403746972E+03 -0.85030265309E+03  0.15206492209E+04  0.46999998093E+01 0.  1.
       -5    1    3    3    0  502  0.11799017275E+04 -0.44403746972E+03  0.16645524072E+04  0.20880838507E+04  0.46999998093E+01 0. -1.
</event>
<event>
 5   0  0.1298250E-07  0.3595052E+04  0.7818609E-02  0.8091626E-01
       -1   -1    0    0    0  501  0.00000000000E+00  0.00000000000E+00  0.11273931866E+04  0.11273931866E+04  0.50400001928E-02 0. -1.
        1   -1    0    0  501    0  0.00000000000E+00  0.00000000000E+00 -0.28659923647E+04  0.28659923647E+04  0.50400001928E-02 0.  1.
    10030    2    1    2    0    0  0.00000000000E+00  0.00000000000E+00 -0.17385991781E+04  0.39933855513E+04  0.35950523027E+04 0.  0.
        2    1    3    3  502    0 -0.11488690734E+04 -0.30798813461E+03  0.62774595292E+03  0.13449244664E+04  0.25500000920E-02 0. -1.
       -2    1    3    3    0  502  0.11488690734E+04  0.30798813461E+03 -0.23663451311E+04  0.26484610849E+04  0.25500000920E-02 0.  1.
</event>
<event>
 5   0  0.1348226E-07  0.3625641E+04  0.7818609E-02  0.8084644E-01
       -1   -1    0    0    0  501  0.00000000000E+00  0.00000000000E+00  0.29862174862E+04  0.29862174862E+04  0.50400001928E-02 0.  1.
        1   -1    0    0  501    0  0.00000000000E+00  0.00000000000E+00 -0.11004950217E+04  0.11004950217E+04  0.50400001928E-02 0. -1.
    10030    2    1    2    0    0  0.00000000000E+00  0.00000000000E+00  0.18857224645E+04  0.40867125079E+04  0.36256406205E+04 0.  0.
        4    1    3    3  502    0 -0.11139685180E+04 -0.71196133200E+03 -0.45523876233E+03  0.13982341510E+04  0.12699999809E+01 0. -1.
       -4    1    3    3    0  502  0.11139685180E+04  0.71196133200E+03  0.23409612268E+04  0.26884783569E+04  0.12699999809E+01 0.  1.
</event>
<event>
 5   0  0.4200635E-07  0.3599191E+04  0.7818609E-02  0.8090677E-01
       -2   -1    0    0    0  501  0.00000000000E+00  0.00000000000E+00  0.16102428705E+04  0.16102428705E+04  0.25500000920E-02 0. -1.
        2   -1    0    0  501    0  0.00000000000E+00  0.00000000000E+00 -0.20112150658E+04  0.20112150658E+04  0.25500000920E-02 0.  1.
    10030    2    1    2    0    0  0.00000000000E+00  0.00000000000E+00 -0.40097219531E+03  0.36214579363E+04  0.35991914207E+04 0.  0.
        4    1    3    3  502    0  0.16825460640E+04  0.53288174814E+03 -0.55425603559E+03  0.18498988028E+04  0.12699999809E+01 0. -1.
       -4    1    3    3    0  502 -0.16825460640E+04 -0.53288174814E+03  0.15328384028E+03  0.17715591335E+04  0.12699999809E+01 0.  1.
</event>
<event>
 5   0  0.4115358E-07  0.3616569E+04  0.7818609E-02  0.8086707E-01
        2   -1    0    0  501    0  0.00000000000E+00  0.00000000000E+00  0.21014479453E+04  0.21014479453E+04  0.25500000920E-02 0.  1.
       -2   -1    0    0    0  501  0.00000000000E+00  0.00000000000E+00 -0.15560193375E+04  0.15560193375E+04  0.25500000920E-02 0. -1.
    10030    2    1    2    0    0  0.00000000000E+00  0.00000000000E+00  0.54542860782E+03  0.36574672828E+04  0.36165694461E+04 0.  0.
        3    1    3    3  502    0  0.10481224459E+04  0.69103135024E+03  0.15888958975E+04  0.20250123881E+04  0.10100000352E+00 0.  1.
       -3    1    3    3    0  502 -0.10481224459E+04 -0.69103135024E+03 -0.10434672896E+04  0.16324548948E+04  0.10100000352E+00 0. -1.
</event>
<event>
 5   0  0.1298250E-07  0.3614813E+04  0.7818609E-02  0.8087107E-01
       -1   -1    0    0    0  501  0.00000000000E+00  0.00000000000E+00  0.23008060735E+04  0.23008060735E+04  0.50400001928E-02 0.  1.
        1   -1    0    0  501    0  0.00000000000E+00  0.00000000000E+00 -0.14198144735E+04  0.14198144735E+04  0.50400001928E-02 0. -1.
    10030    2    1    2    0    0  0.00000000000E+00  0.00000000000E+00  0.88099160001E+03  0.37206205471E+04  0.36148127277E+04 0.  0.
        1    1    3    3  502    0 -0.78686238329E+03 -0.11465196332E+04  0.16288724609E+04  0.21417014669E+04  0.50400001928E-02 0.  1.
       -1    1    3    3    0  502  0.78686238329E+03  0.11465196332E+04 -0.74788086088E+03  0.15789190802E+04  0.50400001928E-02 0. -1.
</event>
<event>
 5   0  0.1370997E-07  0.3581600E+04  0.7818609E-02  0.8094719E-01
        1   -1    0    0  501    0  0.00000000000E+00  0.00000000000E+00  0.16973516099E+04  0.16973516099E+04  0.50400001928E-02 0. -1.
       -1   -1    0    0    0  501  0.00000000000E+00  0.00000000000E+00 -0.18893934335E+04  0.18893934335E+04  0.50400001928E-02 0.  1.
    10030    2    1    2    0    0  0.00000000000E+00  0.00000000000E+00 -0.19204182362E+03  0.35867450434E+04  0.35816001933E+04 0.  0.
        3    1    3    3  502    0 -0.57239951960E+03  0.13897434792E+04  0.87899813601E+03  0.17411679647E+04  0.10100000352E+00 0.  1.
       -3    1    3    3    0  502  0.57239951960E+03 -0.13897434792E+04 -0.10710399596E+04  0.18455770787E+04  0.10100000352E+00 0. -1.
</event>
<event>
 5   0  0.1298250E-07  0.3590326E+04  0.7818609E-02  0.8092711E-01
       -1   -1    0    0    0  501  0.00000000000E+00  0.00000000000E+00  0.17731829966E+04  0.17731829966E+04  0.50400001928E-02 0.  1.
        1   -1    0    0  501    0  0.00000000000E+00  0.00000000000E+00 -0.18174155510E+04  0.18174155510E+04  0.50400001928E-02 0. -1.
    10030    2    1    2    0    0  0.00000000000E+00  0.00000000000E+00 -0.44232554365E+02  0.35905985477E+04  0.35903260871E+04 0.  0.
        2    1    3    3  502    0  0.75551826459E+03  0.10434780056E+04  0.12281610453E+04  0.17798971176E+04  0.25500000920E-02 0.  1.
       -2    1    3    3    0  502 -0.75551826459E+03 -0.10434780056E+04 -0.12723935997E+04  0.18107014300E+04  0.25500000920E-02 0. -1.
</event>
<event>
 5   0  0.1298250E-07  0.3482536E+04  0.7818609E-02  0.8117941E-01
       -1   -1    0    0    0  501  0.00000000000E+00  0.00000000000E+00  0.15797168879E+04  0.15797168879E+04  0.50400001928E-02 0.  1.
        1   -1    0    0  501    0  0.00000000000E+00  0.00000000000E+00 -0.19193402654E+04  0.19193402655E+04  0.50400001928E-02 0. -1.
    10030    2    1    2    0    0  0.00000000000E+00  0.00000000000E+00 -0.33962337750E+03  0.34990571534E+04  0.34825359904E+04 0.  0.
        2    1    3    3  502    0  0.15987262287E+04  0.35771843940E+03  0.42300957712E+03  0.16919885161E+04  0.25500000920E-02 0.  1.
       -2    1    3    3    0  502 -0.15987262287E+04 -0.35771843940E+03 -0.76263295462E+03  0.18070686373E+04  0.25500000920E-02 0. -1.
</event>
<event>
 5   0  0.3880259E-07  0.3315805E+04  0.7818609E-02  0.8158885E-01
       -2   -1    0    0    0  501  0.00000000000E+00  0.00000000000E+00  0.11494989037E+04  0.11494989037E+04  0.25500000920E-02 0.  1.
        2   -1    0    0  501    0  0.00000000000E+00  0.00000000000E+00 -0.23911648076E+04  0.23911648076E+04  0.25500000920E-02 0. -1.
    10030    2    1    2    0    0  0.00000000000E+00  0.00000000000E+00 -0.12416659039E+04  0.35406637113E+04  0.33158053772E+04 0.  0.
        5    1    3    3  502    0  0.58604066812E+03 -0.14334231968E+04 -0.12529874709E+04  0.19920204362E+04  0.46999998093E+01 0.  1.
       -5    1    3    3    0  502 -0.58604066812E+03  0.14334231968E+04  0.11321566980E+02  0.15486432751E+04  0.46999998093E+01 0. -1.
</event>
<event>
 5   0  0.1361743E-07  0.3592942E+04  0.7818609E-02  0.8092110E-01
       -1   -1    0    0    0  501  0.00000000000E+00  0.00000000000E+00  0.15312238335E+04  0.15312238335E+04  0.50400001928E-02 0.  1.
        1   -1    0    0  501    0  0.00000000000E+00  0.00000000000E+00 -0.21076652658E+04  0.21076652658E+04  0.50400001928E-02 0. -1.
    10030    2    1    2    0    0  0.00000000000E+00  0.00000000000E+00 -0.57644143231E+03  0.36388890993E+04  0.35929415738E+04 0.  0.
        5    1    3    3  502    0  0.90068407309E+03 -0.91154980749E+03  0.98689957050E+03  0.16174509895E+04  0.46999998093E+01 0.  1.
       -5    1    3    3    0  502 -0.90068407309E+03  0.91154980749E+03 -0.15633410028E+04  0.20214381099E+04  0.46999998093E+01 0. -1.
</event>
<event>
 5   0  0.1370997E-07  0.3604503E+04  0.7818609E-02  0.8089461E-01
        1   -1    0    0  501    0  0.00000000000E+00  0.00000000000E+00  0.18989047694E+04  0.18989047694E+04  0.50400001928E-02 0.  1.
       -1   -1    0    0    0  501  0.00000000000E+00  0.00000000000E+00 -0.17105175075E+04  0.17105175075E+04  0.50400001928E-02 0. -1.
    10030    2    1    2    0    0  0.00000000000E+00  0.00000000000E+00  0.18838726193E+03  0.36094222770E+04  0.36045026582E+04 0.  0.
        3    1    3    3  502    0  0.86417100559E+03 -0.14287758358E+04  0.77329172796E+03  0.18401554343E+04  0.10100000352E+00 0.  1.
       -3    1    3    3    0  502 -0.86417100559E+03  0.14287758358E+04 -0.58490446603E+03  0.17692668426E+04  0.10100000352E+00 0. -1.
</event>
<event>
 5   0  0.1361743E-07  0.3555293E+04  0.7818609E-02  0.8100810E-01
       -1   -1    0    0    0  501  0.00000000000E+00  0.00000000000E+00  0.14930760041E+04  0.14930760041E+04  0.50400001928E-02 0. -1.
        1   -1    0    0  501    0  0.00000000000E+00  0.00000000000E+00 -0.21164546504E+04  0.21164546504E+04  0.50400001928E-02 0.  1.
    10030    2    1    2    0    0  0.00000000000E+00  0.00000000000E+00 -0.62337864622E+03  0.36095306545E+04  0.35552933225E+04 0.  0.
        5    1    3    3  502    0 -0.48179300543E+03  0.10984624447E+04 -0.16436723845E+04  0.20348034893E+04  0.46999998093E+01 0.  1.
       -5    1    3    3    0  502  0.48179300543E+03 -0.10984624447E+04  0.10202937383E+04  0.15747271652E+04  0.46999998093E+01 0. -1.
</event>
<event>
 5   0  0.1298250E-07  0.3587196E+04  0.7818609E-02  0.8093431E-01
       -1   -1    0    0    0  501  0.00000000000E+00  0.00000000000E+00  0.14016476675E+04  0.14016476675E+04  0.50400001928E-02 0.  1.
        1   -1    0    0  501    0  0.00000000000E+00  0.00000000000E+00 -0.22951517947E+04  0.22951517947E+04  0.50400001928E-02 0. -1.
    10030    2    1    2    0    0  0.00000000000E+00  0.00000000000E+00 -0.89350412720E+03  0.36967994621E+04  0.35871962084E+04 0.  0.
        1    1    3    3  502    0 -0.91884181184E+03 -0.68999218824E+03 -0.18660141533E+04  0.21914306549E+04  0.50400001928E-02 0. -1.
       -1    1    3    3    0  502  0.91884181184E+03  0.68999218824E+03  0.97251002605E+03  0.15053688072E+04  0.50400001928E-02 0.  1.
</event>
<event>
 5   0  0.4120440E-07  0.3528439E+04  0.7818609E-02  0.8107083E-01
        2   -1    0    0  501    0  0.00000000000E+00  0.00000000000E+00  0.22604744652E+04  0.22604744652E+04  0.25500000920E-02 0. -1.
       -2   -1    0    0    0  501  0.00000000000E+00  0.00000000000E+00 -0.13769099445E+04  0.13769099445E+04  0.25500000920E-02 0.  1.
    10030    2    1    2    0    0  0.00000000000E+00  0.00000000000E+00  0.88356452070E+03  0.36373844097E+04  0.35284386180E+04 0.  0.
        2    1    3    3  502    0 -0.59458275161E+03  0.85523485456E+03  0.19096557094E+04  0.21752563604E+04  0.25500000920E-02 0. -1.
       -2    1    3    3    0  502  0.59458275161E+03 -0.85523485456E+03 -0.10260911887E+04  0.14621280493E+04  0.25500000920E-02 0.  1.
</event>
<event>
 5   0  0.3993751E-07  0.3586514E+04  0.7818609E-02  0.8093588E-01
        2   -1    0    0  501    0  0.00000000000E+00  0.00000000000E+00  0.30148087154E+04  0.30148087154E+04  0.25500000920E-02 0.  1.
       -2   -1    0    0    0  501  0.00000000000E+00  0.00000000000E+00 -0.10666581127E+04  0.10666581127E+04  0.25500000920E-02 0. -1.
    10030    2    1    2    0    0  0.00000000000E+00  0.00000000000E+00  0.19481506027E+04  0.40814668282E+04  0.35865137248E+04 0.  0.
        1    1    3    3  502    0 -0.12716074335E+04  0.64831384741E+03 -0.26131376069E+03  0.14510620907E+04  0.50400001928E-02 0. -1.
       -1    1    3    3    0  502  0.12716074335E+04 -0.64831384741E+03  0.22094643634E+04  0.26304047374E+04  0.50400001928E-02 0.  1.
</event>
<event>
 5   0  0.1298250E-07  0.3563902E+04  0.7818609E-02  0.8098811E-01
       -3   -1    0    0    0  501  0.00000000000E+00  0.00000000000E+00  0.17325509659E+04  0.17325509689E+04  0.10100000352E+00 0. -1.
        3   -1    0    0  501    0  0.00000000000E+00  0.00000000000E+00 -0.18327599678E+04  0.18327599706E+04  0.10100000352E+00 0.  1.
    10030    2    1    2    0    0  0.00000000000E+00  0.00000000000E+00 -0.10020900187E+03  0.35653109394E+04  0.35639023907E+04 0.  0.
        1    1    3    3  502    0 -0.17288156101E+04 -0.91188324948E+02  0.37223688899E+03  0.17707848615E+04  0.50400001928E-02 0. -1.
       -1    1    3    3    0  502  0.17288156101E+04  0.91188324948E+02 -0.47244589086E+03  0.17945260779E+04  0.50400001928E-02 0.  1.
</event>
<event>
 5   0  0.1298250E-07  0.3580393E+04  0.7818609E-02  0.8094998E-01
        1   -1    0    0  501    0  0.00000000000E+00  0.00000000000E+00  0.18075049711E+04  0.18075049711E+04  0.50400001928E-02 0. -1.
       -1   -1    0    0    0  501  0.00000000000E+00  0.00000000000E+00 -0.17730536958E+04  0.17730536958E+04  0.50400001928E-02 0.  1.
    10030    2    1    2    0    0  0.00000000000E+00  0.00000000000E+00  0.34451275276E+02  0.35805586670E+04  0.35803929222E+04 0.  0.
        2    1    3    3  502    0  0.17403025513E+03 -0.11913914183E+04 -0.13076388186E+04  0.17775318060E+04  0.25500000920E-02 0.  1.
       -2    1    3    3    0  502 -0.17403025513E+03  0.11913914183E+04  0.13420900939E+04  0.18030268610E+04  0.25500000920E-02 0. -1.
</event>
<event>
 5   0  0.1370997E-07  0.3613019E+04  0.7818609E-02  0.8087516E-01
        1   -1    0    0  501    0  0.00000000000E+00  0.00000000000E+00  0.21918153109E+04  0.21918153109E+04  0.50400001928E-02 0.  1.
       -1   -1    0    0    0  501  0.00000000000E+00  0.00000000000E+00 -0.14889378595E+04  0.14889378596E+04  0.50400001928E-02 0. -1.
    10030    2    1    2    0    0  0.00000000000E+00  0.00000000000E+00  0.70287745138E+03  0.36807531705E+04  0.36130191240E+04 0.  0.
        3    1    3    3  502    0  0.58680430194E+02  0.88171371106E+03 -0.12537313807E+04  0.15338529415E+04  0.10100000352E+00 0. -1.
       -3    1    3    3    0  502 -0.58680430194E+02 -0.88171371106E+03  0.19566088321E+04  0.21469002290E+04  0.10100000352E+00 0.  1.
</event>
<event>
 5   0  0.4120440E-07  0.3537032E+04  0.7818609E-02  0.8105069E-01
        2   -1    0    0  501    0  0.00000000000E+00  0.00000000000E+00  0.24205268619E+04  0.24205268619E+04  0.25500000920E-02 0.  1.
       -2   -1    0    0    0  501  0.00000000000E+00  0.00000000000E+00 -0.12921358035E+04  0.12921358035E+04  0.25500000920E-02 0. -1.
    10030    2    1    2    0    0  0.00000000000E+00  0.00000000000E+00  0.11283910584E+04  0.37126626654E+04  0.35370323276E+04 0.  0.
        2    1    3    3  502    0 -0.96864930274E+03 -0.29662290627E+03 -0.95739938625E+03  0.13938723776E+04  0.25500000920E-02 0.  1.
       -2    1    3    3    0  502  0.96864930274E+03  0.29662290627E+03  0.20857904446E+04  0.23187902879E+04  0.25500000920E-02 0. -1.
</event>
<event>
 5   0  0.3993751E-07  0.3521030E+04  0.7818609E-02  0.8108824E-01
       -2   -1    0    0    0  501  0.00000000000E+00  0.00000000000E+00  0.19060351528E+04  0.19060351528E+04  0.25500000920E-02 0. -1.
        2   -1    0    0  501    0  0.00000000000E+00  0.00000000000E+00 -0.16261050557E+04  0.16261050557E+04  0.25500000920E-02 0.  1.
    10030    2    1    2    0    0  0.00000000000E+00  0.00000000000E+00  0.27993009712E+03  0.35321402085E+04  0.35210301892E+04 0.  0.
        1    1    3    3  502    0 -0.38831407011E+02  0.16130663127E+04 -0.56647470770E+03  0.17100831564E+04  0.50400001928E-02 0.  1.
       -1    1    3    3    0  502  0.38831407011E+02 -0.16130663127E+04  0.84640480482E+03  0.18220570521E+04  0.50400001928E-02 0. -1.
</event>
<event>
 5   0  0.1298250E-07  0.3845634E+04  0.7818609E-02  0.8036432E-01
        1   -1    0    0  501    0  0.00000000000E+00  0.00000000000E+00  0.18565464501E+04  0.18565464501E+04  0.50400001928E-02 0.  1.
       -1   -1    0    0    0  501  0.00000000000E+00  0.00000000000E+00 -0.19914534343E+04  0.19914534343E+04  0.50400001928E-02 0. -1.
    10030    2    1    2    0    0  0.00000000000E+00  0.00000000000E+00 -0.13490698417E+03  0.38479998844E+04  0.38456343061E+04 0.  0.
        1    1    3    3  502    0 -0.10224411947E+04  0.84479660005E+02 -0.16947081390E+04  0.19810498444E+04  0.50400001928E-02 0. -1.
       -1    1    3    3    0  502  0.10224411947E+04 -0.84479660005E+02  0.15598011548E+04  0.18669500401E+04  0.50400001928E-02 0.  1.
</event>
<event>
 5   0  0.4120440E-07  0.3330083E+04  0.7818609E-02  0.8155283E-01
        2   -1    0    0  501    0  0.00000000000E+00  0.00000000000E+00  0.18175063231E+04  0.18175063231E+04  0.25500000920E-02 0.  1.
       -2   -1    0    0    0  501  0.00000000000E+00  0.00000000000E+00 -0.15253662855E+04  0.15253662855E+04  0.25500000920E-02 0. -1.
    10030    2    1    2    0    0  0.00000000000E+00  0.00000000000E+00  0.29214003765E+03  0.33428726086E+04  0.33300828031E+04 0.  0.
        2    1    3    3  502    0 -0.15854217990E+03  0.28681299604E+03  0.17848120542E+04  0.18146491084E+04  0.25500000920E-02 0.  1.
       -2    1    3    3    0  502  0.15854217990E+03 -0.28681299604E+03 -0.14926720166E+04  0.15282235002E+04  0.25500000920E-02 0. -1.
</event>
<event>
 5   0  0.1348226E-07  0.3600982E+04  0.7818609E-02  0.8090267E-01
        1   -1    0    0  501    0  0.00000000000E+00  0.00000000000E+00  0.18103898698E+04  0.18103898699E+04  0.50400001928E-02 0. -1.
       -1   -1    0    0    0  501  0.00000000000E+00  0.00000000000E+00 -0.17906459650E+04  0.17906459650E+04  0.50400001928E-02 0.  1.
    10030    2    1    2    0    0  0.00000000000E+00  0.00000000000E+00  0.19743904883E+02  0.36010358348E+04  0.36009817081E+04 0.  0.
        4    1    3    3  502    0 -0.17430736240E+04 -0.26555670050E+03  0.37448637793E+03  0.18025170401E+04  0.12699999809E+01 0. -1.
       -4    1    3    3    0  502  0.17430736240E+04  0.26555670050E+03 -0.35474247304E+03  0.17985187947E+04  0.12699999809E+01 0.  1.
</event>
<event>
 5   0  0.1370997E-07  0.3596369E+04  0.7818609E-02  0.8091324E-01
       -1   -1    0    0    0  501  0.00000000000E+00  0.00000000000E+00  0.28285827626E+04  0.28285827626E+04  0.50400001928E-02 0. -1.
        1   -1    0    0  501    0  0.00000000000E+00  0.00000000000E+00 -0.11431404971E+04  0.11431404971E+04  0.50400001928E-02 0.  1.
    10030    2    1    2    0    0  0.00000000000E+00  0.00000000000E+00  0.16854422655E+04  0.39717232597E+04  0.35963690051E+04 0.  0.
        3    1    3    3  502    0 -0.11324900608E+04 -0.51094936945E+03  0.22783450181E+04  0.25950836263E+04  0.10100000352E+00 0.  1.
       -3    1    3    3    0  502  0.11324900608E+04  0.51094936945E+03 -0.59290275258E+03  0.13766396334E+04  0.10100000352E+00 0. -1.
</event>
<event>
 5   0  0.3880259E-07  0.3610224E+04  0.7818609E-02  0.8088154E-01
       -2   -1    0    0    0  501  0.00000000000E+00  0.00000000000E+00  0.13464972966E+04  0.13464972966E+04  0.25500000920E-02 0. -1.
        2   -1    0    0  501    0  0.00000000000E+00  0.00000000000E+00 -0.24199305698E+04  0.24199305698E+04  0.25500000920E-02 0.  1.
    10030    2    1    2    0    0  0.00000000000E+00  0.00000000000E+00 -0.10734332732E+04  0.37664278664E+04  0.36102243532E+04 0.  0.
        5    1    3    3  502    0  0.73878650696E+03 -0.41404435894E+03 -0.21997933879E+04  0.23571913951E+04  0.46999998093E+01 0.  1.
       -5    1    3    3    0  502 -0.73878650696E+03  0.41404435894E+03  0.11263601146E+04  0.14092364712E+04  0.46999998093E+01 0. -1.
</event>
<event>
 5   0  0.4120440E-07  0.3638089E+04  0.7818609E-02  0.8081822E-01
       -2   -1    0    0    0  501  0.00000000000E+00  0.00000000000E+00  0.18964008838E+04  0.18964008838E+04  0.25500000920E-02 0. -1.
        2   -1    0    0  501    0  0.00000000000E+00  0.00000000000E+00 -0.17448440162E+04  0.17448440162E+04  0.25500000920E-02 0.  1.
    10030    2    1    2    0    0  0.00000000000E+00  0.00000000000E+00  0.15155686764E+03  0.36412449000E+04  0.36380894626E+04 0.  0.
        2    1    3    3  502    0  0.15911141501E+03 -0.35241314703E+03 -0.17032367914E+04  0.17465758032E+04  0.25500000920E-02 0.  1.
       -2    1    3    3    0  502 -0.15911141501E+03  0.35241314703E+03  0.18547936591E+04  0.18946690968E+04  0.25500000920E-02 0. -1.
</event>
<event>
 5   0  0.1298250E-07  0.3585176E+04  0.7818609E-02  0.8093896E-01
       -3   -1    0    0    0  501  0.00000000000E+00  0.00000000000E+00  0.14334526253E+04  0.14334526289E+04  0.10100000352E+00 0. -1.
        3   -1    0    0  501    0  0.00000000000E+00  0.00000000000E+00 -0.22417010445E+04  0.22417010468E+04  0.10100000352E+00 0.  1.
    10030    2    1    2    0    0  0.00000000000E+00  0.00000000000E+00 -0.80824841922E+03  0.36751536757E+04  0.35851762903E+04 0.  0.
        4    1    3    3  502    0 -0.20557734539E+03 -0.16229523844E+04 -0.11554120743E+04  0.20028018278E+04  0.12699999809E+01 0.  1.
       -4    1    3    3    0  502  0.20557734539E+03  0.16229523844E+04  0.34716365506E+03  0.16723518479E+04  0.12699999809E+01 0. -1.
</event>
<event>
 5   0  0.1298250E-07  0.3566533E+04  0.7818609E-02  0.8098201E-01
       -1   -1    0    0    0  501  0.00000000000E+00  0.00000000000E+00  0.12759328255E+04  0.12759328255E+04  0.50400001928E-02 0.  1.
        1   -1    0    0  501    0  0.00000000000E+00  0.00000000000E+00 -0.24923246994E+04  0.24923246994E+04  0.50400001928E-02 0. -1.
    10030    2    1    2    0    0  0.00000000000E+00  0.00000000000E+00 -0.12163918739E+04  0.37682575249E+04  0.35665327117E+04 0.  0.
        2    1    3    3  502    0  0.51159066698E+03  0.15204878683E+04  0.21458626972E+03  0.16185350275E+04  0.25500000920E-02 0.  1.
       -2    1    3    3    0  502 -0.51159066698E+03 -0.15204878683E+04 -0.14309781436E+04  0.21497224974E+04  0.25500000920E-02 0. -1.
</event>
<event>
 5   0  0.1298250E-07  0.3633088E+04  0.7818609E-02  0.8082954E-01
       -1   -1    0    0    0  501  0.00000000000E+00  0.00000000000E+00  0.17378805885E+04  0.17378805885E+04  0.50400001928E-02 0. -1.
        1   -1    0    0  501    0  0.00000000000E+00  0.00000000000E+00 -0.18987681916E+04  0.18987681917E+04  0.50400001928E-02 0.  1.
    10030    2    1    2    0    0  0.00000000000E+00  0.00000000000E+00 -0.16088760315E+03  0.36366487802E+04  0.36330881533E+04 0.  0.
        1    1    3    3  502    0 -0.15555789771E+04  0.91743885399E+03 -0.27637111139E+03  0.18269923361E+04  0.50400001928E-02 0.  1.
       -1    1    3    3    0  502  0.15555789771E+04 -0.91743885399E+03  0.11548350824E+03  0.18096564441E+04  0.50400001928E-02 0. -1.
</event>
<event>
 5   0  0.4120440E-07  0.3884620E+04  0.7818609E-02  0.8028236E-01
       -2   -1    0    0    0  501  0.00000000000E+00  0.00000000000E+00  0.14141164294E+04  0.14141164294E+04  0.25500000920E-02 0. -1.
        2   -1    0    0  501    0  0.00000000000E+00  0.00000000000E+00 -0.26677913207E+04  0.26677913207E+04  0.25500000920E-02 0.  1.
    10030    2    1    2    0    0  0.00000000000E+00  0.00000000000E+00 -0.12536748914E+04  0.40819077501E+04  0.38846196914E+04 0.  0.
        2    1    3    3  502    0 -0.69733100458E+03  0.41272900287E+03  0.12280178836E+04  0.14712728103E+04  0.25500000920E-02 0. -1.
       -2    1    3    3    0  502  0.69733100458E+03 -0.41272900287E+03 -0.24816927750E+04  0.26106349398E+04  0.25500000920E-02 0.  1.
</event>
<event>
 5   0  0.1298250E-07  0.3606378E+04  0.7818609E-02  0.8089032E-01
        1   -1    0    0  501    0  0.00000000000E+00  0.00000000000E+00  0.14286520748E+04  0.14286520748E+04  0.50400001928E-02 0.  1.
       -1   -1    0    0    0  501  0.00000000000E+00  0.00000000000E+00 -0.22759153286E+04  0.22759153287E+04  0.50400001928E-02 0. -1.
    10030    2    1    2    0    0  0.00000000000E+00  0.00000000000E+00 -0.84726325383E+03  0.37045674035E+04  0.36063783254E+04 0.  0.
        1    1    3    3  502    0  0.11982485769E+03 -0.96460662725E+03  0.11364908300E+04  0.14954716141E+04  0.50400001928E-02 0.  1.
       -1    1    3    3    0  502 -0.11982485769E+03  0.96460662725E+03 -0.19837540838E+04  0.22090957894E+04  0.50400001928E-02 0. -1.
</event>
<event>
 5   0  0.3880259E-07  0.3588894E+04  0.7818609E-02  0.8093040E-01
        2   -1    0    0  501    0  0.00000000000E+00  0.00000000000E+00  0.28830516241E+04  0.28830516241E+04  0.25500000920E-02 0. -1.
       -2   -1    0    0    0  501  0.00000000000E+00  0.00000000000E+00 -0.11168862185E+04  0.11168862185E+04  0.25500000920E-02 0.  1.
    10030    2    1    2    0    0  0.00000000000E+00  0.00000000000E+00  0.17661654055E+04  0.39999378426E+04  0.35888943291E+04 0.  0.
        5    1    3    3  502    0  0.17411805911E+04  0.24891924666E+03  0.12792481326E+04  0.21748950588E+04  0.46999998093E+01 0. -1.
       -5    1    3    3    0  502 -0.17411805911E+04 -0.24891924666E+03  0.48691727292E+03  0.18250427838E+04  0.46999998093E+01 0.  1.
</event>
<event>
 5   0  0.1370997E-07  0.3518642E+04  0.7818609E-02  0.8109386E-01
        1   -1    0    0  501    0  0.00000000000E+00  0.00000000000E+00  0.18105179059E+04  0.18105179059E+04  0.50400001928E-02 0. -1.
       -1   -1    0    0    0  501  0.00000000000E+00  0.00000000000E+00 -0.17095720009E+04  0.17095720009E+04  0.50400001928E-02 0.  1.
    10030    2    1    2    0    0  0.00000000000E+00  0.00000000000E+00  0.10094590505E+03  0.35200899068E+04  0.35186421921E+04 0.  0.
        3    1    3    3  502    0  0.94116367750E+03  0.11131444871E+04  0.10359320458E+04  0.17883050441E+04  0.10100000352E+00 0. -1.
       -3    1    3    3    0  502 -0.94116367750E+03 -0.11131444871E+04 -0.93498614074E+03  0.17317848627E+04  0.10100000352E+00 0.  1.
</event>
<event>
 5   0  0.1361743E-07  0.3538871E+04  0.7818609E-02  0.8104639E-01
        1   -1    0    0  501    0  0.00000000000E+00  0.00000000000E+00  0.16651663468E+04  0.16651663468E+04  0.50400001928E-02 0.  1.
       -1   -1    0    0    0  501  0.00000000000E+00  0.00000000000E+00 -0.18802334366E+04  0.18802334366E+04  0.50400001928E-02 0. -1.
    10030    2    1    2    0    0  0.00000000000E+00  0.00000000000E+00 -0.21506708978E+03  0.35453997835E+04  0.35388706915E+04 0.  0.
        5    1    3    3  502    0 -0.17045907932E+04 -0.47438268477E+03 -0.92993019289E+02  0.17718178506E+04  0.46999998093E+01 0.  1.
       -5    1    3    3    0  502  0.17045907932E+04  0.47438268477E+03 -0.12207407049E+03  0.17735819329E+04  0.46999998093E+01 0. -1.
</event>
<event>
 5   0  0.4120440E-07  0.3591620E+04  0.7818609E-02  0.8092414E-01
        2   -1    0    0  501    0  0.00000000000E+00  0.00000000000E+00  0.27442107926E+04  0.27442107926E+04  0.25500000920E-02 0. -1.
       -2   -1    0    0    0  501  0.00000000000E+00  0.00000000000E+00 -0.11751769790E+04  0.11751769790E+04  0.25500000920E-02 0.  1.
    10030    2    1    2    0    0  0.00000000000E+00  0.00000000000E+00  0.15690338136E+04  0.39193877715E+04  0.35916198846E+04 0.  0.
        2    1    3    3  502    0  0.75711151241E+03 -0.13927342207E+04 -0.13629296439E+03  0.15910695220E+04  0.25500000920E-02 0.  1.
       -2    1    3    3    0  502 -0.75711151241E+03  0.13927342207E+04  0.17053267780E+04  0.23283182496E+04  0.25500000920E-02 0. -1.
</event>
<event>
 5   0  0.1298250E-07  0.3463753E+04  0.7818609E-02  0.8122434E-01
        1   -1    0    0  501    0  0.00000000000E+00  0.00000000000E+00  0.23985964998E+04  0.23985964998E+04  0.50400001928E-02 0. -1.
       -1   -1    0    0    0  501  0.00000000000E+00  0.00000000000E+00 -0.12504793808E+04  0.12504793808E+04  0.50400001928E-02 0.  1.
    10030    2    1    2    0    0  0.00000000000E+00  0.00000000000E+00  0.11481171189E+04  0.36490758806E+04  0.34637525696E+04 0.  0.
        1    1    3    3  502    0 -0.14037710799E+04 -0.25984059454E+03  0.16069784810E+04  0.21495279058E+04  0.50400001928E-02 0. -1.
       -1    1    3    3    0  502  0.14037710799E+04  0.25984059454E+03 -0.45886136208E+03  0.14995479748E+04  0.50400001928E-02 0.  1.
</event>
<event>
 5   0  0.4120440E-07  0.3614861E+04  0.7818609E-02  0.8087096E-01
        2   -1    0    0  501    0  0.00000000000E+00  0.00000000000E+00  0.25321859421E+04  0.25321859421E+04  0.25500000920E-02 0.  1.
       -2   -1    0    0    0  501  0.00000000000E+00  0.00000000000E+00 -0.12901126934E+04  0.12901126934E+04  0.25500000920E-02 0. -1.
    10030    2    1    2    0    0  0.00000000000E+00  0.00000000000E+00  0.12420732488E+04  0.38222986355E+04  0.36148611182E+04 0.  0.
        2    1    3    3  502    0 -0.75706247114E+03  0.16031293739E+04  0.99283605747E+03  0.20319672270E+04  0.25500000920E-02 0.  1.
       -2    1    3    3    0  502  0.75706247114E+03 -0.16031293739E+04  0.24923719128E+03  0.17903314085E+04  0.25500000920E-02 0. -1.
</event>
<event>
 5   0  0.1298250E-07  0.3278091E+04  0.7818609E-02  0.8168493E-01
        1   -1    0    0  501    0  0.00000000000E+00  0.00000000000E+00  0.22374634957E+04  0.22374634957E+04  0.50400001928E-02 0.  1.
       -1   -1    0    0    0  501  0.00000000000E+00  0.00000000000E+00 -0.12006765497E+04  0.12006765497E+04  0.50400001928E-02 0. -1.
    10030    2    1    2    0    0  0.00000000000E+00  0.00000000000E+00  0.10367869460E+04  0.34381400454E+04  0.32780908774E+04 0.  0.
        2    1    3    3  502    0  0.13985052712E+04  0.14599800233E+03 -0.36494886376E+03  0.14526940777E+04  0.25500000920E-02 0. -1.
       -2    1    3    3    0  502 -0.13985052712E+04 -0.14599800233E+03  0.14017358098E+04  0.19854459677E+04  0.25500000920E-02 0.  1.
</event>
<event>
 5   0  0.1298250E-07  0.3622090E+04  0.7818609E-02  0.8085450E-01
       -1   -1    0    0    0  501  0.00000000000E+00  0.00000000000E+00  0.23880477911E+04  0.23880477911E+04  0.50400001928E-02 0. -1.
        1   -1    0    0  501    0  0.00000000000E+00  0.00000000000E+00 -0.13734582627E+04  0.13734582627E+04  0.50400001928E-02 0.  1.
    10030    2    1    2    0    0  0.00000000000E+00  0.00000000000E+00  0.10145895284E+04  0.37615060539E+04  0.36220899881E+04 0.  0.
        2    1    3    3  502    0  0.36944360948E+03  0.10255900618E+04 -0.99459388890E+03  0.14756491993E+04  0.25500000920E-02 0.  1.
       -2    1    3    3    0  502 -0.36944360948E+03 -0.10255900618E+04  0.20091834173E+04  0.22858568546E+04  0.25500000920E-02 0. -1.
</event>
<event>
 5   0  0.1348226E-07  0.3600069E+04  0.7818609E-02  0.8090476E-01
        1   -1    0    0  501    0  0.00000000000E+00  0.00000000000E+00  0.26040660918E+04  0.26040660918E+04  0.50400001928E-02 0. -1.
       -1   -1    0    0    0  501  0.00000000000E+00  0.00000000000E+00 -0.12442557816E+04  0.12442557816E+04  0.50400001928E-02 0.  1.
    10030    2    1    2    0    0  0.00000000000E+00  0.00000000000E+00  0.13598103102E+04  0.38483218735E+04  0.36000690496E+04 0.  0.
        4    1    3    3  502    0 -0.14769724812E+04 -0.10178983298E+04  0.51935510388E+03  0.18674303352E+04  0.12699999809E+01 0.  1.
       -4    1    3    3    0  502  0.14769724812E+04  0.10178983298E+04  0.84045520633E+03  0.19808915383E+04  0.12699999809E+01 0. -1.
</event>
<event>
 5   0  0.1348226E-07  0.3389463E+04  0.7818609E-02  0.8140497E-01
        1   -1    0    0  501    0  0.00000000000E+00  0.00000000000E+00  0.12982539888E+04  0.12982539888E+04  0.50400001928E-02 0. -1.
       -1   -1    0    0    0  501  0.00000000000E+00  0.00000000000E+00 -0.22122908114E+04  0.22122908115E+04  0.50400001928E-02 0.  1.
    10030    2    1    2    0    0  0.00000000000E+00  0.00000000000E+00 -0.91403682264E+03  0.35105448003E+04  0.33894633029E+04 0.  0.
        4    1    3    3  502    0  0.66079612743E+03 -0.75341780066E+03 -0.18725238492E+04  0.21238260482E+04  0.12699999809E+01 0.  1.
       -4    1    3    3    0  502 -0.66079612743E+03  0.75341780066E+03  0.95848702654E+03  0.13867187521E+04  0.12699999809E+01 0. -1.
</event>
<event>
 5   0  0.1361743E-07  0.3620056E+04  0.7818609E-02  0.8085913E-01
       -1   -1    0    0    0  501  0.00000000000E+00  0.00000000000E+00  0.14390794737E+04  0.14390794737E+04  0.50400001928E-02 0.  1.
        1   -1    0    0  501    0  0.00000000000E+00  0.00000000000E+00 -0.22765956006E+04  0.22765956006E+04  0.50400001928E-02 0. -1.
    10030    2    1    2    0    0  0.00000000000E+00  0.00000000000E+00 -0.83751612685E+03  0.37156750743E+04  0.36200563525E+04 0.  0.
        5    1    3    3  502    0  0.54492605212E+03 -0.12315056204E+04  0.82257850494E+03  0.15780392841E+04  0.46999998093E+01 0.  1.
       -5    1    3    3    0  502 -0.54492605212E+03  0.12315056204E+04 -0.16600946318E+04  0.21376357903E+04  0.46999998093E+01 0. -1.
</event>
<event>
 5   0  0.1370997E-07  0.3665545E+04  0.7818609E-02  0.8075641E-01
       -1   -1    0    0    0  501  0.00000000000E+00  0.00000000000E+00  0.16499834899E+04  0.16499834899E+04  0.50400001928E-02 0. -1.
        1   -1    0    0  501    0  0.00000000000E+00  0.00000000000E+00 -0.20358109239E+04  0.20358109239E+04  0.50400001928E-02 0.  1.
    10030    2    1    2    0    0  0.00000000000E+00  0.00000000000E+00 -0.38582743407E+03  0.36857944138E+04  0.36655446597E+04 0.  0.
        3    1    3    3  502    0 -0.17156991153E+04  0.50207068880E+02 -0.83904444809E+03  0.19105339045E+04  0.10100000352E+00 0.  1.
       -3    1    3    3    0  502  0.17156991153E+04 -0.50207068880E+02  0.45321701402E+03  0.17752605093E+04  0.10100000352E+00 0. -1.
</event>
<event>
 5   0  0.3880259E-07  0.3583641E+04  0.7818609E-02  0.8094249E-01
       -2   -1    0    0    0  501  0.00000000000E+00  0.00000000000E+00  0.10814398175E+04  0.10814398175E+04  0.25500000920E-02 0. -1.
        2   -1    0    0  501    0  0.00000000000E+00  0.00000000000E+00 -0.29688392232E+04  0.29688392232E+04  0.25500000920E-02 0.  1.
    10030    2    1    2    0    0  0.00000000000E+00  0.00000000000E+00 -0.18873994057E+04  0.40502790407E+04  0.35836411360E+04 0.  0.
        5    1    3    3  502    0 -0.75238284477E+03 -0.11722453632E+04  0.33016642283E+03  0.14315275385E+04  0.46999998093E+01 0. -1.
       -5    1    3    3    0  502  0.75238284477E+03  0.11722453632E+04 -0.22175658285E+04  0.26187515022E+04  0.46999998093E+01 0.  1.
</event>
<event>
 5   0  0.1361743E-07  0.3570086E+04  0.7818609E-02  0.8097378E-01
        1   -1    0    0  501    0  0.00000000000E+00  0.00000000000E+00  0.18547336234E+04  0.18547336234E+04  0.50400001928E-02 0.  1.
       -1   -1    0    0    0  501  0.00000000000E+00  0.00000000000E+00 -0.17179706343E+04  0.17179706343E+04  0.50400001928E-02 0. -1.
    10030    2    1    2    0    0  0.00000000000E+00  0.00000000000E+00  0.13676298908E+03  0.35727042578E+04  0.35700856570E+04 0.  0.
        5    1    3    3  502    0  0.12108814786E+04 -0.45537804204E+02 -0.12433232775E+04  0.17361401179E+04  0.46999998093E+01 0. -1.
       -5    1    3    3    0  502 -0.12108814786E+04  0.45537804204E+02  0.13800862665E+04  0.18365641399E+04  0.46999998093E+01 0.  1.
</event>
<event>
 5   0  0.3993751E-07  0.3571958E+04  0.7818609E-02  0.8096945E-01
       -2   -1    0    0    0  501  0.00000000000E+00  0.00000000000E+00  0.19863606509E+04  0.19863606509E+04  0.25500000920E-02 0. -1.
        2   -1    0    0  501    0  0.00000000000E+00  0.00000000000E+00 -0.16058116001E+04  0.16058116001E+04  0.25500000920E-02 0.  1.
    10030    2    1    2    0    0  0.00000000000E+00  0.00000000000E+00  0.38054905086E+03  0.35921722510E+04  0.35719579926E+04 0.  0.
        1    1    3    3  502    0  0.20949202690E+03  0.16299293178E+04  0.89363550284E+03  0.18705990758E+04  0.50400001928E-02 0.  1.
       -1    1    3    3    0  502 -0.20949202690E+03 -0.16299293178E+04 -0.51308645198E+03  0.17215731752E+04  0.50400001928E-02 0. -1.
</event>
<event>
 5   0  0.1370997E-07  0.3596552E+04  0.7818609E-02  0.8091282E-01
       -1   -1    0    0    0  501  0.00000000000E+00  0.00000000000E+00  0.12378944711E+04  0.12378944711E+04  0.50400001928E-02 0.  1.
        1   -1    0    0  501    0  0.00000000000E+00  0.00000000000E+00 -0.26123368218E+04  0.26123368218E+04  0.50400001928E-02 0. -1.
    10030    2    1    2    0    0  0.00000000000E+00  0.00000000000E+00 -0.13744423507E+04  0.38502312929E+04  0.35965524094E+04 0.  0.
        3    1    3    3  502    0 -0.47836144537E+02 -0.14196061420E+04 -0.18678348748E+04  0.23465670723E+04  0.10100000352E+00 0. -1.
       -3    1    3    3    0  502  0.47836144537E+02  0.14196061420E+04  0.49339252411E+03  0.15036642206E+04  0.10100000352E+00 0.  1.
</event>
<event>
 5   0  0.1348226E-07  0.3605726E+04  0.7818609E-02  0.8089181E-01
        1   -1    0    0  501    0  0.00000000000E+00  0.00000000000E+00  0.11911936302E+04  0.11911936302E+04  0.50400001928E-02 0. -1.
       -1   -1    0    0    0  501  0.00000000000E+00  0.00000000000E+00 -0.27286208360E+04  0.27286208360E+04  0.50400001928E-02 0.  1.
    10030    2    1    2    0    0  0.00000000000E+00  0.00000000000E+00 -0.15374272058E+04  0.39198144662E+04  0.36057264229E+04 0.  0.
        4    1    3    3  502    0  0.52331380555E+03 -0.13693482788E+04 -0.19095775580E+04  0.24073761880E+04  0.12699999809E+01 0.  1.
       -4    1    3    3    0  502 -0.52331380555E+03  0.13693482788E+04  0.37215035228E+03  0.15124382782E+04  0.12699999809E+01 0. -1.
</event>
<event>
 5   0  0.3993751E-07  0.3606939E+04  0.7818609E-02  0.8088904E-01
        2   -1    0    0  501    0  0.00000000000E+00  0.00000000000E+00  0.18604758220E+04  0.18604758220E+04  0.25500000920E-02 0.  1.
       -2   -1    0    0    0  501  0.00000000000E+00  0.00000000000E+00 -0.17482103544E+04  0.17482103544E+04  0.25500000920E-02 0. -1.
    10030    2    1    2    0    0  0.00000000000E+00  0.00000000000E+00  0.11226546768E+03  0.36086861764E+04  0.36069394761E+04 0.  0.
        1    1    3    3  502    0 -0.10873582328E+04  0.11869672900E+04  0.86970782305E+03  0.18296532381E+04  0.50400001928E-02 0.  1.
       -1    1    3    3    0  502  0.10873582328E+04 -0.11869672900E+04 -0.75744235537E+03  0.17790329384E+04  0.50400001928E-02 0. -1.
</event>
<event>
 5   0  0.4115358E-07  0.3593285E+04  0.7818609E-02  0.8092032E-01
        2   -1    0    0  501    0  0.00000000000E+00  0.00000000000E+00  0.19300249238E+04  0.19300249238E+04  0.25500000920E-02 0. -1.
       -2   -1    0    0    0  501  0.00000000000E+00  0.00000000000E+00 -0.16724778730E+04  0.16724778730E+04  0.25500000920E-02 0.  1.
    10030    2    1    2    0    0  0.00000000000E+00  0.00000000000E+00  0.25754705076E+03  0.36025027968E+04  0.35932848367E+04 0.  0.
        3    1    3    3  502    0  0.15072598147E+04  0.77317751528E+03 -0.47133393460E+03  0.17583490288E+04  0.10100000352E+00 0.  1.
       -3    1    3    3    0  502 -0.15072598147E+04 -0.77317751528E+03  0.72888098535E+03  0.18441537680E+04  0.10100000352E+00 0. -1.
</event>
<event>
 5   0  0.3993751E-07  0.3692890E+04  0.7818609E-02  0.8069539E-01
       -2   -1    0    0    0  501  0.00000000000E+00  0.00000000000E+00  0.13423424551E+04  0.13423424551E+04  0.25500000920E-02 0.  1.
        2   -1    0    0  501    0  0.00000000000E+00  0.00000000000E+00 -0.25398582288E+04  0.25398582288E+04  0.25500000920E-02 0. -1.
    10030    2    1    2    0    0  0.00000000000E+00  0.00000000000E+00 -0.11975157737E+04  0.38822006839E+04  0.36928902125E+04 0.  0.
        1    1    3    3  502    0  0.13846420240E+04 -0.90997967672E+03  0.25791736604E+03  0.16768476122E+04  0.50400001928E-02 0.  1.
       -1    1    3    3    0  502 -0.13846420240E+04  0.90997967672E+03 -0.14554331397E+04  0.22053530717E+04  0.50400001928E-02 0. -1.
</event>
<event>
 5   0  0.4115358E-07  0.3624654E+04  0.7818609E-02  0.8084868E-01
       -2   -1    0    0    0  501  0.00000000000E+00  0.00000000000E+00  0.13366616776E+04  0.13366616776E+04  0.25500000920E-02 0.  1.
        2   -1    0    0  501    0  0.00000000000E+00  0.00000000000E+00 -0.24572625368E+04  0.24572625368E+04  0.25500000920E-02 0. -1.
    10030    2    1    2    0    0  0.00000000000E+00  0.00000000000E+00 -0.11206008592E+04  0.37939242145E+04  0.36246537296E+04 0.  0.
        3    1    3    3  502    0 -0.17216958926E+04  0.46300919557E+03 -0.21965731285E+03  0.17963472958E+04  0.10100000352E+00 0. -1.
       -3    1    3    3    0  502  0.17216958926E+04 -0.46300919557E+03 -0.90094354637E+03  0.19975769186E+04  0.10100000352E+00 0.  1.
</event>
<event>
 5   0  0.4120440E-07  0.3597831E+04  0.7818609E-02  0.8090989E-01
       -2   -1    0    0    0  501  0.00000000000E+00  0.00000000000E+00  0.18216100559E+04  0.18216100559E+04  0.25500000920E-02 0. -1.
        2   -1    0    0  501    0  0.00000000000E+00  0.00000000000E+00 -0.17765038537E+04  0.17765038537E+04  0.25500000920E-02 0.  1.
    10030    2    1    2    0    0  0.00000000000E+00  0.00000000000E+00  0.45106202209E+02  0.35981139096E+04  0.35978311713E+04 0.  0.
        2    1    3    3  502    0 -0.23670607499E+03 -0.12825136795E+04 -0.12165867149E+04  0.17835230133E+04  0.25500000920E-02 0.  1.
       -2    1    3    3    0  502  0.23670607499E+03  0.12825136795E+04  0.12616929171E+04  0.18145908963E+04  0.25500000920E-02 0. -1.
</event>
<event>
 5   0  0.3993751E-07  0.3567463E+04  0.7818609E-02  0.8097986E-01
       -2   -1    0    0    0  501  0.00000000000E+00  0.00000000000E+00  0.16977074361E+04  0.16977074361E+04  0.25500000920E-02 0. -1.
        2   -1    0    0  501    0  0.00000000000E+00  0.00000000000E+00 -0.18741146461E+04  0.18741146461E+04  0.25500000920E-02 0.  1.
    10030    2    1    2    0    0  0.00000000000E+00  0.00000000000E+00 -0.17640721000E+03  0.35718220823E+04  0.35674631720E+04 0.  0.
        1    1    3    3  502    0  0.91029335642E+03  0.23594857070E+03  0.14293636005E+04  0.17109605563E+04  0.50400001928E-02 0. -1.
       -1    1    3    3    0  502 -0.91029335642E+03 -0.23594857070E+03 -0.16057708105E+04  0.18608615259E+04  0.50400001928E-02 0.  1.
</event>
<event>
 5   0  0.1361743E-07  0.3582037E+04  0.7818609E-02  0.8094619E-01
       -1   -1    0    0    0  501  0.00000000000E+00  0.00000000000E+00  0.24671522912E+04  0.24671522912E+04  0.50400001928E-02 0.  1.
        1   -1    0    0  501    0  0.00000000000E+00  0.00000000000E+00 -0.13001817883E+04  0.13001817883E+04  0.50400001928E-02 0. -1.
    10030    2    1    2    0    0  0.00000000000E+00  0.00000000000E+00  0.11669705030E+04  0.37673340795E+04  0.35820365593E+04 0.  0.
        5    1    3    3  502    0  0.96146040573E+03  0.38533470648E+03  0.21201754532E+04  0.23596726447E+04  0.46999998093E+01 0.  1.
       -5    1    3    3    0  502 -0.96146040573E+03 -0.38533470648E+03 -0.95320495028E+03  0.14076614348E+04  0.46999998093E+01 0. -1.
</event>
<event>
 5   0  0.1361743E-07  0.3594009E+04  0.7818609E-02  0.8091865E-01
       -1   -1    0    0    0  501  0.00000000000E+00  0.00000000000E+00  0.15058187199E+04  0.15058187199E+04  0.50400001928E-02 0.  1.
        1   -1    0    0  501    0  0.00000000000E+00  0.00000000000E+00 -0.21444978706E+04  0.21444978706E+04  0.50400001928E-02 0. -1.
    10030    2    1    2    0    0  0.00000000000E+00  0.00000000000E+00 -0.63867915074E+03  0.36503165905E+04  0.35940089250E+04 0.  0.
        5    1    3    3  502    0 -0.66943881123E+03 -0.12664709693E+04 -0.14212826280E+04  0.20179602168E+04  0.46999998093E+01 0. -1.
       -5    1    3    3    0  502  0.66943881123E+03  0.12664709693E+04  0.78260347724E+03  0.16323563737E+04  0.46999998093E+01 0.  1.
</event>
<event>
 5   0  0.4120440E-07  0.3564858E+04  0.7818609E-02  0.8098589E-01
        2   -1    0    0  501    0  0.00000000000E+00  0.00000000000E+00  0.23831727316E+04  0.23831727316E+04  0.25500000920E-02 0. -1.
       -2   -1    0    0    0  501  0.00000000000E+00  0.00000000000E+00 -0.13331190244E+04  0.13331190244E+04  0.25500000920E-02 0.  1.
    10030    2    1    2    0    0  0.00000000000E+00  0.00000000000E+00  0.10500537072E+04  0.37162917560E+04  0.35648578692E+04 0.  0.
        2    1    3    3  502    0  0.16001918105E+04 -0.78457524836E+03  0.55596508383E+03  0.18668876037E+04  0.25500000920E-02 0. -1.
       -2    1    3    3    0  502 -0.16001918105E+04  0.78457524836E+03  0.49408862337E+03  0.18494041522E+04  0.25500000920E-02 0.  1.
</event>
<event>
 5   0  0.1370997E-07  0.3578675E+04  0.7818609E-02  0.8095394E-01
       -1   -1    0    0    0  501  0.00000000000E+00  0.00000000000E+00  0.14957980863E+04  0.14957980863E+04  0.50400001928E-02 0.  1.
        1   -1    0    0  501    0  0.00000000000E+00  0.00000000000E+00 -0.21404816468E+04  0.21404816468E+04  0.50400001928E-02 0. -1.
    10030    2    1    2    0    0  0.00000000000E+00  0.00000000000E+00 -0.64468356050E+03  0.36362797332E+04  0.35786748113E+04 0.  0.
        3    1    3    3  502    0  0.67791558663E+03 -0.15894348731E+04 -0.79442296492E+03  0.19018361170E+04  0.10100000352E+00 0.  1.
       -3    1    3    3    0  502 -0.67791558663E+03  0.15894348731E+04  0.14973940443E+03  0.17344436162E+04  0.10100000352E+00 0. -1.
</event>
<event>
 5   0  0.1361743E-07  0.3452609E+04  0.7818609E-02  0.8125114E-01
       -1   -1    0    0    0  501  0.00000000000E+00  0.00000000000E+00  0.16523488538E+04  0.16523488538E+04  0.50400001928E-02 0. -1.
        1   -1    0    0  501    0  0.00000000000E+00  0.00000000000E+00 -0.18035706929E+04  0.18035706929E+04  0.50400001928E-02 0.  1.
    10030    2    1    2    0    0  0.00000000000E+00  0.00000000000E+00 -0.15122183909E+03  0.34559195468E+04  0.34526094290E+04 0.  0.
        5    1    3    3  502    0  0.13821994576E+04 -0.49986468067E+03  0.83066633283E+03  0.16883034935E+04  0.46999998093E+01 0. -1.
       -5    1    3    3    0  502 -0.13821994576E+04  0.49986468067E+03 -0.98188817191E+03  0.17676160533E+04  0.46999998093E+01 0.  1.
</event>
<event>
 5   0  0.3880259E-07  0.3597434E+04  0.7818609E-02  0.8091080E-01
       -2   -1    0    0    0  501  0.00000000000E+00  0.00000000000E+00  0.12447821449E+04  0.12447821449E+04  0.25500000920E-02 0.  1.
        2   -1    0    0  501    0  0.00000000000E+00  0.00000000000E+00 -0.25991560357E+04  0.25991560357E+04  0.25500000920E-02 0. -1.
    10030    2    1    2    0    0  0.00000000000E+00  0.00000000000E+00 -0.13543738908E+04  0.38439381806E+04  0.35974340994E+04 0.  0.
        5    1    3    3  502    0  0.13173820473E+04 -0.10288720588E+04 -0.13870008295E+04  0.21720650457E+04  0.46999998093E+01 0. -1.
       -5    1    3    3    0  502 -0.13173820473E+04  0.10288720588E+04  0.32626938707E+02  0.16718731348E+04  0.46999998093E+01 0.  1.
</event>
<event>
 5   0  0.4115358E-07  0.3586462E+04  0.7818609E-02  0.8093600E-01
        2   -1    0    0  501    0  0.00000000000E+00  0.00000000000E+00  0.21302553298E+04  0.21302553298E+04  0.25500000920E-02 0. -1.
       -2   -1    0    0    0  501  0.00000000000E+00  0.00000000000E+00 -0.15095263430E+04  0.15095263430E+04  0.25500000920E-02 0.  1.
    10030    2    1    2    0    0  0.00000000000E+00  0.00000000000E+00  0.62072898677E+03  0.36397816728E+04  0.35864615083E+04 0.  0.
        3    1    3    3  502    0  0.69837914213E+03  0.22899130247E+02 -0.13656781693E+04  0.15340582351E+04  0.10100000352E+00 0.  1.
       -3    1    3    3    0  502 -0.69837914213E+03 -0.22899130247E+02  0.19864071561E+04  0.21057234377E+04  0.10100000352E+00 0. -1.
</event>
<event>
 5   0  0.1298250E-07  0.3595420E+04  0.7818609E-02  0.8091542E-01
       -3   -1    0    0    0  501  0.00000000000E+00  0.00000000000E+00  0.22405942780E+04  0.22405942802E+04  0.10100000352E+00 0.  1.
        3   -1    0    0  501    0  0.00000000000E+00  0.00000000000E+00 -0.14423678836E+04  0.14423678871E+04  0.10100000352E+00 0. -1.
    10030    2    1    2    0    0  0.00000000000E+00  0.00000000000E+00  0.79822639437E+03  0.36829621674E+04  0.35954199963E+04 0.  0.
        4    1    3    3  502    0  0.11452032480E+04  0.13827638900E+04  0.30616709977E+03  0.18213364216E+04  0.12699999809E+01 0.  1.
       -4    1    3    3    0  502 -0.11452032480E+04 -0.13827638900E+04  0.49205929460E+03  0.18616257457E+04  0.12699999809E+01 0. -1.
</event>
<event>
 5   0  0.4120440E-07  0.3606492E+04  0.7818609E-02  0.8089006E-01
        2   -1    0    0  501    0  0.00000000000E+00  0.00000000000E+00  0.18840699200E+04  0.18840699200E+04  0.25500000920E-02 0.  1.
       -2   -1    0    0    0  501  0.00000000000E+00  0.00000000000E+00 -0.17258896011E+04  0.17258896011E+04  0.25500000920E-02 0. -1.
    10030    2    1    2    0    0  0.00000000000E+00  0.00000000000E+00  0.15818031884E+03  0.36099595211E+04  0.36064923028E+04 0.  0.
        2    1    3    3  502    0  0.14384205466E+04  0.67576079580E+03  0.93195998551E+03  0.18423506009E+04  0.25500000920E-02 0.  1.
       -2    1    3    3    0  502 -0.14384205466E+04 -0.67576079580E+03 -0.77377966667E+03  0.17676089202E+04  0.25500000920E-02 0. -1.
</event>
<event>
 5   0  0.1298250E-07  0.3593102E+04  0.7818609E-02  0.8092073E-01
       -1   -1    0    0    0  501  0.00000000000E+00  0.00000000000E+00  0.10732593195E+04  0.10732593196E+04  0.50400001928E-02 0. -1.
        1   -1    0    0  501    0  0.00000000000E+00  0.00000000000E+00 -0.30072846787E+04  0.30072846787E+04  0.50400001928E-02 0.  1.
    10030    2    1    2    0    0  0.00000000000E+00  0.00000000000E+00 -0.19340253591E+04  0.40805439983E+04  0.35931024522E+04 0.  0.
        1    1    3    3  502    0 -0.13009575703E+04  0.11698648518E+04 -0.50358262995E+03  0.18206234747E+04  0.50400001928E-02 0. -1.
       -1    1    3    3    0  502  0.13009575703E+04 -0.11698648518E+04 -0.14304427292E+04  0.22599205236E+04  0.50400001928E-02 0.  1.
</event>
<event>
 5   0  0.4115358E-07  0.3588759E+04  0.7818609E-02  0.8093071E-01
       -2   -1    0    0    0  501  0.00000000000E+00  0.00000000000E+00  0.18841576297E+04  0.18841576297E+04  0.25500000920E-02 0.  1.
        2   -1    0    0  501    0  0.00000000000E+00  0.00000000000E+00 -0.17088789408E+04  0.17088789408E+04  0.25500000920E-02 0. -1.
    10030    2    1    2    0    0  0.00000000000E+00  0.00000000000E+00  0.17527868891E+03  0.35930365705E+04  0.35887587238E+04 0.  0.
        3    1    3    3  502    0  0.26493230248E+03 -0.17278959530E+04 -0.31779241234E+03  0.17767401546E+04  0.10100000352E+00 0. -1.
       -3    1    3    3    0  502 -0.26493230248E+03  0.17278959530E+04  0.49307110126E+03  0.18162964159E+04  0.10100000352E+00 0.  1.
</event>
<event>
 5   0  0.1298250E-07  0.3562790E+04  0.7818609E-02  0.8099069E-01
        1   -1    0    0  501    0  0.00000000000E+00  0.00000000000E+00  0.14207091244E+04  0.14207091244E+04  0.50400001928E-02 0. -1.
       -1   -1    0    0    0  501  0.00000000000E+00  0.00000000000E+00 -0.22336508415E+04  0.22336508416E+04  0.50400001928E-02 0.  1.
    10030    2    1    2    0    0  0.00000000000E+00  0.00000000000E+00 -0.81294171713E+03  0.36543599660E+04  0.35627899918E+04 0.  0.
        2    1    3    3  502    0 -0.25769581638E+03 -0.12261452705E+04 -0.17053222962E+04  0.21161199144E+04  0.25500000920E-02 0.  1.
       -2    1    3    3    0  502  0.25769581638E+03  0.12261452705E+04  0.89238057911E+03  0.15382400515E+04  0.25500000920E-02 0. -1.
</event>
<event>
 5   0  0.1370997E-07  0.3583868E+04  0.7818609E-02  0.8094197E-01
       -1   -1    0    0    0  501  0.00000000000E+00  0.00000000000E+00  0.12710346901E+04  0.12710346901E+04  0.50400001928E-02 0. -1.
        1   -1    0    0  501    0  0.00000000000E+00  0.00000000000E+00 -0.25263091964E+04  0.25263091964E+04  0.50400001928E-02 0.  1.
    10030    2    1    2    0    0  0.00000000000E+00  0.00000000000E+00 -0.12552745063E+04  0.37973438865E+04  0.35838675347E+04 0.  0.
        3    1    3    3  502    0  0.27736811228E+03 -0.51599116874E+03 -0.24219822277E+04  0.24918222002E+04  0.10100000352E+00 0.  1.
       -3    1    3    3    0  502 -0.27736811228E+03  0.51599116874E+03  0.11667077214E+04  0.13055216863E+04  0.10100000352E+00 0. -1.
</event>
<event>
 5   0  0.1361743E-07  0.3555373E+04  0.7818609E-02  0.8100791E-01
       -1   -1    0    0    0  501  0.00000000000E+00  0.00000000000E+00  0.17144113554E+04  0.17144113555E+04  0.50400001928E-02 0.  1.
        1   -1    0    0  501    0  0.00000000000E+00  0.00000000000E+00 -0.18432972249E+04  0.18432972249E+04  0.50400001928E-02 0. -1.
    10030    2    1    2    0    0  0.00000000000E+00  0.00000000000E+00 -0.12888586948E+03  0.35577085804E+04  0.35553732259E+04 0.  0.
        5    1    3    3  502    0  0.52894321927E+03 -0.16949441906E+04  0.22394626930E+02  0.17757084073E+04  0.46999998093E+01 0.  1.
       -5    1    3    3    0  502 -0.52894321927E+03  0.16949441906E+04 -0.15128049641E+03  0.17820001731E+04  0.46999998093E+01 0. -1.
</event>
<event>
 5   0  0.1298250E-07  0.3598674E+04  0.7818609E-02  0.8090796E-01
        1   -1    0    0  501    0  0.00000000000E+00  0.00000000000E+00  0.16947874799E+04  0.16947874799E+04  0.50400001928E-02 0.  1.
       -1   -1    0    0    0  501  0.00000000000E+00  0.00000000000E+00 -0.19103359240E+04  0.19103359240E+04  0.50400001928E-02 0. -1.
    10030    2    1    2    0    0  0.00000000000E+00  0.00000000000E+00 -0.21554844415E+03  0.36051234039E+04  0.35986738704E+04 0.  0.
        2    1    3    3  502    0 -0.10212672194E+04  0.10784656451E+04 -0.11252413122E+04  0.18633955275E+04  0.25500000920E-02 0. -1.
       -2    1    3    3    0  502  0.10212672194E+04 -0.10784656451E+04  0.90969286810E+03  0.17417278764E+04  0.25500000920E-02 0.  1.
</event>
<event>
 5   0  0.4200635E-07  0.3726264E+04  0.7818609E-02  0.8062166E-01
        2   -1    0    0  501    0  0.00000000000E+00  0.00000000000E+00  0.10995061523E+04  0.10995061523E+04  0.25500000920E-02 0. -1.
       -2   -1    0    0    0  501  0.00000000000E+00  0.00000000000E+00 -0.31571091846E+04  0.31571091846E+04  0.25500000920E-02 0.  1.
    10030    2    1    2    0    0  0.00000000000E+00  0.00000000000E+00 -0.20576030323E+04  0.42566153368E+04  0.37262640657E+04 0.  0.
        4    1    3    3  502    0  0.93458863246E+01  0.13324211112E+04 -0.25163852515E+04  0.28473899820E+04  0.12699999809E+01 0.  1.
       -4    1    3    3    0  502 -0.93458863246E+01 -0.13324211112E+04  0.45878221915E+03  0.14092253548E+04  0.12699999809E+01 0. -1.
</event>
<event>
 5   0  0.1348226E-07  0.3618897E+04  0.7818609E-02  0.8086177E-01
       -1   -1    0    0    0  501  0.00000000000E+00  0.00000000000E+00  0.20871004306E+04  0.20871004306E+04  0.50400001928E-02 0. -1.
        1   -1    0    0  501    0  0.00000000000E+00  0.00000000000E+00 -0.15687331807E+04  0.15687331807E+04  0.50400001928E-02 0.  1.
    10030    2    1    2    0    0  0.00000000000E+00  0.00000000000E+00  0.51836724988E+03  0.36558336113E+04  0.36188969021E+04 0.  0.
        4    1    3    3  502    0  0.12035617613E+04  0.10695723558E+04  0.10931739836E+04  0.19461698047E+04  0.12699999809E+01 0. -1.
       -4    1    3    3    0  502 -0.12035617613E+04 -0.10695723558E+04 -0.57480673371E+03  0.17096638066E+04  0.12699999809E+01 0.  1.
</event>
<event>
 5   0  0.1361743E-07  0.3579103E+04  0.7818609E-02  0.8095295E-01
        1   -1    0    0  501    0  0.00000000000E+00  0.00000000000E+00  0.14047857363E+04  0.14047857363E+04  0.50400001928E-02 0. -1.
       -1   -1    0    0    0  501  0.00000000000E+00  0.00000000000E+00 -0.22797035956E+04  0.22797035956E+04  0.50400001928E-02 0.  1.
    10030    2    1    2    0    0  0.00000000000E+00  0.00000000000E+00 -0.87491785922E+03  0.36844893319E+04  0.35791032922E+04 0.  0.
        5    1    3    3  502    0 -0.15988037638E+04 -0.66955021499E+03 -0.89553531320E+03  0.19510193625E+04  0.46999998093E+01 0.  1.
       -5    1    3    3    0  502  0.15988037638E+04  0.66955021499E+03  0.20617453976E+02  0.17334699694E+04  0.46999998093E+01 0. -1.
</event>
<event>
 5   0  0.1298250E-07  0.3499716E+04  0.7818609E-02  0.8113857E-01
        1   -1    0    0  501    0  0.00000000000E+00  0.00000000000E+00  0.22044799199E+04  0.22044799199E+04  0.50400001928E-02 0. -1.
       -1   -1    0    0    0  501  0.00000000000E+00  0.00000000000E+00 -0.13889910729E+04  0.13889910729E+04  0.50400001928E-02 0.  1.
    10030    2    1    2    0    0  0.00000000000E+00  0.00000000000E+00  0.81548884703E+03  0.35934709929E+04  0.34997159480E+04 0.  0.
        2    1    3    3  502    0 -0.32886648549E+03  0.15454564542E+04 -0.36433978315E+03  0.16215215986E+04  0.25500000920E-02 0.  1.
       -2    1    3    3    0  502  0.32886648549E+03 -0.15454564542E+04  0.11798286302E+04  0.19719493943E+04  0.25500000920E-02 0. -1.
</event>
<event>
 5   0  0.3993751E-07  0.3594839E+04  0.7818609E-02  0.8091675E-01
       -2   -1    0    0    0  501  0.00000000000E+00  0.00000000000E+00  0.17101617907E+04  0.17101617907E+04  0.25500000920E-02 0. -1.
        2   -1    0    0  501    0  0.00000000000E+00  0.00000000000E+00 -0.18891297959E+04  0.18891297959E+04  0.25500000920E-02 0.  1.
    10030    2    1    2    0    0  0.00000000000E+00  0.00000000000E+00 -0.17896800521E+03  0.35992915867E+04  0.35948394093E+04 0.  0.
        1    1    3    3  502    0  0.83003706006E+03 -0.45297373426E+03 -0.16199617382E+04  0.18757459205E+04  0.50400001928E-02 0.  1.
       -1    1    3    3    0  502 -0.83003706006E+03  0.45297373426E+03  0.14409937330E+04  0.17235456662E+04  0.50400001928E-02 0. -1.
</event>
<event>
 5   0  0.4115358E-07  0.3531346E+04  0.7818609E-02  0.8106401E-01
        2   -1    0    0  501    0  0.00000000000E+00  0.00000000000E+00  0.16519110291E+04  0.16519110291E+04  0.25500000920E-02 0. -1.
       -2   -1    0    0    0  501  0.00000000000E+00  0.00000000000E+00 -0.18872697694E+04  0.18872697694E+04  0.25500000920E-02 0.  1.
    10030    2    1    2    0    0  0.00000000000E+00  0.00000000000E+00 -0.23535874033E+03  0.35391807985E+04  0.35313463421E+04 0.  0.
        3    1    3    3  502    0 -0.76346412425E+03 -0.14672121890E+03  0.14711443493E+04  0.16639321776E+04  0.10100000352E+00 0. -1.
       -3    1    3    3    0  502  0.76346412425E+03  0.14672121890E+03 -0.17065030896E+04  0.18752486209E+04  0.10100000352E+00 0.  1.
</event>
<event>
 5   0  0.4115358E-07  0.3583630E+04  0.7818609E-02  0.8094252E-01
       -2   -1    0    0    0  501  0.00000000000E+00  0.00000000000E+00  0.15899752266E+04  0.15899752266E+04  0.25500000920E-02 0.  1.
        2   -1    0    0  501    0  0.00000000000E+00  0.00000000000E+00 -0.20192776299E+04  0.20192776299E+04  0.25500000920E-02 0. -1.
    10030    2    1    2    0    0  0.00000000000E+00  0.00000000000E+00 -0.42930240334E+03  0.36092528565E+04  0.35836302304E+04 0.  0.
        3    1    3    3  502    0  0.42437897755E+03  0.10003348837E+03  0.15357327980E+04  0.15964270896E+04  0.10100000352E+00 0.  1.
       -3    1    3    3    0  502 -0.42437897755E+03 -0.10003348837E+03 -0.19650352013E+04  0.20128257669E+04  0.10100000352E+00 0. -1.
</event>
<event>
 5   0  0.1348226E-07  0.3595819E+04  0.7818609E-02  0.8091450E-01
        1   -1    0    0  501    0  0.00000000000E+00  0.00000000000E+00  0.11297631129E+04  0.11297631129E+04  0.50400001928E-02 0. -1.
       -1   -1    0    0    0  501  0.00000000000E+00  0.00000000000E+00 -0.28611996615E+04  0.28611996615E+04  0.50400001928E-02 0.  1.
    10030    2    1    2    0    0  0.00000000000E+00  0.00000000000E+00 -0.17314365486E+04  0.39909627745E+04  0.35958185918E+04 0.  0.
        4    1    3    3  502    0  0.27897382340E+03 -0.10976927240E+04 -0.24154841140E+04  0.26678307345E+04  0.12699999809E+01 0.  1.
       -4    1    3    3    0  502 -0.27897382340E+03  0.10976927240E+04  0.68404756535E+03  0.13231320399E+04  0.12699999809E+01 0. -1.
</event>
<event>
 5   0  0.3993751E-07  0.3600651E+04  0.7818609E-02  0.8090343E-01
        2   -1    0    0  501    0  0.00000000000E+00  0.00000000000E+00  0.13719952099E+04  0.13719952099E+04  0.25500000920E-02 0.  1.
       -2   -1    0    0    0  501  0.00000000000E+00  0.00000000000E+00 -0.23623785405E+04  0.23623785405E+04  0.25500000920E-02 0. -1.
    10030    2    1    2    0    0  0.00000000000E+00  0.00000000000E+00 -0.99038333060E+03  0.37343737504E+04  0.36006510753E+04 0.  0.
        1    1    3    3  502    0  0.54831556834E+03  0.17095939105E+04 -0.35677839552E+03  0.18304786600E+04  0.50400001928E-02 0. -1.
       -1    1    3    3    0  502 -0.54831556834E+03 -0.17095939105E+04 -0.63360493508E+03  0.19038950904E+04  0.50400001928E-02 0.  1.
</event>
<event>
 5   0  0.1298250E-07  0.3612231E+04  0.7818609E-02  0.8087696E-01
        1   -1    0    0  501    0  0.00000000000E+00  0.00000000000E+00  0.25388759927E+04  0.25388759927E+04  0.50400001928E-02 0. -1.
       -1   -1    0    0    0  501  0.00000000000E+00  0.00000000000E+00 -0.12848413680E+04  0.12848413680E+04  0.50400001928E-02 0.  1.
    10030    2    1    2    0    0  0.00000000000E+00  0.00000000000E+00  0.12540346247E+04  0.38237173607E+04  0.36122308363E+04 0.  0.
        2    1    3    3  502    0  0.45219068628E+03 -0.17275214662E+04  0.34053193957E+03  0.18179023172E+04  0.25500000920E-02 0. -1.
       -2    1    3    3    0  502 -0.45219068628E+03  0.17275214662E+04  0.91350268516E+03  0.20058150435E+04  0.25500000920E-02 0.  1.
</event>
<event>
 5   0  0.1298250E-07  0.3588410E+04  0.7818609E-02  0.8093152E-01
        1   -1    0    0  501    0  0.00000000000E+00  0.00000000000E+00  0.23149805249E+04  0.23149805249E+04  0.50400001928E-02 0.  1.
       -1   -1    0    0    0  501  0.00000000000E+00  0.00000000000E+00 -0.13905828038E+04  0.13905828038E+04  0.50400001928E-02 0. -1.
    10030    2    1    2    0    0  0.00000000000E+00  0.00000000000E+00  0.92439772110E+03  0.37055633286E+04  0.35884102937E+04 0.  0.
        1    1    3    3  502    0 -0.84091543312E+03 -0.11231448207E+04 -0.69260365531E+03  0.15647021689E+04  0.50400001928E-02 0. -1.
       -1    1    3    3    0  502  0.84091543312E+03  0.11231448207E+04  0.16170013764E+04  0.21408611597E+04  0.50400001928E-02 0.  1.
</event>
<event>
 5   0  0.1361743E-07  0.3554458E+04  0.7818609E-02  0.8101004E-01
        1   -1    0    0  501    0  0.00000000000E+00  0.00000000000E+00  0.16259900771E+04  0.16259900771E+04  0.50400001928E-02 0.  1.
       -1   -1    0    0    0  501  0.00000000000E+00  0.00000000000E+00 -0.19425347048E+04  0.19425347048E+04  0.50400001928E-02 0. -1.
    10030    2    1    2    0    0  0.00000000000E+00  0.00000000000E+00 -0.31654462769E+03  0.35685247819E+04  0.35544575701E+04 0.  0.
        5    1    3    3  502    0 -0.94394425649E+03  0.74994822537E+03  0.11526776102E+04  0.16679750787E+04  0.46999998093E+01 0.  1.
       -5    1    3    3    0  502  0.94394425649E+03 -0.74994822537E+03 -0.14692222379E+04  0.19005497032E+04  0.46999998093E+01 0. -1.
</event>
<event>
 5   0  0.4120440E-07  0.3573739E+04  0.7818609E-02  0.8096534E-01
       -2   -1    0    0    0  501  0.00000000000E+00  0.00000000000E+00  0.18342675916E+04  0.18342675916E+04  0.25500000920E-02 0. -1.
        2   -1    0    0  501    0  0.00000000000E+00  0.00000000000E+00 -0.17406962899E+04  0.17406962899E+04  0.25500000920E-02 0.  1.
    10030    2    1    2    0    0  0.00000000000E+00  0.00000000000E+00  0.93571301702E+02  0.35749638815E+04  0.35737391015E+04 0.  0.
        2    1    3    3  502    0 -0.46530512622E+03 -0.11442352377E+04  0.13383980335E+04  0.18212886745E+04  0.25500000920E-02 0. -1.
       -2    1    3    3    0  502  0.46530512622E+03  0.11442352377E+04 -0.12448267318E+04  0.17536752071E+04  0.25500000920E-02 0.  1.
</event>
<event>
 5   0  0.3993751E-07  0.3674514E+04  0.7818609E-02  0.8073634E-01
        2   -1    0    0  501    0  0.00000000000E+00  0.00000000000E+00  0.23828836698E+04  0.23828836698E+04  0.25500000920E-02 0.  1.
       -2   -1    0    0    0  501  0.00000000000E+00  0.00000000000E+00 -0.14165661822E+04  0.14165661823E+04  0.25500000920E-02 0. -1.
    10030    2    1    2    0    0  0.00000000000E+00  0.00000000000E+00  0.96631748755E+03  0.37994498521E+04  0.36745135313E+04 0.  0.
        1    1    3    3  502    0 -0.34082340595E+03  0.11603799015E+04 -0.94693211074E+03  0.15360086367E+04  0.50400001928E-02 0. -1.
       -1    1    3    3    0  502  0.34082340595E+03 -0.11603799015E+04  0.19132495983E+04  0.22634412153E+04  0.50400001928E-02 0.  1.
</event>
<event>
 5   0  0.3880259E-07  0.3634481E+04  0.7818609E-02  0.8082639E-01
       -2   -1    0    0    0  501  0.00000000000E+00  0.00000000000E+00  0.19277037649E+04  0.19277037649E+04  0.25500000920E-02 0.  1.
        2   -1    0    0  501    0  0.00000000000E+00  0.00000000000E+00 -0.17131070275E+04  0.17131070275E+04  0.25500000920E-02 0. -1.
    10030    2    1    2    0    0  0.00000000000E+00  0.00000000000E+00  0.21459673747E+03  0.36408107924E+04  0.36344809074E+04 0.  0.
        5    1    3    3  502    0 -0.32135804341E+03  0.14624253509E+04  0.11388402529E+04  0.18812065571E+04  0.46999998093E+01 0.  1.
       -5    1    3    3    0  502  0.32135804341E+03 -0.14624253509E+04 -0.92424351539E+03  0.17596042353E+04  0.46999998093E+01 0. -1.
</event>
<event>
 5   0  0.1298250E-07  0.3629351E+04  0.7818609E-02  0.8083801E-01
       -1   -1    0    0    0  501  0.00000000000E+00  0.00000000000E+00  0.12909016303E+04  0.12909016303E+04  0.50400001928E-02 0. -1.
        1   -1    0    0  501    0  0.00000000000E+00  0.00000000000E+00 -0.25509671302E+04  0.25509671302E+04  0.50400001928E-02 0.  1.
    10030    2    1    2    0    0  0.00000000000E+00  0.00000000000E+00 -0.12600654999E+04  0.38418687604E+04  0.36293512517E+04 0.  0.
        2    1    3    3  502    0  0.13463701597E+04  0.42403010018E+03 -0.18372190393E+04  0.23168702880E+04  0.25500000920E-02 0.  1.
       -2    1    3    3    0  502 -0.13463701597E+04 -0.42403010018E+03  0.57715353943E+03  0.15249984724E+04  0.25500000920E-02 0. -1.
</event>
<event>
 5   0  0.4200635E-07  0.3592947E+04  0.7818609E-02  0.8092109E-01
        2   -1    0    0  501    0  0.00000000000E+00  0.00000000000E+00  0.23162736420E+04  0.23162736420E+04  0.25500000920E-02 0. -1.
       -2   -1    0    0    0  501  0.00000000000E+00  0.00000000000E+00 -0.13933225813E+04  0.13933225813E+04  0.25500000920E-02 0.  1.
    10030    2    1    2    0    0  0.00000000000E+00  0.00000000000E+00  0.92295106078E+03  0.37095962233E+04  0.35929466291E+04 0.  0.
        4    1    3    3  502    0 -0.89121748222E+03 -0.69665397266E+03  0.19023928764E+04  0.22132997148E+04  0.12699999809E+01 0. -1.
       -4    1    3    3    0  502  0.89121748222E+03  0.69665397266E+03 -0.97944181566E+03  0.14962965085E+04  0.12699999809E+01 0.  1.
</event>
<event>
 5   0  0.3993751E-07  0.3621761E+04  0.7818609E-02  0.8085525E-01
        2   -1    0    0  501    0  0.00000000000E+00  0.00000000000E+00  0.20534901348E+04  0.20534901348E+04  0.25500000920E-02 0.  1.
       -2   -1    0    0    0  501  0.00000000000E+00  0.00000000000E+00 -0.15969336410E+04  0.15969336410E+04  0.25500000920E-02 0. -1.
    10030    2    1    2    0    0  0.00000000000E+00  0.00000000000E+00  0.45655649380E+03  0.36504237758E+04  0.36217606093E+04 0.  0.
        1    1    3    3  502    0  0.69559462688E+03 -0.86767910130E+03  0.16687736141E+04  0.20053738512E+04  0.50400001928E-02 0.  1.
       -1    1    3    3    0  502 -0.69559462688E+03  0.86767910130E+03 -0.12122171203E+04  0.16450499247E+04  0.50400001928E-02 0. -1.
</event>
<event>
 5   0  0.1298250E-07  0.3604259E+04  0.7818609E-02  0.8089517E-01
        1   -1    0    0  501    0  0.00000000000E+00  0.00000000000E+00  0.14693673709E+04  0.14693673709E+04  0.50400001928E-02 0.  1.
       -1   -1    0    0    0  501  0.00000000000E+00  0.00000000000E+00 -0.22102506331E+04  0.22102506331E+04  0.50400001928E-02 0. -1.
    10030    2    1    2    0    0  0.00000000000E+00  0.00000000000E+00 -0.74088326216E+03  0.36796180040E+04  0.36042586820E+04 0.  0.
        1    1    3    3  502    0 -0.12492782000E+04 -0.10105640874E+04  0.46254353988E+03  0.16720892087E+04  0.50400001928E-02 0.  1.
       -1    1    3    3    0  502  0.12492782000E+04  0.10105640874E+04 -0.12034268020E+04  0.20075287952E+04  0.50400001928E-02 0. -1.
</event>
<event>
 5   0  0.1361743E-07  0.3591726E+04  0.7818609E-02  0.8092390E-01
        1   -1    0    0  501    0  0.00000000000E+00  0.00000000000E+00  0.11985872916E+04  0.11985872916E+04  0.50400001928E-02 0. -1.
       -1   -1    0    0    0  501  0.00000000000E+00  0.00000000000E+00 -0.26907705075E+04  0.26907705075E+04  0.50400001928E-02 0.  1.
    10030    2    1    2    0    0  0.00000000000E+00  0.00000000000E+00 -0.14921832158E+04  0.38893577991E+04  0.35917256771E+04 0.  0.
        5    1    3    3  502    0 -0.17032421025E+03  0.20712564582E+03  0.11767778437E+04  0.12069546607E+04  0.46999998093E+01 0. -1.
       -5    1    3    3    0  502  0.17032421025E+03 -0.20712564582E+03 -0.26689610595E+04  0.26824031384E+04  0.46999998093E+01 0.  1.
</event>
<event>
 5   0  0.3880259E-07  0.3596903E+04  0.7818609E-02  0.8091201E-01
       -2   -1    0    0    0  501  0.00000000000E+00  0.00000000000E+00  0.14418307372E+04  0.14418307372E+04  0.25500000920E-02 0.  1.
        2   -1    0    0  501    0  0.00000000000E+00  0.00000000000E+00 -0.22432784325E+04  0.22432784325E+04  0.25500000920E-02 0. -1.
    10030    2    1    2    0    0  0.00000000000E+00  0.00000000000E+00 -0.80144769537E+03  0.36851091697E+04  0.35969029990E+04 0.  0.
        5    1    3    3  502    0  0.65045639649E+03 -0.16747541077E+04 -0.48339249682E+03  0.18605335904E+04  0.46999998093E+01 0.  1.
       -5    1    3    3    0  502 -0.65045639649E+03  0.16747541077E+04 -0.31805519856E+03  0.18245755793E+04  0.46999998093E+01 0. -1.
</event>
<event>
 5   0  0.3880259E-07  0.3585656E+04  0.7818609E-02  0.8093785E-01
        2   -1    0    0  501    0  0.00000000000E+00  0.00000000000E+00  0.34477064100E+04  0.34477064100E+04  0.25500000920E-02 0. -1.
       -2   -1    0    0    0  501  0.00000000000E+00  0.00000000000E+00 -0.93228144601E+03  0.93228144601E+03  0.25500000920E-02 0.  1.
    10030    2    1    2    0    0  0.00000000000E+00  0.00000000000E+00  0.25154249640E+04  0.43799878560E+04  0.35856562676E+04 0.  0.
        5    1    3    3  502    0  0.10846440472E+04 -0.68701234323E+03  0.27862232673E+04  0.30678169525E+04  0.46999998093E+01 0. -1.
       -5    1    3    3    0  502 -0.10846440472E+04  0.68701234323E+03 -0.27079830328E+03  0.13121709035E+04  0.46999998093E+01 0.  1.
</event>
<event>
 5   0  0.3880259E-07  0.3602729E+04  0.7818609E-02  0.8089867E-01
       -2   -1    0    0    0  501  0.00000000000E+00  0.00000000000E+00  0.16281547503E+04  0.16281547503E+04  0.25500000920E-02 0. -1.
        2   -1    0    0  501    0  0.00000000000E+00  0.00000000000E+00 -0.19930009906E+04  0.19930009906E+04  0.25500000920E-02 0.  1.
    10030    2    1    2    0    0  0.00000000000E+00  0.00000000000E+00 -0.36484624028E+03  0.36211557409E+04  0.36027289825E+04 0.  0.
        5    1    3    3  502    0  0.56664155858E+03 -0.16346054791E+04 -0.68686073423E+03  0.18614020217E+04  0.46999998093E+01 0.  1.
       -5    1    3    3    0  502 -0.56664155858E+03  0.16346054791E+04  0.32201449395E+03  0.17597537193E+04  0.46999998093E+01 0. -1.
</event>
<event>
 5   0  0.4200635E-07  0.3603333E+04  0.7818609E-02  0.8089729E-01
        2   -1    0    0  501    0  0.00000000000E+00  0.00000000000E+00  0.29994425083E+04  0.29994425083E+04  0.25500000920E-02 0.  1.
       -2   -1    0    0    0  501  0.00000000000E+00  0.00000000000E+00 -0.10822018036E+04  0.10822018036E+04  0.25500000920E-02 0. -1.
    10030    2    1    2    0    0  0.00000000000E+00  0.00000000000E+00  0.19172407047E+04  0.40816443119E+04  0.36033329528E+04 0.  0.
        4    1    3    3  502    0  0.55821088672E+03  0.15809929705E+03 -0.97349435003E+03  0.11332641547E+04  0.12699999809E+01 0. -1.
       -4    1    3    3    0  502 -0.55821088672E+03 -0.15809929705E+03  0.28907350548E+04  0.29483801572E+04  0.12699999809E+01 0.  1.
</event>
<event>
 5   0  0.4200635E-07  0.3606530E+04  0.7818609E-02  0.8088998E-01
        2   -1    0    0  501    0  0.00000000000E+00  0.00000000000E+00  0.15452419804E+04  0.15452419804E+04  0.25500000920E-02 0.  1.
       -2   -1    0    0    0  501  0.00000000000E+00  0.00000000000E+00 -0.21043720973E+04  0.21043720973E+04  0.25500000920E-02 0. -1.
    10030    2    1    2    0    0  0.00000000000E+00  0.00000000000E+00 -0.55913011695E+03  0.36496140777E+04  0.36065296933E+04 0.  0.
        4    1    3    3  502    0 -0.13826997591E+04  0.10651227588E+04  0.17907926511E+03  0.17545415673E+04  0.12699999809E+01 0.  1.
       -4    1    3    3    0  502  0.13826997591E+04 -0.10651227588E+04 -0.73820938207E+03  0.18950725104E+04  0.12699999809E+01 0. -1.
</event>
<event>
 5   0  0.1361743E-07  0.3584551E+04  0.7818609E-02  0.8094040E-01
       -1   -1    0    0    0  501  0.00000000000E+00  0.00000000000E+00  0.13929556748E+04  0.13929556748E+04  0.50400001928E-02 0. -1.
        1   -1    0    0  501    0  0.00000000000E+00  0.00000000000E+00 -0.23060683158E+04  0.23060683158E+04  0.50400001928E-02 0.  1.
    10030    2    1    2    0    0  0.00000000000E+00  0.00000000000E+00 -0.91311264103E+03  0.36990239906E+04  0.35845507093E+04 0.  0.
        5    1    3    3  502    0 -0.15193176289E+04 -0.82586281766E+03  0.29498740429E+02  0.17295281775E+04  0.46999998093E+01 0. -1.
       -5    1    3    3    0  502  0.15193176289E+04  0.82586281766E+03 -0.94261138145E+03  0.19694958131E+04  0.46999998093E+01 0.  1.
</event>
<event>
 5   0  0.4115358E-07  0.3589752E+04  0.7818609E-02  0.8092843E-01
       -2   -1    0    0    0  501  0.00000000000E+00  0.00000000000E+00  0.13429786189E+04  0.13429786189E+04  0.25500000920E-02 0. -1.
        2   -1    0    0  501    0  0.00000000000E+00  0.00000000000E+00 -0.23988321830E+04  0.23988321830E+04  0.25500000920E-02 0.  1.
    10030    2    1    2    0    0  0.00000000000E+00  0.00000000000E+00 -0.10558535641E+04  0.37418108019E+04  0.35897522656E+04 0.  0.
        3    1    3    3  502    0 -0.15828319617E+04 -0.12445394544E+03 -0.14004843745E+04  0.21171212287E+04  0.10100000352E+00 0.  1.
       -3    1    3    3    0  502  0.15828319617E+04  0.12445394544E+03  0.34463081043E+03  0.16246895732E+04  0.10100000352E+00 0. -1.
</event>
<event>
 5   0  0.4120440E-07  0.3629396E+04  0.7818609E-02  0.8083791E-01
       -2   -1    0    0    0  501  0.00000000000E+00  0.00000000000E+00  0.12431071473E+04  0.12431071473E+04  0.25500000920E-02 0. -1.
        2   -1    0    0  501    0  0.00000000000E+00  0.00000000000E+00 -0.26491103880E+04  0.26491103880E+04  0.25500000920E-02 0.  1.
    10030    2    1    2    0    0  0.00000000000E+00  0.00000000000E+00 -0.14060032407E+04  0.38922175353E+04  0.36293955736E+04 0.  0.
        2    1    3    3  502    0 -0.15511796217E+04  0.50298345937E+03  0.15088402901E+03  0.16376558153E+04  0.25500000920E-02 0. -1.
       -2    1    3    3    0  502  0.15511796217E+04 -0.50298345937E+03 -0.15568872697E+04  0.22545617201E+04  0.25500000920E-02 0.  1.
</event>
<event>
 5   0  0.1370997E-07  0.3622738E+04  0.7818609E-02  0.8085303E-01
       -1   -1    0    0    0  501  0.00000000000E+00  0.00000000000E+00  0.14556044282E+04  0.14556044282E+04  0.50400001928E-02 0.  1.
        1   -1    0    0  501    0  0.00000000000E+00  0.00000000000E+00 -0.22540864540E+04  0.22540864540E+04  0.50400001928E-02 0. -1.
    10030    2    1    2    0    0  0.00000000000E+00  0.00000000000E+00 -0.79848202580E+03  0.37096908822E+04  0.36227383146E+04 0.  0.
        3    1    3    3  502    0 -0.14371446291E+04 -0.15065109319E+02  0.72969335606E+03  0.16118511242E+04  0.10100000352E+00 0.  1.
       -3    1    3    3    0  502  0.14371446291E+04  0.15065109319E+02 -0.15281753819E+04  0.20978397580E+04  0.10100000352E+00 0. -1.
</event>
<event>
 5   0  0.3880259E-07  0.3315956E+04  0.7818609E-02  0.8158847E-01
       -2   -1    0    0    0  501  0.00000000000E+00  0.00000000000E+00  0.14576883968E+04  0.14576883968E+04  0.25500000920E-02 0.  1.
        2   -1    0    0  501    0  0.00000000000E+00  0.00000000000E+00 -0.18857879572E+04  0.18857879572E+04  0.25500000920E-02 0. -1.
    10030    2    1    2    0    0  0.00000000000E+00  0.00000000000E+00 -0.42809956044E+03  0.33434763540E+04  0.33159561058E+04 0.  0.
        5    1    3    3  502    0  0.15917120917E+03  0.16050172643E+04  0.17313354489E+03  0.16221631258E+04  0.46999998093E+01 0.  1.
       -5    1    3    3    0  502 -0.15917120917E+03 -0.16050172643E+04 -0.60123310533E+03  0.17213132281E+04  0.46999998093E+01 0. -1.
</event>
<event>
 5   0  0.4120440E-07  0.3587041E+04  0.7818609E-02  0.8093467E-01
       -2   -1    0    0    0  501  0.00000000000E+00  0.00000000000E+00  0.10469477752E+04  0.10469477752E+04  0.25500000920E-02 0.  1.
        2   -1    0    0  501    0  0.00000000000E+00  0.00000000000E+00 -0.30724699723E+04  0.30724699723E+04  0.25500000920E-02 0. -1.
    10030    2    1    2    0    0  0.00000000000E+00  0.00000000000E+00 -0.20255221971E+04  0.41194177475E+04  0.35870408985E+04 0.  0.
        2    1    3    3  502    0  0.97535648129E+03  0.23604845290E+03  0.69435812256E+03  0.12203164918E+04  0.25500000920E-02 0.  1.
       -2    1    3    3    0  502 -0.97535648129E+03 -0.23604845290E+03 -0.27198803196E+04  0.28991012557E+04  0.25500000920E-02 0. -1.
</event>
<event>
 5   0  0.1298250E-07  0.3615780E+04  0.7818609E-02  0.8086887E-01
        1   -1    0    0  501    0  0.00000000000E+00  0.00000000000E+00  0.28320475534E+04  0.28320475534E+04  0.50400001928E-02 0.  1.
       -1   -1    0    0    0  501  0.00000000000E+00  0.00000000000E+00 -0.11541001961E+04  0.11541001961E+04  0.50400001928E-02 0. -1.
    10030    2    1    2    0    0  0.00000000000E+00  0.00000000000E+00  0.16779473573E+04  0.39861477495E+04  0.36157802127E+04 0.  0.
        1    1    3    3  502    0 -0.26939960549E+03  0.34019607401E+03  0.27737813634E+04  0.28075207155E+04  0.50400001928E-02 0.  1.
       -1    1    3    3    0  502  0.26939960549E+03 -0.34019607401E+03 -0.10958340061E+04  0.11786270339E+04  0.50400001928E-02 0. -1.
</event>
<event>
 5   0  0.3880259E-07  0.3586389E+04  0.7818609E-02  0.8093617E-01
       -2   -1    0    0    0  501  0.00000000000E+00  0.00000000000E+00  0.15739170588E+04  0.15739170588E+04  0.25500000920E-02 0. -1.
        2   -1    0    0  501    0  0.00000000000E+00  0.00000000000E+00 -0.20430213002E+04  0.20430213002E+04  0.25500000920E-02 0.  1.
    10030    2    1    2    0    0  0.00000000000E+00  0.00000000000E+00 -0.46910424141E+03  0.36169383590E+04  0.35863887552E+04 0.  0.
        5    1    3    3  502    0  0.16025928663E+04  0.80391733039E+03 -0.26542359495E+03  0.18124731016E+04  0.46999998093E+01 0. -1.
       -5    1    3    3    0  502 -0.16025928663E+04 -0.80391733039E+03 -0.20368064646E+03  0.18044652574E+04  0.46999998093E+01 0.  1.
</event>
<event>
 5   0  0.3880259E-07  0.3606734E+04  0.7818609E-02  0.8088951E-01
       -2   -1    0    0    0  501  0.00000000000E+00  0.00000000000E+00  0.28999593180E+04  0.28999593180E+04  0.25500000920E-02 0.  1.
        2   -1    0    0  501    0  0.00000000000E+00  0.00000000000E+00 -0.11214406524E+04  0.11214406524E+04  0.25500000920E-02 0. -1.
    10030    2    1    2    0    0  0.00000000000E+00  0.00000000000E+00  0.17785186656E+04  0.40213999704E+04  0.36067338518E+04 0.  0.
        5    1    3    3  502    0  0.90471697301E+03 -0.15558596234E+04  0.76263187059E+03  0.19546972730E+04  0.46999998093E+01 0. -1.
       -5    1    3    3    0  502 -0.90471697301E+03  0.15558596234E+04  0.10158867950E+04  0.20667026974E+04  0.46999998093E+01 0.  1.
</event>
<event>
 5   0  0.4115358E-07  0.3618093E+04  0.7818609E-02  0.8086360E-01
       -2   -1    0    0    0  501  0.00000000000E+00  0.00000000000E+00  0.25696011802E+04  0.25696011802E+04  0.25500000920E-02 0. -1.
        2   -1    0    0  501    0  0.00000000000E+00  0.00000000000E+00 -0.12736022340E+04  0.12736022340E+04  0.25500000920E-02 0.  1.
    10030    2    1    2    0    0  0.00000000000E+00  0.00000000000E+00  0.12959989462E+04  0.38432034143E+04  0.36180933121E+04 0.  0.
        3    1    3    3  502    0  0.14841198569E+03  0.54020563840E+03  0.24751382162E+04  0.25377465297E+04  0.10100000352E+00 0. -1.
       -3    1    3    3    0  502 -0.14841198569E+03 -0.54020563840E+03 -0.11791392700E+04  0.13054568846E+04  0.10100000352E+00 0.  1.
</event>
<event>
 5   0  0.1298250E-07  0.3581541E+04  0.7818609E-02  0.8094733E-01
       -1   -1    0    0    0  501  0.00000000000E+00  0.00000000000E+00  0.14304468894E+04  0.14304468894E+04  0.50400001928E-02 0.  1.
        1   -1    0    0  501    0  0.00000000000E+00  0.00000000000E+00 -0.22418575527E+04  0.22418575527E+04  0.50400001928E-02 0. -1.
    10030    2    1    2    0    0  0.00000000000E+00  0.00000000000E+00 -0.81141066327E+03  0.36723044421E+04  0.35815405416E+04 0.  0.
        2    1    3    3  502    0  0.88555480667E+03 -0.32158454375E+03  0.11557915181E+04  0.14911331154E+04  0.25500000920E-02 0.  1.
       -2    1    3    3    0  502 -0.88555480667E+03  0.32158454375E+03 -0.19672021814E+04  0.21811713268E+04  0.25500000920E-02 0. -1.
</event>
<event>
 5   0  0.1361743E-07  0.3663509E+04  0.7818609E-02  0.8076097E-01
       -1   -1    0    0    0  501  0.00000000000E+00  0.00000000000E+00  0.21279339697E+04  0.21279339697E+04  0.50400001928E-02 0.  1.
        1   -1    0    0  501    0  0.00000000000E+00  0.00000000000E+00 -0.15767988872E+04  0.15767988873E+04  0.50400001928E-02 0. -1.
    10030    2    1    2    0    0  0.00000000000E+00  0.00000000000E+00  0.55113508241E+03  0.37047328569E+04  0.36635086546E+04 0.  0.
        5    1    3    3  502    0  0.49749946235E+03 -0.12029865682E+04  0.15787185135E+04  0.20462298584E+04  0.46999998093E+01 0.  1.
       -5    1    3    3    0  502 -0.49749946235E+03  0.12029865682E+04 -0.10275834311E+04  0.16585029986E+04  0.46999998093E+01 0. -1.
</event>
<event>
 5   0  0.4120440E-07  0.3613628E+04  0.7818609E-02  0.8087377E-01
       -2   -1    0    0    0  501  0.00000000000E+00  0.00000000000E+00  0.12393943364E+04  0.12393943364E+04  0.25500000920E-02 0.  1.
        2   -1    0    0  501    0  0.00000000000E+00  0.00000000000E+00 -0.26340094305E+04  0.26340094305E+04  0.25500000920E-02 0. -1.
    10030    2    1    2    0    0  0.00000000000E+00  0.00000000000E+00 -0.13946150942E+04  0.38734037669E+04  0.36136277452E+04 0.  0.
        2    1    3    3  502    0 -0.12497668620E+04 -0.62170878699E+03  0.53239469441E+03  0.14939488398E+04  0.25500000920E-02 0.  1.
       -2    1    3    3    0  502  0.12497668620E+04  0.62170878699E+03 -0.19270097886E+04  0.23794549272E+04  0.25500000920E-02 0. -1.
</event>
<event>
 5   0  0.3993751E-07  0.3596807E+04  0.7818609E-02  0.8091224E-01
       -2   -1    0    0    0  501  0.00000000000E+00  0.00000000000E+00  0.20486126773E+04  0.20486126773E+04  0.25500000920E-02 0.  1.
        2   -1    0    0  501    0  0.00000000000E+00  0.00000000000E+00 -0.15787534129E+04  0.15787534129E+04  0.25500000920E-02 0. -1.
    10030    2    1    2    0    0  0.00000000000E+00  0.00000000000E+00  0.46985926442E+03  0.36273660902E+04  0.35968065035E+04 0.  0.
        1    1    3    3  502    0 -0.16166580080E+04  0.23087744209E+03 -0.52470761885E+03  0.17152858635E+04  0.50400001928E-02 0. -1.
       -1    1    3    3    0  502  0.16166580080E+04 -0.23087744209E+03  0.99456688326E+03  0.19120802267E+04  0.50400001928E-02 0.  1.
</event>
<event>
 5   0  0.1298250E-07  0.3605023E+04  0.7818609E-02  0.8089342E-01
       -1   -1    0    0    0  501  0.00000000000E+00  0.00000000000E+00  0.11797212483E+04  0.11797212483E+04  0.50400001928E-02 0. -1.
        1   -1    0    0  501    0  0.00000000000E+00  0.00000000000E+00 -0.27540813400E+04  0.27540813400E+04  0.50400001928E-02 0.  1.
    10030    2    1    2    0    0  0.00000000000E+00  0.00000000000E+00 -0.15743600917E+04  0.39338025884E+04  0.36050233156E+04 0.  0.
        2    1    3    3  502    0  0.13843266110E+04 -0.11216288214E+04 -0.10852932918E+04  0.20862101783E+04  0.25500000920E-02 0. -1.
       -2    1    3    3    0  502 -0.13843266110E+04  0.11216288214E+04 -0.48906679994E+03  0.18475924101E+04  0.25500000920E-02 0.  1.
</event>
<event>
 5   0  0.1370997E-07  0.3612820E+04  0.7818609E-02  0.8087561E-01
        1   -1    0    0  501    0  0.00000000000E+00  0.00000000000E+00  0.21765179474E+04  0.21765179474E+04  0.50400001928E-02 0. -1.
       -1   -1    0    0    0  501  0.00000000000E+00  0.00000000000E+00 -0.14992371753E+04  0.14992371753E+04  0.50400001928E-02 0.  1.
    10030    2    1    2    0    0  0.00000000000E+00  0.00000000000E+00  0.67728077209E+03  0.36757551228E+04  0.36128197406E+04 0.  0.
        3    1    3    3  502    0 -0.12753836434E+04  0.73193065732E+03  0.14061029440E+04  0.20345641853E+04  0.10100000352E+00 0. -1.
       -3    1    3    3    0  502  0.12753836434E+04 -0.73193065732E+03 -0.72882217186E+03  0.16411909375E+04  0.10100000352E+00 0.  1.
</event>
<event>
 5   0  0.4120440E-07  0.3589307E+04  0.7818609E-02  0.8092945E-01
       -2   -1    0    0    0  501  0.00000000000E+00  0.00000000000E+00  0.17869288178E+04  0.17869288179E+04  0.25500000920E-02 0. -1.
        2   -1    0    0  501    0  0.00000000000E+00  0.00000000000E+00 -0.18024119401E+04  0.18024119401E+04  0.25500000920E-02 0.  1.
    10030    2    1    2    0    0  0.00000000000E+00  0.00000000000E+00 -0.15483122249E+02  0.35893407579E+04  0.35893073635E+04 0.  0.
        2    1    3    3  502    0 -0.36076962479E+02 -0.13259477269E+04  0.12011298580E+04  0.17894557434E+04  0.25500000920E-02 0. -1.
       -2    1    3    3    0  502  0.36076962479E+02  0.13259477269E+04 -0.12166129803E+04  0.17998850145E+04  0.25500000920E-02 0.  1.
</event>
<event>
 5   0  0.1298250E-07  0.3601738E+04  0.7818609E-02  0.8090094E-01
       -1   -1    0    0    0  501  0.00000000000E+00  0.00000000000E+00  0.11800820990E+04  0.11800820990E+04  0.50400001928E-02 0. -1.
        1   -1    0    0  501    0  0.00000000000E+00  0.00000000000E+00 -0.27482240780E+04  0.27482240780E+04  0.50400001928E-02 0.  1.
    10030    2    1    2    0    0  0.00000000000E+00  0.00000000000E+00 -0.15681419790E+04  0.39283061771E+04  0.36017384906E+04 0.  0.
        1    1    3    3  502    0  0.45496566363E+03  0.12516610558E+04  0.53806194406E+03  0.14363703594E+04  0.50400001928E-02 0. -1.
       -1    1    3    3    0  502 -0.45496566363E+03 -0.12516610558E+04 -0.21062039231E+04  0.24919358176E+04  0.50400001928E-02 0.  1.
</event>
<event>
 5   0  0.1298250E-07  0.3761107E+04  0.7818609E-02  0.8054553E-01
        1   -1    0    0  501    0  0.00000000000E+00  0.00000000000E+00  0.20384355544E+04  0.20384355544E+04  0.50400001928E-02 0.  1.
       -1   -1    0    0    0  501  0.00000000000E+00  0.00000000000E+00 -0.17348999443E+04  0.17348999443E+04  0.50400001928E-02 0. -1.
    10030    2    1    2    0    0  0.00000000000E+00  0.00000000000E+00  0.30353561008E+03  0.37733354987E+04  0.37611071401E+04 0.  0.
        1    1    3    3  502    0  0.11609923873E+04  0.11332389261E+04 -0.80229616203E+03  0.18099206940E+04  0.50400001928E-02 0.  1.
       -1    1    3    3    0  502 -0.11609923873E+04 -0.11332389261E+04  0.11058317721E+04  0.19634148047E+04  0.50400001928E-02 0. -1.
</event>
<event>
 5   0  0.1298250E-07  0.3820325E+04  0.7818609E-02  0.8041807E-01
        1   -1    0    0  501    0  0.00000000000E+00  0.00000000000E+00  0.17662166428E+04  0.17662166428E+04  0.50400001928E-02 0. -1.
       -1   -1    0    0    0  501  0.00000000000E+00  0.00000000000E+00 -0.20658401023E+04  0.20658401023E+04  0.50400001928E-02 0.  1.
    10030    2    1    2    0    0  0.00000000000E+00  0.00000000000E+00 -0.29962345950E+03  0.38320567451E+04  0.38203252061E+04 0.  0.
        2    1    3    3  502    0 -0.86779783991E+03  0.48654367617E+02 -0.18559997664E+04  0.20494329634E+04  0.25500000920E-02 0.  1.
       -2    1    3    3    0  502  0.86779783991E+03 -0.48654367617E+02  0.15563763069E+04  0.17826237817E+04  0.25500000920E-02 0. -1.
</event>
<event>
 5   0  0.4200635E-07  0.3586141E+04  0.7818609E-02  0.8093674E-01
        2   -1    0    0  501    0  0.00000000000E+00  0.00000000000E+00  0.19070825880E+04  0.19070825880E+04  0.25500000920E-02 0.  1.
       -2   -1    0    0    0  501  0.00000000000E+00  0.00000000000E+00 -0.16858746875E+04  0.16858746875E+04  0.25500000920E-02 0. -1.
    10030    2    1    2    0    0  0.00000000000E+00  0.00000000000E+00  0.22120790050E+03  0.35929572756E+04  0.35861412477E+04 0.  0.
        4    1    3    3  502    0  0.91038694066E+02 -0.30892667029E+03 -0.16566581933E+04  0.16876734619E+04  0.12699999809E+01 0. -1.
       -4    1    3    3    0  502 -0.91038694066E+02  0.30892667029E+03  0.18778660938E+04  0.19052838137E+04  0.12699999809E+01 0.  1.
</event>
<event>
 5   0  0.3880259E-07  0.3609258E+04  0.7818609E-02  0.8088374E-01
        2   -1    0    0  501    0  0.00000000000E+00  0.00000000000E+00  0.15410579171E+04  0.15410579171E+04  0.25500000920E-02 0.  1.
       -2   -1    0    0    0  501  0.00000000000E+00  0.00000000000E+00 -0.21132788705E+04  0.21132788705E+04  0.25500000920E-02 0. -1.
    10030    2    1    2    0    0  0.00000000000E+00  0.00000000000E+00 -0.57222095341E+03  0.36543367877E+04  0.36092576159E+04 0.  0.
        5    1    3    3  502    0  0.16399265174E+04 -0.62198372494E+03 -0.71619861800E+03  0.18945145254E+04  0.46999998093E+01 0.  1.
       -5    1    3    3    0  502 -0.16399265174E+04  0.62198372494E+03  0.14397766459E+03  0.17598222622E+04  0.46999998093E+01 0. -1.
</event>
<event>
 5   0  0.4200635E-07  0.3600371E+04  0.7818609E-02  0.8090407E-01
        2   -1    0    0  501    0  0.00000000000E+00  0.00000000000E+00  0.21344159165E+04  0.21344159165E+04  0.25500000920E-02 0.  1.
       -2   -1    0    0    0  501  0.00000000000E+00  0.00000000000E+00 -0.15182923678E+04  0.15182923678E+04  0.25500000920E-02 0. -1.
    10030    2    1    2    0    0  0.00000000000E+00  0.00000000000E+00  0.61612354872E+03  0.36527082843E+04  0.36003707563E+04 0.  0.
        4    1    3    3  502    0  0.51315317568E+03 -0.47446979155E+03 -0.13750353614E+04  0.15424563601E+04  0.12699999809E+01 0. -1.
       -4    1    3    3    0  502 -0.51315317568E+03  0.47446979155E+03  0.19911589102E+04  0.21102519241E+04  0.12699999809E+01 0.  1.
</event>
<event>
 5   0  0.3993751E-07  0.3616155E+04  0.7818609E-02  0.8086801E-01
       -2   -1    0    0    0  501  0.00000000000E+00  0.00000000000E+00  0.16636659287E+04  0.16636659287E+04  0.25500000920E-02 0.  1.
        2   -1    0    0  501    0  0.00000000000E+00  0.00000000000E+00 -0.19650244179E+04  0.19650244179E+04  0.25500000920E-02 0. -1.
    10030    2    1    2    0    0  0.00000000000E+00  0.00000000000E+00 -0.30135848926E+03  0.36286903466E+04  0.36161549596E+04 0.  0.
        1    1    3    3  502    0  0.32637897225E+03 -0.87260836556E+03  0.14042650519E+04  0.16852088681E+04  0.50400001928E-02 0.  1.
       -1    1    3    3    0  502 -0.32637897225E+03  0.87260836556E+03 -0.17056235411E+04  0.19434814785E+04  0.50400001928E-02 0. -1.
</event>
<event>
 5   0  0.3880259E-07  0.3646074E+04  0.7818609E-02  0.8080019E-01
       -2   -1    0    0    0  501  0.00000000000E+00  0.00000000000E+00  0.19196607808E+04  0.19196607808E+04  0.25500000920E-02 0. -1.
        2   -1    0    0  501    0  0.00000000000E+00  0.00000000000E+00 -0.17312770517E+04  0.17312770517E+04  0.25500000920E-02 0.  1.
    10030    2    1    2    0    0  0.00000000000E+00  0.00000000000E+00  0.18838372905E+03  0.36509378325E+04  0.36460744133E+04 0.  0.
        5    1    3    3  502    0 -0.12840158510E+04  0.12559059801E+04 -0.21838799084E+03  0.18093401950E+04  0.46999998093E+01 0.  1.
       -5    1    3    3    0  502  0.12840158510E+04 -0.12559059801E+04  0.40677171989E+03  0.18415976376E+04  0.46999998093E+01 0. -1.
</event>
<event>
 5   0  0.4115358E-07  0.3584084E+04  0.7818609E-02  0.8094147E-01
       -2   -1    0    0    0  501  0.00000000000E+00  0.00000000000E+00  0.19163144680E+04  0.19163144680E+04  0.25500000920E-02 0. -1.
        2   -1    0    0  501    0  0.00000000000E+00  0.00000000000E+00 -0.16758284158E+04  0.16758284159E+04  0.25500000920E-02 0.  1.
    10030    2    1    2    0    0  0.00000000000E+00  0.00000000000E+00  0.24048605217E+03  0.35921428839E+04  0.35840838379E+04 0.  0.
        3    1    3    3  502    0  0.63478887918E+03 -0.39767584659E+03  0.17518812899E+04  0.19053060290E+04  0.10100000352E+00 0. -1.
       -3    1    3    3    0  502 -0.63478887918E+03  0.39767584659E+03 -0.15113952377E+04  0.16868368549E+04  0.10100000352E+00 0.  1.
</event>
<event>
 5   0  0.4200635E-07  0.3544307E+04  0.7818609E-02  0.8103369E-01
       -2   -1    0    0    0  501  0.00000000000E+00  0.00000000000E+00  0.19455034939E+04  0.19455034939E+04  0.25500000920E-02 0.  1.
        2   -1    0    0  501    0  0.00000000000E+00  0.00000000000E+00 -0.16142492059E+04  0.16142492059E+04  0.25500000920E-02 0. -1.
    10030    2    1    2    0    0  0.00000000000E+00  0.00000000000E+00  0.33125428802E+03  0.35597526999E+04  0.35443066855E+04 0.  0.
        4    1    3    3  502    0  0.22181854792E+03 -0.12891300028E+04 -0.10351861392E+04  0.16681341637E+04  0.12699999809E+01 0. -1.
       -4    1    3    3    0  502 -0.22181854792E+03  0.12891300028E+04  0.13664404272E+04  0.18916185362E+04  0.12699999809E+01 0.  1.
</event>
<event>
 5   0  0.1370997E-07  0.3555802E+04  0.7818609E-02  0.8100692E-01
        1   -1    0    0  501    0  0.00000000000E+00  0.00000000000E+00  0.21574718586E+04  0.21574718587E+04  0.50400001928E-02 0. -1.
       -1   -1    0    0    0  501  0.00000000000E+00  0.00000000000E+00 -0.14651089095E+04  0.14651089096E+04  0.50400001928E-02 0.  1.
    10030    2    1    2    0    0  0.00000000000E+00  0.00000000000E+00  0.69236294910E+03  0.36225807682E+04  0.35558015930E+04 0.  0.
        3    1    3    3  502    0 -0.40597470207E+02 -0.40317070340E+03 -0.14174377854E+04  0.14742200163E+04  0.10100000352E+00 0.  1.
       -3    1    3    3    0  502  0.40597470207E+02  0.40317070340E+03  0.21098007345E+04  0.21483607519E+04  0.10100000352E+00 0. -1.
</event>
<event>
 5   0  0.1298250E-07  0.3582240E+04  0.7818609E-02  0.8094572E-01
       -1   -1    0    0    0  501  0.00000000000E+00  0.00000000000E+00  0.22222260858E+04  0.22222260858E+04  0.50400001928E-02 0.  1.
        1   -1    0    0  501    0  0.00000000000E+00  0.00000000000E+00 -0.14436476656E+04  0.14436476656E+04  0.50400001928E-02 0. -1.
    10030    2    1    2    0    0  0.00000000000E+00  0.00000000000E+00  0.77857842023E+03  0.36658737515E+04  0.35822403612E+04 0.  0.
        2    1    3    3  502    0 -0.16802501958E+03 -0.10634365730E+04  0.18541347279E+04  0.21440488197E+04  0.25500000920E-02 0.  1.
       -2    1    3    3    0  502  0.16802501958E+03  0.10634365730E+04 -0.10755563077E+04  0.15218249318E+04  0.25500000920E-02 0. -1.
</event>
<event>
 5   0  0.1361743E-07  0.3622646E+04  0.7818609E-02  0.8085324E-01
        1   -1    0    0  501    0  0.00000000000E+00  0.00000000000E+00  0.20907943919E+04  0.20907943919E+04  0.50400001928E-02 0.  1.
       -1   -1    0    0    0  501  0.00000000000E+00  0.00000000000E+00 -0.15692075464E+04  0.15692075464E+04  0.50400001928E-02 0. -1.
    10030    2    1    2    0    0  0.00000000000E+00  0.00000000000E+00  0.52158684553E+03  0.36600019383E+04  0.36226456286E+04 0.  0.
        5    1    3    3  502    0 -0.64233685031E+03  0.14692498545E+04 -0.59025656423E+03  0.17087178426E+04  0.46999998093E+01 0. -1.
       -5    1    3    3    0  502  0.64233685031E+03 -0.14692498545E+04  0.11118434098E+04  0.19512840956E+04  0.46999998093E+01 0.  1.
</event>
<event>
 5   0  0.4200635E-07  0.3560245E+04  0.7818609E-02  0.8099659E-01
       -2   -1    0    0    0  501  0.00000000000E+00  0.00000000000E+00  0.29118123069E+04  0.29118123069E+04  0.25500000920E-02 0. -1.
        2   -1    0    0  501    0  0.00000000000E+00  0.00000000000E+00 -0.10882691147E+04  0.10882691147E+04  0.25500000920E-02 0.  1.
    10030    2    1    2    0    0  0.00000000000E+00  0.00000000000E+00  0.18235431922E+04  0.40000814216E+04  0.35602445992E+04 0.  0.
        4    1    3    3  502    0 -0.79942786739E+03  0.13877858561E+04  0.17848139127E+04  0.23980402026E+04  0.12699999809E+01 0.  1.
       -4    1    3    3    0  502  0.79942786739E+03 -0.13877858561E+04  0.38729279540E+02  0.16020412190E+04  0.12699999809E+01 0. -1.
</event>
<event>
 5   0  0.1298250E-07  0.3584485E+04  0.7818609E-02  0.8094055E-01
       -1   -1    0    0    0  501  0.00000000000E+00  0.00000000000E+00  0.12965486090E+04  0.12965486090E+04  0.50400001928E-02 0. -1.
        1   -1    0    0  501    0  0.00000000000E+00  0.00000000000E+00 -0.24774492458E+04  0.24774492458E+04  0.50400001928E-02 0.  1.
    10030    2    1    2    0    0  0.00000000000E+00  0.00000000000E+00 -0.11809006367E+04  0.37739978548E+04  0.35844851086E+04 0.  0.
        1    1    3    3  502    0  0.17222249388E+04 -0.51949278234E+02 -0.11098643280E+04  0.20495258705E+04  0.50400001928E-02 0. -1.
       -1    1    3    3    0  502 -0.17222249388E+04  0.51949278234E+02 -0.71036308752E+02  0.17244719843E+04  0.50400001928E-02 0.  1.
</event>
<event>
 5   0  0.1361743E-07  0.3638948E+04  0.7818609E-02  0.8081628E-01
       -1   -1    0    0    0  501  0.00000000000E+00  0.00000000000E+00  0.15554712852E+04  0.15554712852E+04  0.50400001928E-02 0.  1.
        1   -1    0    0  501    0  0.00000000000E+00  0.00000000000E+00 -0.21282845626E+04  0.21282845626E+04  0.50400001928E-02 0. -1.
    10030    2    1    2    0    0  0.00000000000E+00  0.00000000000E+00 -0.57281327744E+03  0.36837558479E+04  0.36389479380E+04 0.  0.
        5    1    3    3  502    0  0.28746403143E+03 -0.12735902807E+03 -0.21005693272E+04  0.21239749245E+04  0.46999998093E+01 0. -1.
       -5    1    3    3    0  502 -0.28746403143E+03  0.12735902807E+03  0.15277560498E+04  0.15597809234E+04  0.46999998093E+01 0.  1.
</event>
<event>
 5   0  0.1298250E-07  0.3599993E+04  0.7818609E-02  0.8090493E-01
       -1   -1    0    0    0  501  0.00000000000E+00  0.00000000000E+00  0.20786775741E+04  0.20786775741E+04  0.50400001928E-02 0.  1.
        1   -1    0    0  501    0  0.00000000000E+00  0.00000000000E+00 -0.15586770177E+04  0.15586770177E+04  0.50400001928E-02 0. -1.
    10030    2    1    2    0    0  0.00000000000E+00  0.00000000000E+00  0.52000055641E+03  0.36373545919E+04  0.35999927567E+04 0.  0.
        1    1    3    3  502    0 -0.37077684675E+03  0.17459458674E+04  0.49519178247E+03  0.18523005543E+04  0.50400001928E-02 0. -1.
       -1    1    3    3    0  502  0.37077684675E+03 -0.17459458674E+04  0.24808773932E+02  0.17850540376E+04  0.50400001928E-02 0.  1.
</event>
<event>
 5   0  0.1298250E-07  0.3579531E+04  0.7818609E-02  0.8095196E-01
       -1   -1    0    0    0  501  0.00000000000E+00  0.00000000000E+00  0.12674907140E+04  0.12674907140E+04  0.50400001928E-02 0.  1.
        1   -1    0    0  501    0  0.00000000000E+00  0.00000000000E+00 -0.25272463249E+04  0.25272463249E+04  0.50400001928E-02 0. -1.
    10030    2    1    2    0    0  0.00000000000E+00  0.00000000000E+00 -0.12597556109E+04  0.37947370389E+04  0.35795313932E+04 0.  0.
        2    1    3    3  502    0  0.13428559656E+04 -0.57834192485E+03 -0.17241774472E+04  0.22606480035E+04  0.25500000920E-02 0. -1.
       -2    1    3    3    0  502 -0.13428559656E+04  0.57834192485E+03  0.46442183635E+03  0.15340890353E+04  0.25500000920E-02 0.  1.
</event>
<event>
 5   0  0.3880259E-07  0.3588689E+04  0.7818609E-02  0.8093088E-01
        2   -1    0    0  501    0  0.00000000000E+00  0.00000000000E+00  0.16522394540E+04  0.16522394540E+04  0.25500000920E-02 0. -1.
       -2   -1    0    0    0  501  0.00000000000E+00  0.00000000000E+00 -0.19486712237E+04  0.19486712237E+04  0.25500000920E-02 0.  1.
    10030    2    1    2    0    0  0.00000000000E+00  0.00000000000E+00 -0.29643176969E+03  0.36009106777E+04  0.35886886066E+04 0.  0.
        5    1    3    3  502    0 -0.10654950769E+04 -0.14414645394E+04 -0.67010591031E+02  0.17937704108E+04  0.46999998093E+01 0.  1.
       -5    1    3    3    0  502  0.10654950769E+04  0.14414645394E+04 -0.22942117866E+03  0.18071402670E+04  0.46999998093E+01 0. -1.
</event>
<event>
 5   0  0.4200635E-07  0.3594397E+04  0.7818609E-02  0.8091776E-01
        2   -1    0    0  501    0  0.00000000000E+00  0.00000000000E+00  0.15136059051E+04  0.15136059051E+04  0.25500000920E-02 0.  1.
       -2   -1    0    0    0  501  0.00000000000E+00  0.00000000000E+00 -0.21339254162E+04  0.21339254162E+04  0.25500000920E-02 0. -1.
    10030    2    1    2    0    0  0.00000000000E+00  0.00000000000E+00 -0.62031951113E+03  0.36475313213E+04  0.35943968122E+04 0.  0.
        4    1    3    3  502    0 -0.89059908489E+03  0.11508537173E+04 -0.13804015977E+04  0.20057769548E+04  0.12699999809E+01 0. -1.
       -4    1    3    3    0  502  0.89059908489E+03 -0.11508537173E+04  0.76008208655E+03  0.16417543665E+04  0.12699999809E+01 0.  1.
</event>
<event>
 5   0  0.1370997E-07  0.3550997E+04  0.7818609E-02  0.8101810E-01
       -1   -1    0    0    0  501  0.00000000000E+00  0.00000000000E+00  0.13451525755E+04  0.13451525756E+04  0.50400001928E-02 0.  1.
        1   -1    0    0  501    0  0.00000000000E+00  0.00000000000E+00 -0.23435222370E+04  0.23435222370E+04  0.50400001928E-02 0. -1.
    10030    2    1    2    0    0  0.00000000000E+00  0.00000000000E+00 -0.99836966142E+03  0.36886748125E+04  0.35509970278E+04 0.  0.
        3    1    3    3  502    0 -0.82999884544E+03 -0.38133484596E+03 -0.20807399381E+04  0.22723980832E+04  0.10100000352E+00 0. -1.
       -3    1    3    3    0  502  0.82999884544E+03  0.38133484596E+03  0.10823702767E+04  0.14162767294E+04  0.10100000352E+00 0.  1.
</event>
<event>
 5   0  0.1298250E-07  0.3616918E+04  0.7818609E-02  0.8086627E-01
       -1   -1    0    0    0  501  0.00000000000E+00  0.00000000000E+00  0.17641444142E+04  0.17641444142E+04  0.50400001928E-02 0. -1.
        1   -1    0    0  501    0  0.00000000000E+00  0.00000000000E+00 -0.18538864387E+04  0.18538864387E+04  0.50400001928E-02 0.  1.
    10030    2    1    2    0    0  0.00000000000E+00  0.00000000000E+00 -0.89742024492E+02  0.36180308530E+04  0.36169176963E+04 0.  0.
        2    1    3    3  502    0 -0.92028623281E+03 -0.66672644097E+02 -0.16007118453E+04  0.18476066690E+04  0.25500000920E-02 0.  1.
       -2    1    3    3    0  502  0.92028623281E+03  0.66672644097E+02  0.15109698208E+04  0.17704241840E+04  0.25500000920E-02 0. -1.
</event>
<event>
 5   0  0.4200635E-07  0.3603039E+04  0.7818609E-02  0.8089796E-01
       -2   -1    0    0    0  501  0.00000000000E+00  0.00000000000E+00  0.17069479434E+04  0.17069479434E+04  0.25500000920E-02 0. -1.
        2   -1    0    0  501    0  0.00000000000E+00  0.00000000000E+00 -0.19013310265E+04  0.19013310265E+04  0.25500000920E-02 0.  1.
    10030    2    1    2    0    0  0.00000000000E+00  0.00000000000E+00 -0.19438308316E+03  0.36082789699E+04  0.36030393200E+04 0.  0.
        4    1    3    3  502    0 -0.15071165300E+03  0.17609453236E+04  0.25235620924E+03  0.17853088540E+04  0.12699999809E+01 0.  1.
       -4    1    3    3    0  502  0.15071165300E+03 -0.17609453236E+04 -0.44673929240E+03  0.18229701159E+04  0.12699999809E+01 0. -1.
</event>
<event>
 5   0  0.1298250E-07  0.3603369E+04  0.7818609E-02  0.8089720E-01
       -1   -1    0    0    0  501  0.00000000000E+00  0.00000000000E+00  0.20901372382E+04  0.20901372382E+04  0.50400001928E-02 0. -1.
        1   -1    0    0  501    0  0.00000000000E+00  0.00000000000E+00 -0.15530400956E+04  0.15530400956E+04  0.50400001928E-02 0.  1.
    10030    2    1    2    0    0  0.00000000000E+00  0.00000000000E+00  0.53709714260E+03  0.36431773339E+04  0.36033689438E+04 0.  0.
        1    1    3    3  502    0  0.80003685605E+03  0.13792305874E+04 -0.57960580359E+03  0.16965491068E+04  0.50400001928E-02 0.  1.
       -1    1    3    3    0  502 -0.80003685605E+03 -0.13792305874E+04  0.11167029462E+04  0.19466282270E+04  0.50400001928E-02 0. -1.
</event>
<event>
 5   0  0.3993751E-07  0.3577966E+04  0.7818609E-02  0.8095557E-01
        2   -1    0    0  501    0  0.00000000000E+00  0.00000000000E+00  0.26535013038E+04  0.26535013038E+04  0.25500000920E-02 0. -1.
       -2   -1    0    0    0  501  0.00000000000E+00  0.00000000000E+00 -0.12061275374E+04  0.12061275374E+04  0.25500000920E-02 0.  1.
    10030    2    1    2    0    0  0.00000000000E+00  0.00000000000E+00  0.14473737664E+04  0.38596288412E+04  0.35779664576E+04 0.  0.
        1    1    3    3  502    0 -0.63979671698E+03 -0.12755359367E+04 -0.44019759067E+03  0.14933538374E+04  0.50400001928E-02 0.  1.
       -1    1    3    3    0  502  0.63979671698E+03  0.12755359367E+04  0.18875713571E+04  0.23662750037E+04  0.50400001928E-02 0. -1.
</event>
<event>
 5   0  0.1298250E-07  0.3531552E+04  0.7818609E-02  0.8106353E-01
        1   -1    0    0  501    0  0.00000000000E+00  0.00000000000E+00  0.12026057609E+04  0.12026057609E+04  0.50400001928E-02 0.  1.
       -1   -1    0    0    0  501  0.00000000000E+00  0.00000000000E+00 -0.25926742392E+04  0.25926742392E+04  0.50400001928E-02 0. -1.
    10030    2    1    2    0    0  0.00000000000E+00  0.00000000000E+00 -0.13900684783E+04  0.37952800002E+04  0.35315520533E+04 0.  0.
        1    1    3    3  502    0  0.15564886359E+04  0.70591840866E+03 -0.21805736086E+03  0.17229412892E+04  0.50400001928E-02 0.  1.
       -1    1    3    3    0  502 -0.15564886359E+04 -0.70591840866E+03 -0.11720111174E+04  0.20723387109E+04  0.50400001928E-02 0. -1.
</event>
<event>
 5   0  0.1298250E-07  0.3509761E+04  0.7818609E-02  0.8111481E-01
       -1   -1    0    0    0  501  0.00000000000E+00  0.00000000000E+00  0.16586287948E+04  0.16586287948E+04  0.50400001928E-02 0.  1.
        1   -1    0    0  501    0  0.00000000000E+00  0.00000000000E+00 -0.18567176497E+04  0.18567176497E+04  0.50400001928E-02 0. -1.
    10030    2    1    2    0    0  0.00000000000E+00  0.00000000000E+00 -0.19808885491E+03  0.35153464445E+04  0.35097608794E+04 0.  0.
        1    1    3    3  502    0  0.85765472414E+03 -0.34884328820E+03 -0.15921690564E+04  0.18418104055E+04  0.50400001928E-02 0. -1.
       -1    1    3    3    0  502 -0.85765472414E+03  0.34884328820E+03  0.13940802015E+04  0.16735360390E+04  0.50400001928E-02 0.  1.
</event>
<event>
 5   0  0.4115358E-07  0.3633529E+04  0.7818609E-02  0.8082854E-01
        2   -1    0    0  501    0  0.00000000000E+00  0.00000000000E+00  0.20847414923E+04  0.20847414923E+04  0.25500000920E-02 0. -1.
       -2   -1    0    0    0  501  0.00000000000E+00  0.00000000000E+00 -0.15832338554E+04  0.15832338554E+04  0.25500000920E-02 0.  1.
    10030    2    1    2    0    0  0.00000000000E+00  0.00000000000E+00  0.50150763683E+03  0.36679753477E+04  0.36335290341E+04 0.  0.
        3    1    3    3  502    0  0.19476433253E+03  0.11350394369E+04  0.16692029450E+04  0.20279265644E+04  0.10100000352E+00 0. -1.
       -3    1    3    3    0  502 -0.19476433253E+03 -0.11350394369E+04 -0.11676953082E+04  0.16400487833E+04  0.10100000352E+00 0.  1.
</event>
<event>
 5   0  0.1298250E-07  0.3593367E+04  0.7818609E-02  0.8092013E-01
        3   -1    0    0  501    0  0.00000000000E+00  0.00000000000E+00  0.17147463235E+04  0.17147463265E+04  0.10100000352E+00 0.  1.
       -3   -1    0    0    0  501  0.00000000000E+00  0.00000000000E+00 -0.18825354244E+04  0.18825354271E+04  0.10100000352E+00 0. -1.
    10030    2    1    2    0    0  0.00000000000E+00  0.00000000000E+00 -0.16778910087E+03  0.35972817535E+04  0.35933665040E+04 0.  0.
        4    1    3    3  502    0 -0.56888574591E+03  0.87323001283E+03  0.13812257644E+04  0.17303028268E+04  0.12699999809E+01 0.  1.
       -4    1    3    3    0  502  0.56888574591E+03 -0.87323001283E+03 -0.15490148653E+04  0.18669789268E+04  0.12699999809E+01 0. -1.
</event>
<event>
 5   0  0.4115358E-07  0.3604667E+04  0.7818609E-02  0.8089423E-01
        2   -1    0    0  501    0  0.00000000000E+00  0.00000000000E+00  0.24382936614E+04  0.24382936614E+04  0.25500000920E-02 0. -1.
       -2   -1    0    0    0  501  0.00000000000E+00  0.00000000000E+00 -0.13322458672E+04  0.13322458672E+04  0.25500000920E-02 0.  1.
    10030    2    1    2    0    0  0.00000000000E+00  0.00000000000E+00  0.11060477942E+04  0.37705395286E+04  0.36046673374E+04 0.  0.
        3    1    3    3  502    0  0.94121959087E+03  0.57228317734E+03 -0.93915526638E+03  0.14475548272E+04  0.10100000352E+00 0.  1.
       -3    1    3    3    0  502 -0.94121959087E+03 -0.57228317734E+03  0.20452030606E+04  0.23229847013E+04  0.10100000352E+00 0. -1.
</event>
<event>
 5   0  0.4200635E-07  0.3604530E+04  0.7818609E-02  0.8089455E-01
        2   -1    0    0  501    0  0.00000000000E+00  0.00000000000E+00  0.18528872937E+04  0.18528872937E+04  0.25500000920E-02 0. -1.
       -2   -1    0    0    0  501  0.00000000000E+00  0.00000000000E+00 -0.17530261681E+04  0.17530261681E+04  0.25500000920E-02 0.  1.
    10030    2    1    2    0    0  0.00000000000E+00  0.00000000000E+00  0.99861125619E+02  0.36059134618E+04  0.36045304340E+04 0.  0.
        4    1    3    3  502    0  0.17352269742E+04 -0.27110513402E+03  0.45461965129E+03  0.18141640736E+04  0.12699999809E+01 0. -1.
       -4    1    3    3    0  502 -0.17352269742E+04  0.27110513402E+03 -0.35475852567E+03  0.17917493882E+04  0.12699999809E+01 0.  1.
</event>
<event>
 5   0  0.4115358E-07  0.3599063E+04  0.7818609E-02  0.8090706E-01
        2   -1    0    0  501    0  0.00000000000E+00  0.00000000000E+00  0.19213455505E+04  0.19213455505E+04  0.25500000920E-02 0.  1.
       -2   -1    0    0    0  501  0.00000000000E+00  0.00000000000E+00 -0.16854407597E+04  0.16854407597E+04  0.25500000920E-02 0. -1.
    10030    2    1    2    0    0  0.00000000000E+00  0.00000000000E+00  0.23590479087E+03  0.36067863102E+04  0.35990632694E+04 0.  0.
        3    1    3    3  502    0  0.34967272688E+03 -0.46403483912E+03  0.18247555727E+04  0.19150280045E+04  0.10100000352E+00 0.  1.
       -3    1    3    3    0  502 -0.34967272688E+03  0.46403483912E+03 -0.15888507818E+04  0.16917583057E+04  0.10100000352E+00 0. -1.
</event>
<event>
 5   0  0.3993751E-07  0.3573301E+04  0.7818609E-02  0.8096635E-01
       -2   -1    0    0    0  501  0.00000000000E+00  0.00000000000E+00  0.17337612590E+04  0.17337612590E+04  0.25500000920E-02 0.  1.
        2   -1    0    0  501    0  0.00000000000E+00  0.00000000000E+00 -0.18411529926E+04  0.18411529926E+04  0.25500000920E-02 0. -1.
    10030    2    1    2    0    0  0.00000000000E+00  0.00000000000E+00 -0.10739173363E+03  0.35749142516E+04  0.35733008440E+04 0.  0.
        1    1    3    3  502    0  0.15532095811E+04 -0.84771048323E+03 -0.30088365759E+03  0.17948827376E+04  0.50400001928E-02 0.  1.
       -1    1    3    3    0  502 -0.15532095811E+04  0.84771048323E+03  0.19349192396E+03  0.17800315140E+04  0.50400001928E-02 0. -1.
</event>
<event>
 5   0  0.1298250E-07  0.3616963E+04  0.7818609E-02  0.8086617E-01
        1   -1    0    0  501    0  0.00000000000E+00  0.00000000000E+00  0.30253627783E+04  0.30253627783E+04  0.50400001928E-02 0.  1.
       -1   -1    0    0    0  501  0.00000000000E+00  0.00000000000E+00 -0.10810623099E+04  0.10810623099E+04  0.50400001928E-02 0. -1.
    10030    2    1    2    0    0  0.00000000000E+00  0.00000000000E+00  0.19443004684E+04  0.41064250882E+04  0.36169631866E+04 0.  0.
        2    1    3    3  502    0 -0.40273587690E+03 -0.48004037706E+03 -0.95387956365E+03  0.11412804967E+04  0.25500000920E-02 0. -1.
       -2    1    3    3    0  502  0.40273587690E+03  0.48004037706E+03  0.28981800321E+04  0.29651445915E+04  0.25500000920E-02 0.  1.
</event>
<event>
 5   0  0.1348226E-07  0.3581806E+04  0.7818609E-02  0.8094672E-01
        1   -1    0    0  501    0  0.00000000000E+00  0.00000000000E+00  0.26753729450E+04  0.26753729450E+04  0.50400001928E-02 0. -1.
       -1   -1    0    0    0  501  0.00000000000E+00  0.00000000000E+00 -0.11988362199E+04  0.11988362199E+04  0.50400001928E-02 0.  1.
    10030    2    1    2    0    0  0.00000000000E+00  0.00000000000E+00  0.14765367250E+04  0.38742091649E+04  0.35818062417E+04 0.  0.
        4    1    3    3  502    0  0.13571268222E+04  0.78880729348E+03  0.16708127920E+04  0.22925154648E+04  0.12699999809E+01 0. -1.
       -4    1    3    3    0  502 -0.13571268222E+04 -0.78880729348E+03 -0.19427606692E+03  0.15816937001E+04  0.12699999809E+01 0.  1.
</event>
<event>
 5   0  0.3880259E-07  0.3465895E+04  0.7818609E-02  0.8121920E-01
       -2   -1    0    0    0  501  0.00000000000E+00  0.00000000000E+00  0.14225268128E+04  0.14225268128E+04  0.25500000920E-02 0. -1.
        2   -1    0    0  501    0  0.00000000000E+00  0.00000000000E+00 -0.21111073877E+04  0.21111073877E+04  0.25500000920E-02 0.  1.
    10030    2    1    2    0    0  0.00000000000E+00  0.00000000000E+00 -0.68858057485E+03  0.35336342005E+04  0.34658948996E+04 0.  0.
        5    1    3    3  502    0  0.18972493558E+03 -0.55038929737E+03  0.13198365372E+04  0.14425375228E+04  0.46999998093E+01 0. -1.
       -5    1    3    3    0  502 -0.18972493558E+03  0.55038929737E+03 -0.20084171120E+04  0.20910966777E+04  0.46999998093E+01 0.  1.
</event>
<event>
 5   0  0.1298250E-07  0.3592940E+04  0.7818609E-02  0.8092111E-01
       -1   -1    0    0    0  501  0.00000000000E+00  0.00000000000E+00  0.21958966726E+04  0.21958966726E+04  0.50400001928E-02 0.  1.
        1   -1    0    0  501    0  0.00000000000E+00  0.00000000000E+00 -0.14696976616E+04  0.14696976616E+04  0.50400001928E-02 0. -1.
    10030    2    1    2    0    0  0.00000000000E+00  0.00000000000E+00  0.72619901093E+03  0.36655943342E+04  0.35929398575E+04 0.  0.
        1    1    3    3  502    0 -0.33052257486E+03 -0.10547926282E+04  0.18078827787E+04  0.21190263808E+04  0.50400001928E-02 0.  1.
       -1    1    3    3    0  502  0.33052257486E+03  0.10547926282E+04 -0.10816837678E+04  0.15465679534E+04  0.50400001928E-02 0. -1.
</event>
<event>
 5   0  0.1348226E-07  0.3592813E+04  0.7818609E-02  0.8092140E-01
       -1   -1    0    0    0  501  0.00000000000E+00  0.00000000000E+00  0.22912847595E+04  0.22912847595E+04  0.50400001928E-02 0. -1.
        1   -1    0    0  501    0  0.00000000000E+00  0.00000000000E+00 -0.14084133417E+04  0.14084133417E+04  0.50400001928E-02 0.  1.
    10030    2    1    2    0    0  0.00000000000E+00  0.00000000000E+00  0.88287141782E+03  0.36996981013E+04  0.35928128396E+04 0.  0.
        4    1    3    3  502    0 -0.43975298194E+03  0.52774075134E+03 -0.12678190338E+04  0.14419638349E+04  0.12699999809E+01 0.  1.
       -4    1    3    3    0  502  0.43975298194E+03 -0.52774075134E+03  0.21506904516E+04  0.22577342664E+04  0.12699999809E+01 0. -1.
</event>
<event>
 5   0  0.1361743E-07  0.3585174E+04  0.7818609E-02  0.8093896E-01
       -1   -1    0    0    0  501  0.00000000000E+00  0.00000000000E+00  0.17262180519E+04  0.17262180519E+04  0.50400001928E-02 0.  1.
        1   -1    0    0  501    0  0.00000000000E+00  0.00000000000E+00 -0.18615078501E+04  0.18615078501E+04  0.50400001928E-02 0. -1.
    10030    2    1    2    0    0  0.00000000000E+00  0.00000000000E+00 -0.13528979820E+03  0.35877259020E+04  0.35851741685E+04 0.  0.
        5    1    3    3  502    0  0.16004812499E+04 -0.37587491230E+03  0.64737340098E+03  0.17669002777E+04  0.46999998093E+01 0.  1.
       -5    1    3    3    0  502 -0.16004812499E+04  0.37587491230E+03 -0.78266319919E+03  0.18208256244E+04  0.46999998093E+01 0. -1.
</event>
<event>
 5   0  0.4200635E-07  0.3198470E+04  0.7818609E-02  0.8189221E-01
       -2   -1    0    0    0  501  0.00000000000E+00  0.00000000000E+00  0.13270244719E+04  0.13270244719E+04  0.25500000920E-02 0.  1.
        2   -1    0    0  501    0  0.00000000000E+00  0.00000000000E+00 -0.19272834593E+04  0.19272834593E+04  0.25500000920E-02 0. -1.
    10030    2    1    2    0    0  0.00000000000E+00  0.00000000000E+00 -0.60025898740E+03  0.32543079313E+04  0.31984698309E+04 0.  0.
        4    1    3    3  502    0  0.12024593898E+04 -0.10541899731E+04 -0.31848941929E+03  0.16305404646E+04  0.12699999809E+01 0.  1.
       -4    1    3    3    0  502 -0.12024593898E+04  0.10541899731E+04 -0.28176956811E+03  0.16237674667E+04  0.12699999809E+01 0. -1.
</event>
<event>
 5   0  0.1298250E-07  0.3163018E+04  0.7818609E-02  0.8198653E-01
        1   -1    0    0  501    0  0.00000000000E+00  0.00000000000E+00  0.21626513869E+04  0.21626513869E+04  0.50400001928E-02 0. -1.
       -1   -1    0    0    0  501  0.00000000000E+00  0.00000000000E+00 -0.11565298876E+04  0.11565298876E+04  0.50400001928E-02 0.  1.
    10030    2    1    2    0    0  0.00000000000E+00  0.00000000000E+00  0.10061214993E+04  0.33191812745E+04  0.31630181570E+04 0.  0.
        1    1    3    3  502    0  0.59154232947E+02 -0.13792337036E+04 -0.30664764982E+03  0.14141490776E+04  0.50400001928E-02 0. -1.
       -1    1    3    3    0  502 -0.59154232947E+02  0.13792337036E+04  0.13127691491E+04  0.19050321969E+04  0.50400001928E-02 0.  1.
</event>
<event>
 5   0  0.4120440E-07  0.3536267E+04  0.7818609E-02  0.8105248E-01
        2   -1    0    0  501    0  0.00000000000E+00  0.00000000000E+00  0.18415209470E+04  0.18415209470E+04  0.25500000920E-02 0. -1.
       -2   -1    0    0    0  501  0.00000000000E+00  0.00000000000E+00 -0.16976710328E+04  0.16976710329E+04  0.25500000920E-02 0.  1.
    10030    2    1    2    0    0  0.00000000000E+00  0.00000000000E+00  0.14384991417E+03  0.35391919799E+04  0.35362673927E+04 0.  0.
        2    1    3    3  502    0 -0.16052290401E+04  0.70499014494E+03 -0.15744877331E+03  0.17602731299E+04  0.25500000920E-02 0.  1.
       -2    1    3    3    0  502  0.16052290401E+04 -0.70499014494E+03  0.30129868748E+03  0.17789188500E+04  0.25500000920E-02 0. -1.
</event>
<event>
 5   0  0.3880259E-07  0.3557816E+04  0.7818609E-02  0.8100223E-01
        2   -1    0    0  501    0  0.00000000000E+00  0.00000000000E+00  0.25286555851E+04  0.25286555851E+04  0.25500000920E-02 0. -1.
       -2   -1    0    0    0  501  0.00000000000E+00  0.00000000000E+00 -0.12514610922E+04  0.12514610922E+04  0.25500000920E-02 0.  1.
    10030    2    1    2    0    0  0.00000000000E+00  0.00000000000E+00  0.12771944929E+04  0.37801166774E+04  0.35578162293E+04 0.  0.
        5    1    3    3  502    0  0.16513606371E+04  0.19512657054E+02 -0.63862885202E+02  0.16527169315E+04  0.46999998093E+01 0. -1.
       -5    1    3    3    0  502 -0.16513606371E+04 -0.19512657054E+02  0.13410573781E+04  0.21273997459E+04  0.46999998093E+01 0.  1.
</event>
<event>
 5   0  0.1370997E-07  0.3579145E+04  0.7818609E-02  0.8095286E-01
       -1   -1    0    0    0  501  0.00000000000E+00  0.00000000000E+00  0.10045993878E+04  0.10045993878E+04  0.50400001928E-02 0.  1.
        1   -1    0    0  501    0  0.00000000000E+00  0.00000000000E+00 -0.31879071546E+04  0.31879071546E+04  0.50400001928E-02 0. -1.
    10030    2    1    2    0    0  0.00000000000E+00  0.00000000000E+00 -0.21833077668E+04  0.41925065424E+04  0.35791449123E+04 0.  0.
        3    1    3    3  502    0  0.66887076857E+03  0.84191314119E+03 -0.27673137986E+04  0.29688771468E+04  0.10100000352E+00 0. -1.
       -3    1    3    3    0  502 -0.66887076857E+03 -0.84191314119E+03  0.58400603182E+03  0.12236293956E+04  0.10100000352E+00 0.  1.
</event>
<event>
 5   0  0.1361743E-07  0.3620400E+04  0.7818609E-02  0.8085835E-01
        1   -1    0    0  501    0  0.00000000000E+00  0.00000000000E+00  0.22652162414E+04  0.22652162414E+04  0.50400001928E-02 0.  1.
       -1   -1    0    0    0  501  0.00000000000E+00  0.00000000000E+00 -0.14465832528E+04  0.14465832528E+04  0.50400001928E-02 0. -1.
    10030    2    1    2    0    0  0.00000000000E+00  0.00000000000E+00  0.81863298857E+03  0.37117994942E+04  0.36203999110E+04 0.  0.
        5    1    3    3  502    0 -0.66130880454E+03 -0.18903523534E+03 -0.13073925175E+04  0.14772816049E+04  0.46999998093E+01 0. -1.
       -5    1    3    3    0  502  0.66130880454E+03  0.18903523534E+03  0.21260255061E+04  0.22345178893E+04  0.46999998093E+01 0.  1.
</event>
<event>
 5   0  0.4120440E-07  0.3456278E+04  0.7818609E-02  0.8124230E-01
        2   -1    0    0  501    0  0.00000000000E+00  0.00000000000E+00  0.16091747592E+04  0.16091747592E+04  0.25500000920E-02 0.  1.
       -2   -1    0    0    0  501  0.00000000000E+00  0.00000000000E+00 -0.18558984357E+04  0.18558984357E+04  0.25500000920E-02 0. -1.
    10030    2    1    2    0    0  0.00000000000E+00  0.00000000000E+00 -0.24672367654E+03  0.34650731949E+04  0.34562782980E+04 0.  0.
        2    1    3    3  502    0 -0.46525033387E+03  0.72881558779E+03 -0.16234429445E+04  0.18393469027E+04  0.25500000920E-02 0. -1.
       -2    1    3    3    0  502  0.46525033387E+03 -0.72881558779E+03  0.13767192680E+04  0.16257262922E+04  0.25500000920E-02 0.  1.
</event>
<event>
 5   0  0.1348226E-07  0.3618789E+04  0.7818609E-02  0.8086201E-01
       -1   -1    0    0    0  501  0.00000000000E+00  0.00000000000E+00  0.22492837919E+04  0.22492837919E+04  0.50400001928E-02 0.  1.
        1   -1    0    0  501    0  0.00000000000E+00  0.00000000000E+00 -0.14555335017E+04  0.14555335017E+04  0.50400001928E-02 0. -1.
    10030    2    1    2    0    0  0.00000000000E+00  0.00000000000E+00  0.79375029026E+03  0.37048172936E+04  0.36187887001E+04 0.  0.
        4    1    3    3  502    0 -0.15604791819E+04 -0.50601866525E+03 -0.38465727156E+03  0.16849667641E+04  0.12699999809E+01 0. -1.
       -4    1    3    3    0  502  0.15604791819E+04  0.50601866525E+03  0.11784075618E+04  0.20198505295E+04  0.12699999809E+01 0.  1.
</event>
<event>
 5   0  0.4115358E-07  0.3581777E+04  0.7818609E-02  0.8094679E-01
       -2   -1    0    0    0  501  0.00000000000E+00  0.00000000000E+00  0.13583828261E+04  0.13583828261E+04  0.25500000920E-02 0. -1.
        2   -1    0    0  501    0  0.00000000000E+00  0.00000000000E+00 -0.23611034894E+04  0.23611034894E+04  0.25500000920E-02 0.  1.
    10030    2    1    2    0    0  0.00000000000E+00  0.00000000000E+00 -0.10027206633E+04  0.37194863155E+04  0.35817774530E+04 0.  0.
        3    1    3    3  502    0  0.25649832709E+03  0.46152595256E+03  0.12757150717E+04  0.13806688781E+04  0.10100000352E+00 0. -1.
       -3    1    3    3    0  502 -0.25649832709E+03 -0.46152595256E+03 -0.22784357350E+04  0.23388174374E+04  0.10100000352E+00 0.  1.
</event>
<event>
 5   0  0.3880259E-07  0.3585428E+04  0.7818609E-02  0.8093838E-01
        2   -1    0    0  501    0  0.00000000000E+00  0.00000000000E+00  0.17836562249E+04  0.17836562249E+04  0.25500000920E-02 0. -1.
       -2   -1    0    0    0  501  0.00000000000E+00  0.00000000000E+00 -0.18018179115E+04  0.18018179115E+04  0.25500000920E-02 0.  1.
    10030    2    1    2    0    0  0.00000000000E+00  0.00000000000E+00 -0.18161686663E+02  0.35854741364E+04  0.35854281384E+04 0.  0.
        5    1    3    3  502    0 -0.49597402315E+03  0.17209259565E+04 -0.87982200766E+02  0.17931367313E+04  0.46999998093E+01 0. -1.
       -5    1    3    3    0  502  0.49597402315E+03 -0.17209259565E+04  0.69820514104E+02  0.17923374051E+04  0.46999998093E+01 0.  1.
</event>
<event>
 5   0  0.3993751E-07  0.3607075E+04  0.7818609E-02  0.8088873E-01
       -2   -1    0    0    0  501  0.00000000000E+00  0.00000000000E+00  0.11491837300E+04  0.11491837300E+04  0.25500000920E-02 0. -1.
        2   -1    0    0  501    0  0.00000000000E+00  0.00000000000E+00 -0.28304846627E+04  0.28304846627E+04  0.25500000920E-02 0.  1.
    10030    2    1    2    0    0  0.00000000000E+00  0.00000000000E+00 -0.16813009327E+04  0.39796683927E+04  0.36070746720E+04 0.  0.
        1    1    3    3  502    0  0.23558643273E+03  0.17831377219E+04 -0.69400837358E+03  0.19278819272E+04  0.50400001928E-02 0. -1.
       -1    1    3    3    0  502 -0.23558643273E+03 -0.17831377219E+04 -0.98729255917E+03  0.20517864655E+04  0.50400001928E-02 0.  1.
</event>
<event>
 5   0  0.1348226E-07  0.3600685E+04  0.7818609E-02  0.8090335E-01
        1   -1    0    0  501    0  0.00000000000E+00  0.00000000000E+00  0.12009414922E+04  0.12009414922E+04  0.50400001928E-02 0.  1.
       -1   -1    0    0    0  501  0.00000000000E+00  0.00000000000E+00 -0.26989093738E+04  0.26989093738E+04  0.50400001928E-02 0. -1.
    10030    2    1    2    0    0  0.00000000000E+00  0.00000000000E+00 -0.14979678815E+04  0.38998508660E+04  0.36006845187E+04 0.  0.
        4    1    3    3  502    0 -0.41171833735E+03  0.17496504408E+04 -0.85966018895E+03  0.19924371779E+04  0.12699999809E+01 0. -1.
       -4    1    3    3    0  502  0.41171833735E+03 -0.17496504408E+04 -0.63830769257E+03  0.19074136881E+04  0.12699999809E+01 0.  1.
</event>
<event>
 5   0  0.3993751E-07  0.3633046E+04  0.7818609E-02  0.8082964E-01
        2   -1    0    0  501    0  0.00000000000E+00  0.00000000000E+00  0.11176372423E+04  0.11176372423E+04  0.25500000920E-02 0.  1.
       -2   -1    0    0    0  501  0.00000000000E+00  0.00000000000E+00 -0.29524396754E+04  0.29524396754E+04  0.25500000920E-02 0. -1.
    10030    2    1    2    0    0  0.00000000000E+00  0.00000000000E+00 -0.18348024332E+04  0.40700769177E+04  0.36330464004E+04 0.  0.
        1    1    3    3  502    0  0.11542907482E+04 -0.14020151768E+04 -0.96390147245E+03  0.20560009085E+04  0.50400001928E-02 0.  1.
       -1    1    3    3    0  502 -0.11542907482E+04  0.14020151768E+04 -0.87090096072E+03  0.20140760092E+04  0.50400001928E-02 0. -1.
</event>
<event>
 5   0  0.1298250E-07  0.3599479E+04  0.7818609E-02  0.8090611E-01
        1   -1    0    0  501    0  0.00000000000E+00  0.00000000000E+00  0.26761266474E+04  0.26761266474E+04  0.50400001928E-02 0.  1.
       -1   -1    0    0    0  501  0.00000000000E+00  0.00000000000E+00 -0.12103544545E+04  0.12103544546E+04  0.50400001928E-02 0. -1.
    10030    2    1    2    0    0  0.00000000000E+00  0.00000000000E+00  0.14657721929E+04  0.38864811019E+04  0.35994787448E+04 0.  0.
        1    1    3    3  502    0 -0.34313729074E+03 -0.36668172054E+03 -0.11331696233E+04  0.12394644326E+04  0.50400001928E-02 0. -1.
       -1    1    3    3    0  502  0.34313729074E+03  0.36668172054E+03  0.25989418161E+04  0.26470166694E+04  0.50400001928E-02 0.  1.
</event>
<event>
 5   0  0.4200635E-07  0.3636380E+04  0.7818609E-02  0.8082209E-01
        2   -1    0    0  501    0  0.00000000000E+00  0.00000000000E+00  0.20495411135E+04  0.20495411135E+04  0.25500000920E-02 0. -1.
       -2   -1    0    0    0  501  0.00000000000E+00  0.00000000000E+00 -0.16129535538E+04  0.16129535538E+04  0.25500000920E-02 0.  1.
    10030    2    1    2    0    0  0.00000000000E+00  0.00000000000E+00  0.43658755978E+03  0.36624946673E+04  0.36363798606E+04 0.  0.
        4    1    3    3  502    0 -0.10338473802E+04 -0.18098301850E+03 -0.12770291911E+04  0.16529974067E+04  0.12699999809E+01 0.  1.
       -4    1    3    3    0  502  0.10338473802E+04  0.18098301850E+03  0.17136167509E+04  0.20094972606E+04  0.12699999809E+01 0. -1.
</event>
<event>
 5   0  0.1298250E-07  0.3574201E+04  0.7818609E-02  0.8096427E-01
        1   -1    0    0  501    0  0.00000000000E+00  0.00000000000E+00  0.18871997886E+04  0.18871997886E+04  0.50400001928E-02 0.  1.
       -1   -1    0    0    0  501  0.00000000000E+00  0.00000000000E+00 -0.16923108474E+04  0.16923108474E+04  0.50400001928E-02 0. -1.
    10030    2    1    2    0    0  0.00000000000E+00  0.00000000000E+00  0.19488894116E+03  0.35795106360E+04  0.35742012666E+04 0.  0.
        1    1    3    3  502    0 -0.15969255765E+04  0.34937574138E+03 -0.62577364741E+03  0.17503792056E+04  0.50400001928E-02 0. -1.
       -1    1    3    3    0  502  0.15969255765E+04 -0.34937574138E+03  0.82066258857E+03  0.18291314305E+04  0.50400001928E-02 0.  1.
</event>
<event>
 5   0  0.3880259E-07  0.3607833E+04  0.7818609E-02  0.8088700E-01
       -2   -1    0    0    0  501  0.00000000000E+00  0.00000000000E+00  0.11079052914E+04  0.11079052914E+04  0.25500000920E-02 0.  1.
        2   -1    0    0  501    0  0.00000000000E+00  0.00000000000E+00 -0.29371783661E+04  0.29371783661E+04  0.25500000920E-02 0. -1.
    10030    2    1    2    0    0  0.00000000000E+00  0.00000000000E+00 -0.18292730746E+04  0.40450836575E+04  0.36078333962E+04 0.  0.
        5    1    3    3  502    0  0.34932559787E+03  0.66516999511E+03 -0.27534005745E+04  0.28540701304E+04  0.46999998093E+01 0. -1.
       -5    1    3    3    0  502 -0.34932559787E+03 -0.66516999511E+03  0.92412749986E+03  0.11910135271E+04  0.46999998093E+01 0.  1.
</event>
<event>
 5   0  0.3880259E-07  0.3601812E+04  0.7818609E-02  0.8090077E-01
        2   -1    0    0  501    0  0.00000000000E+00  0.00000000000E+00  0.91780050449E+03  0.91780050450E+03  0.25500000920E-02 0.  1.
       -2   -1    0    0    0  501  0.00000000000E+00  0.00000000000E+00 -0.35337338792E+04  0.35337338792E+04  0.25500000920E-02 0. -1.
    10030    2    1    2    0    0  0.00000000000E+00  0.00000000000E+00 -0.26159333747E+04  0.44515343837E+04  0.36018121756E+04 0.  0.
        5    1    3    3  502    0  0.14370355342E+04  0.11585477384E+03 -0.26418090500E+04  0.30095964184E+04  0.46999998093E+01 0. -1.
       -5    1    3    3    0  502 -0.14370355342E+04 -0.11585477384E+03  0.25875675335E+02  0.14419379652E+04  0.46999998093E+01 0.  1.
</event>
<event>
 5   0  0.4120440E-07  0.3558508E+04  0.7818609E-02  0.8100062E-01
        2   -1    0    0  501    0  0.00000000000E+00  0.00000000000E+00  0.13038305633E+04  0.13038305633E+04  0.25500000920E-02 0.  1.
       -2   -1    0    0    0  501  0.00000000000E+00  0.00000000000E+00 -0.24280345690E+04  0.24280345690E+04  0.25500000920E-02 0. -1.
    10030    2    1    2    0    0  0.00000000000E+00  0.00000000000E+00 -0.11242040057E+04  0.37318651323E+04  0.35585084964E+04 0.  0.
        2    1    3    3  502    0  0.12515864146E+04  0.97674886693E+03 -0.14045016241E+04  0.21197008549E+04  0.25500000920E-02 0. -1.
       -2    1    3    3    0  502 -0.12515864146E+04 -0.97674886693E+03  0.28029761843E+03  0.16121642773E+04  0.25500000920E-02 0.  1.
</event>
<event>
 5   0  0.4120440E-07  0.3615077E+04  0.7818609E-02  0.8087047E-01
       -2   -1    0    0    0  501  0.00000000000E+00  0.00000000000E+00  0.13719465874E+04  0.13719465874E+04  0.25500000920E-02 0. -1.
        2   -1    0    0  501    0  0.00000000000E+00  0.00000000000E+00 -0.23814306363E+04  0.23814306363E+04  0.25500000920E-02 0.  1.
    10030    2    1    2    0    0  0.00000000000E+00  0.00000000000E+00 -0.10094840490E+04  0.37533772237E+04  0.36150771138E+04 0.  0.
        2    1    3    3  502    0 -0.16765121035E+04 -0.34498792373E+03  0.98418090704E+02  0.17144665705E+04  0.25500000920E-02 0.  1.
       -2    1    3    3    0  502  0.16765121035E+04  0.34498792373E+03 -0.11079021397E+04  0.20389106532E+04  0.25500000920E-02 0. -1.
</event>
<event>
 5   0  0.3993751E-07  0.3607526E+04  0.7818609E-02  0.8088770E-01
        2   -1    0    0  501    0  0.00000000000E+00  0.00000000000E+00  0.21102978235E+04  0.21102978235E+04  0.25500000920E-02 0.  1.
       -2   -1    0    0    0  501  0.00000000000E+00  0.00000000000E+00 -0.15417547754E+04  0.15417547754E+04  0.25500000920E-02 0. -1.
    10030    2    1    2    0    0  0.00000000000E+00  0.00000000000E+00  0.56854304810E+03  0.36520525990E+04  0.36075264362E+04 0.  0.
        1    1    3    3  502    0  0.14164805888E+04 -0.72641861436E+03  0.11429507867E+04  0.19597034884E+04  0.50400001928E-02 0.  1.
       -1    1    3    3    0  502 -0.14164805888E+04  0.72641861436E+03 -0.57440773857E+03  0.16923491105E+04  0.50400001928E-02 0. -1.
</event>
<event>
 5   0  0.1361743E-07  0.3578006E+04  0.7818609E-02  0.8095548E-01
        1   -1    0    0  501    0  0.00000000000E+00  0.00000000000E+00  0.19177320963E+04  0.19177320963E+04  0.50400001928E-02 0.  1.
       -1   -1    0    0    0  501  0.00000000000E+00  0.00000000000E+00 -0.16689146959E+04  0.16689146959E+04  0.50400001928E-02 0. -1.
    10030    2    1    2    0    0  0.00000000000E+00  0.00000000000E+00  0.24881740041E+03  0.35866467922E+04  0.35780057453E+04 0.  0.
        5    1    3    3  502    0  0.68120182166E+03  0.14069574037E+04 -0.74771781276E+03  0.17328211319E+04  0.46999998093E+01 0. -1.
       -5    1    3    3    0  502 -0.68120182166E+03 -0.14069574037E+04  0.99653521317E+03  0.18538256603E+04  0.46999998093E+01 0.  1.
</event>
<event>
 5   0  0.1370997E-07  0.3600884E+04  0.7818609E-02  0.8090289E-01
        1   -1    0    0  501    0  0.00000000000E+00  0.00000000000E+00  0.19571922182E+04  0.19571922182E+04  0.50400001928E-02 0. -1.
       -1   -1    0    0    0  501  0.00000000000E+00  0.00000000000E+00 -0.16562456316E+04  0.16562456316E+04  0.50400001928E-02 0.  1.
    10030    2    1    2    0    0  0.00000000000E+00  0.00000000000E+00  0.30094658658E+03  0.36134378498E+04  0.36008838146E+04 0.  0.
        3    1    3    3  502    0  0.17028475219E+04  0.18076606576E+02  0.73695472649E+03  0.18555642607E+04  0.10100000352E+00 0. -1.
       -3    1    3    3    0  502 -0.17028475219E+04 -0.18076606576E+02 -0.43600813992E+03  0.17578735890E+04  0.10100000352E+00 0.  1.
</event>
<event>
 5   0  0.4115358E-07  0.3563738E+04  0.7818609E-02  0.8098849E-01
        2   -1    0    0  501    0  0.00000000000E+00  0.00000000000E+00  0.29939110374E+04  0.29939110374E+04  0.25500000920E-02 0.  1.
       -2   -1    0    0    0  501  0.00000000000E+00  0.00000000000E+00 -0.10605050045E+04  0.10605050045E+04  0.25500000920E-02 0. -1.
    10030    2    1    2    0    0  0.00000000000E+00  0.00000000000E+00  0.19334060328E+04  0.40544160419E+04  0.35637382835E+04 0.  0.
        3    1    3    3  502    0 -0.12264914947E+01  0.16983432881E+04  0.35331580647E+03  0.17347055940E+04  0.10100000352E+00 0. -1.
       -3    1    3    3    0  502  0.12264914947E+01 -0.16983432881E+04  0.15800902264E+04  0.23197104479E+04  0.10100000352E+00 0.  1.
</event>
<event>
 5   0  0.1298250E-07  0.3584047E+04  0.7818609E-02  0.8094156E-01
       -1   -1    0    0    0  501  0.00000000000E+00  0.00000000000E+00  0.15953162526E+04  0.15953162526E+04  0.50400001928E-02 0. -1.
        1   -1    0    0  501    0  0.00000000000E+00  0.00000000000E+00 -0.20129853458E+04  0.20129853458E+04  0.50400001928E-02 0.  1.
    10030    2    1    2    0    0  0.00000000000E+00  0.00000000000E+00 -0.41766909319E+03  0.36083015984E+04  0.35840470077E+04 0.  0.
        1    1    3    3  502    0 -0.99285035780E+03 -0.10805867986E+04 -0.12443517244E+04  0.19240142609E+04  0.50400001928E-02 0.  1.
       -1    1    3    3    0  502  0.99285035780E+03  0.10805867986E+04  0.82668263117E+03  0.16842873374E+04  0.50400001928E-02 0. -1.
</event>
<event>
 5   0  0.4120440E-07  0.3599656E+04  0.7818609E-02  0.8090571E-01
       -2   -1    0    0    0  501  0.00000000000E+00  0.00000000000E+00  0.16385849843E+04  0.16385849843E+04  0.25500000920E-02 0. -1.
        2   -1    0    0  501    0  0.00000000000E+00  0.00000000000E+00 -0.19769377725E+04  0.19769377725E+04  0.25500000920E-02 0.  1.
    10030    2    1    2    0    0  0.00000000000E+00  0.00000000000E+00 -0.33835278814E+03  0.36155227568E+04  0.35996558441E+04 0.  0.
        2    1    3    3  502    0  0.12976716574E+04  0.90977871233E+03 -0.10260084569E+04  0.18879466066E+04  0.25500000920E-02 0. -1.
       -2    1    3    3    0  502 -0.12976716574E+04 -0.90977871233E+03  0.68765566880E+03  0.17275761502E+04  0.25500000920E-02 0.  1.
</event>
<event>
 5   0  0.1348226E-07  0.3606748E+04  0.7818609E-02  0.8088948E-01
       -1   -1    0    0    0  501  0.00000000000E+00  0.00000000000E+00  0.14153968088E+04  0.14153968088E+04  0.50400001928E-02 0. -1.
        1   -1    0    0  501    0  0.00000000000E+00  0.00000000000E+00 -0.22977003290E+04  0.22977003290E+04  0.50400001928E-02 0.  1.
    10030    2    1    2    0    0  0.00000000000E+00  0.00000000000E+00 -0.88230352023E+03  0.37130971378E+04  0.36067479608E+04 0.  0.
        4    1    3    3  502    0  0.38748473852E+03 -0.13842968318E+04  0.67987026399E+03  0.15901721070E+04  0.12699999809E+01 0. -1.
       -4    1    3    3    0  502 -0.38748473852E+03  0.13842968318E+04 -0.15621737842E+04  0.21229250308E+04  0.12699999809E+01 0.  1.
</event>
<event>
 5   0  0.1298250E-07  0.3618924E+04  0.7818609E-02  0.8086171E-01
       -1   -1    0    0    0  501  0.00000000000E+00  0.00000000000E+00  0.12633711878E+04  0.12633711878E+04  0.50400001928E-02 0. -1.
        1   -1    0    0  501    0  0.00000000000E+00  0.00000000000E+00 -0.25915993431E+04  0.25915993431E+04  0.50400001928E-02 0.  1.
    10030    2    1    2    0    0  0.00000000000E+00  0.00000000000E+00 -0.13282281553E+04  0.38549705309E+04  0.36189235639E+04 0.  0.
        1    1    3    3  502    0 -0.99634577188E+02 -0.77474673868E+03  0.10745198149E+04  0.13284398333E+04  0.50400001928E-02 0. -1.
       -1    1    3    3    0  502  0.99634577188E+02  0.77474673868E+03 -0.24027479701E+04  0.25265306976E+04  0.50400001928E-02 0.  1.
</event>
<event>
 5   0  0.1298250E-07  0.3602702E+04  0.7818609E-02  0.8089873E-01
       -1   -1    0    0    0  501  0.00000000000E+00  0.00000000000E+00  0.12285841688E+04  0.12285841688E+04  0.50400001928E-02 0. -1.
        1   -1    0    0  501    0  0.00000000000E+00  0.00000000000E+00 -0.26411414257E+04  0.26411414257E+04  0.50400001928E-02 0.  1.
    10030    2    1    2    0    0  0.00000000000E+00  0.00000000000E+00 -0.14125572570E+04  0.38697255945E+04  0.36027015103E+04 0.  0.
        2    1    3    3  502    0  0.74313575811E+03  0.11304443539E+04  0.57129371094E+03  0.14685134308E+04  0.25500000920E-02 0. -1.
       -2    1    3    3    0  502 -0.74313575811E+03 -0.11304443539E+04 -0.19838509679E+04  0.24012121637E+04  0.25500000920E-02 0.  1.
</event>
<event>
 5   0  0.1361743E-07  0.3546099E+04  0.7818609E-02  0.8102951E-01
        1   -1    0    0  501    0  0.00000000000E+00  0.00000000000E+00  0.11429294607E+04  0.11429294607E+04  0.50400001928E-02 0.  1.
       -1   -1    0    0    0  501  0.00000000000E+00  0.00000000000E+00 -0.27505675116E+04  0.27505675116E+04  0.50400001928E-02 0. -1.
    10030    2    1    2    0    0  0.00000000000E+00  0.00000000000E+00 -0.16076380510E+04  0.38934969723E+04  0.35460990638E+04 0.  0.
        5    1    3    3  502    0  0.14077601705E+04  0.40441648145E+03  0.29323614036E+03  0.14937707026E+04  0.46999998093E+01 0. -1.
       -5    1    3    3    0  502 -0.14077601705E+04 -0.40441648145E+03 -0.19008741913E+04  0.23997262697E+04  0.46999998093E+01 0.  1.
</event>
<event>
 5   0  0.4200635E-07  0.3618239E+04  0.7818609E-02  0.8086327E-01
        2   -1    0    0  501    0  0.00000000000E+00  0.00000000000E+00  0.18880618740E+04  0.18880618740E+04  0.25500000920E-02 0. -1.
       -2   -1    0    0    0  501  0.00000000000E+00  0.00000000000E+00 -0.17334777000E+04  0.17334777000E+04  0.25500000920E-02 0.  1.
    10030    2    1    2    0    0  0.00000000000E+00  0.00000000000E+00  0.15458417405E+03  0.36215395740E+04  0.36182388836E+04 0.  0.
        4    1    3    3  502    0 -0.93843219502E+03 -0.70529314030E+03  0.14550717376E+04  0.18695798386E+04  0.12699999809E+01 0. -1.
       -4    1    3    3    0  502  0.93843219502E+03  0.70529314030E+03 -0.13004875636E+04  0.17519597354E+04  0.12699999809E+01 0.  1.
</event>
<event>
 5   0  0.4200635E-07  0.3551725E+04  0.7818609E-02  0.8101640E-01
       -2   -1    0    0    0  501  0.00000000000E+00  0.00000000000E+00  0.94243646361E+03  0.94243646361E+03  0.25500000920E-02 0. -1.
        2   -1    0    0  501    0  0.00000000000E+00  0.00000000000E+00 -0.33463139074E+04  0.33463139074E+04  0.25500000920E-02 0.  1.
    10030    2    1    2    0    0  0.00000000000E+00  0.00000000000E+00 -0.24038774438E+04  0.42887503711E+04  0.35517253526E+04 0.  0.
        4    1    3    3  502    0  0.35435592563E+03 -0.13528940809E+04 -0.25234864230E+04  0.28851127978E+04  0.12699999809E+01 0.  1.
       -4    1    3    3    0  502 -0.35435592563E+03  0.13528940809E+04  0.11960897920E+03  0.14036375732E+04  0.12699999809E+01 0. -1.
</event>
<event>
 5   0  0.1298250E-07  0.3597241E+04  0.7818609E-02  0.8091124E-01
       -1   -1    0    0    0  501  0.00000000000E+00  0.00000000000E+00  0.12892430645E+04  0.12892430645E+04  0.50400001928E-02 0.  1.
        1   -1    0    0  501    0  0.00000000000E+00  0.00000000000E+00 -0.25092516502E+04  0.25092516502E+04  0.50400001928E-02 0. -1.
    10030    2    1    2    0    0  0.00000000000E+00  0.00000000000E+00 -0.12200085857E+04  0.37984947147E+04  0.35972407688E+04 0.  0.
        2    1    3    3  502    0 -0.83175159101E+02  0.16309459056E+04 -0.14059196553E+04  0.21548811409E+04  0.25500000920E-02 0. -1.
       -2    1    3    3    0  502  0.83175159101E+02 -0.16309459056E+04  0.18591106962E+03  0.16436135738E+04  0.25500000920E-02 0.  1.
</event>
<event>
 5   0  0.4200635E-07  0.3588273E+04  0.7818609E-02  0.8093183E-01
        2   -1    0    0  501    0  0.00000000000E+00  0.00000000000E+00  0.24465945275E+04  0.24465945275E+04  0.25500000920E-02 0. -1.
       -2   -1    0    0    0  501  0.00000000000E+00  0.00000000000E+00 -0.13156760814E+04  0.13156760814E+04  0.25500000920E-02 0.  1.
    10030    2    1    2    0    0  0.00000000000E+00  0.00000000000E+00  0.11309184461E+04  0.37622706089E+04  0.35882730669E+04 0.  0.
        4    1    3    3  502    0 -0.89644046664E+03  0.11461596257E+04  0.16659433422E+04  0.22119349516E+04  0.12699999809E+01 0. -1.
       -4    1    3    3    0  502  0.89644046664E+03 -0.11461596257E+04 -0.53502489609E+03  0.15503356573E+04  0.12699999809E+01 0.  1.
</event>
<event>
 5   0  0.3993751E-07  0.3602898E+04  0.7818609E-02  0.8089828E-01
       -2   -1    0    0    0  501  0.00000000000E+00  0.00000000000E+00  0.11931745712E+04  0.11931745712E+04  0.25500000920E-02 0. -1.
        2   -1    0    0  501    0  0.00000000000E+00  0.00000000000E+00 -0.27198180994E+04  0.27198180994E+04  0.25500000920E-02 0.  1.
    10030    2    1    2    0    0  0.00000000000E+00  0.00000000000E+00 -0.15266435282E+04  0.39129926706E+04  0.36028976085E+04 0.  0.
        1    1    3    3  502    0 -0.16354552178E+04  0.14566595063E+03 -0.15682481505E+04  0.22705361922E+04  0.50400001928E-02 0.  1.
       -1    1    3    3    0  502  0.16354552178E+04 -0.14566595063E+03  0.41604622322E+02  0.16424564783E+04  0.50400001928E-02 0. -1.
</event>
<event>
 5   0  0.4200635E-07  0.3618007E+04  0.7818609E-02  0.8086379E-01
        2   -1    0    0  501    0  0.00000000000E+00  0.00000000000E+00  0.20033880688E+04  0.20033880688E+04  0.25500000920E-02 0.  1.
       -2   -1    0    0    0  501  0.00000000000E+00  0.00000000000E+00 -0.16334798875E+04  0.16334798875E+04  0.25500000920E-02 0. -1.
    10030    2    1    2    0    0  0.00000000000E+00  0.00000000000E+00  0.36990818125E+03  0.36368679564E+04  0.36180072512E+04 0.  0.
        4    1    3    3  502    0 -0.17481942057E+04  0.45765538792E+03  0.10169071646E+03  0.18099652068E+04  0.12699999809E+01 0. -1.
       -4    1    3    3    0  502  0.17481942057E+04 -0.45765538792E+03  0.26821746479E+03  0.18269027496E+04  0.12699999809E+01 0.  1.
</event>
<event>
 5   0  0.1361743E-07  0.3643148E+04  0.7818609E-02  0.8080679E-01
       -1   -1    0    0    0  501  0.00000000000E+00  0.00000000000E+00  0.28777542462E+04  0.28777542462E+04  0.50400001928E-02 0. -1.
        1   -1    0    0  501    0  0.00000000000E+00  0.00000000000E+00 -0.11530279446E+04  0.11530279446E+04  0.50400001928E-02 0.  1.
    10030    2    1    2    0    0  0.00000000000E+00  0.00000000000E+00  0.17247263016E+04  0.40307821908E+04  0.36431475751E+04 0.  0.
        5    1    3    3  502    0 -0.14082209517E+04  0.14156606987E+03 -0.40637626924E+03  0.14725117871E+04  0.46999998093E+01 0.  1.
       -5    1    3    3    0  502  0.14082209517E+04 -0.14156606987E+03  0.21311025709E+04  0.25582704037E+04  0.46999998093E+01 0. -1.
</event>
<event>
 5   0  0.3880259E-07  0.3610142E+04  0.7818609E-02  0.8088173E-01
       -2   -1    0    0    0  501  0.00000000000E+00  0.00000000000E+00  0.93789327963E+03  0.93789327963E+03  0.25500000920E-02 0. -1.
        2   -1    0    0  501    0  0.00000000000E+00  0.00000000000E+00 -0.34740420762E+04  0.34740420762E+04  0.25500000920E-02 0.  1.
    10030    2    1    2    0    0  0.00000000000E+00  0.00000000000E+00 -0.25361487966E+04  0.44119353559E+04  0.36101416684E+04 0.  0.
        5    1    3    3  502    0  0.15276672202E+04  0.95128304238E+03 -0.14389583198E+04  0.23041982767E+04  0.46999998093E+01 0. -1.
       -5    1    3    3    0  502 -0.15276672202E+04 -0.95128304238E+03 -0.10971904768E+04  0.21077370792E+04  0.46999998093E+01 0.  1.
</event>
<event>
 5   0  0.1361743E-07  0.3658967E+04  0.7818609E-02  0.8077117E-01
       -1   -1    0    0    0  501  0.00000000000E+00  0.00000000000E+00  0.13843757907E+04  0.13843757907E+04  0.50400001928E-02 0. -1.
        1   -1    0    0  501    0  0.00000000000E+00  0.00000000000E+00 -0.24177035356E+04  0.24177035356E+04  0.50400001928E-02 0.  1.
    10030    2    1    2    0    0  0.00000000000E+00  0.00000000000E+00 -0.10333277449E+04  0.38020793263E+04  0.36589672006E+04 0.  0.
        5    1    3    3  502    0  0.14407779432E+03 -0.14937411079E+04 -0.16039985060E+04  0.21965550768E+04  0.46999998093E+01 0.  1.
       -5    1    3    3    0  502 -0.14407779432E+03  0.14937411079E+04  0.57067076110E+03  0.16055242495E+04  0.46999998093E+01 0. -1.
</event>
<event>
 5   0  0.1370997E-07  0.3602638E+04  0.7818609E-02  0.8089888E-01
       -1   -1    0    0    0  501  0.00000000000E+00  0.00000000000E+00  0.34545855554E+04  0.34545855554E+04  0.50400001928E-02 0.  1.
        1   -1    0    0  501    0  0.00000000000E+00  0.00000000000E+00 -0.93925897717E+03  0.93925897718E+03  0.50400001928E-02 0. -1.
    10030    2    1    2    0    0  0.00000000000E+00  0.00000000000E+00  0.25153265782E+04  0.43938445326E+04  0.36026381974E+04 0.  0.
        3    1    3    3  502    0  0.53669169043E+03 -0.12631448877E+04  0.26805863530E+04  0.30114973326E+04  0.10100000352E+00 0.  1.
       -3    1    3    3    0  502 -0.53669169043E+03  0.12631448877E+04 -0.16525977481E+03  0.13823472000E+04  0.10100000352E+00 0. -1.
</event>
<event>
 5   0  0.4115358E-07  0.3594995E+04  0.7818609E-02  0.8091639E-01
        2   -1    0    0  501    0  0.00000000000E+00  0.00000000000E+00  0.27121212722E+04  0.27121212722E+04  0.25500000920E-02 0.  1.
       -2   -1    0    0    0  501  0.00000000000E+00  0.00000000000E+00 -0.11913176642E+04  0.11913176642E+04  0.25500000920E-02 0. -1.
    10030    2    1    2    0    0  0.00000000000E+00  0.00000000000E+00  0.15208036079E+04  0.39034389364E+04  0.35949953987E+04 0.  0.
        3    1    3    3  502    0  0.15409564463E+04  0.14410630857E+03 -0.23218899042E+03  0.15650000431E+04  0.10100000352E+00 0. -1.
       -3    1    3    3    0  502 -0.15409564463E+04 -0.14410630857E+03  0.17529925984E+04  0.23384388933E+04  0.10100000352E+00 0.  1.
</event>
<event>
 5   0  0.1298250E-07  0.3603735E+04  0.7818609E-02  0.8089637E-01
       -1   -1    0    0    0  501  0.00000000000E+00  0.00000000000E+00  0.15469994043E+04  0.15469994043E+04  0.50400001928E-02 0.  1.
        1   -1    0    0  501    0  0.00000000000E+00  0.00000000000E+00 -0.20987256723E+04  0.20987256723E+04  0.50400001928E-02 0. -1.
    10030    2    1    2    0    0  0.00000000000E+00  0.00000000000E+00 -0.55172626807E+03  0.36457250766E+04  0.36037354869E+04 0.  0.
        1    1    3    3  502    0  0.89806846213E+02  0.62256707667E+03  0.14323227425E+04  0.15643540115E+04  0.50400001928E-02 0.  1.
       -1    1    3    3    0  502 -0.89806846213E+02 -0.62256707667E+03 -0.19840490105E+04  0.20813710651E+04  0.50400001928E-02 0. -1.
</event>
<event>
 5   0  0.1348226E-07  0.3604797E+04  0.7818609E-02  0.8089394E-01
       -1   -1    0    0    0  501  0.00000000000E+00  0.00000000000E+00  0.15664449698E+04  0.15664449698E+04  0.50400001928E-02 0.  1.
        1   -1    0    0  501    0  0.00000000000E+00  0.00000000000E+00 -0.20738932954E+04  0.20738932954E+04  0.50400001928E-02 0. -1.
    10030    2    1    2    0    0  0.00000000000E+00  0.00000000000E+00 -0.50744832557E+03  0.36403382651E+04  0.36047966491E+04 0.  0.
        4    1    3    3  502    0 -0.10644745417E+04  0.56051807247E+03 -0.16091014655E+04  0.20091032076E+04  0.12699999809E+01 0. -1.
       -4    1    3    3    0  502  0.10644745417E+04 -0.56051807247E+03  0.11016531399E+04  0.16312350576E+04  0.12699999809E+01 0.  1.
</event>
<event>
 5   0  0.1361743E-07  0.3568378E+04  0.7818609E-02  0.8097774E-01
       -1   -1    0    0    0  501  0.00000000000E+00  0.00000000000E+00  0.22925326752E+04  0.22925326752E+04  0.50400001928E-02 0.  1.
        1   -1    0    0  501    0  0.00000000000E+00  0.00000000000E+00 -0.13885646911E+04  0.13885646911E+04  0.50400001928E-02 0. -1.
    10030    2    1    2    0    0  0.00000000000E+00  0.00000000000E+00  0.90396798408E+03  0.36810973663E+04  0.35683777412E+04 0.  0.
        5    1    3    3  502    0 -0.15696181166E+04  0.28608223271E+03 -0.37184372995E+03  0.16382411072E+04  0.46999998093E+01 0. -1.
       -5    1    3    3    0  502  0.15696181166E+04 -0.28608223271E+03  0.12758117140E+04  0.20428562591E+04  0.46999998093E+01 0.  1.
</event>
<event>
 5   0  0.1298250E-07  0.3585785E+04  0.7818609E-02  0.8093756E-01
       -1   -1    0    0    0  501  0.00000000000E+00  0.00000000000E+00  0.19633819526E+04  0.19633819526E+04  0.50400001928E-02 0.  1.
        1   -1    0    0  501    0  0.00000000000E+00  0.00000000000E+00 -0.16372075112E+04  0.16372075112E+04  0.50400001928E-02 0. -1.
    10030    2    1    2    0    0  0.00000000000E+00  0.00000000000E+00  0.32617444136E+03  0.36005894638E+04  0.35857850912E+04 0.  0.
        1    1    3    3  502    0 -0.84707773476E+03  0.61293847248E+03  0.16255444378E+04  0.19327775297E+04  0.50400001928E-02 0.  1.
       -1    1    3    3    0  502  0.84707773476E+03 -0.61293847248E+03 -0.12993699965E+04  0.16678119341E+04  0.50400001928E-02 0. -1.
</event>
<event>
 5   0  0.1298250E-07  0.3618170E+04  0.7818609E-02  0.8086342E-01
        1   -1    0    0  501    0  0.00000000000E+00  0.00000000000E+00  0.18969950388E+04  0.18969950388E+04  0.50400001928E-02 0.  1.
       -1   -1    0    0    0  501  0.00000000000E+00  0.00000000000E+00 -0.17252485178E+04  0.17252485178E+04  0.50400001928E-02 0. -1.
    10030    2    1    2    0    0  0.00000000000E+00  0.00000000000E+00  0.17174652096E+03  0.36222435566E+04  0.36181696361E+04 0.  0.
        1    1    3    3  502    0 -0.34570173411E+03  0.45179967547E+03  0.18051173542E+04  0.18926387131E+04  0.50400001928E-02 0.  1.
       -1    1    3    3    0  502  0.34570173411E+03 -0.45179967547E+03 -0.16333708333E+04  0.17296048435E+04  0.50400001928E-02 0. -1.
</event>
<event>
 5   0  0.4200635E-07  0.3596972E+04  0.7818609E-02  0.8091186E-01
        2   -1    0    0  501    0  0.00000000000E+00  0.00000000000E+00  0.10333529519E+04  0.10333529519E+04  0.25500000920E-02 0.  1.
       -2   -1    0    0    0  501  0.00000000000E+00  0.00000000000E+00 -0.31301515079E+04  0.31301515079E+04  0.25500000920E-02 0. -1.
    10030    2    1    2    0    0  0.00000000000E+00  0.00000000000E+00 -0.20967985560E+04  0.41635044598E+04  0.35969716710E+04 0.  0.
        4    1    3    3  502    0  0.10844854944E+04  0.49519353236E+03 -0.26070463139E+04  0.28667084814E+04  0.12699999809E+01 0. -1.
       -4    1    3    3    0  502 -0.10844854944E+04 -0.49519353236E+03  0.51024775789E+03  0.12967959783E+04  0.12699999809E+01 0.  1.
</event>
<event>
 5   0  0.1348226E-07  0.3577682E+04  0.7818609E-02  0.8095623E-01
       -1   -1    0    0    0  501  0.00000000000E+00  0.00000000000E+00  0.14175107699E+04  0.14175107699E+04  0.50400001928E-02 0.  1.
        1   -1    0    0  501    0  0.00000000000E+00  0.00000000000E+00 -0.22574447037E+04  0.22574447037E+04  0.50400001928E-02 0. -1.
    10030    2    1    2    0    0  0.00000000000E+00  0.00000000000E+00 -0.83993393379E+03  0.36749554737E+04  0.35776820317E+04 0.  0.
        4    1    3    3  502    0  0.55510923990E+02  0.77449865283E+03  0.12353763030E+04  0.14591387353E+04  0.12699999809E+01 0.  1.
       -4    1    3    3    0  502 -0.55510923990E+02 -0.77449865283E+03 -0.20753102368E+04  0.22158167383E+04  0.12699999809E+01 0. -1.
</event>
<event>
 5   0  0.1298250E-07  0.3582666E+04  0.7818609E-02  0.8094474E-01
       -1   -1    0    0    0  501  0.00000000000E+00  0.00000000000E+00  0.14416470470E+04  0.14416470470E+04  0.50400001928E-02 0.  1.
        1   -1    0    0  501    0  0.00000000000E+00  0.00000000000E+00 -0.22258384270E+04  0.22258384270E+04  0.50400001928E-02 0. -1.
    10030    2    1    2    0    0  0.00000000000E+00  0.00000000000E+00 -0.78419138001E+03  0.36674854739E+04  0.35826657088E+04 0.  0.
        1    1    3    3  502    0  0.16559810320E+04  0.66760148315E+03 -0.54011668250E+03  0.18653929745E+04  0.50400001928E-02 0.  1.
       -1    1    3    3    0  502 -0.16559810320E+04 -0.66760148315E+03 -0.24407469752E+03  0.18020924994E+04  0.50400001928E-02 0. -1.
</event>
<event>
 5   0  0.1370997E-07  0.3587396E+04  0.7818609E-02  0.8093385E-01
       -1   -1    0    0    0  501  0.00000000000E+00  0.00000000000E+00  0.11756902214E+04  0.11756902214E+04  0.50400001928E-02 0.  1.
        1   -1    0    0  501    0  0.00000000000E+00  0.00000000000E+00 -0.27365646165E+04  0.27365646165E+04  0.50400001928E-02 0. -1.
    10030    2    1    2    0    0  0.00000000000E+00  0.00000000000E+00 -0.15608743952E+04  0.39122548379E+04  0.35873958577E+04 0.  0.
        3    1    3    3  502    0  0.13302244312E+04  0.85067277564E+03  0.14763209823E+03  0.15858551180E+04  0.10100000352E+00 0.  1.
       -3    1    3    3    0  502 -0.13302244312E+04 -0.85067277564E+03 -0.17085064934E+04  0.23263997199E+04  0.10100000352E+00 0. -1.
</event>
<event>
 5   0  0.1361743E-07  0.3610293E+04  0.7818609E-02  0.8088138E-01
        1   -1    0    0  501    0  0.00000000000E+00  0.00000000000E+00  0.14003898686E+04  0.14003898686E+04  0.50400001928E-02 0.  1.
       -1   -1    0    0    0  501  0.00000000000E+00  0.00000000000E+00 -0.23268907811E+04  0.23268907811E+04  0.50400001928E-02 0. -1.
    10030    2    1    2    0    0  0.00000000000E+00  0.00000000000E+00 -0.92650091253E+03  0.37272806497E+04  0.36102932153E+04 0.  0.
        5    1    3    3  502    0  0.12179377113E+04  0.12449159805E+04  0.26836035999E+02  0.17418181105E+04  0.46999998093E+01 0.  1.
       -5    1    3    3    0  502 -0.12179377113E+04 -0.12449159805E+04 -0.95333694853E+03  0.19854625392E+04  0.46999998093E+01 0. -1.
</event>
<event>
 5   0  0.4200635E-07  0.3606473E+04  0.7818609E-02  0.8089011E-01
       -2   -1    0    0    0  501  0.00000000000E+00  0.00000000000E+00  0.15944246388E+04  0.15944246388E+04  0.25500000920E-02 0. -1.
        2   -1    0    0  501    0  0.00000000000E+00  0.00000000000E+00 -0.20393952394E+04  0.20393952394E+04  0.25500000920E-02 0.  1.
    10030    2    1    2    0    0  0.00000000000E+00  0.00000000000E+00 -0.44497060061E+03  0.36338198782E+04  0.36064730793E+04 0.  0.
        4    1    3    3  502    0  0.21770813676E+03  0.12546569025E+04  0.10639494879E+04  0.16593826869E+04  0.12699999809E+01 0. -1.
       -4    1    3    3    0  502 -0.21770813676E+03 -0.12546569025E+04 -0.15089200885E+04  0.19744371913E+04  0.12699999809E+01 0.  1.
</event>
<event>
 5   0  0.1298250E-07  0.3566704E+04  0.7818609E-02  0.8098161E-01
        1   -1    0    0  501    0  0.00000000000E+00  0.00000000000E+00  0.22769178841E+04  0.22769178841E+04  0.50400001928E-02 0. -1.
       -1   -1    0    0    0  501  0.00000000000E+00  0.00000000000E+00 -0.13967756925E+04  0.13967756925E+04  0.50400001928E-02 0.  1.
    10030    2    1    2    0    0  0.00000000000E+00  0.00000000000E+00  0.88014219158E+03  0.36736935766E+04  0.35667035506E+04 0.  0.
        2    1    3    3  502    0 -0.86415422843E+03  0.36442819672E+03  0.20024012375E+04  0.22111492842E+04  0.25500000920E-02 0. -1.
       -2    1    3    3    0  502  0.86415422843E+03 -0.36442819672E+03 -0.11222590459E+04  0.14625442924E+04  0.25500000920E-02 0.  1.
</event>
<event>
 5   0  0.1348226E-07  0.3213390E+04  0.7818609E-02  0.8185290E-01
       -1   -1    0    0    0  501  0.00000000000E+00  0.00000000000E+00  0.13826736257E+04  0.13826736257E+04  0.50400001928E-02 0. -1.
        1   -1    0    0  501    0  0.00000000000E+00  0.00000000000E+00 -0.18670125515E+04  0.18670125515E+04  0.50400001928E-02 0.  1.
    10030    2    1    2    0    0  0.00000000000E+00  0.00000000000E+00 -0.48433892582E+03  0.32496861772E+04  0.32133901188E+04 0.  0.
        4    1    3    3  502    0  0.14079738593E+04 -0.21814559701E+03 -0.99318098094E+03  0.17367751621E+04  0.12699999809E+01 0. -1.
       -4    1    3    3    0  502 -0.14079738593E+04  0.21814559701E+03  0.50884205512E+03  0.15129110152E+04  0.12699999809E+01 0.  1.
</event>
<event>
 5   0  0.4200635E-07  0.3564398E+04  0.7818609E-02  0.8098696E-01
        2   -1    0    0  501    0  0.00000000000E+00  0.00000000000E+00  0.20512214343E+04  0.20512214343E+04  0.25500000920E-02 0. -1.
       -2   -1    0    0    0  501  0.00000000000E+00  0.00000000000E+00 -0.15484592280E+04  0.15484592280E+04  0.25500000920E-02 0.  1.
    10030    2    1    2    0    0  0.00000000000E+00  0.00000000000E+00  0.50276220629E+03  0.35996806623E+04  0.35643977099E+04 0.  0.
        4    1    3    3  502    0  0.87784030709E+03 -0.15439700780E+04  0.40043592384E+03  0.18206586030E+04  0.12699999809E+01 0. -1.
       -4    1    3    3    0  502 -0.87784030709E+03  0.15439700780E+04  0.10232628245E+03  0.17790220593E+04  0.12699999809E+01 0.  1.
</event>
<event>
 5   0  0.3880259E-07  0.3669266E+04  0.7818609E-02  0.8074807E-01
       -2   -1    0    0    0  501  0.00000000000E+00  0.00000000000E+00  0.27346592568E+04  0.27346592568E+04  0.25500000920E-02 0.  1.
        2   -1    0    0  501    0  0.00000000000E+00  0.00000000000E+00 -0.12308221168E+04  0.12308221168E+04  0.25500000920E-02 0. -1.
    10030    2    1    2    0    0  0.00000000000E+00  0.00000000000E+00  0.15038371400E+04  0.39654813735E+04  0.36692664635E+04 0.  0.
        5    1    3    3  502    0 -0.59398283398E+03  0.40901678164E+03 -0.10711994383E+04  0.12913561326E+04  0.46999998093E+01 0. -1.
       -5    1    3    3    0  502  0.59398283398E+03 -0.40901678164E+03  0.25750365783E+04  0.26741252409E+04  0.46999998093E+01 0.  1.
</event>
<event>
 5   0  0.1348226E-07  0.3623863E+04  0.7818609E-02  0.8085047E-01
        1   -1    0    0  501    0  0.00000000000E+00  0.00000000000E+00  0.25534653865E+04  0.25534653865E+04  0.50400001928E-02 0.  1.
       -1   -1    0    0    0  501  0.00000000000E+00  0.00000000000E+00 -0.12857414905E+04  0.12857414905E+04  0.50400001928E-02 0. -1.
    10030    2    1    2    0    0  0.00000000000E+00  0.00000000000E+00  0.12677238960E+04  0.38392068770E+04  0.36238633484E+04 0.  0.
        4    1    3    3  502    0  0.42525953161E+03 -0.17430088885E+04  0.36549269398E+03  0.18309866676E+04  0.12699999809E+01 0.  1.
       -4    1    3    3    0  502 -0.42525953161E+03  0.17430088885E+04  0.90223120197E+03  0.20082202094E+04  0.12699999809E+01 0. -1.
</event>
<event>
 5   0  0.4200635E-07  0.3575334E+04  0.7818609E-02  0.8096165E-01
       -2   -1    0    0    0  501  0.00000000000E+00  0.00000000000E+00  0.96599233799E+03  0.96599233799E+03  0.25500000920E-02 0. -1.
        2   -1    0    0  501    0  0.00000000000E+00  0.00000000000E+00 -0.33082593630E+04  0.33082593630E+04  0.25500000920E-02 0.  1.
    10030    2    1    2    0    0  0.00000000000E+00  0.00000000000E+00 -0.23422670250E+04  0.42742517010E+04  0.35753339406E+04 0.  0.
        4    1    3    3  502    0  0.16129311757E+04 -0.76516363811E+03 -0.10594392076E+04  0.20759179700E+04  0.12699999809E+01 0.  1.
       -4    1    3    3    0  502 -0.16129311757E+04  0.76516363811E+03 -0.12828278174E+04  0.21983337310E+04  0.12699999809E+01 0. -1.
</event>
<event>
 5   0  0.4115358E-07  0.3498026E+04  0.7818609E-02  0.8114258E-01
        2   -1    0    0  501    0  0.00000000000E+00  0.00000000000E+00  0.20903109314E+04  0.20903109314E+04  0.25500000920E-02 0. -1.
       -2   -1    0    0    0  501  0.00000000000E+00  0.00000000000E+00 -0.14634404737E+04  0.14634404737E+04  0.25500000920E-02 0.  1.
    10030    2    1    2    0    0  0.00000000000E+00  0.00000000000E+00  0.62687045771E+03  0.35537514051E+04  0.34980255115E+04 0.  0.
        3    1    3    3  502    0 -0.13351722343E+04  0.11220452822E+04  0.44734976312E+03  0.18004978010E+04  0.10100000352E+00 0. -1.
       -3    1    3    3    0  502  0.13351722343E+04 -0.11220452822E+04  0.17952069459E+03  0.17532536042E+04  0.10100000352E+00 0.  1.
</event>
<event>
 5   0  0.1361743E-07  0.3537697E+04  0.7818609E-02  0.8104914E-01
       -1   -1    0    0    0  501  0.00000000000E+00  0.00000000000E+00  0.14198186772E+04  0.14198186772E+04  0.50400001928E-02 0. -1.
        1   -1    0    0  501    0  0.00000000000E+00  0.00000000000E+00 -0.22036795667E+04  0.22036795667E+04  0.50400001928E-02 0.  1.
    10030    2    1    2    0    0  0.00000000000E+00  0.00000000000E+00 -0.78386088951E+03  0.36234982439E+04  0.35376972213E+04 0.  0.
        5    1    3    3  502    0  0.37391632465E+03  0.50644528895E+03 -0.20850503825E+04  0.21780168586E+04  0.46999998093E+01 0.  1.
       -5    1    3    3    0  502 -0.37391632465E+03 -0.50644528895E+03  0.13011894930E+04  0.14454813853E+04  0.46999998093E+01 0. -1.
</event>
<event>
 5   0  0.4120440E-07  0.3592001E+04  0.7818609E-02  0.8092326E-01
        2   -1    0    0  501    0  0.00000000000E+00  0.00000000000E+00  0.12096321694E+04  0.12096321694E+04  0.25500000920E-02 0.  1.
       -2   -1    0    0    0  501  0.00000000000E+00  0.00000000000E+00 -0.26666100524E+04  0.26666100524E+04  0.25500000920E-02 0. -1.
    10030    2    1    2    0    0  0.00000000000E+00  0.00000000000E+00 -0.14569778830E+04  0.38762422218E+04  0.35920007252E+04 0.  0.
        2    1    3    3  502    0 -0.11622353474E+04 -0.13669095601E+04 -0.64226263328E+03  0.19057109010E+04  0.25500000920E-02 0. -1.
       -2    1    3    3    0  502  0.11622353474E+04  0.13669095601E+04 -0.81471524973E+03  0.19705313208E+04  0.25500000920E-02 0.  1.
</event>
<event>
 5   0  0.1298250E-07  0.3586960E+04  0.7818609E-02  0.8093485E-01
       -3   -1    0    0    0  501  0.00000000000E+00  0.00000000000E+00  0.19934706515E+04  0.19934706541E+04  0.10100000352E+00 0. -1.
        3   -1    0    0  501    0  0.00000000000E+00  0.00000000000E+00 -0.16135526464E+04  0.16135526496E+04  0.10100000352E+00 0.  1.
    10030    2    1    2    0    0  0.00000000000E+00  0.00000000000E+00  0.37991800509E+03  0.36070233037E+04  0.35869596349E+04 0.  0.
        5    1    3    3  502    0  0.49498902838E+02 -0.64465025912E+03 -0.14922771063E+04  0.16263262741E+04  0.46999998093E+01 0.  1.
       -5    1    3    3    0  502 -0.49498902838E+02  0.64465025912E+03  0.18721951114E+04  0.19806970296E+04  0.46999998093E+01 0. -1.
</event>
<event>
 5   0  0.4120440E-07  0.3592289E+04  0.7818609E-02  0.8092260E-01
        2   -1    0    0  501    0  0.00000000000E+00  0.00000000000E+00  0.22509428174E+04  0.22509428174E+04  0.25500000920E-02 0.  1.
       -2   -1    0    0    0  501  0.00000000000E+00  0.00000000000E+00 -0.14332375545E+04  0.14332375545E+04  0.25500000920E-02 0. -1.
    10030    2    1    2    0    0  0.00000000000E+00  0.00000000000E+00  0.81770526295E+03  0.36841803719E+04  0.35922893975E+04 0.  0.
        2    1    3    3  502    0  0.52799398942E+02 -0.10323034307E+04 -0.10976325363E+04  0.15077252184E+04  0.25500000920E-02 0. -1.
       -2    1    3    3    0  502 -0.52799398942E+02  0.10323034307E+04  0.19153377992E+04  0.21764551534E+04  0.25500000920E-02 0.  1.
</event>
<event>
 5   0  0.1370997E-07  0.3617750E+04  0.7818609E-02  0.8086438E-01
       -1   -1    0    0    0  501  0.00000000000E+00  0.00000000000E+00  0.15182174617E+04  0.15182174617E+04  0.50400001928E-02 0. -1.
        1   -1    0    0  501    0  0.00000000000E+00  0.00000000000E+00 -0.21551777708E+04  0.21551777708E+04  0.50400001928E-02 0.  1.
    10030    2    1    2    0    0  0.00000000000E+00  0.00000000000E+00 -0.63696030909E+03  0.36733952324E+04  0.36177498668E+04 0.  0.
        3    1    3    3  502    0  0.15742748123E+04 -0.27506450464E+03 -0.11788782959E+04  0.19858891492E+04  0.10100000352E+00 0.  1.
       -3    1    3    3    0  502 -0.15742748123E+04  0.27506450464E+03  0.54191798685E+03  0.16875060832E+04  0.10100000352E+00 0. -1.
</event>
<event>
 5   0  0.4115358E-07  0.3700459E+04  0.7818609E-02  0.8067860E-01
        2   -1    0    0  501    0  0.00000000000E+00  0.00000000000E+00  0.22142783226E+04  0.22142783226E+04  0.25500000920E-02 0.  1.
       -2   -1    0    0    0  501  0.00000000000E+00  0.00000000000E+00 -0.15460341638E+04  0.15460341638E+04  0.25500000920E-02 0. -1.
    10030    2    1    2    0    0  0.00000000000E+00  0.00000000000E+00  0.66824415885E+03  0.37603124864E+04  0.37004593958E+04 0.  0.
        3    1    3    3  502    0  0.79572701417E+03 -0.61897790112E+03  0.19106783578E+04  0.21603256514E+04  0.10100000352E+00 0.  1.
       -3    1    3    3    0  502 -0.79572701417E+03  0.61897790112E+03 -0.12424341989E+04  0.15999868350E+04  0.10100000352E+00 0. -1.
</event>
<event>
 5   0  0.1348226E-07  0.3587928E+04  0.7818609E-02  0.8093263E-01
       -1   -1    0    0    0  501  0.00000000000E+00  0.00000000000E+00  0.18029124600E+04  0.18029124600E+04  0.50400001928E-02 0.  1.
        1   -1    0    0  501    0  0.00000000000E+00  0.00000000000E+00 -0.17850596270E+04  0.17850596270E+04  0.50400001928E-02 0. -1.
    10030    2    1    2    0    0  0.00000000000E+00  0.00000000000E+00  0.17852832948E+02  0.35879720870E+04  0.35879276712E+04 0.  0.
        4    1    3    3  502    0  0.33552036779E+03 -0.34887385347E+03  0.17363787683E+04  0.18025814053E+04  0.12699999809E+01 0.  1.
       -4    1    3    3    0  502 -0.33552036779E+03  0.34887385347E+03 -0.17185259354E+04  0.17853906817E+04  0.12699999809E+01 0. -1.
</event>
<event>
 5   0  0.1298250E-07  0.3594861E+04  0.7818609E-02  0.8091670E-01
       -1   -1    0    0    0  501  0.00000000000E+00  0.00000000000E+00  0.20828402351E+04  0.20828402351E+04  0.50400001928E-02 0. -1.
        1   -1    0    0  501    0  0.00000000000E+00  0.00000000000E+00 -0.15511302061E+04  0.15511302061E+04  0.50400001928E-02 0.  1.
    10030    2    1    2    0    0  0.00000000000E+00  0.00000000000E+00  0.53171002900E+03  0.36339704413E+04  0.35948610005E+04 0.  0.
        1    1    3    3  502    0 -0.15078609404E+04 -0.55905994017E+03 -0.54572666278E+03  0.16982373871E+04  0.50400001928E-02 0.  1.
       -1    1    3    3    0  502  0.15078609404E+04  0.55905994017E+03  0.10774366918E+04  0.19357330542E+04  0.50400001928E-02 0. -1.
</event>
<event>
 5   0  0.4120440E-07  0.3580302E+04  0.7818609E-02  0.8095019E-01
        2   -1    0    0  501    0  0.00000000000E+00  0.00000000000E+00  0.17199008052E+04  0.17199008052E+04  0.25500000920E-02 0.  1.
       -2   -1    0    0    0  501  0.00000000000E+00  0.00000000000E+00 -0.18632702251E+04  0.18632702251E+04  0.25500000920E-02 0. -1.
    10030    2    1    2    0    0  0.00000000000E+00  0.00000000000E+00 -0.14336941989E+03  0.35831710304E+04  0.35803016412E+04 0.  0.
        2    1    3    3  502    0  0.10506436147E+04  0.11998579732E+04 -0.88543462947E+03  0.18241451817E+04  0.25500000920E-02 0. -1.
       -2    1    3    3    0  502 -0.10506436147E+04 -0.11998579732E+04  0.74206520958E+03  0.17590258486E+04  0.25500000920E-02 0.  1.
</event>
<event>
 5   0  0.1361743E-07  0.3608920E+04  0.7818609E-02  0.8088452E-01
        1   -1    0    0  501    0  0.00000000000E+00  0.00000000000E+00  0.20168627108E+04  0.20168627108E+04  0.50400001928E-02 0.  1.
       -1   -1    0    0    0  501  0.00000000000E+00  0.00000000000E+00 -0.16144260420E+04  0.16144260420E+04  0.50400001928E-02 0. -1.
    10030    2    1    2    0    0  0.00000000000E+00  0.00000000000E+00  0.40243666878E+03  0.36312887528E+04  0.36089198847E+04 0.  0.
        5    1    3    3  502    0 -0.11754480431E+04 -0.85883838045E+03 -0.87158533851E+03  0.16967511774E+04  0.46999998093E+01 0. -1.
       -5    1    3    3    0  502  0.11754480431E+04  0.85883838045E+03  0.12740220073E+04  0.19345375754E+04  0.46999998093E+01 0.  1.
</event>
<event>
 5   0  0.4200635E-07  0.3661924E+04  0.7818609E-02  0.8076453E-01
        2   -1    0    0  501    0  0.00000000000E+00  0.00000000000E+00  0.10883868752E+04  0.10883868752E+04  0.25500000920E-02 0. -1.
       -2   -1    0    0    0  501  0.00000000000E+00  0.00000000000E+00 -0.30801740166E+04  0.30801740166E+04  0.25500000920E-02 0.  1.
    10030    2    1    2    0    0  0.00000000000E+00  0.00000000000E+00 -0.19917871413E+04  0.41685608918E+04  0.36619235235E+04 0.  0.
        4    1    3    3  502    0 -0.13036101557E+04  0.14090378457E+03 -0.24506559138E+04  0.27793829055E+04  0.12699999809E+01 0.  1.
       -4    1    3    3    0  502  0.13036101557E+04 -0.14090378457E+03  0.45886877243E+03  0.13891779863E+04  0.12699999809E+01 0. -1.
</event>
<event>
 5   0  0.4115358E-07  0.3587803E+04  0.7818609E-02  0.8093291E-01
       -2   -1    0    0    0  501  0.00000000000E+00  0.00000000000E+00  0.20818877423E+04  0.20818877423E+04  0.25500000920E-02 0. -1.
        2   -1    0    0  501    0  0.00000000000E+00  0.00000000000E+00 -0.15457521731E+04  0.15457521731E+04  0.25500000920E-02 0.  1.
    10030    2    1    2    0    0  0.00000000000E+00  0.00000000000E+00  0.53613556918E+03  0.36276399153E+04  0.35878029498E+04 0.  0.
        3    1    3    3  502    0 -0.11562492931E+04  0.54473999281E+03 -0.10046493730E+04  0.16257227502E+04  0.10100000352E+00 0.  1.
       -3    1    3    3    0  502  0.11562492931E+04 -0.54473999281E+03  0.15407849422E+04  0.20019171651E+04  0.10100000352E+00 0. -1.
</event>
<event>
 5   0  0.3880259E-07  0.3483896E+04  0.7818609E-02  0.8117617E-01
        2   -1    0    0  501    0  0.00000000000E+00  0.00000000000E+00  0.12420144716E+04  0.12420144716E+04  0.25500000920E-02 0. -1.
       -2   -1    0    0    0  501  0.00000000000E+00  0.00000000000E+00 -0.24431132400E+04  0.24431132400E+04  0.25500000920E-02 0.  1.
    10030    2    1    2    0    0  0.00000000000E+00  0.00000000000E+00 -0.12010987684E+04  0.36851277117E+04  0.34838955208E+04 0.  0.
        5    1    3    3  502    0 -0.44252208714E+03  0.15790674553E+04  0.20816447880E+02  0.16400412314E+04  0.46999998093E+01 0.  1.
       -5    1    3    3    0  502  0.44252208714E+03 -0.15790674553E+04 -0.12219152163E+04  0.20450864803E+04  0.46999998093E+01 0. -1.
</event>
<event>
 5   0  0.1348226E-07  0.3617575E+04  0.7818609E-02  0.8086478E-01
       -1   -1    0    0    0  501  0.00000000000E+00  0.00000000000E+00  0.13825959003E+04  0.13825959003E+04  0.50400001928E-02 0. -1.
        1   -1    0    0  501    0  0.00000000000E+00  0.00000000000E+00 -0.23663544365E+04  0.23663544365E+04  0.50400001928E-02 0.  1.
    10030    2    1    2    0    0  0.00000000000E+00  0.00000000000E+00 -0.98375853621E+03  0.37489503367E+04  0.36175748465E+04 0.  0.
        4    1    3    3  502    0  0.49900731267E+03 -0.15217165675E+04 -0.13632975352E+04  0.21031432172E+04  0.12699999809E+01 0.  1.
       -4    1    3    3    0  502 -0.49900731267E+03  0.15217165675E+04  0.37953899896E+03  0.16458071195E+04  0.12699999809E+01 0. -1.
</event>
<event>
 5   0  0.1370997E-07  0.3592422E+04  0.7818609E-02  0.8092230E-01
       -1   -1    0    0    0  501  0.00000000000E+00  0.00000000000E+00  0.23496255186E+04  0.23496255187E+04  0.50400001928E-02 0.  1.
        1   -1    0    0  501    0  0.00000000000E+00  0.00000000000E+00 -0.13731436218E+04  0.13731436218E+04  0.50400001928E-02 0. -1.
    10030    2    1    2    0    0  0.00000000000E+00  0.00000000000E+00  0.97648189683E+03  0.37227691405E+04  0.35924216315E+04 0.  0.
        3    1    3    3  502    0 -0.65426385363E+03 -0.12421209584E+04 -0.67288171281E+03  0.15568222362E+04  0.10100000352E+00 0. -1.
       -3    1    3    3    0  502  0.65426385363E+03  0.12421209584E+04  0.16493636096E+04  0.21659469043E+04  0.10100000352E+00 0.  1.
</event>
<event>
 5   0  0.1361743E-07  0.3760097E+04  0.7818609E-02  0.8054772E-01
       -1   -1    0    0    0  501  0.00000000000E+00  0.00000000000E+00  0.30147888784E+04  0.30147888784E+04  0.50400001928E-02 0.  1.
        1   -1    0    0  501    0  0.00000000000E+00  0.00000000000E+00 -0.11724147841E+04  0.11724147841E+04  0.50400001928E-02 0. -1.
    10030    2    1    2    0    0  0.00000000000E+00  0.00000000000E+00  0.18423740943E+04  0.41872036625E+04  0.37600973668E+04 0.  0.
        5    1    3    3  502    0 -0.10172457174E+04  0.13247783899E+04 -0.39818027763E+02  0.16707585694E+04  0.46999998093E+01 0. -1.
       -5    1    3    3    0  502  0.10172457174E+04 -0.13247783899E+04  0.18821921221E+04  0.25164450931E+04  0.46999998093E+01 0.  1.
</event>
<event>
 5   0  0.4200635E-07  0.3593106E+04  0.7818609E-02  0.8092073E-01
       -2   -1    0    0    0  501  0.00000000000E+00  0.00000000000E+00  0.21419588018E+04  0.21419588018E+04  0.25500000920E-02 0. -1.
        2   -1    0    0  501    0  0.00000000000E+00  0.00000000000E+00 -0.15068465486E+04  0.15068465486E+04  0.25500000920E-02 0.  1.
    10030    2    1    2    0    0  0.00000000000E+00  0.00000000000E+00  0.63511225324E+03  0.36488053503E+04  0.35931063038E+04 0.  0.
        4    1    3    3  502    0  0.51720449060E+03 -0.10768313263E+04 -0.10450849136E+04  0.15872209298E+04  0.12699999809E+01 0.  1.
       -4    1    3    3    0  502 -0.51720449060E+03  0.10768313263E+04  0.16801971669E+04  0.20615844205E+04  0.12699999809E+01 0. -1.
</event>
<event>
 5   0  0.3993751E-07  0.3603984E+04  0.7818609E-02  0.8089580E-01
       -2   -1    0    0    0  501  0.00000000000E+00  0.00000000000E+00  0.23369923737E+04  0.23369923737E+04  0.25500000920E-02 0.  1.
        2   -1    0    0  501    0  0.00000000000E+00  0.00000000000E+00 -0.13894674665E+04  0.13894674665E+04  0.25500000920E-02 0. -1.
    10030    2    1    2    0    0  0.00000000000E+00  0.00000000000E+00  0.94752490721E+03  0.37264598402E+04  0.36039838361E+04 0.  0.
        1    1    3    3  502    0 -0.15867639534E+04  0.74893572414E+03  0.89813718624E+03  0.19711354514E+04  0.50400001928E-02 0.  1.
       -1    1    3    3    0  502  0.15867639534E+04 -0.74893572414E+03  0.49387720962E+02  0.17553243887E+04  0.50400001928E-02 0. -1.
</event>
<event>
 5   0  0.3880259E-07  0.3594958E+04  0.7818609E-02  0.8091648E-01
        2   -1    0    0  501    0  0.00000000000E+00  0.00000000000E+00  0.20902769169E+04  0.20902769169E+04  0.25500000920E-02 0.  1.
       -2   -1    0    0    0  501  0.00000000000E+00  0.00000000000E+00 -0.15456953166E+04  0.15456953166E+04  0.25500000920E-02 0. -1.
    10030    2    1    2    0    0  0.00000000000E+00  0.00000000000E+00  0.54458160033E+03  0.36359722335E+04  0.35949582701E+04 0.  0.
        5    1    3    3  502    0 -0.68814668361E+03 -0.16461606485E+04  0.49276494338E+03  0.18510078656E+04  0.46999998093E+01 0. -1.
       -5    1    3    3    0  502  0.68814668361E+03  0.16461606485E+04  0.51816656949E+02  0.17849643680E+04  0.46999998093E+01 0.  1.
</event>
<event>
 5   0  0.4200635E-07  0.3440576E+04  0.7818609E-02  0.8128019E-01
       -2   -1    0    0    0  501  0.00000000000E+00  0.00000000000E+00  0.14948234740E+04  0.14948234740E+04  0.25500000920E-02 0.  1.
        2   -1    0    0  501    0  0.00000000000E+00  0.00000000000E+00 -0.19797595600E+04  0.19797595600E+04  0.25500000920E-02 0. -1.
    10030    2    1    2    0    0  0.00000000000E+00  0.00000000000E+00 -0.48493608596E+03  0.34745830340E+04  0.34405761513E+04 0.  0.
        4    1    3    3  502    0 -0.11808886269E+04 -0.45166293520E+03 -0.14205713243E+04  0.19017155036E+04  0.12699999809E+01 0. -1.
       -4    1    3    3    0  502  0.11808886269E+04  0.45166293520E+03  0.93563523831E+03  0.15728675304E+04  0.12699999809E+01 0.  1.
</event>
<event>
 5   0  0.4120440E-07  0.3596644E+04  0.7818609E-02  0.8091261E-01
        2   -1    0    0  501    0  0.00000000000E+00  0.00000000000E+00  0.16370594673E+04  0.16370594673E+04  0.25500000920E-02 0.  1.
       -2   -1    0    0    0  501  0.00000000000E+00  0.00000000000E+00 -0.19754706277E+04  0.19754706277E+04  0.25500000920E-02 0. -1.
    10030    2    1    2    0    0  0.00000000000E+00  0.00000000000E+00 -0.33841116044E+03  0.36125300950E+04  0.35966444881E+04 0.  0.
        2    1    3    3  502    0  0.18123170891E+03 -0.16995922485E+04  0.39228420047E+03  0.17536663415E+04  0.25500000920E-02 0. -1.
       -2    1    3    3    0  502 -0.18123170891E+03  0.16995922485E+04 -0.73069536091E+03  0.18588637535E+04  0.25500000920E-02 0.  1.
</event>
<event>
 5   0  0.3880259E-07  0.3308564E+04  0.7818609E-02  0.8160720E-01
        2   -1    0    0  501    0  0.00000000000E+00  0.00000000000E+00  0.26589105130E+04  0.26589105130E+04  0.25500000920E-02 0. -1.
       -2   -1    0    0    0  501  0.00000000000E+00  0.00000000000E+00 -0.10292368017E+04  0.10292368017E+04  0.25500000920E-02 0.  1.
    10030    2    1    2    0    0  0.00000000000E+00  0.00000000000E+00  0.16296737113E+04  0.36881473146E+04  0.33085637683E+04 0.  0.
        5    1    3    3  502    0  0.51991261586E+03 -0.15143848598E+04  0.12784293049E+04  0.20489202545E+04  0.46999998093E+01 0. -1.
       -5    1    3    3    0  502 -0.51991261586E+03  0.15143848598E+04  0.35124440641E+03  0.16392270601E+04  0.46999998093E+01 0.  1.
</event>
<event>
 5   0  0.3880259E-07  0.3666230E+04  0.7818609E-02  0.8075487E-01
        2   -1    0    0  501    0  0.00000000000E+00  0.00000000000E+00  0.20580705427E+04  0.20580705427E+04  0.25500000920E-02 0.  1.
       -2   -1    0    0    0  501  0.00000000000E+00  0.00000000000E+00 -0.16327475946E+04  0.16327475946E+04  0.25500000920E-02 0. -1.
    10030    2    1    2    0    0  0.00000000000E+00  0.00000000000E+00  0.42532294806E+03  0.36908181373E+04  0.36662295227E+04 0.  0.
        5    1    3    3  502    0 -0.52029398476E+03  0.82842514928E+03 -0.13479917324E+04  0.16655623252E+04  0.46999998093E+01 0. -1.
       -5    1    3    3    0  502  0.52029398476E+03 -0.82842514928E+03  0.17733146805E+04  0.20252558121E+04  0.46999998093E+01 0.  1.
</event>
<event>
 5   0  0.1298250E-07  0.3591514E+04  0.7818609E-02  0.8092438E-01
        1   -1    0    0  501    0  0.00000000000E+00  0.00000000000E+00  0.99964857246E+03  0.99964857247E+03  0.50400001928E-02 0. -1.
       -1   -1    0    0    0  501  0.00000000000E+00  0.00000000000E+00 -0.32258770072E+04  0.32258770072E+04  0.50400001928E-02 0.  1.
    10030    2    1    2    0    0  0.00000000000E+00  0.00000000000E+00 -0.22262284347E+04  0.42255255797E+04  0.35915140792E+04 0.  0.
        2    1    3    3  502    0  0.21770917672E+03  0.11350504706E+04  0.50392251992E+03  0.12608230496E+04  0.25500000920E-02 0. -1.
       -2    1    3    3    0  502 -0.21770917672E+03 -0.11350504706E+04 -0.27301509546E+04  0.29647025300E+04  0.25500000920E-02 0.  1.
</event>
<event>
 5   0  0.1298250E-07  0.3592847E+04  0.7818609E-02  0.8092132E-01
       -1   -1    0    0    0  501  0.00000000000E+00  0.00000000000E+00  0.16915504211E+04  0.16915504211E+04  0.50400001928E-02 0. -1.
        1   -1    0    0  501    0  0.00000000000E+00  0.00000000000E+00 -0.19077984852E+04  0.19077984852E+04  0.50400001928E-02 0.  1.
    10030    2    1    2    0    0  0.00000000000E+00  0.00000000000E+00 -0.21624806412E+03  0.35993489063E+04  0.35928469664E+04 0.  0.
        2    1    3    3  502    0 -0.10370069736E+03 -0.10299644124E+03 -0.19018321043E+04  0.19074400264E+04  0.25500000920E-02 0.  1.
       -2    1    3    3    0  502  0.10370069736E+03  0.10299644124E+03  0.16855840401E+04  0.16919088799E+04  0.25500000920E-02 0. -1.
</event>
<event>
 5   0  0.1298250E-07  0.3620175E+04  0.7818609E-02  0.8085886E-01
        1   -1    0    0  501    0  0.00000000000E+00  0.00000000000E+00  0.15246721522E+04  0.15246721522E+04  0.50400001928E-02 0.  1.
       -1   -1    0    0    0  501  0.00000000000E+00  0.00000000000E+00 -0.21489323303E+04  0.21489323303E+04  0.50400001928E-02 0. -1.
    10030    2    1    2    0    0  0.00000000000E+00  0.00000000000E+00 -0.62426017807E+03  0.36736044825E+04  0.36201752891E+04 0.  0.
        2    1    3    3  502    0 -0.33480187456E+03  0.10813738738E+04  0.11211445170E+04  0.15932441051E+04  0.25500000920E-02 0.  1.
       -2    1    3    3    0  502  0.33480187456E+03 -0.10813738738E+04 -0.17454046951E+04  0.20803603774E+04  0.25500000920E-02 0. -1.
</event>
<event>
 5   0  0.1361743E-07  0.3586914E+04  0.7818609E-02  0.8093496E-01
        1   -1    0    0  501    0  0.00000000000E+00  0.00000000000E+00  0.12619730638E+04  0.12619730639E+04  0.50400001928E-02 0. -1.
       -1   -1    0    0    0  501  0.00000000000E+00  0.00000000000E+00 -0.25487764290E+04  0.25487764290E+04  0.50400001928E-02 0.  1.
    10030    2    1    2    0    0  0.00000000000E+00  0.00000000000E+00 -0.12868033652E+04  0.38107494929E+04  0.35869135474E+04 0.  0.
        5    1    3    3  502    0 -0.63407451345E+03 -0.45565567797E+01  0.11389029190E+04  0.13035310505E+04  0.46999998093E+01 0. -1.
       -5    1    3    3    0  502  0.63407451345E+03  0.45565567797E+01 -0.24257062841E+04  0.25072184424E+04  0.46999998093E+01 0.  1.
</event>
<event>
 5   0  0.4115358E-07  0.3591328E+04  0.7818609E-02  0.8092481E-01
       -2   -1    0    0    0  501  0.00000000000E+00  0.00000000000E+00  0.24111495359E+04  0.24111495359E+04  0.25500000920E-02 0.  1.
        2   -1    0    0  501    0  0.00000000000E+00  0.00000000000E+00 -0.13372911633E+04  0.13372911633E+04  0.25500000920E-02 0. -1.
    10030    2    1    2    0    0  0.00000000000E+00  0.00000000000E+00  0.10738583726E+04  0.37484406992E+04  0.35913278702E+04 0.  0.
        3    1    3    3  502    0 -0.16293844463E+04  0.28312801636E+03 -0.19321238453E+03  0.16650484027E+04  0.10100000352E+00 0. -1.
       -3    1    3    3    0  502  0.16293844463E+04 -0.28312801636E+03  0.12670707571E+04  0.20833922965E+04  0.10100000352E+00 0.  1.
</event>
<event>
 5   0  0.1370997E-07  0.3586086E+04  0.7818609E-02  0.8093686E-01
        1   -1    0    0  501    0  0.00000000000E+00  0.00000000000E+00  0.24396906359E+04  0.24396906359E+04  0.50400001928E-02 0.  1.
       -1   -1    0    0    0  501  0.00000000000E+00  0.00000000000E+00 -0.13177915787E+04  0.13177915787E+04  0.50400001928E-02 0. -1.
    10030    2    1    2    0    0  0.00000000000E+00  0.00000000000E+00  0.11218990572E+04  0.37574822147E+04  0.35860863206E+04 0.  0.
        3    1    3    3  502    0  0.56193760704E+03  0.26181565502E+03  0.23238255509E+04  0.24050959467E+04  0.10100000352E+00 0.  1.
       -3    1    3    3    0  502 -0.56193760704E+03 -0.26181565502E+03 -0.12019264937E+04  0.13523862680E+04  0.10100000352E+00 0. -1.
</event>
<event>
 5   0  0.1298250E-07  0.3592705E+04  0.7818609E-02  0.8092165E-01
       -1   -1    0    0    0  501  0.00000000000E+00  0.00000000000E+00  0.18922789316E+04  0.18922789316E+04  0.50400001928E-02 0. -1.
        1   -1    0    0  501    0  0.00000000000E+00  0.00000000000E+00 -0.17052890328E+04  0.17052890328E+04  0.50400001928E-02 0.  1.
    10030    2    1    2    0    0  0.00000000000E+00  0.00000000000E+00  0.18698989883E+03  0.35975679644E+04  0.35927051140E+04 0.  0.
        2    1    3    3  502    0  0.15811838034E+04  0.85140290759E+03  0.13660409625E+03  0.18010246557E+04  0.25500000920E-02 0. -1.
       -2    1    3    3    0  502 -0.15811838034E+04 -0.85140290759E+03  0.50385802583E+02  0.17965433088E+04  0.25500000920E-02 0.  1.
</event>
<event>
 5   0  0.1361743E-07  0.3604527E+04  0.7818609E-02  0.8089455E-01
       -1   -1    0    0    0  501  0.00000000000E+00  0.00000000000E+00  0.12753140774E+04  0.12753140774E+04  0.50400001928E-02 0.  1.
        1   -1    0    0  501    0  0.00000000000E+00  0.00000000000E+00 -0.25469443345E+04  0.25469443346E+04  0.50400001928E-02 0. -1.
    10030    2    1    2    0    0  0.00000000000E+00  0.00000000000E+00 -0.12716302572E+04  0.38222584119E+04  0.36045271336E+04 0.  0.
        5    1    3    3  502    0 -0.19279876230E+03 -0.11200918875E+04 -0.21190008719E+04  0.24045714762E+04  0.46999998093E+01 0. -1.
       -5    1    3    3    0  502  0.19279876230E+03  0.11200918875E+04  0.84737061470E+03  0.14176869357E+04  0.46999998093E+01 0.  1.
</event>
<event>
 5   0  0.4120440E-07  0.3605846E+04  0.7818609E-02  0.8089154E-01
       -2   -1    0    0    0  501  0.00000000000E+00  0.00000000000E+00  0.27403421268E+04  0.27403421268E+04  0.25500000920E-02 0. -1.
        2   -1    0    0  501    0  0.00000000000E+00  0.00000000000E+00 -0.11861770985E+04  0.11861770985E+04  0.25500000920E-02 0.  1.
    10030    2    1    2    0    0  0.00000000000E+00  0.00000000000E+00  0.15541650283E+04  0.39265192253E+04  0.36058458497E+04 0.  0.
        2    1    3    3  502    0 -0.12737701760E+03 -0.49965890224E+03  0.26583349241E+04  0.27078826585E+04  0.25500000920E-02 0. -1.
       -2    1    3    3    0  502  0.12737701760E+03  0.49965890224E+03 -0.11041698958E+04  0.12186365669E+04  0.25500000920E-02 0.  1.
</event>
<event>
 5   0  0.4200635E-07  0.3671140E+04  0.7818609E-02  0.8074388E-01
       -2   -1    0    0    0  501  0.00000000000E+00  0.00000000000E+00  0.15952352215E+04  0.15952352215E+04  0.25500000920E-02 0. -1.
        2   -1    0    0  501    0  0.00000000000E+00  0.00000000000E+00 -0.21121132860E+04  0.21121132860E+04  0.25500000920E-02 0.  1.
    10030    2    1    2    0    0  0.00000000000E+00  0.00000000000E+00 -0.51687806451E+03  0.37073485074E+04  0.36711401529E+04 0.  0.
        4    1    3    3  502    0  0.78915414501E+03  0.11077339762E+04 -0.15032675342E+04  0.20272280875E+04  0.12699999809E+01 0.  1.
       -4    1    3    3    0  502 -0.78915414501E+03 -0.11077339762E+04  0.98638946965E+03  0.16801204199E+04  0.12699999809E+01 0. -1.
</event>
<event>
 5   0  0.1370997E-07  0.3597174E+04  0.7818609E-02  0.8091139E-01
        1   -1    0    0  501    0  0.00000000000E+00  0.00000000000E+00  0.17301873709E+04  0.17301873709E+04  0.50400001928E-02 0.  1.
       -1   -1    0    0    0  501  0.00000000000E+00  0.00000000000E+00 -0.18696902309E+04  0.18696902309E+04  0.50400001928E-02 0. -1.
    10030    2    1    2    0    0  0.00000000000E+00  0.00000000000E+00 -0.13950285999E+03  0.35998776019E+04  0.35971735711E+04 0.  0.
        3    1    3    3  502    0 -0.80883161313E+03  0.15420417182E+04 -0.52043779964E+03  0.18174038496E+04  0.10100000352E+00 0. -1.
       -3    1    3    3    0  502  0.80883161313E+03 -0.15420417182E+04  0.38093493965E+03  0.17824737523E+04  0.10100000352E+00 0.  1.
</event>
<event>
 5   0  0.4120440E-07  0.3568651E+04  0.7818609E-02  0.8097710E-01
       -2   -1    0    0    0  501  0.00000000000E+00  0.00000000000E+00  0.18361298239E+04  0.18361298239E+04  0.25500000920E-02 0. -1.
        2   -1    0    0  501    0  0.00000000000E+00  0.00000000000E+00 -0.17339830665E+04  0.17339830665E+04  0.25500000920E-02 0.  1.
    10030    2    1    2    0    0  0.00000000000E+00  0.00000000000E+00  0.10214675734E+03  0.35701128904E+04  0.35686512985E+04 0.  0.
        2    1    3    3  502    0 -0.31511819544E+03  0.51189563323E+03 -0.16296389270E+04  0.17369685227E+04  0.25500000920E-02 0.  1.
       -2    1    3    3    0  502  0.31511819544E+03 -0.51189563323E+03  0.17317856843E+04  0.18331443677E+04  0.25500000920E-02 0. -1.
</event>
<event>
 5   0  0.1361743E-07  0.3600774E+04  0.7818609E-02  0.8090314E-01
        1   -1    0    0  501    0  0.00000000000E+00  0.00000000000E+00  0.28306841665E+04  0.28306841665E+04  0.50400001928E-02 0. -1.
       -1   -1    0    0    0  501  0.00000000000E+00  0.00000000000E+00 -0.11450917781E+04  0.11450917781E+04  0.50400001928E-02 0.  1.
    10030    2    1    2    0    0  0.00000000000E+00  0.00000000000E+00  0.16855923884E+04  0.39757759446E+04  0.36007738976E+04 0.  0.
        5    1    3    3  502    0  0.94517017655E+03  0.25509145655E+03  0.25110975880E+04  0.26951904386E+04  0.46999998093E+01 0. -1.
       -5    1    3    3    0  502 -0.94517017655E+03 -0.25509145655E+03 -0.82550519955E+03  0.12805855061E+04  0.46999998093E+01 0.  1.
</event>
<event>
 5   0  0.1348226E-07  0.3601928E+04  0.7818609E-02  0.8090050E-01
       -1   -1    0    0    0  501  0.00000000000E+00  0.00000000000E+00  0.16340961706E+04  0.16340961707E+04  0.50400001928E-02 0.  1.
        1   -1    0    0  501    0  0.00000000000E+00  0.00000000000E+00 -0.19848716127E+04  0.19848716127E+04  0.50400001928E-02 0. -1.
    10030    2    1    2    0    0  0.00000000000E+00  0.00000000000E+00 -0.35077544206E+03  0.36189677834E+04  0.36019278735E+04 0.  0.
        4    1    3    3  502    0 -0.91413006649E+03 -0.14067969954E+04 -0.83328150723E+03  0.18732515176E+04  0.12699999809E+01 0. -1.
       -4    1    3    3    0  502  0.91413006649E+03  0.14067969954E+04  0.48250606517E+03  0.17457162658E+04  0.12699999809E+01 0.  1.
</event>
<event>
 5   0  0.1298250E-07  0.3545950E+04  0.7818609E-02  0.8102986E-01
        1   -1    0    0  501    0  0.00000000000E+00  0.00000000000E+00  0.19610181113E+04  0.19610181113E+04  0.50400001928E-02 0.  1.
       -1   -1    0    0    0  501  0.00000000000E+00  0.00000000000E+00 -0.16029634267E+04  0.16029634267E+04  0.50400001928E-02 0. -1.
    10030    2    1    2    0    0  0.00000000000E+00  0.00000000000E+00  0.35805468460E+03  0.35639815381E+04  0.35459499780E+04 0.  0.
        2    1    3    3  502    0  0.49010724611E+03 -0.11775489732E+04  0.14167983786E+04  0.19063431859E+04  0.25500000920E-02 0.  1.
       -2    1    3    3    0  502 -0.49010724611E+03  0.11775489732E+04 -0.10587436940E+04  0.16576383522E+04  0.25500000920E-02 0. -1.
</event>
<event>
 5   0  0.1361743E-07  0.3635944E+04  0.7818609E-02  0.8082308E-01
       -1   -1    0    0    0  501  0.00000000000E+00  0.00000000000E+00  0.14555184781E+04  0.14555184781E+04  0.50400001928E-02 0. -1.
        1   -1    0    0  501    0  0.00000000000E+00  0.00000000000E+00 -0.22706837001E+04  0.22706837001E+04  0.50400001928E-02 0.  1.
    10030    2    1    2    0    0  0.00000000000E+00  0.00000000000E+00 -0.81516522194E+03  0.37262021782E+04  0.36359439398E+04 0.  0.
        5    1    3    3  502    0  0.11662319057E+04 -0.45705212825E+03 -0.17578659493E+04  0.21584967667E+04  0.46999998093E+01 0.  1.
       -5    1    3    3    0  502 -0.11662319057E+04  0.45705212825E+03  0.94270072738E+03  0.15677054115E+04  0.46999998093E+01 0. -1.
</event>
<event>
 5   0  0.1298250E-07  0.3542514E+04  0.7818609E-02  0.8103788E-01
       -1   -1    0    0    0  501  0.00000000000E+00  0.00000000000E+00  0.15469450864E+04  0.15469450864E+04  0.50400001928E-02 0.  1.
        1   -1    0    0  501    0  0.00000000000E+00  0.00000000000E+00 -0.20280950576E+04  0.20280950576E+04  0.50400001928E-02 0. -1.
    10030    2    1    2    0    0  0.00000000000E+00  0.00000000000E+00 -0.48114997125E+03  0.35750401440E+04  0.35425141830E+04 0.  0.
        1    1    3    3  502    0  0.12177218830E+04 -0.12765426346E+04 -0.81188171581E+02  0.17660688553E+04  0.50400001928E-02 0. -1.
       -1    1    3    3    0  502 -0.12177218830E+04  0.12765426346E+04 -0.39996179967E+03  0.18089712888E+04  0.50400001928E-02 0.  1.
</event>
<event>
 5   0  0.4115358E-07  0.3605164E+04  0.7818609E-02  0.8089310E-01
        2   -1    0    0  501    0  0.00000000000E+00  0.00000000000E+00  0.19385272550E+04  0.19385272550E+04  0.25500000920E-02 0.  1.
       -2   -1    0    0    0  501  0.00000000000E+00  0.00000000000E+00 -0.16761706347E+04  0.16761706347E+04  0.25500000920E-02 0. -1.
    10030    2    1    2    0    0  0.00000000000E+00  0.00000000000E+00  0.26235662031E+03  0.36146978896E+04  0.36051643287E+04 0.  0.
        3    1    3    3  502    0  0.35059713668E+03  0.52154094674E+02  0.19032410734E+04  0.19359661659E+04  0.10100000352E+00 0.  1.
       -3    1    3    3    0  502 -0.35059713668E+03 -0.52154094674E+02 -0.16408844531E+04  0.16787317238E+04  0.10100000352E+00 0. -1.
</event>
<event>
 5   0  0.4115358E-07  0.3585860E+04  0.7818609E-02  0.8093738E-01
        2   -1    0    0  501    0  0.00000000000E+00  0.00000000000E+00  0.26330990202E+04  0.26330990202E+04  0.25500000920E-02 0.  1.
       -2   -1    0    0    0  501  0.00000000000E+00  0.00000000000E+00 -0.12208421003E+04  0.12208421003E+04  0.25500000920E-02 0. -1.
    10030    2    1    2    0    0  0.00000000000E+00  0.00000000000E+00  0.14122569199E+04  0.38539411205E+04  0.35858600855E+04 0.  0.
        3    1    3    3  502    0  0.88718355515E+03 -0.11781677009E+04 -0.38961320461E+03  0.15254416578E+04  0.10100000352E+00 0. -1.
       -3    1    3    3    0  502 -0.88718355515E+03  0.11781677009E+04  0.18018701246E+04  0.23284994627E+04  0.10100000352E+00 0.  1.
</event>
<event>
 5   0  0.1361743E-07  0.3613930E+04  0.7818609E-02  0.8087308E-01
       -1   -1    0    0    0  501  0.00000000000E+00  0.00000000000E+00  0.14639318332E+04  0.14639318332E+04  0.50400001928E-02 0. -1.
        1   -1    0    0  501    0  0.00000000000E+00  0.00000000000E+00 -0.22303791353E+04  0.22303791353E+04  0.50400001928E-02 0.  1.
    10030    2    1    2    0    0  0.00000000000E+00  0.00000000000E+00 -0.76644730208E+03  0.36943109685E+04  0.36139302795E+04 0.  0.
        5    1    3    3  502    0 -0.17171364365E+04  0.98994585752E+02 -0.94938645454E+03  0.19646155348E+04  0.46999998093E+01 0.  1.
       -5    1    3    3    0  502  0.17171364365E+04 -0.98994585752E+02  0.18293915246E+03  0.17296954336E+04  0.46999998093E+01 0. -1.
</event>
<event>
 5   0  0.1370997E-07  0.3575235E+04  0.7818609E-02  0.8096188E-01
        1   -1    0    0  501    0  0.00000000000E+00  0.00000000000E+00  0.26666841894E+04  0.26666841894E+04  0.50400001928E-02 0.  1.
       -1   -1    0    0    0  501  0.00000000000E+00  0.00000000000E+00 -0.11983333222E+04  0.11983333222E+04  0.50400001928E-02 0. -1.
    10030    2    1    2    0    0  0.00000000000E+00  0.00000000000E+00  0.14683508672E+04  0.38650175116E+04  0.35752351105E+04 0.  0.
        3    1    3    3  502    0 -0.78079214368E+03 -0.90739479918E+03 -0.70105171261E+03  0.13872545574E+04  0.10100000352E+00 0. -1.
       -3    1    3    3    0  502  0.78079214368E+03  0.90739479918E+03  0.21694025799E+04  0.24777629541E+04  0.10100000352E+00 0.  1.
</event>
<event>
 5   0  0.1370997E-07  0.3602497E+04  0.7818609E-02  0.8089920E-01
        1   -1    0    0  501    0  0.00000000000E+00  0.00000000000E+00  0.23450996534E+04  0.23450996534E+04  0.50400001928E-02 0.  1.
       -1   -1    0    0    0  501  0.00000000000E+00  0.00000000000E+00 -0.13835215431E+04  0.13835215431E+04  0.50400001928E-02 0. -1.
    10030    2    1    2    0    0  0.00000000000E+00  0.00000000000E+00  0.96157811032E+03  0.37286211966E+04  0.36024968515E+04 0.  0.
        3    1    3    3  502    0 -0.83385012699E+03  0.88591522674E+02 -0.11691813670E+04  0.14387979605E+04  0.10100000352E+00 0. -1.
       -3    1    3    3    0  502  0.83385012699E+03 -0.88591522674E+02  0.21307594773E+04  0.22898232360E+04  0.10100000352E+00 0.  1.
</event>
<event>
 5   0  0.4120440E-07  0.3601801E+04  0.7818609E-02  0.8090079E-01
        2   -1    0    0  501    0  0.00000000000E+00  0.00000000000E+00  0.24448609666E+04  0.24448609666E+04  0.25500000920E-02 0.  1.
       -2   -1    0    0    0  501  0.00000000000E+00  0.00000000000E+00 -0.13265549693E+04  0.13265549693E+04  0.25500000920E-02 0. -1.
    10030    2    1    2    0    0  0.00000000000E+00  0.00000000000E+00  0.11183059972E+04  0.37714159359E+04  0.36018009188E+04 0.  0.
        2    1    3    3  502    0 -0.19296927631E+03 -0.17354731503E+04  0.10205133849E+04  0.20225112524E+04  0.25500000920E-02 0.  1.
       -2    1    3    3    0  502  0.19296927631E+03  0.17354731503E+04  0.97792612318E+02  0.17489046836E+04  0.25500000920E-02 0. -1.
</event>
<event>
 5   0  0.4120440E-07  0.3498326E+04  0.7818609E-02  0.8114187E-01
        2   -1    0    0  501    0  0.00000000000E+00  0.00000000000E+00  0.23242119643E+04  0.23242119643E+04  0.25500000920E-02 0. -1.
       -2   -1    0    0    0  501  0.00000000000E+00  0.00000000000E+00 -0.13163908002E+04  0.13163908002E+04  0.25500000920E-02 0.  1.
    10030    2    1    2    0    0  0.00000000000E+00  0.00000000000E+00  0.10078211640E+04  0.36406027645E+04  0.34983260268E+04 0.  0.
        2    1    3    3  502    0 -0.57354269202E+03 -0.16279306263E+04  0.79910501700E+03  0.19020194983E+04  0.25500000920E-02 0. -1.
       -2    1    3    3    0  502  0.57354269202E+03  0.16279306263E+04  0.20871614703E+03  0.17385832662E+04  0.25500000920E-02 0.  1.
</event>
<event>
 5   0  0.1348226E-07  0.3589700E+04  0.7818609E-02  0.8092855E-01
       -1   -1    0    0    0  501  0.00000000000E+00  0.00000000000E+00  0.12459744765E+04  0.12459744765E+04  0.50400001928E-02 0. -1.
        1   -1    0    0  501    0  0.00000000000E+00  0.00000000000E+00 -0.25855158779E+04  0.25855158779E+04  0.50400001928E-02 0.  1.
    10030    2    1    2    0    0  0.00000000000E+00  0.00000000000E+00 -0.13395414014E+04  0.38314903545E+04  0.35897001505E+04 0.  0.
        4    1    3    3  502    0  0.61792808160E+03 -0.46486724134E+03  0.10590665558E+04  0.13113200405E+04  0.12699999809E+01 0. -1.
       -4    1    3    3    0  502 -0.61792808160E+03  0.46486724134E+03 -0.23986079572E+04  0.25201703140E+04  0.12699999809E+01 0.  1.
</event>
<event>
 5   0  0.3993751E-07  0.3563768E+04  0.7818609E-02  0.8098842E-01
        2   -1    0    0  501    0  0.00000000000E+00  0.00000000000E+00  0.22583231954E+04  0.22583231954E+04  0.25500000920E-02 0.  1.
       -2   -1    0    0    0  501  0.00000000000E+00  0.00000000000E+00 -0.14059596736E+04  0.14059596736E+04  0.25500000920E-02 0. -1.
    10030    2    1    2    0    0  0.00000000000E+00  0.00000000000E+00  0.85236352172E+03  0.36642828690E+04  0.35637684228E+04 0.  0.
        1    1    3    3  502    0 -0.62935534471E+03  0.16579143692E+04  0.60528760553E+03  0.18738039628E+04  0.50400001928E-02 0.  1.
       -1    1    3    3    0  502  0.62935534471E+03 -0.16579143692E+04  0.24707591619E+03  0.17904789063E+04  0.50400001928E-02 0. -1.
</event>
<event>
 5   0  0.3880259E-07  0.3624154E+04  0.7818609E-02  0.8084981E-01
        2   -1    0    0  501    0  0.00000000000E+00  0.00000000000E+00  0.26005708610E+04  0.26005708610E+04  0.25500000920E-02 0. -1.
       -2   -1    0    0    0  501  0.00000000000E+00  0.00000000000E+00 -0.12626550593E+04  0.12626550593E+04  0.25500000920E-02 0.  1.
    10030    2    1    2    0    0  0.00000000000E+00  0.00000000000E+00  0.13379158017E+04  0.38632259203E+04  0.36241544971E+04 0.  0.
        5    1    3    3  502    0 -0.37046667732E+03  0.57263079417E+03  0.24585274935E+04  0.25513782769E+04  0.46999998093E+01 0. -1.
       -5    1    3    3    0  502  0.37046667732E+03 -0.57263079417E+03 -0.11206116919E+04  0.13118476433E+04  0.46999998093E+01 0.  1.
</event>
<event>
 5   0  0.3880259E-07  0.3687583E+04  0.7818609E-02  0.8070719E-01
        2   -1    0    0  501    0  0.00000000000E+00  0.00000000000E+00  0.13157325915E+04  0.13157325916E+04  0.25500000920E-02 0.  1.
       -2   -1    0    0    0  501  0.00000000000E+00  0.00000000000E+00 -0.25837828189E+04  0.25837828189E+04  0.25500000920E-02 0. -1.
    10030    2    1    2    0    0  0.00000000000E+00  0.00000000000E+00 -0.12680502273E+04  0.38995154104E+04  0.36875830916E+04 0.  0.
        5    1    3    3  502    0  0.35388060486E+03  0.53698358407E+03  0.11932796554E+04  0.13555520197E+04  0.46999998093E+01 0.  1.
       -5    1    3    3    0  502 -0.35388060486E+03 -0.53698358407E+03 -0.24613298827E+04  0.25439633908E+04  0.46999998093E+01 0. -1.
</event>
<event>
 5   0  0.4120440E-07  0.3602011E+04  0.7818609E-02  0.8090031E-01
       -2   -1    0    0    0  501  0.00000000000E+00  0.00000000000E+00  0.15641030845E+04  0.15641030845E+04  0.25500000920E-02 0.  1.
        2   -1    0    0  501    0  0.00000000000E+00  0.00000000000E+00 -0.20737899105E+04  0.20737899105E+04  0.25500000920E-02 0. -1.
    10030    2    1    2    0    0  0.00000000000E+00  0.00000000000E+00 -0.50968682596E+03  0.36378929950E+04  0.36020112136E+04 0.  0.
        2    1    3    3  502    0  0.16313090078E+04 -0.75640610475E+03 -0.35735288078E+03  0.18333085816E+04  0.25500000920E-02 0.  1.
       -2    1    3    3    0  502 -0.16313090078E+04  0.75640610475E+03 -0.15233394518E+03  0.18045844134E+04  0.25500000920E-02 0. -1.
</event>
<event>
 5   0  0.1298250E-07  0.3580996E+04  0.7818609E-02  0.8094859E-01
        3   -1    0    0  501    0  0.00000000000E+00  0.00000000000E+00  0.18178689627E+04  0.18178689655E+04  0.10100000352E+00 0.  1.
       -3   -1    0    0    0  501  0.00000000000E+00  0.00000000000E+00 -0.17635391054E+04  0.17635391083E+04  0.10100000352E+00 0. -1.
    10030    2    1    2    0    0  0.00000000000E+00  0.00000000000E+00  0.54329857284E+02  0.35814080738E+04  0.35809959589E+04 0.  0.
        4    1    3    3  502    0  0.12424804626E+04 -0.77512997673E+03  0.10574762948E+04  0.18063338306E+04  0.12699999809E+01 0.  1.
       -4    1    3    3    0  502 -0.12424804626E+04  0.77512997673E+03 -0.10031464376E+04  0.17750742432E+04  0.12699999809E+01 0. -1.
</event>
<event>
 5   0  0.4115358E-07  0.3676270E+04  0.7818609E-02  0.8073241E-01
       -2   -1    0    0    0  501  0.00000000000E+00  0.00000000000E+00  0.26145412498E+04  0.26145412498E+04  0.25500000920E-02 0.  1.
        2   -1    0    0  501    0  0.00000000000E+00  0.00000000000E+00 -0.12922882515E+04  0.12922882515E+04  0.25500000920E-02 0. -1.
    10030    2    1    2    0    0  0.00000000000E+00  0.00000000000E+00  0.13222529982E+04  0.39068295013E+04  0.36762703601E+04 0.  0.
        3    1    3    3  502    0  0.15256470024E+04  0.82165934702E+03  0.13127869650E+04  0.21739669925E+04  0.10100000352E+00 0. -1.
       -3    1    3    3    0  502 -0.15256470024E+04 -0.82165934702E+03  0.94660332257E+01  0.17328625088E+04  0.10100000352E+00 0.  1.
</event>
<event>
 5   0  0.1370997E-07  0.3579217E+04  0.7818609E-02  0.8095269E-01
        1   -1    0    0  501    0  0.00000000000E+00  0.00000000000E+00  0.15768894839E+04  0.15768894839E+04  0.50400001928E-02 0. -1.
       -1   -1    0    0    0  501  0.00000000000E+00  0.00000000000E+00 -0.20310229898E+04  0.20310229898E+04  0.50400001928E-02 0.  1.
    10030    2    1    2    0    0  0.00000000000E+00  0.00000000000E+00 -0.45413350587E+03  0.36079124737E+04  0.35792171179E+04 0.  0.
        3    1    3    3  502    0  0.17512920013E+04 -0.35099783261E+03 -0.11447690811E+03  0.17897843795E+04  0.10100000352E+00 0.  1.
       -3    1    3    3    0  502 -0.17512920013E+04  0.35099783261E+03 -0.33965659776E+03  0.18181280942E+04  0.10100000352E+00 0. -1.
</event>
<event>
 5   0  0.4200635E-07  0.3621384E+04  0.7818609E-02  0.8085611E-01
        2   -1    0    0  501    0  0.00000000000E+00  0.00000000000E+00  0.24862193075E+04  0.24862193075E+04  0.25500000920E-02 0.  1.
       -2   -1    0    0    0  501  0.00000000000E+00  0.00000000000E+00 -0.13187114842E+04  0.13187114843E+04  0.25500000920E-02 0. -1.
    10030    2    1    2    0    0  0.00000000000E+00  0.00000000000E+00  0.11675078232E+04  0.38049307917E+04  0.36213842398E+04 0.  0.
        4    1    3    3  502    0  0.51523609700E+03  0.13022766745E+04 -0.62211451058E+03  0.15324558231E+04  0.12699999809E+01 0. -1.
       -4    1    3    3    0  502 -0.51523609700E+03 -0.13022766745E+04  0.17896223338E+04  0.22724749686E+04  0.12699999809E+01 0.  1.
</event>
<event>
 5   0  0.1298250E-07  0.3883237E+04  0.7818609E-02  0.8028525E-01
        1   -1    0    0  501    0  0.00000000000E+00  0.00000000000E+00  0.17038952763E+04  0.17038952763E+04  0.50400001928E-02 0.  1.
       -1   -1    0    0    0  501  0.00000000000E+00  0.00000000000E+00 -0.22125086399E+04  0.22125086399E+04  0.50400001928E-02 0. -1.
    10030    2    1    2    0    0  0.00000000000E+00  0.00000000000E+00 -0.50861336354E+03  0.39164039162E+04  0.38832373197E+04 0.  0.
        2    1    3    3  502    0  0.82523915486E+03  0.29044627747E+03 -0.20024617740E+04  0.21852303904E+04  0.25500000920E-02 0. -1.
       -2    1    3    3    0  502 -0.82523915486E+03 -0.29044627747E+03  0.14938484105E+04  0.17311735258E+04  0.25500000920E-02 0.  1.
</event>
<event>
 5   0  0.1298250E-07  0.3618838E+04  0.7818609E-02  0.8086190E-01
        1   -1    0    0  501    0  0.00000000000E+00  0.00000000000E+00  0.14440279681E+04  0.14440279681E+04  0.50400001928E-02 0. -1.
       -1   -1    0    0    0  501  0.00000000000E+00  0.00000000000E+00 -0.22672676646E+04  0.22672676646E+04  0.50400001928E-02 0.  1.
    10030    2    1    2    0    0  0.00000000000E+00  0.00000000000E+00 -0.82323969650E+03  0.37112956327E+04  0.36188384429E+04 0.  0.
        1    1    3    3  502    0  0.47578300655E+03  0.56368204297E+03  0.12828311307E+04  0.14797846549E+04  0.50400001928E-02 0. -1.
       -1    1    3    3    0  502 -0.47578300655E+03 -0.56368204297E+03 -0.21060708272E+04  0.22315109778E+04  0.50400001928E-02 0.  1.
</event>
<event>
 5   0  0.3880259E-07  0.3583156E+04  0.7818609E-02  0.8094361E-01
        2   -1    0    0  501    0  0.00000000000E+00  0.00000000000E+00  0.17758641243E+04  0.17758641243E+04  0.25500000920E-02 0.  1.
       -2   -1    0    0    0  501  0.00000000000E+00  0.00000000000E+00 -0.18074311008E+04  0.18074311008E+04  0.25500000920E-02 0. -1.
    10030    2    1    2    0    0  0.00000000000E+00  0.00000000000E+00 -0.31566976589E+02  0.35832952251E+04  0.35831561780E+04 0.  0.
        5    1    3    3  502    0 -0.14733170108E+04  0.10105655959E+04  0.11772870050E+03  0.17904714393E+04  0.46999998093E+01 0. -1.
       -5    1    3    3    0  502  0.14733170108E+04 -0.10105655959E+04 -0.14929567709E+03  0.17928237858E+04  0.46999998093E+01 0.  1.
</event>
<event>
 5   0  0.1361743E-07  0.3582208E+04  0.7818609E-02  0.8094579E-01
        1   -1    0    0  501    0  0.00000000000E+00  0.00000000000E+00  0.19962130340E+04  0.19962130340E+04  0.50400001928E-02 0.  1.
       -1   -1    0    0    0  501  0.00000000000E+00  0.00000000000E+00 -0.16070695845E+04  0.16070695845E+04  0.50400001928E-02 0. -1.
    10030    2    1    2    0    0  0.00000000000E+00  0.00000000000E+00  0.38914344954E+03  0.36032826185E+04  0.35822078394E+04 0.  0.
        5    1    3    3  502    0 -0.64020857153E+03 -0.15810080674E+04  0.74420900908E+03  0.18610004469E+04  0.46999998093E+01 0.  1.
       -5    1    3    3    0  502  0.64020857153E+03  0.15810080674E+04 -0.35506555953E+03  0.17422821717E+04  0.46999998093E+01 0. -1.
</event>
<event>
 5   0  0.4115358E-07  0.3595998E+04  0.7818609E-02  0.8091409E-01
       -2   -1    0    0    0  501  0.00000000000E+00  0.00000000000E+00  0.15233505642E+04  0.15233505642E+04  0.25500000920E-02 0. -1.
        2   -1    0    0  501    0  0.00000000000E+00  0.00000000000E+00 -0.21221641201E+04  0.21221641201E+04  0.25500000920E-02 0.  1.
    10030    2    1    2    0    0  0.00000000000E+00  0.00000000000E+00 -0.59881355588E+03  0.36455146842E+04  0.35959977250E+04 0.  0.
        3    1    3    3  502    0  0.23896965653E+03 -0.94877811967E+03 -0.18286591053E+04  0.20739528806E+04  0.10100000352E+00 0.  1.
       -3    1    3    3    0  502 -0.23896965653E+03  0.94877811967E+03  0.12298455494E+04  0.15715618037E+04  0.10100000352E+00 0. -1.
</event>
<event>
 5   0  0.3993751E-07  0.3605993E+04  0.7818609E-02  0.8089120E-01
       -2   -1    0    0    0  501  0.00000000000E+00  0.00000000000E+00  0.19262085481E+04  0.19262085481E+04  0.25500000920E-02 0. -1.
        2   -1    0    0  501    0  0.00000000000E+00  0.00000000000E+00 -0.16876661221E+04  0.16876661221E+04  0.25500000920E-02 0.  1.
    10030    2    1    2    0    0  0.00000000000E+00  0.00000000000E+00  0.23854242593E+03  0.36138746702E+04  0.36059932949E+04 0.  0.
        1    1    3    3  502    0 -0.16186340982E+04 -0.38250349613E+03  0.81686126830E+03  0.18529834322E+04  0.50400001928E-02 0.  1.
       -1    1    3    3    0  502  0.16186340982E+04  0.38250349613E+03 -0.57831884236E+03  0.17608912380E+04  0.50400001928E-02 0. -1.
</event>
<event>
 5   0  0.1298250E-07  0.3582721E+04  0.7818609E-02  0.8094461E-01
       -1   -1    0    0    0  501  0.00000000000E+00  0.00000000000E+00  0.16414075435E+04  0.16414075435E+04  0.50400001928E-02 0.  1.
        1   -1    0    0  501    0  0.00000000000E+00  0.00000000000E+00 -0.19550124452E+04  0.19550124452E+04  0.50400001928E-02 0. -1.
    10030    2    1    2    0    0  0.00000000000E+00  0.00000000000E+00 -0.31360490173E+03  0.35964199887E+04  0.35827208516E+04 0.  0.
        2    1    3    3  502    0 -0.12634151422E+04 -0.75242483237E+03  0.87014950321E+03  0.17086606181E+04  0.25500000920E-02 0.  1.
       -2    1    3    3    0  502  0.12634151422E+04  0.75242483237E+03 -0.11837544049E+04  0.18877593706E+04  0.25500000920E-02 0. -1.
</event>
<event>
 5   0  0.1298250E-07  0.3613926E+04  0.7818609E-02  0.8087309E-01
       -1   -1    0    0    0  501  0.00000000000E+00  0.00000000000E+00  0.19076002030E+04  0.19076002030E+04  0.50400001928E-02 0. -1.
        1   -1    0    0  501    0  0.00000000000E+00  0.00000000000E+00 -0.17116345348E+04  0.17116345348E+04  0.50400001928E-02 0.  1.
    10030    2    1    2    0    0  0.00000000000E+00  0.00000000000E+00  0.19596566814E+03  0.36192347378E+04  0.36139255034E+04 0.  0.
        2    1    3    3  502    0 -0.14301627180E+04 -0.20488969509E+03 -0.98886226670E+03  0.17507694793E+04  0.25500000920E-02 0.  1.
       -2    1    3    3    0  502  0.14301627180E+04  0.20488969509E+03  0.11848279348E+04  0.18684652585E+04  0.25500000920E-02 0. -1.
</event>
<event>
 5   0  0.4115358E-07  0.3636091E+04  0.7818609E-02  0.8082274E-01
        2   -1    0    0  501    0  0.00000000000E+00  0.00000000000E+00  0.10757972664E+04  0.10757972664E+04  0.25500000920E-02 0.  1.
       -2   -1    0    0    0  501  0.00000000000E+00  0.00000000000E+00 -0.30724092519E+04  0.30724092519E+04  0.25500000920E-02 0. -1.
    10030    2    1    2    0    0  0.00000000000E+00  0.00000000000E+00 -0.19966119856E+04  0.41482065183E+04  0.36360910189E+04 0.  0.
        3    1    3    3  502    0 -0.55120688195E+03  0.17215759514E+04 -0.77698057968E+03  0.19675750594E+04  0.10100000352E+00 0.  1.
       -3    1    3    3    0  502  0.55120688195E+03 -0.17215759514E+04 -0.12196314059E+04  0.21806314589E+04  0.10100000352E+00 0. -1.
</event>
<event>
 5   0  0.4115358E-07  0.3592475E+04  0.7818609E-02  0.8092218E-01
       -2   -1    0    0    0  501  0.00000000000E+00  0.00000000000E+00  0.14137653911E+04  0.14137653911E+04  0.25500000920E-02 0. -1.
        2   -1    0    0  501    0  0.00000000000E+00  0.00000000000E+00 -0.22821810808E+04  0.22821810808E+04  0.25500000920E-02 0.  1.
    10030    2    1    2    0    0  0.00000000000E+00  0.00000000000E+00 -0.86841568971E+03  0.36959464720E+04  0.35924747060E+04 0.  0.
        3    1    3    3  502    0  0.61973917570E+03  0.72346580397E+03 -0.20008915160E+04  0.22160880589E+04  0.10100000352E+00 0.  1.
       -3    1    3    3    0  502 -0.61973917570E+03 -0.72346580397E+03  0.11324758263E+04  0.14798584131E+04  0.10100000352E+00 0. -1.
</event>
<event>
 5   0  0.1348226E-07  0.3539593E+04  0.7818609E-02  0.8104471E-01
        1   -1    0    0  501    0  0.00000000000E+00  0.00000000000E+00  0.12786621643E+04  0.12786621643E+04  0.50400001928E-02 0.  1.
       -1   -1    0    0    0  501  0.00000000000E+00  0.00000000000E+00 -0.24495753961E+04  0.24495753961E+04  0.50400001928E-02 0. -1.
    10030    2    1    2    0    0  0.00000000000E+00  0.00000000000E+00 -0.11709132318E+04  0.37282375604E+04  0.35395928453E+04 0.  0.
        4    1    3    3  502    0 -0.16293182956E+04 -0.44758125884E+03 -0.30928070472E+02  0.16899601326E+04  0.12699999809E+01 0.  1.
       -4    1    3    3    0  502  0.16293182956E+04  0.44758125884E+03 -0.11399851613E+04  0.20382774277E+04  0.12699999809E+01 0. -1.
</event>
<event>
 5   0  0.1348226E-07  0.3666478E+04  0.7818609E-02  0.8075431E-01
       -1   -1    0    0    0  501  0.00000000000E+00  0.00000000000E+00  0.23528005802E+04  0.23528005802E+04  0.50400001928E-02 0. -1.
        1   -1    0    0  501    0  0.00000000000E+00  0.00000000000E+00 -0.14284108053E+04  0.14284108053E+04  0.50400001928E-02 0.  1.
    10030    2    1    2    0    0  0.00000000000E+00  0.00000000000E+00  0.92438977488E+03  0.37812113856E+04  0.36664782948E+04 0.  0.
        4    1    3    3  502    0 -0.11378854395E+04  0.12761480869E+04  0.11442737712E+04  0.20573529813E+04  0.12699999809E+01 0. -1.
       -4    1    3    3    0  502  0.11378854395E+04 -0.12761480869E+04 -0.21988399637E+03  0.17238584043E+04  0.12699999809E+01 0.  1.
</event>
<event>
 5   0  0.1298250E-07  0.3602560E+04  0.7818609E-02  0.8089906E-01
        1   -1    0    0  501    0  0.00000000000E+00  0.00000000000E+00  0.28178091040E+04  0.28178091040E+04  0.50400001928E-02 0.  1.
       -1   -1    0    0    0  501  0.00000000000E+00  0.00000000000E+00 -0.11514650947E+04  0.11514650947E+04  0.50400001928E-02 0. -1.
    10030    2    1    2    0    0  0.00000000000E+00  0.00000000000E+00  0.16663440093E+04  0.39692741987E+04  0.36025595495E+04 0.  0.
        1    1    3    3  502    0  0.12976348525E+04 -0.34885587240E+03 -0.48854417444E+03  0.14297664286E+04  0.50400001928E-02 0. -1.
       -1    1    3    3    0  502 -0.12976348525E+04  0.34885587240E+03  0.21548881837E+04  0.25395077701E+04  0.50400001928E-02 0.  1.
</event>
<event>
 5   0  0.1298250E-07  0.3603925E+04  0.7818609E-02  0.8089593E-01
       -1   -1    0    0    0  501  0.00000000000E+00  0.00000000000E+00  0.15468430639E+04  0.15468430639E+04  0.50400001928E-02 0.  1.
        1   -1    0    0  501    0  0.00000000000E+00  0.00000000000E+00 -0.20991588426E+04  0.20991588426E+04  0.50400001928E-02 0. -1.
    10030    2    1    2    0    0  0.00000000000E+00  0.00000000000E+00 -0.55231577875E+03  0.36460019065E+04  0.36039252466E+04 0.  0.
        1    1    3    3  502    0  0.63768770357E+03 -0.61455525858E+03  0.13114779215E+04  0.15824974286E+04  0.50400001928E-02 0.  1.
       -1    1    3    3    0  502 -0.63768770357E+03  0.61455525858E+03 -0.18637937002E+04  0.20635044779E+04  0.50400001928E-02 0. -1.
</event>
<event>
 5   0  0.1298250E-07  0.3599351E+04  0.7818609E-02  0.8090640E-01
       -1   -1    0    0    0  501  0.00000000000E+00  0.00000000000E+00  0.30095052983E+04  0.30095052984E+04  0.50400001928E-02 0. -1.
        1   -1    0    0  501    0  0.00000000000E+00  0.00000000000E+00 -0.10762007446E+04  0.10762007446E+04  0.50400001928E-02 0.  1.
    10030    2    1    2    0    0  0.00000000000E+00  0.00000000000E+00  0.19333045538E+04  0.40857060430E+04  0.35993509654E+04 0.  0.
        2    1    3    3  502    0  0.54144348249E+03  0.42068723918E+03  0.28554277126E+04  0.29365977286E+04  0.25500000920E-02 0. -1.
       -2    1    3    3    0  502 -0.54144348249E+03 -0.42068723918E+03 -0.92212315884E+03  0.11491083143E+04  0.25500000920E-02 0.  1.
</event>
<event>
 5   0  0.1361743E-07  0.3722420E+04  0.7818609E-02  0.8063011E-01
       -1   -1    0    0    0  501  0.00000000000E+00  0.00000000000E+00  0.21777698387E+04  0.21777698387E+04  0.50400001928E-02 0. -1.
        1   -1    0    0  501    0  0.00000000000E+00  0.00000000000E+00 -0.15906652263E+04  0.15906652263E+04  0.50400001928E-02 0.  1.
    10030    2    1    2    0    0  0.00000000000E+00  0.00000000000E+00  0.58710461240E+03  0.37684350651E+04  0.37224200480E+04 0.  0.
        5    1    3    3  502    0 -0.35481199264E+03  0.11147262916E+04 -0.11719523436E+04  0.16558987412E+04  0.46999998093E+01 0.  1.
       -5    1    3    3    0  502  0.35481199264E+03 -0.11147262916E+04  0.17590569560E+04  0.21125363239E+04  0.46999998093E+01 0. -1.
</event>
<event>
 5   0  0.1298250E-07  0.3575981E+04  0.7818609E-02  0.8096016E-01
       -1   -1    0    0    0  501  0.00000000000E+00  0.00000000000E+00  0.16413105686E+04  0.16413105687E+04  0.50400001928E-02 0.  1.
        1   -1    0    0  501    0  0.00000000000E+00  0.00000000000E+00 -0.19477787285E+04  0.19477787285E+04  0.50400001928E-02 0. -1.
    10030    2    1    2    0    0  0.00000000000E+00  0.00000000000E+00 -0.30646815986E+03  0.35890892972E+04  0.35759808794E+04 0.  0.
        2    1    3    3  502    0 -0.15234923152E+04 -0.91164079551E+03  0.59183025757E+02  0.17764065990E+04  0.25500000920E-02 0.  1.
       -2    1    3    3    0  502  0.15234923152E+04  0.91164079551E+03 -0.36565118561E+03  0.18126826981E+04  0.25500000920E-02 0. -1.
</event>
<event>
 5   0  0.3993751E-07  0.3576199E+04  0.7818609E-02  0.8095965E-01
       -2   -1    0    0    0  501  0.00000000000E+00  0.00000000000E+00  0.17503295137E+04  0.17503295137E+04  0.25500000920E-02 0. -1.
        2   -1    0    0  501    0  0.00000000000E+00  0.00000000000E+00 -0.18266845898E+04  0.18266845898E+04  0.25500000920E-02 0.  1.
    10030    2    1    2    0    0  0.00000000000E+00  0.00000000000E+00 -0.76355076097E+02  0.35770141034E+04  0.35761990714E+04 0.  0.
        1    1    3    3  502    0  0.34272684329E+03 -0.85908471074E+03 -0.15688242187E+04  0.18211802927E+04  0.50400001928E-02 0.  1.
       -1    1    3    3    0  502 -0.34272684329E+03  0.85908471074E+03  0.14924691426E+04  0.17558338107E+04  0.50400001928E-02 0. -1.
</event>
<event>
 5   0  0.3993751E-07  0.3596684E+04  0.7818609E-02  0.8091252E-01
       -2   -1    0    0    0  501  0.00000000000E+00  0.00000000000E+00  0.12594800416E+04  0.12594800417E+04  0.25500000920E-02 0. -1.
        2   -1    0    0  501    0  0.00000000000E+00  0.00000000000E+00 -0.25677534262E+04  0.25677534262E+04  0.25500000920E-02 0.  1.
    10030    2    1    2    0    0  0.00000000000E+00  0.00000000000E+00 -0.13082733846E+04  0.38272334679E+04  0.35966841352E+04 0.  0.
        1    1    3    3  502    0 -0.88302687562E+03  0.13442705510E+04 -0.15102149304E+04  0.22062522325E+04  0.50400001928E-02 0. -1.
       -1    1    3    3    0  502  0.88302687562E+03 -0.13442705510E+04  0.20194154587E+03  0.16209812353E+04  0.50400001928E-02 0.  1.
</event>
<event>
 5   0  0.4120440E-07  0.3589981E+04  0.7818609E-02  0.8092791E-01
       -2   -1    0    0    0  501  0.00000000000E+00  0.00000000000E+00  0.13681836075E+04  0.13681836075E+04  0.25500000920E-02 0. -1.
        2   -1    0    0  501    0  0.00000000000E+00  0.00000000000E+00 -0.23549403690E+04  0.23549403690E+04  0.25500000920E-02 0.  1.
    10030    2    1    2    0    0  0.00000000000E+00  0.00000000000E+00 -0.98675676146E+03  0.37231239764E+04  0.35899809523E+04 0.  0.
        2    1    3    3  502    0 -0.82017961295E+03 -0.15767205998E+04 -0.23255891823E+03  0.17924358002E+04  0.25500000920E-02 0. -1.
       -2    1    3    3    0  502  0.82017961295E+03  0.15767205998E+04 -0.75419784323E+03  0.19306881763E+04  0.25500000920E-02 0.  1.
</event>
<event>
 5   0  0.1348226E-07  0.3605718E+04  0.7818609E-02  0.8089183E-01
        1   -1    0    0  501    0  0.00000000000E+00  0.00000000000E+00  0.28226946520E+04  0.28226946520E+04  0.50400001928E-02 0. -1.
       -1   -1    0    0    0  501  0.00000000000E+00  0.00000000000E+00 -0.11514883551E+04  0.11514883551E+04  0.50400001928E-02 0.  1.
    10030    2    1    2    0    0  0.00000000000E+00  0.00000000000E+00  0.16712062969E+04  0.39741830071E+04  0.36057176938E+04 0.  0.
        4    1    3    3  502    0  0.12193208524E+04  0.78964796586E+03 -0.34121861676E+03  0.14922194907E+04  0.12699999809E+01 0.  1.
       -4    1    3    3    0  502 -0.12193208524E+04 -0.78964796586E+03  0.20124249136E+04  0.24819635164E+04  0.12699999809E+01 0. -1.
</event>
<event>
 5   0  0.1348226E-07  0.3487471E+04  0.7818609E-02  0.8116766E-01
        1   -1    0    0  501    0  0.00000000000E+00  0.00000000000E+00  0.18652109984E+04  0.18652109984E+04  0.50400001928E-02 0. -1.
       -1   -1    0    0    0  501  0.00000000000E+00  0.00000000000E+00 -0.16301715215E+04  0.16301715215E+04  0.50400001928E-02 0.  1.
    10030    2    1    2    0    0  0.00000000000E+00  0.00000000000E+00  0.23503947694E+03  0.34953825199E+04  0.34874712049E+04 0.  0.
        4    1    3    3  502    0  0.15878331005E+04 -0.16116421457E+03  0.82155495134E+03  0.17950325930E+04  0.12699999809E+01 0. -1.
       -4    1    3    3    0  502 -0.15878331005E+04  0.16116421457E+03 -0.58651547440E+03  0.17003499268E+04  0.12699999809E+01 0.  1.
</event>
<event>
 5   0  0.1298250E-07  0.3576815E+04  0.7818609E-02  0.8095823E-01
       -1   -1    0    0    0  501  0.00000000000E+00  0.00000000000E+00  0.24166446373E+04  0.24166446373E+04  0.50400001928E-02 0. -1.
        1   -1    0    0  501    0  0.00000000000E+00  0.00000000000E+00 -0.13234884237E+04  0.13234884237E+04  0.50400001928E-02 0.  1.
    10030    2    1    2    0    0  0.00000000000E+00  0.00000000000E+00  0.10931562136E+04  0.37401330610E+04  0.35768148969E+04 0.  0.
        1    1    3    3  502    0  0.55718337270E+03 -0.14721050460E+04 -0.34122044433E+03  0.16105831146E+04  0.50400001928E-02 0.  1.
       -1    1    3    3    0  502 -0.55718337270E+03  0.14721050460E+04  0.14343766579E+04  0.21295499464E+04  0.50400001928E-02 0. -1.
</event>
<event>
 5   0  0.1298250E-07  0.3616662E+04  0.7818609E-02  0.8086686E-01
       -1   -1    0    0    0  501  0.00000000000E+00  0.00000000000E+00  0.14285266555E+04  0.14285266555E+04  0.50400001928E-02 0. -1.
        1   -1    0    0  501    0  0.00000000000E+00  0.00000000000E+00 -0.22891142817E+04  0.22891142817E+04  0.50400001928E-02 0.  1.
    10030    2    1    2    0    0  0.00000000000E+00  0.00000000000E+00 -0.86058762616E+03  0.37176409372E+04  0.36166618691E+04 0.  0.
        2    1    3    3  502    0  0.13698988208E+04  0.44132056187E+03 -0.15557020889E+04  0.21193384834E+04  0.25500000920E-02 0.  1.
       -2    1    3    3    0  502 -0.13698988208E+04 -0.44132056187E+03  0.69511446275E+03  0.15983024538E+04  0.25500000920E-02 0. -1.
</event>
<event>
 5   0  0.1298250E-07  0.3596961E+04  0.7818609E-02  0.8091188E-01
        1   -1    0    0  501    0  0.00000000000E+00  0.00000000000E+00  0.24572741334E+04  0.24572741335E+04  0.50400001928E-02 0.  1.
       -1   -1    0    0    0  501  0.00000000000E+00  0.00000000000E+00 -0.13163087314E+04  0.13163087314E+04  0.50400001928E-02 0. -1.
    10030    2    1    2    0    0  0.00000000000E+00  0.00000000000E+00  0.11409654020E+04  0.37735828649E+04  0.35969606044E+04 0.  0.
        2    1    3    3  502    0  0.11055787291E+04  0.13792295410E+04  0.91835643714E+03  0.19919731421E+04  0.25500000920E-02 0.  1.
       -2    1    3    3    0  502 -0.11055787291E+04 -0.13792295410E+04  0.22260896488E+03  0.17816097228E+04  0.25500000920E-02 0. -1.
</event>
<event>
 5   0  0.4115358E-07  0.3589088E+04  0.7818609E-02  0.8092996E-01
       -2   -1    0    0    0  501  0.00000000000E+00  0.00000000000E+00  0.16049543723E+04  0.16049543723E+04  0.25500000920E-02 0. -1.
        2   -1    0    0  501    0  0.00000000000E+00  0.00000000000E+00 -0.20065292186E+04  0.20065292186E+04  0.25500000920E-02 0.  1.
    10030    2    1    2    0    0  0.00000000000E+00  0.00000000000E+00 -0.40157484633E+03  0.36114835908E+04  0.35890878186E+04 0.  0.
        3    1    3    3  502    0  0.13878115505E+02  0.45275572283E+03 -0.19480579948E+04  0.20000275768E+04  0.10100000352E+00 0.  1.
       -3    1    3    3    0  502 -0.13878115505E+02 -0.45275572283E+03  0.15464831484E+04  0.16114560141E+04  0.10100000352E+00 0. -1.
</event>
<event>
 5   0  0.3993751E-07  0.3745822E+04  0.7818609E-02  0.8057882E-01
       -2   -1    0    0    0  501  0.00000000000E+00  0.00000000000E+00  0.13792024299E+04  0.13792024299E+04  0.25500000920E-02 0.  1.
        2   -1    0    0  501    0  0.00000000000E+00  0.00000000000E+00 -0.25433506059E+04  0.25433506059E+04  0.25500000920E-02 0. -1.
    10030    2    1    2    0    0  0.00000000000E+00  0.00000000000E+00 -0.11641481759E+04  0.39225530358E+04  0.37458218515E+04 0.  0.
        1    1    3    3  502    0  0.12413585368E+04 -0.94368999475E+01  0.88649593123E+03  0.15254294832E+04  0.50400001928E-02 0.  1.
       -1    1    3    3    0  502 -0.12413585368E+04  0.94368999475E+01 -0.20506441072E+04  0.23971235526E+04  0.50400001928E-02 0. -1.
</event>
<event>
 5   0  0.4115358E-07  0.3576184E+04  0.7818609E-02  0.8095969E-01
       -2   -1    0    0    0  501  0.00000000000E+00  0.00000000000E+00  0.16200931197E+04  0.16200931197E+04  0.25500000920E-02 0. -1.
        2   -1    0    0  501    0  0.00000000000E+00  0.00000000000E+00 -0.19735114142E+04  0.19735114142E+04  0.25500000920E-02 0.  1.
    10030    2    1    2    0    0  0.00000000000E+00  0.00000000000E+00 -0.35341829455E+03  0.35936045339E+04  0.35761835880E+04 0.  0.
        3    1    3    3  502    0  0.13720893180E+04  0.55411614998E+02  0.97410889647E+03  0.16836233831E+04  0.10100000352E+00 0. -1.
       -3    1    3    3    0  502 -0.13720893180E+04 -0.55411614998E+02 -0.13275271910E+04  0.19099811509E+04  0.10100000352E+00 0.  1.
</event>
<event>
 5   0  0.1298250E-07  0.3589816E+04  0.7818609E-02  0.8092828E-01
        1   -1    0    0  501    0  0.00000000000E+00  0.00000000000E+00  0.23044979691E+04  0.23044979691E+04  0.50400001928E-02 0. -1.
       -1   -1    0    0    0  501  0.00000000000E+00  0.00000000000E+00 -0.13980027170E+04  0.13980027170E+04  0.50400001928E-02 0.  1.
    10030    2    1    2    0    0  0.00000000000E+00  0.00000000000E+00  0.90649525213E+03  0.37025006861E+04  0.35898158294E+04 0.  0.
        1    1    3    3  502    0  0.12302451087E+04  0.69746547955E+03 -0.68676899951E+03  0.15721363750E+04  0.50400001928E-02 0.  1.
       -1    1    3    3    0  502 -0.12302451087E+04 -0.69746547955E+03  0.15932642516E+04  0.21303643112E+04  0.50400001928E-02 0. -1.
</event>
<event>
 5   0  0.4120440E-07  0.3635503E+04  0.7818609E-02  0.8082407E-01
        2   -1    0    0  501    0  0.00000000000E+00  0.00000000000E+00  0.15435918778E+04  0.15435918778E+04  0.25500000920E-02 0. -1.
       -2   -1    0    0    0  501  0.00000000000E+00  0.00000000000E+00 -0.21406050837E+04  0.21406050838E+04  0.25500000920E-02 0.  1.
    10030    2    1    2    0    0  0.00000000000E+00  0.00000000000E+00 -0.59701320595E+03  0.36841969615E+04  0.36355030578E+04 0.  0.
        2    1    3    3  502    0 -0.12442415205E+04 -0.62751156069E+03 -0.14813214313E+04  0.20337701205E+04  0.25500000920E-02 0.  1.
       -2    1    3    3    0  502  0.12442415205E+04  0.62751156069E+03  0.88430822538E+03  0.16504268410E+04  0.25500000920E-02 0. -1.
</event>
<event>
 5   0  0.4120440E-07  0.3512283E+04  0.7818609E-02  0.8110885E-01
       -2   -1    0    0    0  501  0.00000000000E+00  0.00000000000E+00  0.14255827742E+04  0.14255827742E+04  0.25500000920E-02 0.  1.
        2   -1    0    0  501    0  0.00000000000E+00  0.00000000000E+00 -0.21633483303E+04  0.21633483303E+04  0.25500000920E-02 0. -1.
    10030    2    1    2    0    0  0.00000000000E+00  0.00000000000E+00 -0.73776555606E+03  0.35889311045E+04  0.35122825139E+04 0.  0.
        2    1    3    3  502    0  0.12551907373E+04  0.87535068824E+03  0.51148135075E+03  0.16134917993E+04  0.25500000920E-02 0.  1.
       -2    1    3    3    0  502 -0.12551907373E+04 -0.87535068824E+03 -0.12492469068E+04  0.19754393052E+04  0.25500000920E-02 0. -1.
</event>
<event>
 5   0  0.1298250E-07  0.3608189E+04  0.7818609E-02  0.8088618E-01
        1   -1    0    0  501    0  0.00000000000E+00  0.00000000000E+00  0.13938536219E+04  0.13938536219E+04  0.50400001928E-02 0. -1.
       -1   -1    0    0    0  501  0.00000000000E+00  0.00000000000E+00 -0.23350782865E+04  0.23350782865E+04  0.50400001928E-02 0.  1.
    10030    2    1    2    0    0  0.00000000000E+00  0.00000000000E+00 -0.94122466458E+03  0.37289319084E+04  0.36081892007E+04 0.  0.
        1    1    3    3  502    0 -0.67535205629E+03  0.81396138874E+02  0.12562404515E+04  0.14285887454E+04  0.50400001928E-02 0. -1.
       -1    1    3    3    0  502  0.67535205629E+03 -0.81396138874E+02 -0.21974651161E+04  0.23003431630E+04  0.50400001928E-02 0.  1.
</event>
<event>
 5   0  0.1348226E-07  0.3494060E+04  0.7818609E-02  0.8115199E-01
       -1   -1    0    0    0  501  0.00000000000E+00  0.00000000000E+00  0.21302696574E+04  0.21302696574E+04  0.50400001928E-02 0.  1.
        1   -1    0    0  501    0  0.00000000000E+00  0.00000000000E+00 -0.14327355893E+04  0.14327355893E+04  0.50400001928E-02 0. -1.
    10030    2    1    2    0    0  0.00000000000E+00  0.00000000000E+00  0.69753406810E+03  0.35630052467E+04  0.34940596177E+04 0.  0.
        4    1    3    3  502    0  0.11061212110E+04  0.80920958392E+02 -0.10277050034E+04  0.15120289422E+04  0.12699999809E+01 0. -1.
       -4    1    3    3    0  502 -0.11061212110E+04 -0.80920958392E+02  0.17252390715E+04  0.20509763045E+04  0.12699999809E+01 0.  1.
</event>
<event>
 5   0  0.1361743E-07  0.3586263E+04  0.7818609E-02  0.8093646E-01
        1   -1    0    0  501    0  0.00000000000E+00  0.00000000000E+00  0.18784630187E+04  0.18784630187E+04  0.50400001928E-02 0. -1.
       -1   -1    0    0    0  501  0.00000000000E+00  0.00000000000E+00 -0.17116759230E+04  0.17116759230E+04  0.50400001928E-02 0.  1.
    10030    2    1    2    0    0  0.00000000000E+00  0.00000000000E+00  0.16678709572E+03  0.35901389418E+04  0.35862626348E+04 0.  0.
        5    1    3    3  502    0  0.47327073775E+03 -0.12790435143E+04  0.12488513405E+04  0.18492131471E+04  0.46999998093E+01 0. -1.
       -5    1    3    3    0  502 -0.47327073775E+03  0.12790435143E+04 -0.10820642448E+04  0.17409257947E+04  0.46999998093E+01 0.  1.
</event>
<event>
 5   0  0.4200635E-07  0.3184712E+04  0.7818609E-02  0.8192866E-01
        2   -1    0    0  501    0  0.00000000000E+00  0.00000000000E+00  0.29511998465E+04  0.29511998465E+04  0.25500000920E-02 0.  1.
       -2   -1    0    0    0  501  0.00000000000E+00  0.00000000000E+00 -0.85917539052E+03  0.85917539053E+03  0.25500000920E-02 0. -1.
    10030    2    1    2    0    0  0.00000000000E+00  0.00000000000E+00  0.20920244560E+04  0.38103752370E+04  0.31847124081E+04 0.  0.
        4    1    3    3  502    0  0.15714916892E+04 -0.13149094646E+03  0.13101035615E+04  0.20501826634E+04  0.12699999809E+01 0. -1.
       -4    1    3    3    0  502 -0.15714916892E+04  0.13149094646E+03  0.78192089445E+03  0.17601925737E+04  0.12699999809E+01 0.  1.
</event>
<event>
 5   0  0.1361743E-07  0.3579462E+04  0.7818609E-02  0.8095212E-01
        1   -1    0    0  501    0  0.00000000000E+00  0.00000000000E+00  0.19227258614E+04  0.19227258614E+04  0.50400001928E-02 0. -1.
       -1   -1    0    0    0  501  0.00000000000E+00  0.00000000000E+00 -0.16659355931E+04  0.16659355931E+04  0.50400001928E-02 0.  1.
    10030    2    1    2    0    0  0.00000000000E+00  0.00000000000E+00  0.25679026828E+03  0.35886614545E+04  0.35794622212E+04 0.  0.
        5    1    3    3  502    0 -0.58802666232E+02  0.28243537312E+03 -0.16424647479E+04  0.16676150730E+04  0.46999998093E+01 0.  1.
       -5    1    3    3    0  502  0.58802666232E+02 -0.28243537312E+03  0.18992550162E+04  0.19210463815E+04  0.46999998093E+01 0. -1.
</event>
<event>
 5   0  0.3993751E-07  0.3595863E+04  0.7818609E-02  0.8091440E-01
       -2   -1    0    0    0  501  0.00000000000E+00  0.00000000000E+00  0.34032144756E+04  0.34032144756E+04  0.25500000920E-02 0.  1.
        2   -1    0    0  501    0  0.00000000000E+00  0.00000000000E+00 -0.94985408899E+03  0.94985408899E+03  0.25500000920E-02 0. -1.
    10030    2    1    2    0    0  0.00000000000E+00  0.00000000000E+00  0.24533603867E+04  0.43530685646E+04  0.35958627256E+04 0.  0.
        1    1    3    3  502    0 -0.68298721954E+03 -0.24755775532E+03 -0.76426840188E+03  0.10544489435E+04  0.50400001928E-02 0. -1.
       -1    1    3    3    0  502  0.68298721954E+03  0.24755775532E+03  0.32176287885E+04  0.32986196212E+04  0.50400001928E-02 0.  1.
</event>
<event>
 5   0  0.1361743E-07  0.3592855E+04  0.7818609E-02  0.8092130E-01
        1   -1    0    0  501    0  0.00000000000E+00  0.00000000000E+00  0.30155799324E+04  0.30155799324E+04  0.50400001928E-02 0. -1.
       -1   -1    0    0    0  501  0.00000000000E+00  0.00000000000E+00 -0.10701595518E+04  0.10701595518E+04  0.50400001928E-02 0.  1.
    10030    2    1    2    0    0  0.00000000000E+00  0.00000000000E+00  0.19454203806E+04  0.40857394841E+04  0.35928549477E+04 0.  0.
        5    1    3    3  502    0  0.10257411699E+04 -0.48892476633E+03 -0.60954533372E+03  0.12894805072E+04  0.46999998093E+01 0.  1.
       -5    1    3    3    0  502 -0.10257411699E+04  0.48892476633E+03  0.25549657143E+04  0.27962589769E+04  0.46999998093E+01 0. -1.
</event>
<event>
 5   0  0.1370997E-07  0.3607396E+04  0.7818609E-02  0.8088800E-01
       -1   -1    0    0    0  501  0.00000000000E+00  0.00000000000E+00  0.12591189437E+04  0.12591189437E+04  0.50400001928E-02 0. -1.
        1   -1    0    0  501    0  0.00000000000E+00  0.00000000000E+00 -0.25838125737E+04  0.25838125737E+04  0.50400001928E-02 0.  1.
    10030    2    1    2    0    0  0.00000000000E+00  0.00000000000E+00 -0.13246936300E+04  0.38429315174E+04  0.36073964897E+04 0.  0.
        3    1    3    3  502    0  0.61648870458E+03  0.30727893854E+03  0.11134824796E+04  0.13093211644E+04  0.10100000352E+00 0. -1.
       -3    1    3    3    0  502 -0.61648870458E+03 -0.30727893854E+03 -0.24381761097E+04  0.25336103530E+04  0.10100000352E+00 0.  1.
</event>
<event>
 5   0  0.1370997E-07  0.3597938E+04  0.7818609E-02  0.8090964E-01
        1   -1    0    0  501    0  0.00000000000E+00  0.00000000000E+00  0.10415588309E+04  0.10415588309E+04  0.50400001928E-02 0.  1.
       -1   -1    0    0    0  501  0.00000000000E+00  0.00000000000E+00 -0.31071602444E+04  0.31071602444E+04  0.50400001928E-02 0. -1.
    10030    2    1    2    0    0  0.00000000000E+00  0.00000000000E+00 -0.20656014135E+04  0.41487190753E+04  0.35979384050E+04 0.  0.
        3    1    3    3  502    0 -0.94208961551E+03  0.11584293457E+04  0.12419473039E+03  0.14983042861E+04  0.10100000352E+00 0.  1.
       -3    1    3    3    0  502  0.94208961551E+03 -0.11584293457E+04 -0.21897961439E+04  0.26504147892E+04  0.10100000352E+00 0. -1.
</event>
<event>
 5   0  0.1298250E-07  0.3559789E+04  0.7818609E-02  0.8099765E-01
        3   -1    0    0  501    0  0.00000000000E+00  0.00000000000E+00  0.14161651645E+04  0.14161651681E+04  0.10100000352E+00 0.  1.
       -3   -1    0    0    0  501  0.00000000000E+00  0.00000000000E+00 -0.22370449995E+04  0.22370450017E+04  0.10100000352E+00 0. -1.
    10030    2    1    2    0    0  0.00000000000E+00  0.00000000000E+00 -0.82087983493E+03  0.36532101699E+04  0.35597894379E+04 0.  0.
        4    1    3    3  502    0  0.20929784978E+03 -0.17602830430E+04 -0.24617167633E+03  0.17896938533E+04  0.12699999809E+01 0. -1.
       -4    1    3    3    0  502 -0.20929784978E+03  0.17602830430E+04 -0.57470815860E+03  0.18635163165E+04  0.12699999809E+01 0.  1.
</event>
<event>
 5   0  0.4200635E-07  0.3447036E+04  0.7818609E-02  0.8126458E-01
        2   -1    0    0  501    0  0.00000000000E+00  0.00000000000E+00  0.15233836125E+04  0.15233836125E+04  0.25500000920E-02 0.  1.
       -2   -1    0    0    0  501  0.00000000000E+00  0.00000000000E+00 -0.19499448372E+04  0.19499448373E+04  0.25500000920E-02 0. -1.
    10030    2    1    2    0    0  0.00000000000E+00  0.00000000000E+00 -0.42656122478E+03  0.34733284497E+04  0.34470358340E+04 0.  0.
        4    1    3    3  502    0  0.26840213272E+02  0.24788471903E+03  0.15051145025E+04  0.15256272511E+04  0.12699999809E+01 0.  1.
       -4    1    3    3    0  502 -0.26840213272E+02 -0.24788471903E+03 -0.19316757272E+04  0.19477011986E+04  0.12699999809E+01 0. -1.
</event>
<event>
 5   0  0.4115358E-07  0.3576698E+04  0.7818609E-02  0.8095850E-01
       -2   -1    0    0    0  501  0.00000000000E+00  0.00000000000E+00  0.15623217997E+04  0.15623217997E+04  0.25500000920E-02 0. -1.
        2   -1    0    0  501    0  0.00000000000E+00  0.00000000000E+00 -0.20470758700E+04  0.20470758700E+04  0.25500000920E-02 0.  1.
    10030    2    1    2    0    0  0.00000000000E+00  0.00000000000E+00 -0.48475407028E+03  0.36093976697E+04  0.35766975032E+04 0.  0.
        3    1    3    3  502    0  0.27439836698E+03  0.86453037011E+03 -0.17977286302E+04  0.20135877093E+04  0.10100000352E+00 0.  1.
       -3    1    3    3    0  502 -0.27439836698E+03 -0.86453037011E+03  0.13129745600E+04  0.15958099605E+04  0.10100000352E+00 0. -1.
</event>
<event>
 5   0  0.4120440E-07  0.3576933E+04  0.7818609E-02  0.8095796E-01
       -2   -1    0    0    0  501  0.00000000000E+00  0.00000000000E+00  0.21025938522E+04  0.21025938522E+04  0.25500000920E-02 0. -1.
        2   -1    0    0  501    0  0.00000000000E+00  0.00000000000E+00 -0.15212700018E+04  0.15212700018E+04  0.25500000920E-02 0.  1.
    10030    2    1    2    0    0  0.00000000000E+00  0.00000000000E+00  0.58132385033E+03  0.36238638540E+04  0.35769332973E+04 0.  0.
        2    1    3    3  502    0 -0.14512585942E+04 -0.52050016781E+03 -0.62761920173E+03  0.16646254216E+04  0.25500000920E-02 0.  1.
       -2    1    3    3    0  502  0.14512585942E+04  0.52050016781E+03  0.12089430521E+04  0.19592384324E+04  0.25500000920E-02 0. -1.
</event>
<event>
 5   0  0.3993751E-07  0.3598973E+04  0.7818609E-02  0.8090727E-01
       -2   -1    0    0    0  501  0.00000000000E+00  0.00000000000E+00  0.15367346976E+04  0.15367346976E+04  0.25500000920E-02 0.  1.
        2   -1    0    0  501    0  0.00000000000E+00  0.00000000000E+00 -0.21071637165E+04  0.21071637165E+04  0.25500000920E-02 0. -1.
    10030    2    1    2    0    0  0.00000000000E+00  0.00000000000E+00 -0.57042901888E+03  0.36438984142E+04  0.35989729628E+04 0.  0.
        1    1    3    3  502    0 -0.58358433525E+03 -0.14771621632E+04  0.57126032837E+03  0.16878735425E+04  0.50400001928E-02 0.  1.
       -1    1    3    3    0  502  0.58358433525E+03  0.14771621632E+04 -0.11416893473E+04  0.19560248716E+04  0.50400001928E-02 0. -1.
</event>
<event>
 5   0  0.3880259E-07  0.3598828E+04  0.7818609E-02  0.8090760E-01
       -2   -1    0    0    0  501  0.00000000000E+00  0.00000000000E+00  0.18276200041E+04  0.18276200041E+04  0.25500000920E-02 0. -1.
        2   -1    0    0  501    0  0.00000000000E+00  0.00000000000E+00 -0.17716432868E+04  0.17716432868E+04  0.25500000920E-02 0.  1.
    10030    2    1    2    0    0  0.00000000000E+00  0.00000000000E+00  0.55976717316E+02  0.35992632909E+04  0.35988279820E+04 0.  0.
        5    1    3    3  502    0  0.65581731580E+03  0.47286752940E+03 -0.15797410219E+04  0.17746278028E+04  0.46999998093E+01 0.  1.
       -5    1    3    3    0  502 -0.65581731580E+03 -0.47286752940E+03  0.16357177392E+04  0.18246354881E+04  0.46999998093E+01 0. -1.
</event>
<event>
 5   0  0.4115358E-07  0.3557771E+04  0.7818609E-02  0.8100234E-01
       -2   -1    0    0    0  501  0.00000000000E+00  0.00000000000E+00  0.11775834943E+04  0.11775834943E+04  0.25500000920E-02 0. -1.
        2   -1    0    0  501    0  0.00000000000E+00  0.00000000000E+00 -0.26872261084E+04  0.26872261084E+04  0.25500000920E-02 0.  1.
    10030    2    1    2    0    0  0.00000000000E+00  0.00000000000E+00 -0.15096426141E+04  0.38648096027E+04  0.35577707125E+04 0.  0.
        3    1    3    3  502    0  0.18998352599E+03 -0.52870191023E+03  0.10786839887E+04  0.12162148690E+04  0.10100000352E+00 0. -1.
       -3    1    3    3    0  502 -0.18998352599E+03  0.52870191023E+03 -0.25883266028E+04  0.26485947336E+04  0.10100000352E+00 0.  1.
</event>
<event>
 5   0  0.1298250E-07  0.3617209E+04  0.7818609E-02  0.8086561E-01
        1   -1    0    0  501    0  0.00000000000E+00  0.00000000000E+00  0.22875118059E+04  0.22875118059E+04  0.50400001928E-02 0. -1.
       -1   -1    0    0    0  501  0.00000000000E+00  0.00000000000E+00 -0.14299598586E+04  0.14299598586E+04  0.50400001928E-02 0.  1.
    10030    2    1    2    0    0  0.00000000000E+00  0.00000000000E+00  0.85755194726E+03  0.37174716645E+04  0.36172089011E+04 0.  0.
        1    1    3    3  502    0  0.13605505482E+04 -0.89503921940E+03 -0.37970397062E+03  0.16722344644E+04  0.50400001928E-02 0.  1.
       -1    1    3    3    0  502 -0.13605505482E+04  0.89503921940E+03  0.12372559179E+04  0.20452372001E+04  0.50400001928E-02 0. -1.
</event>
<event>
 5   0  0.1370997E-07  0.3615730E+04  0.7818609E-02  0.8086898E-01
       -1   -1    0    0    0  501  0.00000000000E+00  0.00000000000E+00  0.15394101385E+04  0.15394101385E+04  0.50400001928E-02 0. -1.
        1   -1    0    0  501    0  0.00000000000E+00  0.00000000000E+00 -0.21231346952E+04  0.21231346952E+04  0.50400001928E-02 0.  1.
    10030    2    1    2    0    0  0.00000000000E+00  0.00000000000E+00 -0.58372455672E+03  0.36625448337E+04  0.36157295669E+04 0.  0.
        3    1    3    3  502    0 -0.14133102127E+04  0.38275419539E+03 -0.13659826116E+04  0.20024622436E+04  0.10100000352E+00 0.  1.
       -3    1    3    3    0  502  0.14133102127E+04 -0.38275419539E+03  0.78225805487E+03  0.16600825902E+04  0.10100000352E+00 0. -1.
</event>
<event>
 5   0  0.1361743E-07  0.3603359E+04  0.7818609E-02  0.8089723E-01
        1   -1    0    0  501    0  0.00000000000E+00  0.00000000000E+00  0.20609610787E+04  0.20609610787E+04  0.50400001928E-02 0. -1.
       -1   -1    0    0    0  501  0.00000000000E+00  0.00000000000E+00 -0.15750172978E+04  0.15750172978E+04  0.50400001928E-02 0.  1.
    10030    2    1    2    0    0  0.00000000000E+00  0.00000000000E+00  0.48594378098E+03  0.36359783765E+04  0.36033591822E+04 0.  0.
        5    1    3    3  502    0 -0.65222284970E+03  0.16576447741E+04  0.51531590330E+03  0.18543876113E+04  0.46999998093E+01 0. -1.
       -5    1    3    3    0  502  0.65222284970E+03 -0.16576447741E+04 -0.29372122324E+02  0.17815907652E+04  0.46999998093E+01 0.  1.
</event>
<event>
 5   0  0.1370997E-07  0.3602491E+04  0.7818609E-02  0.8089921E-01
       -1   -1    0    0    0  501  0.00000000000E+00  0.00000000000E+00  0.14332335646E+04  0.14332335647E+04  0.50400001928E-02 0. -1.
        1   -1    0    0  501    0  0.00000000000E+00  0.00000000000E+00 -0.22637525594E+04  0.22637525594E+04  0.50400001928E-02 0.  1.
    10030    2    1    2    0    0  0.00000000000E+00  0.00000000000E+00 -0.83051899477E+03  0.36969861241E+04  0.36024914436E+04 0.  0.
        3    1    3    3  502    0 -0.10304195712E+04  0.13193050113E+04  0.26713040506E+03  0.16951958202E+04  0.10100000352E+00 0. -1.
       -3    1    3    3    0  502  0.10304195712E+04 -0.13193050113E+04 -0.10976493998E+04  0.20017903038E+04  0.10100000352E+00 0.  1.
</event>
<event>
 5   0  0.4120440E-07  0.3234468E+04  0.7818609E-02  0.8179773E-01
       -2   -1    0    0    0  501  0.00000000000E+00  0.00000000000E+00  0.98888799565E+03  0.98888799565E+03  0.25500000920E-02 0.  1.
        2   -1    0    0  501    0  0.00000000000E+00  0.00000000000E+00 -0.26448345503E+04  0.26448345503E+04  0.25500000920E-02 0. -1.
    10030    2    1    2    0    0  0.00000000000E+00  0.00000000000E+00 -0.16559465546E+04  0.36337225459E+04  0.32344675835E+04 0.  0.
        2    1    3    3  502    0  0.13553133469E+04 -0.57320078741E+02  0.16121674948E+03  0.13660712646E+04  0.25500000920E-02 0.  1.
       -2    1    3    3    0  502 -0.13553133469E+04  0.57320078741E+02 -0.18171633041E+04  0.22676512813E+04  0.25500000920E-02 0. -1.
</event>
<event>
 5   0  0.4115358E-07  0.3662341E+04  0.7818609E-02  0.8076359E-01
       -2   -1    0    0    0  501  0.00000000000E+00  0.00000000000E+00  0.17149962327E+04  0.17149962327E+04  0.25500000920E-02 0. -1.
        2   -1    0    0  501    0  0.00000000000E+00  0.00000000000E+00 -0.19552149643E+04  0.19552149643E+04  0.25500000920E-02 0.  1.
    10030    2    1    2    0    0  0.00000000000E+00  0.00000000000E+00 -0.24021873156E+03  0.36702111970E+04  0.36623414903E+04 0.  0.
        3    1    3    3  502    0  0.43959281868E+02 -0.11990902079E+04  0.12661332655E+04  0.17443747308E+04  0.10100000352E+00 0. -1.
       -3    1    3    3    0  502 -0.43959281868E+02  0.11990902079E+04 -0.15063519971E+04  0.19258364662E+04  0.10100000352E+00 0.  1.
</event>
<event>
 5   0  0.1370997E-07  0.3593799E+04  0.7818609E-02  0.8091914E-01
        1   -1    0    0  501    0  0.00000000000E+00  0.00000000000E+00  0.27753867274E+04  0.27753867274E+04  0.50400001928E-02 0. -1.
       -1   -1    0    0    0  501  0.00000000000E+00  0.00000000000E+00 -0.11633864528E+04  0.11633864528E+04  0.50400001928E-02 0.  1.
    10030    2    1    2    0    0  0.00000000000E+00  0.00000000000E+00  0.16120002747E+04  0.39387731802E+04  0.35937987256E+04 0.  0.
        3    1    3    3  502    0  0.56586190831E+03  0.15725918373E+04  0.15293566823E+04  0.22654307886E+04  0.10100000352E+00 0. -1.
       -3    1    3    3    0  502 -0.56586190831E+03 -0.15725918373E+04  0.82643592335E+02  0.16733423916E+04  0.10100000352E+00 0.  1.
</event>
<event>
 5   0  0.1298250E-07  0.3626785E+04  0.7818609E-02  0.8084384E-01
        1   -1    0    0  501    0  0.00000000000E+00  0.00000000000E+00  0.28201874422E+04  0.28201874422E+04  0.50400001928E-02 0. -1.
       -1   -1    0    0    0  501  0.00000000000E+00  0.00000000000E+00 -0.11660192816E+04  0.11660192816E+04  0.50400001928E-02 0.  1.
    10030    2    1    2    0    0  0.00000000000E+00  0.00000000000E+00  0.16541681606E+04  0.39862067238E+04  0.36267853178E+04 0.  0.
        2    1    3    3  502    0 -0.77865568647E+03 -0.80696656098E+03  0.23934077613E+04  0.26430853979E+04  0.25500000920E-02 0. -1.
       -2    1    3    3    0  502  0.77865568647E+03  0.80696656098E+03 -0.73923960076E+03  0.13431213258E+04  0.25500000920E-02 0.  1.
</event>
<event>
 5   0  0.4120440E-07  0.3608678E+04  0.7818609E-02  0.8088507E-01
       -2   -1    0    0    0  501  0.00000000000E+00  0.00000000000E+00  0.19385265343E+04  0.19385265343E+04  0.25500000920E-02 0.  1.
        2   -1    0    0  501    0  0.00000000000E+00  0.00000000000E+00 -0.16794404030E+04  0.16794404030E+04  0.25500000920E-02 0. -1.
    10030    2    1    2    0    0  0.00000000000E+00  0.00000000000E+00  0.25908613128E+03  0.36179669374E+04  0.36086783088E+04 0.  0.
        2    1    3    3  502    0  0.10156222494E+04  0.40247511450E+03  0.15692633773E+04  0.19120832405E+04  0.25500000920E-02 0.  1.
       -2    1    3    3    0  502 -0.10156222494E+04 -0.40247511450E+03 -0.13101772460E+04  0.17058836969E+04  0.25500000920E-02 0. -1.
</event>
<event>
 5   0  0.1348226E-07  0.3658443E+04  0.7818609E-02  0.8077234E-01
        1   -1    0    0  501    0  0.00000000000E+00  0.00000000000E+00  0.15817646811E+04  0.15817646811E+04  0.50400001928E-02 0. -1.
       -1   -1    0    0    0  501  0.00000000000E+00  0.00000000000E+00 -0.21153909263E+04  0.21153909263E+04  0.50400001928E-02 0.  1.
    10030    2    1    2    0    0  0.00000000000E+00  0.00000000000E+00 -0.53362624521E+03  0.36971556074E+04  0.36584426490E+04 0.  0.
        4    1    3    3  502    0 -0.17802623292E+04  0.14222455100E+02  0.15776692664E+03  0.17872963534E+04  0.12699999809E+01 0.  1.
       -4    1    3    3    0  502  0.17802623292E+04 -0.14222455100E+02 -0.69139317185E+03  0.19098592540E+04  0.12699999809E+01 0. -1.
</event>
<event>
 5   0  0.3993751E-07  0.3400632E+04  0.7818609E-02  0.8137751E-01
       -2   -1    0    0    0  501  0.00000000000E+00  0.00000000000E+00  0.12228321286E+04  0.12228321286E+04  0.25500000920E-02 0.  1.
        2   -1    0    0  501    0  0.00000000000E+00  0.00000000000E+00 -0.23642451829E+04  0.23642451829E+04  0.25500000920E-02 0. -1.
    10030    2    1    2    0    0  0.00000000000E+00  0.00000000000E+00 -0.11414130543E+04  0.35870773115E+04  0.34006322763E+04 0.  0.
        1    1    3    3  502    0  0.12326303729E+04 -0.22063668778E+03 -0.17839940785E+04  0.21796084640E+04  0.50400001928E-02 0. -1.
       -1    1    3    3    0  502 -0.12326303729E+04  0.22063668778E+03  0.64258102422E+03  0.14074688475E+04  0.50400001928E-02 0.  1.
</event>
<event>
 5   0  0.1348226E-07  0.3609110E+04  0.7818609E-02  0.8088408E-01
       -1   -1    0    0    0  501  0.00000000000E+00  0.00000000000E+00  0.13133943652E+04  0.13133943652E+04  0.50400001928E-02 0. -1.
        1   -1    0    0  501    0  0.00000000000E+00  0.00000000000E+00 -0.24793908297E+04  0.24793908298E+04  0.50400001928E-02 0.  1.
    10030    2    1    2    0    0  0.00000000000E+00  0.00000000000E+00 -0.11659964646E+04  0.37927851949E+04  0.36091095550E+04 0.  0.
        4    1    3    3  502    0 -0.52228384781E+03 -0.15089190299E+04  0.30050110809E+03  0.16247829348E+04  0.12699999809E+01 0. -1.
       -4    1    3    3    0  502  0.52228384781E+03  0.15089190299E+04 -0.14664975727E+04  0.21680022601E+04  0.12699999809E+01 0.  1.
</event>
<event>
 5   0  0.1370997E-07  0.3616467E+04  0.7818609E-02  0.8086730E-01
        1   -1    0    0  501    0  0.00000000000E+00  0.00000000000E+00  0.28879811099E+04  0.28879811099E+04  0.50400001928E-02 0.  1.
       -1   -1    0    0    0  501  0.00000000000E+00  0.00000000000E+00 -0.11321780801E+04  0.11321780801E+04  0.50400001928E-02 0. -1.
    10030    2    1    2    0    0  0.00000000000E+00  0.00000000000E+00  0.17558030297E+04  0.40201591900E+04  0.36164672864E+04 0.  0.
        3    1    3    3  502    0  0.52128144458E+03 -0.14997587750E+04  0.18397620267E+04  0.24301718155E+04  0.10100000352E+00 0. -1.
       -3    1    3    3    0  502 -0.52128144458E+03  0.14997587750E+04 -0.83958997002E+02  0.15899873745E+04  0.10100000352E+00 0.  1.
</event>
<event>
 5   0  0.1298250E-07  0.3603018E+04  0.7818609E-02  0.8089801E-01
        1   -1    0    0  501    0  0.00000000000E+00  0.00000000000E+00  0.23581804628E+04  0.23581804628E+04  0.50400001928E-02 0. -1.
       -1   -1    0    0    0  501  0.00000000000E+00  0.00000000000E+00 -0.13762454087E+04  0.13762454087E+04  0.50400001928E-02 0.  1.
    10030    2    1    2    0    0  0.00000000000E+00  0.00000000000E+00  0.98193505405E+03  0.37344258715E+04  0.36030181986E+04 0.  0.
        2    1    3    3  502    0 -0.43857060895E+03  0.60600561841E+03  0.21895948542E+04  0.23138523319E+04  0.25500000920E-02 0. -1.
       -2    1    3    3    0  502  0.43857060895E+03 -0.60600561841E+03 -0.12076598001E+04  0.14205735396E+04  0.25500000920E-02 0.  1.
</event>
<event>
 5   0  0.3993751E-07  0.3541020E+04  0.7818609E-02  0.8104137E-01
       -2   -1    0    0    0  501  0.00000000000E+00  0.00000000000E+00  0.19916799662E+04  0.19916799662E+04  0.25500000920E-02 0.  1.
        2   -1    0    0  501    0  0.00000000000E+00  0.00000000000E+00 -0.15739004825E+04  0.15739004825E+04  0.25500000920E-02 0. -1.
    10030    2    1    2    0    0  0.00000000000E+00  0.00000000000E+00  0.41777948372E+03  0.35655804487E+04  0.35410202257E+04 0.  0.
        1    1    3    3  502    0  0.13846950364E+04 -0.75167793838E+03 -0.60436670847E+03  0.16875008697E+04  0.50400001928E-02 0. -1.
       -1    1    3    3    0  502 -0.13846950364E+04  0.75167793838E+03  0.10221461922E+04  0.18780795790E+04  0.50400001928E-02 0.  1.
</event>
<event>
 5   0  0.3880259E-07  0.3624738E+04  0.7818609E-02  0.8084849E-01
        2   -1    0    0  501    0  0.00000000000E+00  0.00000000000E+00  0.15168443777E+04  0.15168443777E+04  0.25500000920E-02 0. -1.
       -2   -1    0    0    0  501  0.00000000000E+00  0.00000000000E+00 -0.21654701877E+04  0.21654701877E+04  0.25500000920E-02 0.  1.
    10030    2    1    2    0    0  0.00000000000E+00  0.00000000000E+00 -0.64862581000E+03  0.36823145654E+04  0.36247379377E+04 0.  0.
        5    1    3    3  502    0  0.14635677632E+04 -0.59023162791E+03 -0.12296791751E+04  0.20006341334E+04  0.46999998093E+01 0.  1.
       -5    1    3    3    0  502 -0.14635677632E+04  0.59023162791E+03  0.58105336511E+03  0.16816804319E+04  0.46999998093E+01 0. -1.
</event>
<event>
 5   0  0.1361743E-07  0.3539722E+04  0.7818609E-02  0.8104440E-01
       -1   -1    0    0    0  501  0.00000000000E+00  0.00000000000E+00  0.10825599235E+04  0.10825599235E+04  0.50400001928E-02 0. -1.
        1   -1    0    0  501    0  0.00000000000E+00  0.00000000000E+00 -0.28935190504E+04  0.28935190504E+04  0.50400001928E-02 0.  1.
    10030    2    1    2    0    0  0.00000000000E+00  0.00000000000E+00 -0.18109591269E+04  0.39760789739E+04  0.35397218884E+04 0.  0.
        5    1    3    3  502    0 -0.57691727807E+03 -0.96691342498E+03  0.62836820466E+03  0.12894277055E+04  0.46999998093E+01 0. -1.
       -5    1    3    3    0  502  0.57691727807E+03  0.96691342498E+03 -0.24393273316E+04  0.26866512684E+04  0.46999998093E+01 0.  1.
</event>
<event>
 5   0  0.4200635E-07  0.3617785E+04  0.7818609E-02  0.8086430E-01
        2   -1    0    0  501    0  0.00000000000E+00  0.00000000000E+00  0.15905944070E+04  0.15905944070E+04  0.25500000920E-02 0.  1.
       -2   -1    0    0    0  501  0.00000000000E+00  0.00000000000E+00 -0.20571509335E+04  0.20571509335E+04  0.25500000920E-02 0. -1.
    10030    2    1    2    0    0  0.00000000000E+00  0.00000000000E+00 -0.46655652651E+03  0.36477453406E+04  0.36177853830E+04 0.  0.
        4    1    3    3  502    0  0.29045051411E+03  0.10910419711E+04 -0.16582608835E+04  0.20061318138E+04  0.12699999809E+01 0. -1.
       -4    1    3    3    0  502 -0.29045051411E+03 -0.10910419711E+04  0.11917043570E+04  0.16416135267E+04  0.12699999809E+01 0.  1.
</event>
<event>
 5   0  0.1298250E-07  0.3583181E+04  0.7818609E-02  0.8094355E-01
        1   -1    0    0  501    0  0.00000000000E+00  0.00000000000E+00  0.10909660338E+04  0.10909660338E+04  0.50400001928E-02 0. -1.
       -1   -1    0    0    0  501  0.00000000000E+00  0.00000000000E+00 -0.29421594358E+04  0.29421594358E+04  0.50400001928E-02 0.  1.
    10030    2    1    2    0    0  0.00000000000E+00  0.00000000000E+00 -0.18511934020E+04  0.40331254695E+04  0.35831807157E+04 0.  0.
        1    1    3    3  502    0 -0.10129749680E+04  0.99022838762E+03  0.30900957521E+03  0.14498818790E+04  0.50400001928E-02 0. -1.
       -1    1    3    3    0  502  0.10129749680E+04 -0.99022838762E+03 -0.21602029772E+04  0.25832435906E+04  0.50400001928E-02 0.  1.
</event>
<event>
 5   0  0.1361743E-07  0.3601371E+04  0.7818609E-02  0.8090178E-01
        1   -1    0    0  501    0  0.00000000000E+00  0.00000000000E+00  0.20567676100E+04  0.20567676100E+04  0.50400001928E-02 0. -1.
       -1   -1    0    0    0  501  0.00000000000E+00  0.00000000000E+00 -0.15764873514E+04  0.15764873514E+04  0.50400001928E-02 0.  1.
    10030    2    1    2    0    0  0.00000000000E+00  0.00000000000E+00  0.48028025855E+03  0.36332549614E+04  0.36013709178E+04 0.  0.
        5    1    3    3  502    0 -0.19185936486E+03  0.32584959683E+03  0.20162544005E+04  0.20514121656E+04  0.46999998093E+01 0. -1.
       -5    1    3    3    0  502  0.19185936486E+03 -0.32584959683E+03 -0.15359741420E+04  0.15818427958E+04  0.46999998093E+01 0.  1.
</event>
<event>
 5   0  0.1298250E-07  0.3538632E+04  0.7818609E-02  0.8104695E-01
        1   -1    0    0  501    0  0.00000000000E+00  0.00000000000E+00  0.21501248451E+04  0.21501248451E+04  0.50400001928E-02 0. -1.
       -1   -1    0    0    0  501  0.00000000000E+00  0.00000000000E+00 -0.14559524915E+04  0.14559524915E+04  0.50400001928E-02 0.  1.
    10030    2    1    2    0    0  0.00000000000E+00  0.00000000000E+00  0.69417235360E+03  0.36060773367E+04  0.35386322925E+04 0.  0.
        2    1    3    3  502    0  0.66853682639E+02 -0.16889954058E+04  0.87983582779E+03  0.19055933405E+04  0.25500000920E-02 0.  1.
       -2    1    3    3    0  502 -0.66853682639E+02  0.16889954058E+04 -0.18566347419E+03  0.17004839962E+04  0.25500000920E-02 0. -1.
</event>
<event>
 5   0  0.1298250E-07  0.3563044E+04  0.7818609E-02  0.8099010E-01
        1   -1    0    0  501    0  0.00000000000E+00  0.00000000000E+00  0.25123216477E+04  0.25123216477E+04  0.50400001928E-02 0. -1.
       -1   -1    0    0    0  501  0.00000000000E+00  0.00000000000E+00 -0.12633016051E+04  0.12633016052E+04  0.50400001928E-02 0.  1.
    10030    2    1    2    0    0  0.00000000000E+00  0.00000000000E+00  0.12490200426E+04  0.37756232529E+04  0.35630436260E+04 0.  0.
        2    1    3    3  502    0 -0.63681185245E+03 -0.16627623657E+04  0.56171261826E+03  0.18670375159E+04  0.25500000920E-02 0. -1.
       -2    1    3    3    0  502  0.63681185245E+03  0.16627623657E+04  0.68730742432E+03  0.19085857370E+04  0.25500000920E-02 0.  1.
</event>
<event>
 5   0  0.1298250E-07  0.3603751E+04  0.7818609E-02  0.8089633E-01
        3   -1    0    0  501    0  0.00000000000E+00  0.00000000000E+00  0.16071206548E+04  0.16071206580E+04  0.10100000352E+00 0. -1.
       -3   -1    0    0    0  501  0.00000000000E+00  0.00000000000E+00 -0.20202307859E+04  0.20202307884E+04  0.10100000352E+00 0.  1.
    10030    2    1    2    0    0  0.00000000000E+00  0.00000000000E+00 -0.41311013105E+03  0.36273514464E+04  0.36037506206E+04 0.  0.
        4    1    3    3  502    0 -0.21449508077E+03 -0.17309159876E+04  0.24881765822E+03  0.17618144442E+04  0.12699999809E+01 0.  1.
       -4    1    3    3    0  502  0.21449508077E+03  0.17309159876E+04 -0.66192778927E+03  0.18655370023E+04  0.12699999809E+01 0. -1.
</event>
<event>
 5   0  0.1298250E-07  0.3409209E+04  0.7818609E-02  0.8135650E-01
        3   -1    0    0  501    0  0.00000000000E+00  0.00000000000E+00  0.10378929562E+04  0.10378929611E+04  0.10100000352E+00 0.  1.
       -3   -1    0    0    0  501  0.00000000000E+00  0.00000000000E+00 -0.27995919620E+04  0.27995919638E+04  0.10100000352E+00 0. -1.
    10030    2    1    2    0    0  0.00000000000E+00  0.00000000000E+00 -0.17616990058E+04  0.38374849249E+04  0.34092091696E+04 0.  0.
        2    1    3    3  502    0 -0.30505466774E+03 -0.16753697888E+04 -0.96623758148E+03  0.19579421196E+04  0.25500000920E-02 0. -1.
       -2    1    3    3    0  502  0.30505466774E+03  0.16753697888E+04 -0.79546142429E+03  0.18795428054E+04  0.25500000920E-02 0.  1.
</event>
<event>
 5   0  0.1298250E-07  0.3613812E+04  0.7818609E-02  0.8087335E-01
        1   -1    0    0  501    0  0.00000000000E+00  0.00000000000E+00  0.12448780212E+04  0.12448780213E+04  0.50400001928E-02 0. -1.
       -1   -1    0    0    0  501  0.00000000000E+00  0.00000000000E+00 -0.26226736636E+04  0.26226736636E+04  0.50400001928E-02 0.  1.
    10030    2    1    2    0    0  0.00000000000E+00  0.00000000000E+00 -0.13777956424E+04  0.38675516849E+04  0.36138117277E+04 0.  0.
        2    1    3    3  502    0  0.13118248974E+03 -0.11520667059E+03 -0.26136255607E+04  0.26194503229E+04  0.25500000920E-02 0.  1.
       -2    1    3    3    0  502 -0.13118248974E+03  0.11520667059E+03  0.12358299184E+04  0.12481013619E+04  0.25500000920E-02 0. -1.
</event>
<event>
 5   0  0.1298250E-07  0.3627663E+04  0.7818609E-02  0.8084184E-01
        1   -1    0    0  501    0  0.00000000000E+00  0.00000000000E+00  0.33231651321E+04  0.33231651321E+04  0.50400001928E-02 0. -1.
       -1   -1    0    0    0  501  0.00000000000E+00  0.00000000000E+00 -0.99001515424E+03  0.99001515425E+03  0.50400001928E-02 0.  1.
    10030    2    1    2    0    0  0.00000000000E+00  0.00000000000E+00  0.23331499779E+04  0.43131802864E+04  0.36276625206E+04 0.  0.
        2    1    3    3  502    0 -0.15731279170E+04  0.55847361671E+03  0.20101232195E+04  0.26128948661E+04  0.25500000920E-02 0. -1.
       -2    1    3    3    0  502  0.15731279170E+04 -0.55847361671E+03  0.32302675841E+03  0.17002854203E+04  0.25500000920E-02 0.  1.
</event>
<event>
 5   0  0.1298250E-07  0.3570268E+04  0.7818609E-02  0.8097336E-01
        1   -1    0    0  501    0  0.00000000000E+00  0.00000000000E+00  0.21157224701E+04  0.21157224702E+04  0.50400001928E-02 0. -1.
       -1   -1    0    0    0  501  0.00000000000E+00  0.00000000000E+00 -0.15062012395E+04  0.15062012395E+04  0.50400001928E-02 0.  1.
    10030    2    1    2    0    0  0.00000000000E+00  0.00000000000E+00  0.60952123067E+03  0.36219237096E+04  0.35702682291E+04 0.  0.
        2    1    3    3  502    0 -0.15044188947E+04  0.92473847374E+03  0.39663252298E+02  0.17663495206E+04  0.25500000920E-02 0.  1.
       -2    1    3    3    0  502  0.15044188947E+04 -0.92473847374E+03  0.56985797837E+03  0.18555741890E+04  0.25500000920E-02 0. -1.
</event>
<event>
 5   0  0.3993751E-07  0.3717297E+04  0.7818609E-02  0.8064139E-01
        2   -1    0    0  501    0  0.00000000000E+00  0.00000000000E+00  0.14958168911E+04  0.14958168911E+04  0.25500000920E-02 0. -1.
       -2   -1    0    0    0  501  0.00000000000E+00  0.00000000000E+00 -0.23094904374E+04  0.23094904374E+04  0.25500000920E-02 0.  1.
    10030    2    1    2    0    0  0.00000000000E+00  0.00000000000E+00 -0.81367354632E+03  0.38053073284E+04  0.37172973010E+04 0.  0.
        1    1    3    3  502    0 -0.16796849334E+04  0.70717895518E+03 -0.33326582322E+02  0.18227874838E+04  0.50400001928E-02 0. -1.
       -1    1    3    3    0  502  0.16796849334E+04 -0.70717895518E+03 -0.78034696400E+03  0.19825198446E+04  0.50400001928E-02 0.  1.
</event>
<event>
 5   0  0.1361743E-07  0.3586045E+04  0.7818609E-02  0.8093696E-01
        1   -1    0    0  501    0  0.00000000000E+00  0.00000000000E+00  0.20906416042E+04  0.20906416042E+04  0.50400001928E-02 0. -1.
       -1   -1    0    0    0  501  0.00000000000E+00  0.00000000000E+00 -0.15377722167E+04  0.15377722167E+04  0.50400001928E-02 0.  1.
    10030    2    1    2    0    0  0.00000000000E+00  0.00000000000E+00  0.55286938747E+03  0.36284138209E+04  0.35860454956E+04 0.  0.
        5    1    3    3  502    0 -0.16479146796E+04  0.40913372617E+03 -0.30647537901E+03  0.17253876217E+04  0.46999998093E+01 0.  1.
       -5    1    3    3    0  502  0.16479146796E+04 -0.40913372617E+03  0.85934476648E+03  0.19030261992E+04  0.46999998093E+01 0. -1.
</event>
<event>
 5   0  0.1298250E-07  0.3577643E+04  0.7818609E-02  0.8095632E-01
       -1   -1    0    0    0  501  0.00000000000E+00  0.00000000000E+00  0.15805408779E+04  0.15805408779E+04  0.50400001928E-02 0. -1.
        1   -1    0    0  501    0  0.00000000000E+00  0.00000000000E+00 -0.20245484979E+04  0.20245484979E+04  0.50400001928E-02 0.  1.
    10030    2    1    2    0    0  0.00000000000E+00  0.00000000000E+00 -0.44400762004E+03  0.36050893758E+04  0.35776426094E+04 0.  0.
        2    1    3    3  502    0  0.77787821098E+03  0.56794061020E+03  0.12969525091E+04  0.16154679999E+04  0.25500000920E-02 0. -1.
       -2    1    3    3    0  502 -0.77787821098E+03 -0.56794061020E+03 -0.17409601292E+04  0.19896213758E+04  0.25500000920E-02 0.  1.
</event>
<event>
 5   0  0.1298250E-07  0.3602700E+04  0.7818609E-02  0.8089874E-01
        1   -1    0    0  501    0  0.00000000000E+00  0.00000000000E+00  0.11928751909E+04  0.11928751909E+04  0.50400001928E-02 0.  1.
       -1   -1    0    0    0  501  0.00000000000E+00  0.00000000000E+00 -0.27202018832E+04  0.27202018833E+04  0.50400001928E-02 0. -1.
    10030    2    1    2    0    0  0.00000000000E+00  0.00000000000E+00 -0.15273266924E+04  0.39130770742E+04  0.36026997326E+04 0.  0.
        1    1    3    3  502    0 -0.17995580371E+04  0.28947533869E+02 -0.68227985927E+03  0.19247734659E+04  0.50400001928E-02 0.  1.
       -1    1    3    3    0  502  0.17995580371E+04 -0.28947533869E+02 -0.84504683308E+03  0.19883036083E+04  0.50400001928E-02 0. -1.
</event>
<event>
 5   0  0.3880259E-07  0.3608801E+04  0.7818609E-02  0.8088479E-01
        2   -1    0    0  501    0  0.00000000000E+00  0.00000000000E+00  0.22852628664E+04  0.22852628664E+04  0.25500000920E-02 0.  1.
       -2   -1    0    0    0  501  0.00000000000E+00  0.00000000000E+00 -0.14247202580E+04  0.14247202580E+04  0.25500000920E-02 0. -1.
    10030    2    1    2    0    0  0.00000000000E+00  0.00000000000E+00  0.86054260835E+03  0.37099831244E+04  0.36088005213E+04 0.  0.
        5    1    3    3  502    0 -0.32662103311E+03 -0.10904517726E+04  0.18695505146E+04  0.21888370392E+04  0.46999998093E+01 0.  1.
       -5    1    3    3    0  502  0.32662103311E+03  0.10904517726E+04 -0.10090079062E+04  0.15211460852E+04  0.46999998093E+01 0. -1.
</event>
<event>
 5   0  0.3880259E-07  0.3614612E+04  0.7818609E-02  0.8087153E-01
       -2   -1    0    0    0  501  0.00000000000E+00  0.00000000000E+00  0.11816426089E+04  0.11816426089E+04  0.25500000920E-02 0.  1.
        2   -1    0    0  501    0  0.00000000000E+00  0.00000000000E+00 -0.27642494237E+04  0.27642494237E+04  0.25500000920E-02 0. -1.
    10030    2    1    2    0    0  0.00000000000E+00  0.00000000000E+00 -0.15826068149E+04  0.39458920326E+04  0.36146119574E+04 0.  0.
        5    1    3    3  502    0 -0.72196118612E+03  0.11498735078E+04  0.51087371629E+03  0.14506726309E+04  0.46999998093E+01 0.  1.
       -5    1    3    3    0  502  0.72196118612E+03 -0.11498735078E+04 -0.20934805312E+04  0.24952194017E+04  0.46999998093E+01 0. -1.
</event>
<event>
 5   0  0.4200635E-07  0.3761816E+04  0.7818609E-02  0.8054399E-01
       -2   -1    0    0    0  501  0.00000000000E+00  0.00000000000E+00  0.17820789601E+04  0.17820789601E+04  0.25500000920E-02 0.  1.
        2   -1    0    0  501    0  0.00000000000E+00  0.00000000000E+00 -0.19852181976E+04  0.19852181976E+04  0.25500000920E-02 0. -1.
    10030    2    1    2    0    0  0.00000000000E+00  0.00000000000E+00 -0.20313923746E+03  0.37672971577E+04  0.37618163597E+04 0.  0.
        4    1    3    3  502    0 -0.27127931862E+03 -0.96322230796E+03 -0.16965055366E+04  0.19696503070E+04  0.12699999809E+01 0. -1.
       -4    1    3    3    0  502  0.27127931862E+03  0.96322230796E+03  0.14933662992E+04  0.17976468506E+04  0.12699999809E+01 0.  1.
</event>
<event>
 5   0  0.1361743E-07  0.3604486E+04  0.7818609E-02  0.8089465E-01
       -1   -1    0    0    0  501  0.00000000000E+00  0.00000000000E+00  0.13519248636E+04  0.13519248636E+04  0.50400001928E-02 0. -1.
        1   -1    0    0  501    0  0.00000000000E+00  0.00000000000E+00 -0.24025592927E+04  0.24025592927E+04  0.50400001928E-02 0.  1.
    10030    2    1    2    0    0  0.00000000000E+00  0.00000000000E+00 -0.10506344291E+04  0.37544841563E+04  0.36044858963E+04 0.  0.
        5    1    3    3  502    0 -0.30928931317E+03 -0.39216967147E+03  0.12783908993E+04  0.13725022083E+04  0.46999998093E+01 0. -1.
       -5    1    3    3    0  502  0.30928931317E+03  0.39216967147E+03 -0.23290253284E+04  0.23819819480E+04  0.46999998093E+01 0.  1.
</event>
<event>
 5   0  0.4120440E-07  0.3554501E+04  0.7818609E-02  0.8100994E-01
       -2   -1    0    0    0  501  0.00000000000E+00  0.00000000000E+00  0.13596722670E+04  0.13596722670E+04  0.25500000920E-02 0.  1.
        2   -1    0    0  501    0  0.00000000000E+00  0.00000000000E+00 -0.23230735211E+04  0.23230735211E+04  0.25500000920E-02 0. -1.
    10030    2    1    2    0    0  0.00000000000E+00  0.00000000000E+00 -0.96340125408E+03  0.36827457882E+04  0.35545006068E+04 0.  0.
        2    1    3    3  502    0 -0.88853033088E+03 -0.14948398419E+04 -0.86179692406E+03  0.19408055648E+04  0.25500000920E-02 0. -1.
       -2    1    3    3    0  502  0.88853033088E+03  0.14948398419E+04 -0.10160433001E+03  0.17419402234E+04  0.25500000920E-02 0.  1.
</event>
<event>
 5   0  0.1298250E-07  0.3615696E+04  0.7818609E-02  0.8086906E-01
        1   -1    0    0  501    0  0.00000000000E+00  0.00000000000E+00  0.30634606344E+04  0.30634606344E+04  0.50400001928E-02 0.  1.
       -1   -1    0    0    0  501  0.00000000000E+00  0.00000000000E+00 -0.10668703121E+04  0.10668703121E+04  0.50400001928E-02 0. -1.
    10030    2    1    2    0    0  0.00000000000E+00  0.00000000000E+00  0.19965903222E+04  0.41303309465E+04  0.36156964492E+04 0.  0.
        2    1    3    3  502    0  0.13262411820E+04 -0.71258555292E+03  0.21415542884E+04  0.26178137087E+04  0.25500000920E-02 0.  1.
       -2    1    3    3    0  502 -0.13262411820E+04  0.71258555292E+03 -0.14496396618E+03  0.15125172378E+04  0.25500000920E-02 0. -1.
</event>
<event>
 5   0  0.4120440E-07  0.3596065E+04  0.7818609E-02  0.8091394E-01
       -2   -1    0    0    0  501  0.00000000000E+00  0.00000000000E+00  0.19060456819E+04  0.19060456819E+04  0.25500000920E-02 0. -1.
        2   -1    0    0  501    0  0.00000000000E+00  0.00000000000E+00 -0.16961404790E+04  0.16961404790E+04  0.25500000920E-02 0.  1.
    10030    2    1    2    0    0  0.00000000000E+00  0.00000000000E+00  0.20990520289E+03  0.36021861609E+04  0.35960652029E+04 0.  0.
        2    1    3    3  502    0 -0.57221505634E+03 -0.47185566118E+03  0.17456793462E+04  0.18967008766E+04  0.25500000920E-02 0. -1.
       -2    1    3    3    0  502  0.57221505634E+03  0.47185566118E+03 -0.15357741433E+04  0.17054852843E+04  0.25500000920E-02 0.  1.
</event>
<event>
 5   0  0.1361743E-07  0.3602481E+04  0.7818609E-02  0.8089924E-01
       -1   -1    0    0    0  501  0.00000000000E+00  0.00000000000E+00  0.20614827405E+04  0.20614827405E+04  0.50400001928E-02 0. -1.
        1   -1    0    0  501    0  0.00000000000E+00  0.00000000000E+00 -0.15738510649E+04  0.15738510649E+04  0.50400001928E-02 0.  1.
    10030    2    1    2    0    0  0.00000000000E+00  0.00000000000E+00  0.48763167557E+03  0.36353338054E+04  0.36024807044E+04 0.  0.
        5    1    3    3  502    0  0.53967602980E+03  0.16810020109E+04  0.60404006287E+03  0.18659861911E+04  0.46999998093E+01 0. -1.
       -5    1    3    3    0  502 -0.53967602980E+03 -0.16810020109E+04 -0.11640838730E+03  0.17693476143E+04  0.46999998093E+01 0.  1.
</event>
<event>
 5   0  0.4200635E-07  0.3604810E+04  0.7818609E-02  0.8089391E-01
        2   -1    0    0  501    0  0.00000000000E+00  0.00000000000E+00  0.23229813407E+04  0.23229813407E+04  0.25500000920E-02 0.  1.
       -2   -1    0    0    0  501  0.00000000000E+00  0.00000000000E+00 -0.13984885882E+04  0.13984885882E+04  0.25500000920E-02 0. -1.
    10030    2    1    2    0    0  0.00000000000E+00  0.00000000000E+00  0.92449275253E+03  0.37214699289E+04  0.36048095071E+04 0.  0.
        4    1    3    3  502    0  0.26231851866E+03  0.14715516248E+04 -0.57751537531E+03  0.16024358993E+04  0.12699999809E+01 0. -1.
       -4    1    3    3    0  502 -0.26231851866E+03 -0.14715516248E+04  0.15020081278E+04  0.21190340296E+04  0.12699999809E+01 0.  1.
</event>
<event>
 5   0  0.1298250E-07  0.3613474E+04  0.7818609E-02  0.8087412E-01
        1   -1    0    0  501    0  0.00000000000E+00  0.00000000000E+00  0.18652256406E+04  0.18652256406E+04  0.50400001928E-02 0.  1.
       -1   -1    0    0    0  501  0.00000000000E+00  0.00000000000E+00 -0.17500823005E+04  0.17500823005E+04  0.50400001928E-02 0. -1.
    10030    2    1    2    0    0  0.00000000000E+00  0.00000000000E+00  0.11514334008E+03  0.36153079412E+04  0.36134738854E+04 0.  0.
        1    1    3    3  502    0 -0.13542078221E+04 -0.71790078130E+03  0.10146333882E+04  0.18381352697E+04  0.50400001928E-02 0.  1.
       -1    1    3    3    0  502  0.13542078221E+04  0.71790078130E+03 -0.89949004815E+03  0.17771726714E+04  0.50400001928E-02 0. -1.
</event>
<event>
 5   0  0.1361743E-07  0.3602431E+04  0.7818609E-02  0.8089935E-01
        1   -1    0    0  501    0  0.00000000000E+00  0.00000000000E+00  0.20249229218E+04  0.20249229218E+04  0.50400001928E-02 0. -1.
       -1   -1    0    0    0  501  0.00000000000E+00  0.00000000000E+00 -0.16022230223E+04  0.16022230223E+04  0.50400001928E-02 0.  1.
    10030    2    1    2    0    0  0.00000000000E+00  0.00000000000E+00  0.42269989949E+03  0.36271459441E+04  0.36024314698E+04 0.  0.
        5    1    3    3  502    0  0.23134884547E+03 -0.47283190084E+03  0.19457424117E+04  0.20156953930E+04  0.46999998093E+01 0. -1.
       -5    1    3    3    0  502 -0.23134884547E+03  0.47283190084E+03 -0.15230425122E+04  0.16114505511E+04  0.46999998093E+01 0.  1.
</event>
<event>
 5   0  0.1298250E-07  0.3524518E+04  0.7818609E-02  0.8108004E-01
        1   -1    0    0  501    0  0.00000000000E+00  0.00000000000E+00  0.24231167872E+04  0.24231167872E+04  0.50400001928E-02 0. -1.
       -1   -1    0    0    0  501  0.00000000000E+00  0.00000000000E+00 -0.12816373984E+04  0.12816373984E+04  0.50400001928E-02 0.  1.
    10030    2    1    2    0    0  0.00000000000E+00  0.00000000000E+00  0.11414793888E+04  0.37047541857E+04  0.35245181772E+04 0.  0.
        1    1    3    3  502    0 -0.85984236501E+03  0.50702878127E+03  0.20972979355E+04  0.23227280745E+04  0.50400001928E-02 0. -1.
       -1    1    3    3    0  502  0.85984236501E+03 -0.50702878127E+03 -0.95581854672E+03  0.13820261112E+04  0.50400001928E-02 0.  1.
</event>
<event>
 5   0  0.4120440E-07  0.3635322E+04  0.7818609E-02  0.8082448E-01
        2   -1    0    0  501    0  0.00000000000E+00  0.00000000000E+00  0.21042726602E+04  0.21042726602E+04  0.25500000920E-02 0.  1.
       -2   -1    0    0    0  501  0.00000000000E+00  0.00000000000E+00 -0.15700875064E+04  0.15700875064E+04  0.25500000920E-02 0. -1.
    10030    2    1    2    0    0  0.00000000000E+00  0.00000000000E+00  0.53418515376E+03  0.36743601666E+04  0.36353223867E+04 0.  0.
        2    1    3    3  502    0 -0.58095838210E+03 -0.17195928739E+04  0.16920256930E+03  0.18229486562E+04  0.25500000920E-02 0. -1.
       -2    1    3    3    0  502  0.58095838210E+03  0.17195928739E+04  0.36498258447E+03  0.18514115104E+04  0.25500000920E-02 0.  1.
</event>
<event>
 5   0  0.4115358E-07  0.3846981E+04  0.7818609E-02  0.8036147E-01
       -2   -1    0    0    0  501  0.00000000000E+00  0.00000000000E+00  0.14373971244E+04  0.14373971244E+04  0.25500000920E-02 0.  1.
        2   -1    0    0  501    0  0.00000000000E+00  0.00000000000E+00 -0.25739694171E+04  0.25739694171E+04  0.25500000920E-02 0. -1.
    10030    2    1    2    0    0  0.00000000000E+00  0.00000000000E+00 -0.11365722927E+04  0.40113665415E+04  0.38469812781E+04 0.  0.
        3    1    3    3  502    0  0.14934642397E+04  0.12079978312E+04 -0.46337874151E+03  0.19759590238E+04  0.10100000352E+00 0.  1.
       -3    1    3    3    0  502 -0.14934642397E+04 -0.12079978312E+04 -0.67319355119E+03  0.20354075177E+04  0.10100000352E+00 0. -1.
</event>
<event>
 5   0  0.1361743E-07  0.3600467E+04  0.7818609E-02  0.8090385E-01
       -1   -1    0    0    0  501  0.00000000000E+00  0.00000000000E+00  0.18106811916E+04  0.18106811916E+04  0.50400001928E-02 0.  1.
        1   -1    0    0  501    0  0.00000000000E+00  0.00000000000E+00 -0.17898457157E+04  0.17898457157E+04  0.50400001928E-02 0. -1.
    10030    2    1    2    0    0  0.00000000000E+00  0.00000000000E+00  0.20835475942E+02  0.36005269073E+04  0.36004666216E+04 0.  0.
        5    1    3    3  502    0  0.80748772937E+03  0.12305800969E+04 -0.10261583840E+04  0.17942650103E+04  0.46999998093E+01 0. -1.
       -5    1    3    3    0  502 -0.80748772937E+03 -0.12305800969E+04  0.10469938600E+04  0.18062618971E+04  0.46999998093E+01 0.  1.
</event>
<event>
 5   0  0.3880259E-07  0.3577191E+04  0.7818609E-02  0.8095736E-01
        2   -1    0    0  501    0  0.00000000000E+00  0.00000000000E+00  0.21482080835E+04  0.21482080835E+04  0.25500000920E-02 0.  1.
       -2   -1    0    0    0  501  0.00000000000E+00  0.00000000000E+00 -0.14891826522E+04  0.14891826522E+04  0.25500000920E-02 0. -1.
    10030    2    1    2    0    0  0.00000000000E+00  0.00000000000E+00  0.65902543125E+03  0.36373907357E+04  0.35771911950E+04 0.  0.
        5    1    3    3  502    0 -0.12273069826E+04 -0.12652913187E+04  0.63760941853E+03  0.18745165807E+04  0.46999998093E+01 0.  1.
       -5    1    3    3    0  502  0.12273069826E+04  0.12652913187E+04  0.21416012720E+02  0.17628741550E+04  0.46999998093E+01 0. -1.
</event>
<event>
 5   0  0.3880259E-07  0.3508208E+04  0.7818609E-02  0.8111847E-01
       -2   -1    0    0    0  501  0.00000000000E+00  0.00000000000E+00  0.21037334017E+04  0.21037334017E+04  0.25500000920E-02 0.  1.
        2   -1    0    0  501    0  0.00000000000E+00  0.00000000000E+00 -0.14625812753E+04  0.14625812753E+04  0.25500000920E-02 0. -1.
    10030    2    1    2    0    0  0.00000000000E+00  0.00000000000E+00  0.64115212634E+03  0.35663146770E+04  0.35082081361E+04 0.  0.
        5    1    3    3  502    0 -0.49102406127E+03 -0.15432993935E+04  0.10055172989E+04  0.19062960880E+04  0.46999998093E+01 0.  1.
       -5    1    3    3    0  502  0.49102406127E+03  0.15432993935E+04 -0.36436517254E+03  0.16600185890E+04  0.46999998093E+01 0. -1.
</event>
<event>
 5   0  0.3880259E-07  0.3533799E+04  0.7818609E-02  0.8105826E-01
        2   -1    0    0  501    0  0.00000000000E+00  0.00000000000E+00  0.16196023204E+04  0.16196023204E+04  0.25500000920E-02 0.  1.
       -2   -1    0    0    0  501  0.00000000000E+00  0.00000000000E+00 -0.19275929642E+04  0.19275929642E+04  0.25500000920E-02 0. -1.
    10030    2    1    2    0    0  0.00000000000E+00  0.00000000000E+00 -0.30799064380E+03  0.35471952846E+04  0.35337991101E+04 0.  0.
        5    1    3    3  502    0 -0.85982028193E+03  0.12943943689E+04  0.69012312161E+03  0.17003057703E+04  0.46999998093E+01 0.  1.
       -5    1    3    3    0  502  0.85982028193E+03 -0.12943943689E+04 -0.99811376541E+03  0.18468895143E+04  0.46999998093E+01 0. -1.
</event>
<event>
 5   0  0.1298250E-07  0.3356862E+04  0.7818609E-02  0.8148576E-01
        1   -1    0    0  501    0  0.00000000000E+00  0.00000000000E+00  0.28049000386E+04  0.28049000386E+04  0.50400001928E-02 0.  1.
       -1   -1    0    0    0  501  0.00000000000E+00  0.00000000000E+00 -0.10043604437E+04  0.10043604438E+04  0.50400001928E-02 0. -1.
    10030    2    1    2    0    0  0.00000000000E+00  0.00000000000E+00  0.18005395948E+04  0.38092604823E+04  0.33568620153E+04 0.  0.
        1    1    3    3  502    0  0.78899156499E+03 -0.14667319761E+04  0.66408455958E+03  0.17929915453E+04  0.50400001928E-02 0.  1.
       -1    1    3    3    0  502 -0.78899156499E+03  0.14667319761E+04  0.11364550352E+04  0.20162689370E+04  0.50400001928E-02 0. -1.
</event>
<event>
 5   0  0.4200635E-07  0.3593847E+04  0.7818609E-02  0.8091902E-01
       -2   -1    0    0    0  501  0.00000000000E+00  0.00000000000E+00  0.31393496209E+04  0.31393496209E+04  0.25500000920E-02 0. -1.
        2   -1    0    0  501    0  0.00000000000E+00  0.00000000000E+00 -0.10285361665E+04  0.10285361665E+04  0.25500000920E-02 0.  1.
    10030    2    1    2    0    0  0.00000000000E+00  0.00000000000E+00  0.21108134544E+04  0.41678857874E+04  0.35938473114E+04 0.  0.
        4    1    3    3  502    0  0.91788429461E+03 -0.61256087748E+03 -0.58927854550E+03  0.12509968921E+04  0.12699999809E+01 0.  1.
       -4    1    3    3    0  502 -0.91788429461E+03  0.61256087748E+03  0.27000919999E+04  0.29168888954E+04  0.12699999809E+01 0. -1.
</event>
<event>
 5   0  0.1298250E-07  0.3594258E+04  0.7818609E-02  0.8091808E-01
       -1   -1    0    0    0  501  0.00000000000E+00  0.00000000000E+00  0.14357958059E+04  0.14357958059E+04  0.50400001928E-02 0. -1.
        1   -1    0    0  501    0  0.00000000000E+00  0.00000000000E+00 -0.22493949931E+04  0.22493949931E+04  0.50400001928E-02 0.  1.
    10030    2    1    2    0    0  0.00000000000E+00  0.00000000000E+00 -0.81359918713E+03  0.36851907990E+04  0.35942575851E+04 0.  0.
        1    1    3    3  502    0 -0.17546633279E+04  0.36910165528E+02 -0.80318914018E+03  0.19301084295E+04  0.50400001928E-02 0.  1.
       -1    1    3    3    0  502  0.17546633279E+04 -0.36910165528E+02 -0.10410046941E+02  0.17550823695E+04  0.50400001928E-02 0. -1.
</event>
<event>
 5   0  0.1370997E-07  0.3616959E+04  0.7818609E-02  0.8086618E-01
        1   -1    0    0  501    0  0.00000000000E+00  0.00000000000E+00  0.28327705320E+04  0.28327705320E+04  0.50400001928E-02 0.  1.
       -1   -1    0    0    0  501  0.00000000000E+00  0.00000000000E+00 -0.11545581375E+04  0.11545581375E+04  0.50400001928E-02 0. -1.
    10030    2    1    2    0    0  0.00000000000E+00  0.00000000000E+00  0.16782123945E+04  0.39873286695E+04  0.36169590927E+04 0.  0.
        3    1    3    3  502    0 -0.15971019698E+04  0.65011167510E+03  0.23810372227E+03  0.17407105689E+04  0.10100000352E+00 0.  1.
       -3    1    3    3    0  502  0.15971019698E+04 -0.65011167510E+03  0.14401086722E+04  0.22466181006E+04  0.10100000352E+00 0. -1.
</event>
<event>
 5   0  0.1298250E-07  0.3577440E+04  0.7818609E-02  0.8095679E-01
       -1   -1    0    0    0  501  0.00000000000E+00  0.00000000000E+00  0.12286137287E+04  0.12286137287E+04  0.50400001928E-02 0.  1.
        1   -1    0    0  501    0  0.00000000000E+00  0.00000000000E+00 -0.26041695593E+04  0.26041695593E+04  0.50400001928E-02 0. -1.
    10030    2    1    2    0    0  0.00000000000E+00  0.00000000000E+00 -0.13755558307E+04  0.38327832880E+04  0.35774395717E+04 0.  0.
        2    1    3    3  502    0  0.46718034349E+03 -0.10840908254E+04  0.75202086806E+03  0.13996591646E+04  0.25500000920E-02 0.  1.
       -2    1    3    3    0  502 -0.46718034349E+03  0.10840908254E+04 -0.21275766987E+04  0.24331241234E+04  0.25500000920E-02 0. -1.
</event>
<event>
 5   0  0.4200635E-07  0.3624472E+04  0.7818609E-02  0.8084909E-01
        2   -1    0    0  501    0  0.00000000000E+00  0.00000000000E+00  0.11698759563E+04  0.11698759563E+04  0.25500000920E-02 0.  1.
       -2   -1    0    0    0  501  0.00000000000E+00  0.00000000000E+00 -0.28073057149E+04  0.28073057149E+04  0.25500000920E-02 0. -1.
    10030    2    1    2    0    0  0.00000000000E+00  0.00000000000E+00 -0.16374297586E+04  0.39771816712E+04  0.36244720762E+04 0.  0.
        4    1    3    3  502    0 -0.16026278628E+04  0.79335159116E+03 -0.49621854713E+03  0.18558171443E+04  0.12699999809E+01 0.  1.
       -4    1    3    3    0  502  0.16026278628E+04 -0.79335159116E+03 -0.11412112114E+04  0.21213645268E+04  0.12699999809E+01 0. -1.
</event>
<event>
 5   0  0.1348226E-07  0.3587955E+04  0.7818609E-02  0.8093256E-01
        1   -1    0    0  501    0  0.00000000000E+00  0.00000000000E+00  0.25395922468E+04  0.25395922468E+04  0.50400001928E-02 0.  1.
       -1   -1    0    0    0  501  0.00000000000E+00  0.00000000000E+00 -0.12672722751E+04  0.12672722751E+04  0.50400001928E-02 0. -1.
    10030    2    1    2    0    0  0.00000000000E+00  0.00000000000E+00  0.12723199718E+04  0.38068645219E+04  0.35879547625E+04 0.  0.
        4    1    3    3  502    0  0.30043767571E+03 -0.16372734850E+04 -0.73550230125E+02  0.16662348307E+04  0.12699999809E+01 0. -1.
       -4    1    3    3    0  502 -0.30043767571E+03  0.16372734850E+04  0.13458702019E+04  0.21406296912E+04  0.12699999809E+01 0.  1.
</event>
<event>
 5   0  0.1370997E-07  0.3619932E+04  0.7818609E-02  0.8085941E-01
       -1   -1    0    0    0  501  0.00000000000E+00  0.00000000000E+00  0.13247994211E+04  0.13247994211E+04  0.50400001928E-02 0. -1.
        1   -1    0    0  501    0  0.00000000000E+00  0.00000000000E+00 -0.24728098652E+04  0.24728098652E+04  0.50400001928E-02 0.  1.
    10030    2    1    2    0    0  0.00000000000E+00  0.00000000000E+00 -0.11480104442E+04  0.37976092863E+04  0.36199320866E+04 0.  0.
        3    1    3    3  502    0 -0.13368817323E+04  0.63583270213E+03 -0.16664835681E+04  0.22290588785E+04  0.10100000352E+00 0.  1.
       -3    1    3    3    0  502  0.13368817323E+04 -0.63583270213E+03  0.51847312390E+03  0.15685504077E+04  0.10100000352E+00 0. -1.
</event>
<event>
 5   0  0.3993751E-07  0.3603876E+04  0.7818609E-02  0.8089604E-01
        2   -1    0    0  501    0  0.00000000000E+00  0.00000000000E+00  0.20413641417E+04  0.20413641417E+04  0.25500000920E-02 0. -1.
       -2   -1    0    0    0  501  0.00000000000E+00  0.00000000000E+00 -0.15905935510E+04  0.15905935510E+04  0.25500000920E-02 0.  1.
    10030    2    1    2    0    0  0.00000000000E+00  0.00000000000E+00  0.45077059070E+03  0.36319576927E+04  0.36038760462E+04 0.  0.
        1    1    3    3  502    0  0.46012631316E+03 -0.16717813480E+04  0.71952367903E+03  0.18773074933E+04  0.50400001928E-02 0. -1.
       -1    1    3    3    0  502 -0.46012631316E+03  0.16717813480E+04 -0.26875308833E+03  0.17546501994E+04  0.50400001928E-02 0.  1.
</event>
<event>
 5   0  0.3880259E-07  0.3579735E+04  0.7818609E-02  0.8095149E-01
        2   -1    0    0  501    0  0.00000000000E+00  0.00000000000E+00  0.12760572502E+04  0.12760572502E+04  0.25500000920E-02 0.  1.
       -2   -1    0    0    0  501  0.00000000000E+00  0.00000000000E+00 -0.25105660404E+04  0.25105660404E+04  0.25500000920E-02 0. -1.
    10030    2    1    2    0    0  0.00000000000E+00  0.00000000000E+00 -0.12345087902E+04  0.37866232906E+04  0.35797351846E+04 0.  0.
        5    1    3    3  502    0 -0.14200984062E+04 -0.61782645067E+03 -0.15664530261E+04  0.22027678451E+04  0.46999998093E+01 0. -1.
       -5    1    3    3    0  502  0.14200984062E+04  0.61782645067E+03  0.33194423590E+03  0.15838554455E+04  0.46999998093E+01 0.  1.
</event>
<event>
 5   0  0.1348226E-07  0.3332554E+04  0.7818609E-02  0.8154661E-01
        1   -1    0    0  501    0  0.00000000000E+00  0.00000000000E+00  0.31171883019E+04  0.31171883019E+04  0.50400001928E-02 0.  1.
       -1   -1    0    0    0  501  0.00000000000E+00  0.00000000000E+00 -0.89069973641E+03  0.89069973642E+03  0.50400001928E-02 0. -1.
    10030    2    1    2    0    0  0.00000000000E+00  0.00000000000E+00  0.22264885655E+04  0.40078880384E+04  0.33325538549E+04 0.  0.
        4    1    3    3  502    0  0.27688960560E+03 -0.41189974289E+03  0.30262283886E+04  0.30666576471E+04  0.12699999809E+01 0.  1.
       -4    1    3    3    0  502 -0.27688960560E+03  0.41189974289E+03 -0.79973982307E+03  0.94123039123E+03  0.12699999809E+01 0. -1.
</event>
<event>
 5   0  0.4200635E-07  0.3485901E+04  0.7818609E-02  0.8117139E-01
       -2   -1    0    0    0  501  0.00000000000E+00  0.00000000000E+00  0.11026591516E+04  0.11026591516E+04  0.25500000920E-02 0.  1.
        2   -1    0    0  501    0  0.00000000000E+00  0.00000000000E+00 -0.27550459079E+04  0.27550459079E+04  0.25500000920E-02 0. -1.
    10030    2    1    2    0    0  0.00000000000E+00  0.00000000000E+00 -0.16523867563E+04  0.38577050596E+04  0.34859010792E+04 0.  0.
        4    1    3    3  502    0  0.51333222889E+03 -0.13693713831E+04  0.22320158083E+03  0.14793608487E+04  0.12699999809E+01 0.  1.
       -4    1    3    3    0  502 -0.51333222889E+03  0.13693713831E+04 -0.18755883372E+04  0.23783442109E+04  0.12699999809E+01 0. -1.
</event>
<event>
 5   0  0.4120440E-07  0.3583342E+04  0.7818609E-02  0.8094318E-01
        2   -1    0    0  501    0  0.00000000000E+00  0.00000000000E+00  0.16375071197E+04  0.16375071197E+04  0.25500000920E-02 0. -1.
       -2   -1    0    0    0  501  0.00000000000E+00  0.00000000000E+00 -0.19603488639E+04  0.19603488639E+04  0.25500000920E-02 0.  1.
    10030    2    1    2    0    0  0.00000000000E+00  0.00000000000E+00 -0.32284174419E+03  0.35978559836E+04  0.35833421393E+04 0.  0.
        2    1    3    3  502    0 -0.77519102220E+03 -0.78294020851E+02 -0.17813478239E+04  0.19442867958E+04  0.25500000920E-02 0.  1.
       -2    1    3    3    0  502  0.77519102220E+03  0.78294020851E+02  0.14585060797E+04  0.16535691879E+04  0.25500000920E-02 0. -1.
</event>
<event>
 5   0  0.1298250E-07  0.3819393E+04  0.7818609E-02  0.8042006E-01
        1   -1    0    0  501    0  0.00000000000E+00  0.00000000000E+00  0.25509556850E+04  0.25509556850E+04  0.50400001928E-02 0.  1.
       -1   -1    0    0    0  501  0.00000000000E+00  0.00000000000E+00 -0.14296372195E+04  0.14296372195E+04  0.50400001928E-02 0. -1.
    10030    2    1    2    0    0  0.00000000000E+00  0.00000000000E+00  0.11213184655E+04  0.39805929045E+04  0.38193932463E+04 0.  0.
        1    1    3    3  502    0  0.62699893066E+03  0.14790736664E+04 -0.51546766289E+03  0.16871554408E+04  0.50400001928E-02 0. -1.
       -1    1    3    3    0  502 -0.62699893066E+03 -0.14790736664E+04  0.16367861284E+04  0.22934374637E+04  0.50400001928E-02 0.  1.
</event>
<event>
 5   0  0.4120440E-07  0.3599719E+04  0.7818609E-02  0.8090556E-01
        2   -1    0    0  501    0  0.00000000000E+00  0.00000000000E+00  0.12347743242E+04  0.12347743242E+04  0.25500000920E-02 0. -1.
       -2   -1    0    0    0  501  0.00000000000E+00  0.00000000000E+00 -0.26235520553E+04  0.26235520553E+04  0.25500000920E-02 0.  1.
    10030    2    1    2    0    0  0.00000000000E+00  0.00000000000E+00 -0.13887777311E+04  0.38583263795E+04  0.35997192758E+04 0.  0.
        2    1    3    3  502    0  0.87669806101E+03 -0.32558364913E+02 -0.23788628761E+04  0.25354778880E+04  0.25500000920E-02 0.  1.
       -2    1    3    3    0  502 -0.87669806101E+03  0.32558364913E+02  0.99008514494E+03  0.13228484915E+04  0.25500000920E-02 0. -1.
</event>
<event>
 5   0  0.1298250E-07  0.3582043E+04  0.7818609E-02  0.8094617E-01
        1   -1    0    0  501    0  0.00000000000E+00  0.00000000000E+00  0.15162778718E+04  0.15162778718E+04  0.50400001928E-02 0.  1.
       -1   -1    0    0    0  501  0.00000000000E+00  0.00000000000E+00 -0.21155481763E+04  0.21155481763E+04  0.50400001928E-02 0. -1.
    10030    2    1    2    0    0  0.00000000000E+00  0.00000000000E+00 -0.59927030443E+03  0.36318260481E+04  0.35820434875E+04 0.  0.
        2    1    3    3  502    0 -0.12546581412E+04  0.12354217629E+04 -0.63179293870E+03  0.18707207971E+04  0.25500000920E-02 0. -1.
       -2    1    3    3    0  502  0.12546581412E+04 -0.12354217629E+04  0.32522634272E+02  0.17611052510E+04  0.25500000920E-02 0.  1.
</event>
<event>
 5   0  0.1348226E-07  0.3589894E+04  0.7818609E-02  0.8092811E-01
       -1   -1    0    0    0  501  0.00000000000E+00  0.00000000000E+00  0.15000622283E+04  0.15000622283E+04  0.50400001928E-02 0. -1.
        1   -1    0    0  501    0  0.00000000000E+00  0.00000000000E+00 -0.21478007253E+04  0.21478007254E+04  0.50400001928E-02 0.  1.
    10030    2    1    2    0    0  0.00000000000E+00  0.00000000000E+00 -0.64773849701E+03  0.36478629537E+04  0.35898940052E+04 0.  0.
        4    1    3    3  502    0 -0.28365664617E+03  0.48596968314E+03 -0.20558589974E+04  0.21314749485E+04  0.12699999809E+01 0.  1.
       -4    1    3    3    0  502  0.28365664617E+03 -0.48596968314E+03  0.14081205004E+04  0.15163880052E+04  0.12699999809E+01 0. -1.
</event>
<event>
 5   0  0.3993751E-07  0.3198252E+04  0.7818609E-02  0.8189279E-01
       -2   -1    0    0    0  501  0.00000000000E+00  0.00000000000E+00  0.12149454771E+04  0.12149454771E+04  0.25500000920E-02 0.  1.
        2   -1    0    0  501    0  0.00000000000E+00  0.00000000000E+00 -0.21047893404E+04  0.21047893404E+04  0.25500000920E-02 0. -1.
    10030    2    1    2    0    0  0.00000000000E+00  0.00000000000E+00 -0.88984386324E+03  0.33197348175E+04  0.31982522036E+04 0.  0.
        1    1    3    3  502    0 -0.49235381519E+03 -0.14444434902E+04 -0.94095996697E+03  0.17928287523E+04  0.50400001928E-02 0. -1.
       -1    1    3    3    0  502  0.49235381519E+03  0.14444434902E+04  0.51116103731E+02  0.15269060652E+04  0.50400001928E-02 0.  1.
</event>
<event>
 5   0  0.4120440E-07  0.3541110E+04  0.7818609E-02  0.8104116E-01
        2   -1    0    0  501    0  0.00000000000E+00  0.00000000000E+00  0.22636378255E+04  0.22636378256E+04  0.25500000920E-02 0.  1.
       -2   -1    0    0    0  501  0.00000000000E+00  0.00000000000E+00 -0.13848791343E+04  0.13848791343E+04  0.25500000920E-02 0. -1.
    10030    2    1    2    0    0  0.00000000000E+00  0.00000000000E+00  0.87875869126E+03  0.36485169598E+04  0.35411098781E+04 0.  0.
        2    1    3    3  502    0  0.13313547361E+04 -0.46737750327E+03  0.15413609452E+04  0.20896747899E+04  0.25500000920E-02 0.  1.
       -2    1    3    3    0  502 -0.13313547361E+04  0.46737750327E+03 -0.66260225398E+03  0.15588421700E+04  0.25500000920E-02 0. -1.
</event>
<event>
 5   0  0.1298250E-07  0.3619452E+04  0.7818609E-02  0.8086051E-01
       -1   -1    0    0    0  501  0.00000000000E+00  0.00000000000E+00  0.24273080009E+04  0.24273080009E+04  0.50400001928E-02 0.  1.
        1   -1    0    0  501    0  0.00000000000E+00  0.00000000000E+00 -0.13492756839E+04  0.13492756839E+04  0.50400001928E-02 0. -1.
    10030    2    1    2    0    0  0.00000000000E+00  0.00000000000E+00  0.10780323170E+04  0.37765836848E+04  0.36194517060E+04 0.  0.
        1    1    3    3  502    0 -0.52178024860E+03  0.98536612467E+03  0.20263491132E+04  0.23128535959E+04  0.50400001928E-02 0.  1.
       -1    1    3    3    0  502  0.52178024860E+03 -0.98536612467E+03 -0.94831679613E+03  0.14637300890E+04  0.50400001928E-02 0. -1.
</event>
<event>
 5   0  0.1298250E-07  0.3593640E+04  0.7818609E-02  0.8091950E-01
        1   -1    0    0  501    0  0.00000000000E+00  0.00000000000E+00  0.16225277725E+04  0.16225277725E+04  0.50400001928E-02 0. -1.
       -1   -1    0    0    0  501  0.00000000000E+00  0.00000000000E+00 -0.19898351089E+04  0.19898351089E+04  0.50400001928E-02 0.  1.
    10030    2    1    2    0    0  0.00000000000E+00  0.00000000000E+00 -0.36730733640E+03  0.36123628814E+04  0.35936403420E+04 0.  0.
        2    1    3    3  502    0 -0.59606840283E+03 -0.14975973737E+04  0.61450280740E+03  0.17250243868E+04  0.25500000920E-02 0. -1.
       -2    1    3    3    0  502  0.59606840283E+03  0.14975973737E+04 -0.98181014380E+03  0.18873384946E+04  0.25500000920E-02 0.  1.
</event>
<event>
 5   0  0.3993751E-07  0.3588522E+04  0.7818609E-02  0.8093126E-01
        2   -1    0    0  501    0  0.00000000000E+00  0.00000000000E+00  0.17150752744E+04  0.17150752744E+04  0.25500000920E-02 0.  1.
       -2   -1    0    0    0  501  0.00000000000E+00  0.00000000000E+00 -0.18771027194E+04  0.18771027194E+04  0.25500000920E-02 0. -1.
    10030    2    1    2    0    0  0.00000000000E+00  0.00000000000E+00 -0.16202744499E+03  0.35921779937E+04  0.35885219584E+04 0.  0.
        1    1    3    3  502    0  0.19264787615E+03 -0.11785898744E+04  0.12594492087E+04  0.17356265743E+04  0.50400001928E-02 0.  1.
       -1    1    3    3    0  502 -0.19264787615E+03  0.11785898744E+04 -0.14214766537E+04  0.18565514194E+04  0.50400001928E-02 0. -1.
</event>
<event>
 5   0  0.1298250E-07  0.3500018E+04  0.7818609E-02  0.8113786E-01
       -1   -1    0    0    0  501  0.00000000000E+00  0.00000000000E+00  0.14956757966E+04  0.14956757966E+04  0.50400001928E-02 0. -1.
        1   -1    0    0  501    0  0.00000000000E+00  0.00000000000E+00 -0.20475907299E+04  0.20475907299E+04  0.50400001928E-02 0.  1.
    10030    2    1    2    0    0  0.00000000000E+00  0.00000000000E+00 -0.55191493332E+03  0.35432665265E+04  0.35000182262E+04 0.  0.
        2    1    3    3  502    0 -0.32592056416E+03  0.78712473260E+03 -0.18234869400E+04  0.20126833281E+04  0.25500000920E-02 0.  1.
       -2    1    3    3    0  502  0.32592056416E+03 -0.78712473260E+03  0.12715720067E+04  0.15305831983E+04  0.25500000920E-02 0. -1.
</event>
<event>
 5   0  0.1370997E-07  0.3606345E+04  0.7818609E-02  0.8089040E-01
       -1   -1    0    0    0  501  0.00000000000E+00  0.00000000000E+00  0.10397179809E+04  0.10397179809E+04  0.50400001928E-02 0. -1.
        1   -1    0    0  501    0  0.00000000000E+00  0.00000000000E+00 -0.31272248241E+04  0.31272248241E+04  0.50400001928E-02 0.  1.
    10030    2    1    2    0    0  0.00000000000E+00  0.00000000000E+00 -0.20875068432E+04  0.41669428050E+04  0.36063454521E+04 0.  0.
        3    1    3    3  502    0 -0.15054320308E+04  0.47319954964E+02  0.10175321905E+03  0.15096087259E+04  0.10100000352E+00 0. -1.
       -3    1    3    3    0  502  0.15054320308E+04 -0.47319954964E+02 -0.21892600623E+04  0.26573340791E+04  0.10100000352E+00 0.  1.
</event>
<event>
 5   0  0.3993751E-07  0.3603611E+04  0.7818609E-02  0.8089665E-01
        2   -1    0    0  501    0  0.00000000000E+00  0.00000000000E+00  0.23326628254E+04  0.23326628254E+04  0.25500000920E-02 0.  1.
       -2   -1    0    0    0  501  0.00000000000E+00  0.00000000000E+00 -0.13917580202E+04  0.13917580202E+04  0.25500000920E-02 0. -1.
    10030    2    1    2    0    0  0.00000000000E+00  0.00000000000E+00  0.94090480524E+03  0.37244208456E+04  0.36036105204E+04 0.  0.
        1    1    3    3  502    0  0.97737106109E+03  0.15133946798E+04  0.43971398201E+03  0.18544449396E+04  0.50400001928E-02 0.  1.
       -1    1    3    3    0  502 -0.97737106109E+03 -0.15133946798E+04  0.50119082323E+03  0.18699759060E+04  0.50400001928E-02 0. -1.
</event>
<event>
 5   0  0.4200635E-07  0.3536121E+04  0.7818609E-02  0.8105283E-01
        2   -1    0    0  501    0  0.00000000000E+00  0.00000000000E+00  0.17048342331E+04  0.17048342331E+04  0.25500000920E-02 0. -1.
       -2   -1    0    0    0  501  0.00000000000E+00  0.00000000000E+00 -0.18336320836E+04  0.18336320836E+04  0.25500000920E-02 0.  1.
    10030    2    1    2    0    0  0.00000000000E+00  0.00000000000E+00 -0.12879785046E+03  0.35384663167E+04  0.35361214612E+04 0.  0.
        4    1    3    3  502    0  0.30308421222E+03 -0.73462815979E+03 -0.16448444123E+04  0.18267603363E+04  0.12699999809E+01 0.  1.
       -4    1    3    3    0  502 -0.30308421222E+03  0.73462815979E+03  0.15160465618E+04  0.17117059804E+04  0.12699999809E+01 0. -1.
</event>
<event>
 5   0  0.4200635E-07  0.3608632E+04  0.7818609E-02  0.8088517E-01
       -2   -1    0    0    0  501  0.00000000000E+00  0.00000000000E+00  0.15581707387E+04  0.15581707387E+04  0.25500000920E-02 0. -1.
        2   -1    0    0  501    0  0.00000000000E+00  0.00000000000E+00 -0.20893452748E+04  0.20893452748E+04  0.25500000920E-02 0.  1.
    10030    2    1    2    0    0  0.00000000000E+00  0.00000000000E+00 -0.53117453611E+03  0.36475160136E+04  0.36086322452E+04 0.  0.
        4    1    3    3  502    0  0.16571476060E+04  0.63694222311E+03  0.59941160222E+02  0.17763524817E+04  0.12699999809E+01 0.  1.
       -4    1    3    3    0  502 -0.16571476060E+04 -0.63694222311E+03 -0.59111569633E+03  0.18711635319E+04  0.12699999809E+01 0. -1.
</event>
<event>
 5   0  0.4115358E-07  0.3596120E+04  0.7818609E-02  0.8091381E-01
        2   -1    0    0  501    0  0.00000000000E+00  0.00000000000E+00  0.12876503698E+04  0.12876503698E+04  0.25500000920E-02 0.  1.
       -2   -1    0    0    0  501  0.00000000000E+00  0.00000000000E+00 -0.25107896899E+04  0.25107896899E+04  0.25500000920E-02 0. -1.
    10030    2    1    2    0    0  0.00000000000E+00  0.00000000000E+00 -0.12231393201E+04  0.37984400597E+04  0.35961197270E+04 0.  0.
        3    1    3    3  502    0 -0.98515064668E+03  0.30151624858E+03 -0.21681071790E+04  0.24004421665E+04  0.10100000352E+00 0. -1.
       -3    1    3    3    0  502  0.98515064668E+03 -0.30151624858E+03  0.94496785894E+03  0.13979978932E+04  0.10100000352E+00 0.  1.
</event>
<event>
 5   0  0.1298250E-07  0.3614668E+04  0.7818609E-02  0.8087140E-01
        1   -1    0    0  501    0  0.00000000000E+00  0.00000000000E+00  0.23024885532E+04  0.23024885532E+04  0.50400001928E-02 0. -1.
       -1   -1    0    0    0  501  0.00000000000E+00  0.00000000000E+00 -0.14186636007E+04  0.14186636007E+04  0.50400001928E-02 0.  1.
    10030    2    1    2    0    0  0.00000000000E+00  0.00000000000E+00  0.88382495257E+03  0.37211521539E+04  0.36146682843E+04 0.  0.
        1    1    3    3  502    0  0.78871849470E+03  0.13497943662E+04  0.13755101770E+04  0.20823184055E+04  0.50400001928E-02 0. -1.
       -1    1    3    3    0  502 -0.78871849470E+03 -0.13497943662E+04 -0.49168522444E+03  0.16388337484E+04  0.50400001928E-02 0.  1.
</event>
<event>
 5   0  0.4120440E-07  0.3591108E+04  0.7818609E-02  0.8092532E-01
       -2   -1    0    0    0  501  0.00000000000E+00  0.00000000000E+00  0.17508599565E+04  0.17508599565E+04  0.25500000920E-02 0. -1.
        2   -1    0    0  501    0  0.00000000000E+00  0.00000000000E+00 -0.18413885088E+04  0.18413885088E+04  0.25500000920E-02 0.  1.
    10030    2    1    2    0    0  0.00000000000E+00  0.00000000000E+00 -0.90528552301E+02  0.35922484654E+04  0.35911075754E+04 0.  0.
        2    1    3    3  502    0 -0.75836762707E+03  0.91662246031E+03  0.13000403862E+04  0.17622210980E+04  0.25500000920E-02 0. -1.
       -2    1    3    3    0  502  0.75836762707E+03 -0.91662246031E+03 -0.13905689385E+04  0.18300273674E+04  0.25500000920E-02 0.  1.
</event>
<event>
 5   0  0.3993751E-07  0.3607364E+04  0.7818609E-02  0.8088807E-01
       -2   -1    0    0    0  501  0.00000000000E+00  0.00000000000E+00  0.10175687506E+04  0.10175687506E+04  0.25500000920E-02 0.  1.
        2   -1    0    0  501    0  0.00000000000E+00  0.00000000000E+00 -0.31970993559E+04  0.31970993559E+04  0.25500000920E-02 0. -1.
    10030    2    1    2    0    0  0.00000000000E+00  0.00000000000E+00 -0.21795306053E+04  0.42146681066E+04  0.36073638005E+04 0.  0.
        1    1    3    3  502    0  0.76377713368E+03  0.15303516858E+04 -0.42070018801E+03  0.17613405237E+04  0.50400001928E-02 0.  1.
       -1    1    3    3    0  502 -0.76377713368E+03 -0.15303516858E+04 -0.17588304173E+04  0.24533275829E+04  0.50400001928E-02 0. -1.
</event>
<event>
 5   0  0.1298250E-07  0.3591791E+04  0.7818609E-02  0.8092375E-01
       -1   -1    0    0    0  501  0.00000000000E+00  0.00000000000E+00  0.10897540078E+04  0.10897540078E+04  0.50400001928E-02 0. -1.
        1   -1    0    0  501    0  0.00000000000E+00  0.00000000000E+00 -0.29596049150E+04  0.29596049151E+04  0.50400001928E-02 0.  1.
    10030    2    1    2    0    0  0.00000000000E+00  0.00000000000E+00 -0.18698509073E+04  0.40493589228E+04  0.35917913735E+04 0.  0.
        2    1    3    3  502    0 -0.17162215475E+04  0.38275994255E+03 -0.13465700374E+04  0.22147623889E+04  0.25500000920E-02 0. -1.
       -2    1    3    3    0  502  0.17162215475E+04 -0.38275994255E+03 -0.52328086992E+03  0.18345965340E+04  0.25500000920E-02 0.  1.
</event>
<event>
 5   0  0.1298250E-07  0.3593576E+04  0.7818609E-02  0.8091965E-01
       -1   -1    0    0    0  501  0.00000000000E+00  0.00000000000E+00  0.21733416659E+04  0.21733416659E+04  0.50400001928E-02 0. -1.
        1   -1    0    0  501    0  0.00000000000E+00  0.00000000000E+00 -0.14854763260E+04  0.14854763260E+04  0.50400001928E-02 0.  1.
    10030    2    1    2    0    0  0.00000000000E+00  0.00000000000E+00  0.68786533990E+03  0.36588179918E+04  0.35935762649E+04 0.  0.
        2    1    3    3  502    0 -0.13564290014E+04 -0.74000161428E+03 -0.58974695772E+03  0.16538752974E+04  0.25500000920E-02 0.  1.
       -2    1    3    3    0  502  0.13564290014E+04  0.74000161428E+03  0.12776122976E+04  0.20049426945E+04  0.25500000920E-02 0. -1.
</event>
<event>
 5   0  0.3993751E-07  0.3568973E+04  0.7818609E-02  0.8097636E-01
        2   -1    0    0  501    0  0.00000000000E+00  0.00000000000E+00  0.20759628828E+04  0.20759628828E+04  0.25500000920E-02 0. -1.
       -2   -1    0    0    0  501  0.00000000000E+00  0.00000000000E+00 -0.15339352079E+04  0.15339352079E+04  0.25500000920E-02 0.  1.
    10030    2    1    2    0    0  0.00000000000E+00  0.00000000000E+00  0.54202767496E+03  0.36098980907E+04  0.35689732732E+04 0.  0.
        1    1    3    3  502    0 -0.73206239581E+03 -0.14538957359E+04  0.10106059613E+04  0.19159991053E+04  0.50400001928E-02 0. -1.
       -1    1    3    3    0  502  0.73206239581E+03  0.14538957359E+04 -0.46857828636E+03  0.16938989854E+04  0.50400001928E-02 0.  1.
</event>
<event>
 5   0  0.4200635E-07  0.3605007E+04  0.7818609E-02  0.8089346E-01
       -2   -1    0    0    0  501  0.00000000000E+00  0.00000000000E+00  0.19513597388E+04  0.19513597388E+04  0.25500000920E-02 0. -1.
        2   -1    0    0  501    0  0.00000000000E+00  0.00000000000E+00 -0.16650021450E+04  0.16650021450E+04  0.25500000920E-02 0.  1.
    10030    2    1    2    0    0  0.00000000000E+00  0.00000000000E+00  0.28635759379E+03  0.36163618837E+04  0.36050066023E+04 0.  0.
        4    1    3    3  502    0 -0.33563974337E+02  0.23795531737E+03 -0.16488599985E+04  0.16662803429E+04  0.12699999809E+01 0.  1.
       -4    1    3    3    0  502  0.33563974337E+02 -0.23795531737E+03  0.19352175923E+04  0.19500815408E+04  0.12699999809E+01 0. -1.
</event>
<event>
 5   0  0.4200635E-07  0.3324660E+04  0.7818609E-02  0.8156649E-01
        2   -1    0    0  501    0  0.00000000000E+00  0.00000000000E+00  0.14663088222E+04  0.14663088222E+04  0.25500000920E-02 0.  1.
       -2   -1    0    0    0  501  0.00000000000E+00  0.00000000000E+00 -0.18845557162E+04  0.18845557162E+04  0.25500000920E-02 0. -1.
    10030    2    1    2    0    0  0.00000000000E+00  0.00000000000E+00 -0.41824689404E+03  0.33508645384E+04  0.33246597856E+04 0.  0.
        4    1    3    3  502    0 -0.11342723942E+04  0.10215068458E+04 -0.87255858958E+03  0.17582406563E+04  0.12699999809E+01 0.  1.
       -4    1    3    3    0  502  0.11342723942E+04 -0.10215068458E+04  0.45431169554E+03  0.15926238821E+04  0.12699999809E+01 0. -1.
</event>
<event>
 5   0  0.1370997E-07  0.3543171E+04  0.7818609E-02  0.8103634E-01
        1   -1    0    0  501    0  0.00000000000E+00  0.00000000000E+00  0.10701936091E+04  0.10701936091E+04  0.50400001928E-02 0.  1.
       -1   -1    0    0    0  501  0.00000000000E+00  0.00000000000E+00 -0.29326613547E+04  0.29326613547E+04  0.50400001928E-02 0. -1.
    10030    2    1    2    0    0  0.00000000000E+00  0.00000000000E+00 -0.18624677456E+04  0.40028549639E+04  0.35431711444E+04 0.  0.
        3    1    3    3  502    0  0.50294525486E+03 -0.13858163335E+04 -0.20410682285E+04  0.25178165865E+04  0.10100000352E+00 0. -1.
       -3    1    3    3    0  502 -0.50294525486E+03  0.13858163335E+04  0.17860048294E+03  0.14850383774E+04  0.10100000352E+00 0.  1.
</event>
<event>
 5   0  0.1361743E-07  0.3492415E+04  0.7818609E-02  0.8115590E-01
       -1   -1    0    0    0  501  0.00000000000E+00  0.00000000000E+00  0.12352304650E+04  0.12352304650E+04  0.50400001928E-02 0.  1.
        1   -1    0    0  501    0  0.00000000000E+00  0.00000000000E+00 -0.24685598766E+04  0.24685598766E+04  0.50400001928E-02 0. -1.
    10030    2    1    2    0    0  0.00000000000E+00  0.00000000000E+00 -0.12333294116E+04  0.37037903416E+04  0.34924148461E+04 0.  0.
        5    1    3    3  502    0  0.15560208933E+04 -0.76815786933E+03 -0.82326488954E+03  0.19206912039E+04  0.46999998093E+01 0.  1.
       -5    1    3    3    0  502 -0.15560208933E+04  0.76815786933E+03 -0.41006452203E+03  0.17830991377E+04  0.46999998093E+01 0. -1.
</event>
<event>
 5   0  0.4120440E-07  0.3606068E+04  0.7818609E-02  0.8089103E-01
        2   -1    0    0  501    0  0.00000000000E+00  0.00000000000E+00  0.21758050541E+04  0.21758050541E+04  0.25500000920E-02 0. -1.
       -2   -1    0    0    0  501  0.00000000000E+00  0.00000000000E+00 -0.14941283605E+04  0.14941283605E+04  0.25500000920E-02 0.  1.
    10030    2    1    2    0    0  0.00000000000E+00  0.00000000000E+00  0.68167669356E+03  0.36699334146E+04  0.36060682402E+04 0.  0.
        2    1    3    3  502    0 -0.86223131684E+03  0.14994454387E+04  0.85892452320E+03  0.19311993175E+04  0.25500000920E-02 0.  1.
       -2    1    3    3    0  502  0.86223131684E+03 -0.14994454387E+04 -0.17724782964E+03  0.17387340971E+04  0.25500000920E-02 0. -1.
</event>
<event>
 5   0  0.1298250E-07  0.3563664E+04  0.7818609E-02  0.8098866E-01
       -1   -1    0    0    0  501  0.00000000000E+00  0.00000000000E+00  0.17068786244E+04  0.17068786244E+04  0.50400001928E-02 0.  1.
        1   -1    0    0  501    0  0.00000000000E+00  0.00000000000E+00 -0.18600768400E+04  0.18600768400E+04  0.50400001928E-02 0. -1.
    10030    2    1    2    0    0  0.00000000000E+00  0.00000000000E+00 -0.15319821554E+03  0.35669554644E+04  0.35636640683E+04 0.  0.
        2    1    3    3  502    0 -0.37794884940E+03 -0.15056175480E+04 -0.95216177554E+03  0.18210825298E+04  0.25500000920E-02 0. -1.
       -2    1    3    3    0  502  0.37794884940E+03  0.15056175480E+04  0.79896355999E+03  0.17458729346E+04  0.25500000920E-02 0.  1.
</event>
<event>
 5   0  0.1298250E-07  0.3596567E+04  0.7818609E-02  0.8091278E-01
       -1   -1    0    0    0  501  0.00000000000E+00  0.00000000000E+00  0.12157843516E+04  0.12157843516E+04  0.50400001928E-02 0.  1.
        1   -1    0    0  501    0  0.00000000000E+00  0.00000000000E+00 -0.26598666295E+04  0.26598666295E+04  0.50400001928E-02 0. -1.
    10030    2    1    2    0    0  0.00000000000E+00  0.00000000000E+00 -0.14440822779E+04  0.38756509811E+04  0.35965673777E+04 0.  0.
        2    1    3    3  502    0  0.49306119711E+03  0.79801908073E+03 -0.23753296900E+04  0.25538470850E+04  0.25500000920E-02 0. -1.
       -2    1    3    3    0  502 -0.49306119711E+03 -0.79801908073E+03  0.93124741210E+03  0.13218038961E+04  0.25500000920E-02 0.  1.
</event>
<event>
 5   0  0.1298250E-07  0.3619731E+04  0.7818609E-02  0.8085987E-01
       -1   -1    0    0    0  501  0.00000000000E+00  0.00000000000E+00  0.17349477330E+04  0.17349477330E+04  0.50400001928E-02 0. -1.
        1   -1    0    0  501    0  0.00000000000E+00  0.00000000000E+00 -0.18880184729E+04  0.18880184729E+04  0.50400001928E-02 0.  1.
    10030    2    1    2    0    0  0.00000000000E+00  0.00000000000E+00 -0.15307073992E+03  0.36229662059E+04  0.36197311333E+04 0.  0.
        1    1    3    3  502    0 -0.34706425340E+03  0.56115628806E+03 -0.17633496857E+04  0.18827512023E+04  0.50400001928E-02 0.  1.
       -1    1    3    3    0  502  0.34706425340E+03 -0.56115628806E+03  0.16102789457E+04  0.17402150036E+04  0.50400001928E-02 0. -1.
</event>
<event>
 5   0  0.4120440E-07  0.3599267E+04  0.7818609E-02  0.8090660E-01
        2   -1    0    0  501    0  0.00000000000E+00  0.00000000000E+00  0.27293761078E+04  0.27293761078E+04  0.25500000920E-02 0.  1.
       -2   -1    0    0    0  501  0.00000000000E+00  0.00000000000E+00 -0.11866008744E+04  0.11866008744E+04  0.25500000920E-02 0. -1.
    10030    2    1    2    0    0  0.00000000000E+00  0.00000000000E+00  0.15427752334E+04  0.39159769821E+04  0.35992666342E+04 0.  0.
        2    1    3    3  502    0 -0.35496917787E+03  0.13526019698E+04 -0.46104719191E+03  0.14724468476E+04  0.25500000920E-02 0. -1.
       -2    1    3    3    0  502  0.35496917787E+03 -0.13526019698E+04  0.20038224253E+04  0.24435301345E+04  0.25500000920E-02 0.  1.
</event>
<event>
 5   0  0.4200635E-07  0.3598344E+04  0.7818609E-02  0.8090871E-01
       -2   -1    0    0    0  501  0.00000000000E+00  0.00000000000E+00  0.12164411056E+04  0.12164411056E+04  0.25500000920E-02 0.  1.
        2   -1    0    0  501    0  0.00000000000E+00  0.00000000000E+00 -0.26610580328E+04  0.26610580328E+04  0.25500000920E-02 0. -1.
    10030    2    1    2    0    0  0.00000000000E+00  0.00000000000E+00 -0.14446169272E+04  0.38774991384E+04  0.35983442723E+04 0.  0.
        4    1    3    3  502    0 -0.11009606752E+04  0.24679151565E+03 -0.22324566025E+04  0.25013765322E+04  0.12699999809E+01 0. -1.
       -4    1    3    3    0  502  0.11009606752E+04 -0.24679151565E+03  0.78783967526E+03  0.13761226062E+04  0.12699999809E+01 0.  1.
</event>
<event>
 5   0  0.1298250E-07  0.3683591E+04  0.7818609E-02  0.8071608E-01
       -1   -1    0    0    0  501  0.00000000000E+00  0.00000000000E+00  0.13294269511E+04  0.13294269511E+04  0.50400001928E-02 0.  1.
        1   -1    0    0  501    0  0.00000000000E+00  0.00000000000E+00 -0.25516335455E+04  0.25516335455E+04  0.50400001928E-02 0. -1.
    10030    2    1    2    0    0  0.00000000000E+00  0.00000000000E+00 -0.12222065943E+04  0.38810604966E+04  0.36835908594E+04 0.  0.
        1    1    3    3  502    0  0.12141435797E+04 -0.28417328715E+03  0.81703544477E+03  0.14907870429E+04  0.50400001928E-02 0.  1.
       -1    1    3    3    0  502 -0.12141435797E+04  0.28417328715E+03 -0.20392420391E+04  0.23902734537E+04  0.50400001928E-02 0. -1.
</event>
<event>
 5   0  0.3993751E-07  0.3609132E+04  0.7818609E-02  0.8088403E-01
       -2   -1    0    0    0  501  0.00000000000E+00  0.00000000000E+00  0.16232303937E+04  0.16232303937E+04  0.25500000920E-02 0. -1.
        2   -1    0    0  501    0  0.00000000000E+00  0.00000000000E+00 -0.20061594249E+04  0.20061594249E+04  0.25500000920E-02 0.  1.
    10030    2    1    2    0    0  0.00000000000E+00  0.00000000000E+00 -0.38292903118E+03  0.36293898186E+04  0.36091322797E+04 0.  0.
        1    1    3    3  502    0  0.92494945631E+03 -0.11790261321E+04  0.81957648720E+03  0.17080221706E+04  0.50400001928E-02 0. -1.
       -1    1    3    3    0  502 -0.92494945631E+03  0.11790261321E+04 -0.12025055184E+04  0.19213676480E+04  0.50400001928E-02 0.  1.
</event>
<event>
 5   0  0.1298250E-07  0.3542406E+04  0.7818609E-02  0.8103813E-01
        1   -1    0    0  501    0  0.00000000000E+00  0.00000000000E+00  0.28847425403E+04  0.28847425404E+04  0.50400001928E-02 0.  1.
       -1   -1    0    0    0  501  0.00000000000E+00  0.00000000000E+00 -0.10875010778E+04  0.10875010778E+04  0.50400001928E-02 0. -1.
    10030    2    1    2    0    0  0.00000000000E+00  0.00000000000E+00  0.17972414625E+04  0.39722436182E+04  0.35424063132E+04 0.  0.
        2    1    3    3  502    0 -0.23429285625E+03  0.46063180859E+03  0.27983203869E+04  0.28456408406E+04  0.25500000920E-02 0.  1.
       -2    1    3    3    0  502  0.23429285625E+03 -0.46063180859E+03 -0.10010789244E+04  0.11266027776E+04  0.25500000920E-02 0. -1.
</event>
<event>
 5   0  0.1298250E-07  0.3542103E+04  0.7818609E-02  0.8103884E-01
       -1   -1    0    0    0  501  0.00000000000E+00  0.00000000000E+00  0.19165171779E+04  0.19165171779E+04  0.50400001928E-02 0.  1.
        1   -1    0    0  501    0  0.00000000000E+00  0.00000000000E+00 -0.16366269503E+04  0.16366269504E+04  0.50400001928E-02 0. -1.
    10030    2    1    2    0    0  0.00000000000E+00  0.00000000000E+00  0.27989022753E+03  0.35531441282E+04  0.35421031403E+04 0.  0.
        1    1    3    3  502    0 -0.89903106212E+03 -0.10781547523E+04 -0.94321192251E+03  0.16912490211E+04  0.50400001928E-02 0. -1.
       -1    1    3    3    0  502  0.89903106212E+03  0.10781547523E+04  0.12231021500E+04  0.18618951071E+04  0.50400001928E-02 0.  1.
</event>
<event>
 5   0  0.1370997E-07  0.3577626E+04  0.7818609E-02  0.8095636E-01
       -1   -1    0    0    0  501  0.00000000000E+00  0.00000000000E+00  0.15090593868E+04  0.15090593868E+04  0.50400001928E-02 0. -1.
        1   -1    0    0  501    0  0.00000000000E+00  0.00000000000E+00 -0.21204285394E+04  0.21204285395E+04  0.50400001928E-02 0.  1.
    10030    2    1    2    0    0  0.00000000000E+00  0.00000000000E+00 -0.61136915261E+03  0.36294879263E+04  0.35776263592E+04 0.  0.
        3    1    3    3  502    0  0.16857858886E+04 -0.59292151139E+03 -0.22438171528E+03  0.18010489014E+04  0.10100000352E+00 0. -1.
       -3    1    3    3    0  502 -0.16857858886E+04  0.59292151139E+03 -0.38698743733E+03  0.18284390249E+04  0.10100000352E+00 0.  1.
</event>
<event>
 5   0  0.1298250E-07  0.3580021E+04  0.7818609E-02  0.8095083E-01
        1   -1    0    0  501    0  0.00000000000E+00  0.00000000000E+00  0.20554792621E+04  0.20554792621E+04  0.50400001928E-02 0. -1.
       -1   -1    0    0    0  501  0.00000000000E+00  0.00000000000E+00 -0.15588278063E+04  0.15588278063E+04  0.50400001928E-02 0.  1.
    10030    2    1    2    0    0  0.00000000000E+00  0.00000000000E+00  0.49665145585E+03  0.36143070684E+04  0.35800213569E+04 0.  0.
        1    1    3    3  502    0  0.29791214209E+03  0.12096527245E+04  0.15459863528E+04  0.19854684992E+04  0.50400001928E-02 0. -1.
       -1    1    3    3    0  502 -0.29791214209E+03 -0.12096527245E+04 -0.10493348970E+04  0.16288385691E+04  0.50400001928E-02 0.  1.
</event>
<event>
 5   0  0.1298250E-07  0.3594504E+04  0.7818609E-02  0.8091752E-01
        1   -1    0    0  501    0  0.00000000000E+00  0.00000000000E+00  0.12283615733E+04  0.12283615733E+04  0.50400001928E-02 0. -1.
       -1   -1    0    0    0  501  0.00000000000E+00  0.00000000000E+00 -0.26296121403E+04  0.26296121403E+04  0.50400001928E-02 0.  1.
    10030    2    1    2    0    0  0.00000000000E+00  0.00000000000E+00 -0.14012505670E+04  0.38579737137E+04  0.35945038634E+04 0.  0.
        1    1    3    3  502    0  0.41981136061E+03  0.57002435510E+03  0.10724113704E+04  0.12850040822E+04  0.50400001928E-02 0. -1.
       -1    1    3    3    0  502 -0.41981136061E+03 -0.57002435510E+03 -0.24736619374E+04  0.25729696315E+04  0.50400001928E-02 0.  1.
</event>
<event>
 5   0  0.1298250E-07  0.3616906E+04  0.7818609E-02  0.8086630E-01
       -1   -1    0    0    0  501  0.00000000000E+00  0.00000000000E+00  0.18681257402E+04  0.18681257402E+04  0.50400001928E-02 0. -1.
        1   -1    0    0  501    0  0.00000000000E+00  0.00000000000E+00 -0.17506861999E+04  0.17506861999E+04  0.50400001928E-02 0.  1.
    10030    2    1    2    0    0  0.00000000000E+00  0.00000000000E+00  0.11743954027E+03  0.36188119401E+04  0.36169058341E+04 0.  0.
        2    1    3    3  502    0 -0.84538516238E+03  0.58124449154E+03 -0.14313537465E+04  0.17610493404E+04  0.25500000920E-02 0.  1.
       -2    1    3    3    0  502  0.84538516238E+03 -0.58124449154E+03  0.15487932868E+04  0.18577625997E+04  0.25500000920E-02 0. -1.
</event>
<event>
 5   0  0.1298250E-07  0.3555638E+04  0.7818609E-02  0.8100730E-01
        1   -1    0    0  501    0  0.00000000000E+00  0.00000000000E+00  0.17378165334E+04  0.17378165334E+04  0.50400001928E-02 0.  1.
       -1   -1    0    0    0  501  0.00000000000E+00  0.00000000000E+00 -0.18187423807E+04  0.18187423807E+04  0.50400001928E-02 0. -1.
    10030    2    1    2    0    0  0.00000000000E+00  0.00000000000E+00 -0.80925847232E+02  0.35565589141E+04  0.35556381026E+04 0.  0.
        1    1    3    3  502    0 -0.88992567810E+03 -0.15317659638E+04  0.10912813444E+03  0.17748756661E+04  0.50400001928E-02 0.  1.
       -1    1    3    3    0  502  0.88992567810E+03  0.15317659638E+04 -0.19005398167E+03  0.17816832480E+04  0.50400001928E-02 0. -1.
</event>
<event>
 5   0  0.4120440E-07  0.3618675E+04  0.7818609E-02  0.8086227E-01
        2   -1    0    0  501    0  0.00000000000E+00  0.00000000000E+00  0.26242952660E+04  0.26242952660E+04  0.25500000920E-02 0.  1.
       -2   -1    0    0    0  501  0.00000000000E+00  0.00000000000E+00 -0.12474595133E+04  0.12474595133E+04  0.25500000920E-02 0. -1.
    10030    2    1    2    0    0  0.00000000000E+00  0.00000000000E+00  0.13768357527E+04  0.38717547794E+04  0.36186749483E+04 0.  0.
        2    1    3    3  502    0  0.13637016565E+04 -0.11493733257E+04  0.10146361629E+04  0.20518839618E+04  0.25500000920E-02 0. -1.
       -2    1    3    3    0  502 -0.13637016565E+04  0.11493733257E+04  0.36219958979E+03  0.18198708176E+04  0.25500000920E-02 0.  1.
</event>
<event>
 5   0  0.1298250E-07  0.3604415E+04  0.7818609E-02  0.8089481E-01
        1   -1    0    0  501    0  0.00000000000E+00  0.00000000000E+00  0.17294771440E+04  0.17294771440E+04  0.50400001928E-02 0. -1.
       -1   -1    0    0    0  501  0.00000000000E+00  0.00000000000E+00 -0.18779965517E+04  0.18779965518E+04  0.50400001928E-02 0.  1.
    10030    2    1    2    0    0  0.00000000000E+00  0.00000000000E+00 -0.14851940773E+03  0.36074736958E+04  0.36044151330E+04 0.  0.
        2    1    3    3  502    0 -0.25414165596E+03 -0.82332619004E+03 -0.16584794019E+04  0.18689590480E+04  0.25500000920E-02 0.  1.
       -2    1    3    3    0  502  0.25414165596E+03  0.82332619004E+03  0.15099599942E+04  0.17385146478E+04  0.25500000920E-02 0. -1.
</event>
<event>
 5   0  0.1361743E-07  0.3574795E+04  0.7818609E-02  0.8096290E-01
       -1   -1    0    0    0  501  0.00000000000E+00  0.00000000000E+00  0.15050049730E+04  0.15050049730E+04  0.50400001928E-02 0. -1.
        1   -1    0    0  501    0  0.00000000000E+00  0.00000000000E+00 -0.21227769345E+04  0.21227769345E+04  0.50400001928E-02 0.  1.
    10030    2    1    2    0    0  0.00000000000E+00  0.00000000000E+00 -0.61777196144E+03  0.36277819075E+04  0.35747950112E+04 0.  0.
        5    1    3    3  502    0  0.13056610733E+04 -0.11637700678E+04  0.64888598714E+02  0.17502411917E+04  0.46999998093E+01 0.  1.
       -5    1    3    3    0  502 -0.13056610733E+04  0.11637700678E+04 -0.68266056015E+03  0.18775407158E+04  0.46999998093E+01 0. -1.
</event>
<event>
 5   0  0.3993751E-07  0.3581147E+04  0.7818609E-02  0.8094824E-01
       -2   -1    0    0    0  501  0.00000000000E+00  0.00000000000E+00  0.15782059202E+04  0.15782059202E+04  0.25500000920E-02 0.  1.
        2   -1    0    0  501    0  0.00000000000E+00  0.00000000000E+00 -0.20315181399E+04  0.20315181399E+04  0.25500000920E-02 0. -1.
    10030    2    1    2    0    0  0.00000000000E+00  0.00000000000E+00 -0.45331221976E+03  0.36097240601E+04  0.35811472773E+04 0.  0.
        1    1    3    3  502    0  0.87972056702E+03  0.97373952112E+03 -0.14546042989E+04  0.19590688088E+04  0.50400001928E-02 0. -1.
       -1    1    3    3    0  502 -0.87972056702E+03 -0.97373952112E+03  0.10012920791E+04  0.16506552514E+04  0.50400001928E-02 0.  1.
</event>
<event>
 5   0  0.3993751E-07  0.3640481E+04  0.7818609E-02  0.8081281E-01
       -2   -1    0    0    0  501  0.00000000000E+00  0.00000000000E+00  0.11453269059E+04  0.11453269059E+04  0.25500000920E-02 0. -1.
        2   -1    0    0  501    0  0.00000000000E+00  0.00000000000E+00 -0.28928652026E+04  0.28928652026E+04  0.25500000920E-02 0.  1.
    10030    2    1    2    0    0  0.00000000000E+00  0.00000000000E+00 -0.17475382967E+04  0.40381921085E+04  0.36404814800E+04 0.  0.
        1    1    3    3  502    0 -0.16794093334E+04  0.31291819893E+03 -0.17666884138E+03  0.17174240559E+04  0.50400001928E-02 0.  1.
       -1    1    3    3    0  502  0.16794093334E+04 -0.31291819893E+03 -0.15708694553E+04  0.23207680526E+04  0.50400001928E-02 0. -1.
</event>
<event>
 5   0  0.4120440E-07  0.3601406E+04  0.7818609E-02  0.8090170E-01
        2   -1    0    0  501    0  0.00000000000E+00  0.00000000000E+00  0.28643101191E+04  0.28643101191E+04  0.25500000920E-02 0. -1.
       -2   -1    0    0    0  501  0.00000000000E+00  0.00000000000E+00 -0.11320460579E+04  0.11320460579E+04  0.25500000920E-02 0.  1.
    10030    2    1    2    0    0  0.00000000000E+00  0.00000000000E+00  0.17322640612E+04  0.39963561769E+04  0.36014058248E+04 0.  0.
        2    1    3    3  502    0  0.56820490841E+03  0.19263581561E+03 -0.10178715564E+04  0.11815362376E+04  0.25500000920E-02 0.  1.
       -2    1    3    3    0  502 -0.56820490841E+03 -0.19263581561E+03  0.27501356176E+04  0.28148199393E+04  0.25500000920E-02 0. -1.
</event>
<event>
 5   0  0.3880259E-07  0.3723060E+04  0.7818609E-02  0.8062871E-01
       -2   -1    0    0    0  501  0.00000000000E+00  0.00000000000E+00  0.19639410486E+04  0.19639410486E+04  0.25500000920E-02 0. -1.
        2   -1    0    0  501    0  0.00000000000E+00  0.00000000000E+00 -0.17644592707E+04  0.17644592707E+04  0.25500000920E-02 0.  1.
    10030    2    1    2    0    0  0.00000000000E+00  0.00000000000E+00  0.19948177789E+03  0.37284003193E+04  0.37230600266E+04 0.  0.
        5    1    3    3  502    0  0.31876667607E+03  0.10826042742E+04 -0.13827972950E+04  0.17848794518E+04  0.46999998093E+01 0.  1.
       -5    1    3    3    0  502 -0.31876667607E+03 -0.10826042742E+04  0.15822790729E+04  0.19435208676E+04  0.46999998093E+01 0. -1.
</event>
<event>
 5   0  0.1348226E-07  0.3516371E+04  0.7818609E-02  0.8109921E-01
       -1   -1    0    0    0  501  0.00000000000E+00  0.00000000000E+00  0.34967326328E+04  0.34967326328E+04  0.50400001928E-02 0.  1.
        1   -1    0    0  501    0  0.00000000000E+00  0.00000000000E+00 -0.88402999346E+03  0.88402999347E+03  0.50400001928E-02 0. -1.
    10030    2    1    2    0    0  0.00000000000E+00  0.00000000000E+00  0.26127026393E+04  0.43807626263E+04  0.35163711559E+04 0.  0.
        4    1    3    3  502    0  0.67342941824E+03  0.10821476405E+04  0.28151120107E+04  0.30902116340E+04  0.12699999809E+01 0.  1.
       -4    1    3    3    0  502 -0.67342941824E+03 -0.10821476405E+04 -0.20240937139E+03  0.12905509923E+04  0.12699999809E+01 0. -1.
</event>
<event>
 5   0  0.3993751E-07  0.3830710E+04  0.7818609E-02  0.8039597E-01
        2   -1    0    0  501    0  0.00000000000E+00  0.00000000000E+00  0.18850317418E+04  0.18850317418E+04  0.25500000920E-02 0. -1.
       -2   -1    0    0    0  501  0.00000000000E+00  0.00000000000E+00 -0.19461658942E+04  0.19461658942E+04  0.25500000920E-02 0.  1.
    10030    2    1    2    0    0  0.00000000000E+00  0.00000000000E+00 -0.61134152332E+02  0.38311976360E+04  0.38307098483E+04 0.  0.
        1    1    3    3  502    0  0.26338583620E+03 -0.13246881147E+04  0.13276978230E+04  0.18939250801E+04  0.50400001928E-02 0. -1.
       -1    1    3    3    0  502 -0.26338583620E+03  0.13246881147E+04 -0.13888319754E+04  0.19372725559E+04  0.50400001928E-02 0.  1.
</event>
<event>
 5   0  0.1298250E-07  0.3583790E+04  0.7818609E-02  0.8094215E-01
       -1   -1    0    0    0  501  0.00000000000E+00  0.00000000000E+00  0.22126745096E+04  0.22126745096E+04  0.50400001928E-02 0.  1.
        1   -1    0    0  501    0  0.00000000000E+00  0.00000000000E+00 -0.14511342341E+04  0.14511342341E+04  0.50400001928E-02 0. -1.
    10030    2    1    2    0    0  0.00000000000E+00  0.00000000000E+00  0.76154027553E+03  0.36638087437E+04  0.35837900216E+04 0.  0.
        1    1    3    3  502    0 -0.12856542468E+04 -0.10161473918E+04 -0.36027686716E+03  0.16778741864E+04  0.50400001928E-02 0. -1.
       -1    1    3    3    0  502  0.12856542468E+04  0.10161473918E+04  0.11218171427E+04  0.19859345573E+04  0.50400001928E-02 0.  1.
</event>
<event>
 5   0  0.1298250E-07  0.3622262E+04  0.7818609E-02  0.8085411E-01
        1   -1    0    0  501    0  0.00000000000E+00  0.00000000000E+00  0.13275663606E+04  0.13275663606E+04  0.50400001928E-02 0. -1.
       -1   -1    0    0    0  501  0.00000000000E+00  0.00000000000E+00 -0.24708333834E+04  0.24708333834E+04  0.50400001928E-02 0.  1.
    10030    2    1    2    0    0  0.00000000000E+00  0.00000000000E+00 -0.11432670228E+04  0.37983997440E+04  0.36222618803E+04 0.  0.
        2    1    3    3  502    0 -0.40778126496E+03  0.10766596780E+04  0.89446244681E+03  0.14579247892E+04  0.25500000920E-02 0. -1.
       -2    1    3    3    0  502  0.40778126496E+03 -0.10766596780E+04 -0.20377294697E+04  0.23404749547E+04  0.25500000920E-02 0.  1.
</event>
<event>
 5   0  0.1298250E-07  0.3607313E+04  0.7818609E-02  0.8088819E-01
        1   -1    0    0  501    0  0.00000000000E+00  0.00000000000E+00  0.24234866570E+04  0.24234866570E+04  0.50400001928E-02 0.  1.
       -1   -1    0    0    0  501  0.00000000000E+00  0.00000000000E+00 -0.13423536912E+04  0.13423536912E+04  0.50400001928E-02 0. -1.
    10030    2    1    2    0    0  0.00000000000E+00  0.00000000000E+00  0.10811329659E+04  0.37658403482E+04  0.36073127170E+04 0.  0.
        1    1    3    3  502    0  0.13846488109E+04 -0.81091796343E+03  0.14003726191E+04  0.21297614292E+04  0.50400001928E-02 0.  1.
       -1    1    3    3    0  502 -0.13846488109E+04  0.81091796343E+03 -0.31923965326E+03  0.16360789190E+04  0.50400001928E-02 0. -1.
</event>
<event>
 5   0  0.1361743E-07  0.3602136E+04  0.7818609E-02  0.8090003E-01
       -1   -1    0    0    0  501  0.00000000000E+00  0.00000000000E+00  0.12400551064E+04  0.12400551064E+04  0.50400001928E-02 0. -1.
        1   -1    0    0  501    0  0.00000000000E+00  0.00000000000E+00 -0.26158882902E+04  0.26158882902E+04  0.50400001928E-02 0.  1.
    10030    2    1    2    0    0  0.00000000000E+00  0.00000000000E+00 -0.13758331839E+04  0.38559433966E+04  0.36021358286E+04 0.  0.
        5    1    3    3  502    0 -0.22933353071E+02 -0.14460998166E+04  0.46106830363E+03  0.15180041795E+04  0.46999998093E+01 0. -1.
       -5    1    3    3    0  502  0.22933353071E+02  0.14460998166E+04 -0.18369014875E+04  0.23379392171E+04  0.46999998093E+01 0.  1.
</event>
<event>
 5   0  0.1298250E-07  0.3520718E+04  0.7818609E-02  0.8108898E-01
        1   -1    0    0  501    0  0.00000000000E+00  0.00000000000E+00  0.21864200274E+04  0.21864200275E+04  0.50400001928E-02 0. -1.
       -1   -1    0    0    0  501  0.00000000000E+00  0.00000000000E+00 -0.14173230822E+04  0.14173230822E+04  0.50400001928E-02 0.  1.
    10030    2    1    2    0    0  0.00000000000E+00  0.00000000000E+00  0.76909694521E+03  0.36037431097E+04  0.35207178657E+04 0.  0.
        2    1    3    3  502    0  0.36686029798E+02  0.12872604948E+04  0.16130506623E+04  0.20640537505E+04  0.25500000920E-02 0. -1.
       -2    1    3    3    0  502 -0.36686029798E+02 -0.12872604948E+04 -0.84395371704E+03  0.15396893591E+04  0.25500000920E-02 0.  1.
</event>
<event>
 5   0  0.3993751E-07  0.3544657E+04  0.7818609E-02  0.8103288E-01
       -2   -1    0    0    0  501  0.00000000000E+00  0.00000000000E+00  0.15046213380E+04  0.15046213380E+04  0.25500000920E-02 0. -1.
        2   -1    0    0  501    0  0.00000000000E+00  0.00000000000E+00 -0.20876671778E+04  0.20876671778E+04  0.25500000920E-02 0.  1.
    10030    2    1    2    0    0  0.00000000000E+00  0.00000000000E+00 -0.58304583977E+03  0.35922885158E+04  0.35446571526E+04 0.  0.
        1    1    3    3  502    0  0.16705400003E+04  0.53794254524E+03 -0.41094108208E+02  0.17554984478E+04  0.50400001928E-02 0. -1.
       -1    1    3    3    0  502 -0.16705400003E+04 -0.53794254524E+03 -0.54195173156E+03  0.18367900680E+04  0.50400001928E-02 0.  1.
</event>
<event>
 5   0  0.4115358E-07  0.3603833E+04  0.7818609E-02  0.8089614E-01
       -2   -1    0    0    0  501  0.00000000000E+00  0.00000000000E+00  0.20373896690E+04  0.20373896690E+04  0.25500000920E-02 0.  1.
        2   -1    0    0  501    0  0.00000000000E+00  0.00000000000E+00 -0.15936584529E+04  0.15936584529E+04  0.25500000920E-02 0. -1.
    10030    2    1    2    0    0  0.00000000000E+00  0.00000000000E+00  0.44373121611E+03  0.36310481219E+04  0.36038331082E+04 0.  0.
        3    1    3    3  502    0 -0.46731976192E+03 -0.10894291110E+03 -0.15281002517E+04  0.16016699745E+04  0.10100000352E+00 0. -1.
       -3    1    3    3    0  502  0.46731976192E+03  0.10894291110E+03  0.19718314678E+04  0.20293781475E+04  0.10100000352E+00 0.  1.
</event>
<event>
 5   0  0.1298250E-07  0.3599603E+04  0.7818609E-02  0.8090583E-01
        1   -1    0    0  501    0  0.00000000000E+00  0.00000000000E+00  0.18051346306E+04  0.18051346307E+04  0.50400001928E-02 0.  1.
       -1   -1    0    0    0  501  0.00000000000E+00  0.00000000000E+00 -0.17944845303E+04  0.17944845303E+04  0.50400001928E-02 0. -1.
    10030    2    1    2    0    0  0.00000000000E+00  0.00000000000E+00  0.10650100365E+02  0.35996191609E+04  0.35996034058E+04 0.  0.
        1    1    3    3  502    0  0.15975477013E+04 -0.58113174751E+03 -0.58578954317E+03  0.17980606650E+04  0.50400001928E-02 0. -1.
       -1    1    3    3    0  502 -0.15975477013E+04  0.58113174751E+03  0.59643964354E+03  0.18015584960E+04  0.50400001928E-02 0.  1.
</event>
<event>
 5   0  0.1298250E-07  0.3594729E+04  0.7818609E-02  0.8091700E-01
       -1   -1    0    0    0  501  0.00000000000E+00  0.00000000000E+00  0.18296103233E+04  0.18296103233E+04  0.50400001928E-02 0.  1.
        1   -1    0    0  501    0  0.00000000000E+00  0.00000000000E+00 -0.17656865127E+04  0.17656865127E+04  0.50400001928E-02 0. -1.
    10030    2    1    2    0    0  0.00000000000E+00  0.00000000000E+00  0.63923810592E+02  0.35952968360E+04  0.35947285134E+04 0.  0.
        2    1    3    3  502    0  0.55668558234E+03 -0.16835505428E+04 -0.26181400643E+03  0.17924251286E+04  0.25500000920E-02 0.  1.
       -2    1    3    3    0  502 -0.55668558234E+03  0.16835505428E+04  0.32573781702E+03  0.18028717074E+04  0.25500000920E-02 0. -1.
</event>
<event>
 5   0  0.1298250E-07  0.3156745E+04  0.7818609E-02  0.8200335E-01
        1   -1    0    0  501    0  0.00000000000E+00  0.00000000000E+00  0.15178839274E+04  0.15178839274E+04  0.50400001928E-02 0.  1.
       -1   -1    0    0    0  501  0.00000000000E+00  0.00000000000E+00 -0.16412720419E+04  0.16412720419E+04  0.50400001928E-02 0. -1.
    10030    2    1    2    0    0  0.00000000000E+00  0.00000000000E+00 -0.12338811455E+03  0.31591559693E+04  0.31567454461E+04 0.  0.
        1    1    3    3  502    0 -0.28391299610E+03  0.63554706257E+03 -0.14793680995E+04  0.16349485104E+04  0.50400001928E-02 0. -1.
       -1    1    3    3    0  502  0.28391299610E+03 -0.63554706257E+03  0.13559799849E+04  0.15242074588E+04  0.50400001928E-02 0.  1.
</event>
<event>
 5   0  0.1298250E-07  0.3514616E+04  0.7818609E-02  0.8110335E-01
       -1   -1    0    0    0  501  0.00000000000E+00  0.00000000000E+00  0.12160355894E+04  0.12160355894E+04  0.50400001928E-02 0. -1.
        1   -1    0    0  501    0  0.00000000000E+00  0.00000000000E+00 -0.25395076244E+04  0.25395076244E+04  0.50400001928E-02 0.  1.
    10030    2    1    2    0    0  0.00000000000E+00  0.00000000000E+00 -0.13234720349E+04  0.37555432138E+04  0.35146161389E+04 0.  0.
        2    1    3    3  502    0  0.55287578221E+03  0.65202851405E+03 -0.23023410069E+04  0.24559289334E+04  0.25500000920E-02 0.  1.
       -2    1    3    3    0  502 -0.55287578221E+03 -0.65202851405E+03  0.97886897197E+03  0.12996142805E+04  0.25500000920E-02 0. -1.
</event>
<event>
 5   0  0.1370997E-07  0.3586673E+04  0.7818609E-02  0.8093551E-01
       -1   -1    0    0    0  501  0.00000000000E+00  0.00000000000E+00  0.24196192709E+04  0.24196192709E+04  0.50400001928E-02 0. -1.
        1   -1    0    0  501    0  0.00000000000E+00  0.00000000000E+00 -0.13291577256E+04  0.13291577256E+04  0.50400001928E-02 0.  1.
    10030    2    1    2    0    0  0.00000000000E+00  0.00000000000E+00  0.10904615453E+04  0.37487769966E+04  0.35866729135E+04 0.  0.
        3    1    3    3  502    0  0.14834307213E+04  0.69180580811E+03  0.13110776915E+04  0.20971615828E+04  0.10100000352E+00 0. -1.
       -3    1    3    3    0  502 -0.14834307213E+04 -0.69180580811E+03 -0.22061614622E+03  0.16516154138E+04  0.10100000352E+00 0.  1.
</event>
<event>
 5   0  0.3993751E-07  0.3581070E+04  0.7818609E-02  0.8094842E-01
        2   -1    0    0  501    0  0.00000000000E+00  0.00000000000E+00  0.17423602553E+04  0.17423602553E+04  0.25500000920E-02 0.  1.
       -2   -1    0    0    0  501  0.00000000000E+00  0.00000000000E+00 -0.18400414402E+04  0.18400414402E+04  0.25500000920E-02 0. -1.
    10030    2    1    2    0    0  0.00000000000E+00  0.00000000000E+00 -0.97681184834E+02  0.35824016955E+04  0.35810697136E+04 0.  0.
        1    1    3    3  502    0  0.14762221840E+04  0.85116096272E+03 -0.59887066597E+03  0.18061984929E+04  0.50400001928E-02 0. -1.
       -1    1    3    3    0  502 -0.14762221840E+04 -0.85116096272E+03  0.50118948113E+03  0.17762032026E+04  0.50400001928E-02 0.  1.
</event>
<event>
 5   0  0.1361743E-07  0.3581981E+04  0.7818609E-02  0.8094632E-01
        1   -1    0    0  501    0  0.00000000000E+00  0.00000000000E+00  0.11620017286E+04  0.11620017286E+04  0.50400001928E-02 0. -1.
       -1   -1    0    0    0  501  0.00000000000E+00  0.00000000000E+00 -0.27604496355E+04  0.27604496355E+04  0.50400001928E-02 0.  1.
    10030    2    1    2    0    0  0.00000000000E+00  0.00000000000E+00 -0.15984479069E+04  0.39224513641E+04  0.35819811547E+04 0.  0.
        5    1    3    3  502    0  0.10318206108E+04 -0.14567509192E+04 -0.95733709858E+03  0.20256587629E+04  0.46999998093E+01 0. -1.
       -5    1    3    3    0  502 -0.10318206108E+04  0.14567509192E+04 -0.64111080830E+03  0.18967926012E+04  0.46999998093E+01 0.  1.
</event>
<event>
 5   0  0.4120440E-07  0.3670055E+04  0.7818609E-02  0.8074630E-01
        2   -1    0    0  501    0  0.00000000000E+00  0.00000000000E+00  0.22852059778E+04  0.22852059778E+04  0.25500000920E-02 0. -1.
       -2   -1    0    0    0  501  0.00000000000E+00  0.00000000000E+00 -0.14735330957E+04  0.14735330957E+04  0.25500000920E-02 0.  1.
    10030    2    1    2    0    0  0.00000000000E+00  0.00000000000E+00  0.81167288217E+03  0.37587390735E+04  0.36700553885E+04 0.  0.
        2    1    3    3  502    0  0.11107081818E+04 -0.13940939620E+04 -0.40769581550E+02  0.17829281530E+04  0.25500000920E-02 0.  1.
       -2    1    3    3    0  502 -0.11107081818E+04  0.13940939620E+04  0.85244246372E+03  0.19758109205E+04  0.25500000920E-02 0. -1.
</event>
<event>
 5   0  0.1298250E-07  0.3587163E+04  0.7818609E-02  0.8093438E-01
        1   -1    0    0  501    0  0.00000000000E+00  0.00000000000E+00  0.32373514509E+04  0.32373514509E+04  0.50400001928E-02 0. -1.
       -1   -1    0    0    0  501  0.00000000000E+00  0.00000000000E+00 -0.99369357349E+03  0.99369357351E+03  0.50400001928E-02 0.  1.
    10030    2    1    2    0    0  0.00000000000E+00  0.00000000000E+00  0.22436578774E+04  0.42310450244E+04  0.35871634097E+04 0.  0.
        2    1    3    3  502    0 -0.84341872847E+03 -0.77587962356E+03 -0.50552982179E+03  0.12525592770E+04  0.25500000920E-02 0.  1.
       -2    1    3    3    0  502  0.84341872847E+03  0.77587962356E+03  0.27491876992E+04  0.29784857473E+04  0.25500000920E-02 0. -1.
</event>
<event>
 5   0  0.4115358E-07  0.3631409E+04  0.7818609E-02  0.8083335E-01
        2   -1    0    0  501    0  0.00000000000E+00  0.00000000000E+00  0.23359314295E+04  0.23359314295E+04  0.25500000920E-02 0.  1.
       -2   -1    0    0    0  501  0.00000000000E+00  0.00000000000E+00 -0.14113351924E+04  0.14113351924E+04  0.25500000920E-02 0. -1.
    10030    2    1    2    0    0  0.00000000000E+00  0.00000000000E+00  0.92459623715E+03  0.37472666219E+04  0.36314086708E+04 0.  0.
        3    1    3    3  502    0 -0.75659788124E+02  0.61478215527E+03 -0.12989365226E+04  0.14390683103E+04  0.10100000352E+00 0. -1.
       -3    1    3    3    0  502  0.75659788124E+02 -0.61478215527E+03  0.22235327597E+04  0.23081983116E+04  0.10100000352E+00 0.  1.
</event>
<event>
 5   0  0.1298250E-07  0.3438278E+04  0.7818609E-02  0.8128575E-01
       -1   -1    0    0    0  501  0.00000000000E+00  0.00000000000E+00  0.15995416175E+04  0.15995416175E+04  0.50400001928E-02 0.  1.
        1   -1    0    0  501    0  0.00000000000E+00  0.00000000000E+00 -0.18476781991E+04  0.18476781991E+04  0.50400001928E-02 0. -1.
    10030    2    1    2    0    0  0.00000000000E+00  0.00000000000E+00 -0.24813658154E+03  0.34472198166E+04  0.34382775777E+04 0.  0.
        1    1    3    3  502    0  0.29100538842E+03  0.63500847058E+03 -0.16989873259E+04  0.18369751842E+04  0.50400001928E-02 0. -1.
       -1    1    3    3    0  502 -0.29100538842E+03 -0.63500847058E+03  0.14508507444E+04  0.16102446324E+04  0.50400001928E-02 0.  1.
</event>
<event>
 5   0  0.4115358E-07  0.3676939E+04  0.7818609E-02  0.8073092E-01
       -2   -1    0    0    0  501  0.00000000000E+00  0.00000000000E+00  0.15165367507E+04  0.15165367507E+04  0.25500000920E-02 0. -1.
        2   -1    0    0  501    0  0.00000000000E+00  0.00000000000E+00 -0.22287424340E+04  0.22287424340E+04  0.25500000920E-02 0.  1.
    10030    2    1    2    0    0  0.00000000000E+00  0.00000000000E+00 -0.71220568325E+03  0.37452791847E+04  0.36769388404E+04 0.  0.
        3    1    3    3  502    0 -0.56207006324E+03  0.37103092385E+02  0.14264726105E+04  0.15336634292E+04  0.10100000352E+00 0. -1.
       -3    1    3    3    0  502  0.56207006324E+03 -0.37103092385E+02 -0.21386782937E+04  0.22116157555E+04  0.10100000352E+00 0.  1.
</event>
<event>
 5   0  0.1361743E-07  0.3635745E+04  0.7818609E-02  0.8082353E-01
        1   -1    0    0  501    0  0.00000000000E+00  0.00000000000E+00  0.19298085306E+04  0.19298085306E+04  0.50400001928E-02 0. -1.
       -1   -1    0    0    0  501  0.00000000000E+00  0.00000000000E+00 -0.17124293304E+04  0.17124293304E+04  0.50400001928E-02 0.  1.
    10030    2    1    2    0    0  0.00000000000E+00  0.00000000000E+00  0.21737920021E+03  0.36422378610E+04  0.36357451670E+04 0.  0.
        5    1    3    3  502    0 -0.18072817963E+04 -0.18615325930E+03  0.16977481954E+03  0.18247646716E+04  0.46999998093E+01 0.  1.
       -5    1    3    3    0  502  0.18072817963E+04  0.18615325930E+03  0.47604380667E+02  0.18174731894E+04  0.46999998093E+01 0. -1.
</event>
<event>
 5   0  0.1361743E-07  0.3626292E+04  0.7818609E-02  0.8084496E-01
       -1   -1    0    0    0  501  0.00000000000E+00  0.00000000000E+00  0.20269778624E+04  0.20269778624E+04  0.50400001928E-02 0.  1.
        1   -1    0    0  501    0  0.00000000000E+00  0.00000000000E+00 -0.16218720497E+04  0.16218720497E+04  0.50400001928E-02 0. -1.
    10030    2    1    2    0    0  0.00000000000E+00  0.00000000000E+00  0.40510581272E+03  0.36488499122E+04  0.36262921782E+04 0.  0.
        5    1    3    3  502    0 -0.12976943058E+04 -0.31286316021E+03 -0.10321018292E+04  0.16873500360E+04  0.46999998093E+01 0. -1.
       -5    1    3    3    0  502  0.12976943058E+04  0.31286316021E+03  0.14372076419E+04  0.19614998762E+04  0.46999998093E+01 0.  1.
</event>
<event>
 5   0  0.1370997E-07  0.3588436E+04  0.7818609E-02  0.8093146E-01
        1   -1    0    0  501    0  0.00000000000E+00  0.00000000000E+00  0.24230171717E+04  0.24230171717E+04  0.50400001928E-02 0.  1.
       -1   -1    0    0    0  501  0.00000000000E+00  0.00000000000E+00 -0.13285993201E+04  0.13285993201E+04  0.50400001928E-02 0. -1.
    10030    2    1    2    0    0  0.00000000000E+00  0.00000000000E+00  0.10944178516E+04  0.37516164919E+04  0.35884364099E+04 0.  0.
        3    1    3    3  502    0 -0.41614957481E+03  0.17379744095E+04  0.71410349696E+03  0.19244945651E+04  0.10100000352E+00 0.  1.
       -3    1    3    3    0  502  0.41614957481E+03 -0.17379744095E+04  0.38031435461E+03  0.18271219267E+04  0.10100000352E+00 0. -1.
</event>
<event>
 5   0  0.3880259E-07  0.3585754E+04  0.7818609E-02  0.8093763E-01
        2   -1    0    0  501    0  0.00000000000E+00  0.00000000000E+00  0.21179824981E+04  0.21179824981E+04  0.25500000920E-02 0. -1.
       -2   -1    0    0    0  501  0.00000000000E+00  0.00000000000E+00 -0.15176746163E+04  0.15176746163E+04  0.25500000920E-02 0.  1.
    10030    2    1    2    0    0  0.00000000000E+00  0.00000000000E+00  0.60030788174E+03  0.36356571144E+04  0.35857541885E+04 0.  0.
        5    1    3    3  502    0 -0.60390741217E+02  0.10922690294E+04  0.17403756596E+04  0.20556332846E+04  0.46999998093E+01 0. -1.
       -5    1    3    3    0  502  0.60390741217E+02 -0.10922690294E+04 -0.11400677779E+04  0.15800238297E+04  0.46999998093E+01 0.  1.
</event>
<event>
 5   0  0.3993751E-07  0.3574897E+04  0.7818609E-02  0.8096266E-01
        2   -1    0    0  501    0  0.00000000000E+00  0.00000000000E+00  0.16921310191E+04  0.16921310191E+04  0.25500000920E-02 0. -1.
       -2   -1    0    0    0  501  0.00000000000E+00  0.00000000000E+00 -0.18881352774E+04  0.18881352774E+04  0.25500000920E-02 0.  1.
    10030    2    1    2    0    0  0.00000000000E+00  0.00000000000E+00 -0.19600425832E+03  0.35802662965E+04  0.35748970733E+04 0.  0.
        1    1    3    3  502    0  0.55120802266E+03  0.43011228156E+03  0.15495051896E+04  0.16999391729E+04  0.50400001928E-02 0. -1.
       -1    1    3    3    0  502 -0.55120802266E+03 -0.43011228156E+03 -0.17455094479E+04  0.18803271236E+04  0.50400001928E-02 0.  1.
</event>
<event>
 5   0  0.3993751E-07  0.3603719E+04  0.7818609E-02  0.8089640E-01
        2   -1    0    0  501    0  0.00000000000E+00  0.00000000000E+00  0.24390252399E+04  0.24390252399E+04  0.25500000920E-02 0.  1.
       -2   -1    0    0    0  501  0.00000000000E+00  0.00000000000E+00 -0.13311458798E+04  0.13311458798E+04  0.25500000920E-02 0. -1.
    10030    2    1    2    0    0  0.00000000000E+00  0.00000000000E+00  0.11078793601E+04  0.37701711197E+04  0.36037194113E+04 0.  0.
        1    1    3    3  502    0  0.16759525638E+04  0.29514973741E+02  0.12455411606E+04  0.20883153288E+04  0.50400001928E-02 0.  1.
       -1    1    3    3    0  502 -0.16759525638E+04 -0.29514973741E+02 -0.13766180044E+03  0.16818557909E+04  0.50400001928E-02 0. -1.
</event>
<event>
 5   0  0.1298250E-07  0.3592326E+04  0.7818609E-02  0.8092252E-01
       -1   -1    0    0    0  501  0.00000000000E+00  0.00000000000E+00  0.11450874148E+04  0.11450874149E+04  0.50400001928E-02 0.  1.
        1   -1    0    0  501    0  0.00000000000E+00  0.00000000000E+00 -0.28174286026E+04  0.28174286026E+04  0.50400001928E-02 0. -1.
    10030    2    1    2    0    0  0.00000000000E+00  0.00000000000E+00 -0.16723411877E+04  0.39625160174E+04  0.35923262853E+04 0.  0.
        2    1    3    3  502    0 -0.12215664533E+04 -0.11517002580E+04 -0.15403659172E+04  0.22784567678E+04  0.25500000920E-02 0. -1.
       -2    1    3    3    0  502  0.12215664533E+04  0.11517002580E+04 -0.13197527055E+03  0.16840592496E+04  0.25500000920E-02 0.  1.
</event>
<event>
 5   0  0.1298250E-07  0.3605469E+04  0.7818609E-02  0.8089240E-01
       -4   -1    0    0    0  501  0.00000000000E+00  0.00000000000E+00  0.28504865883E+04  0.28504868713E+04  0.12699999809E+01 0. -1.
        4   -1    0    0  501    0  0.00000000000E+00  0.00000000000E+00 -0.11401036572E+04  0.11401043646E+04  0.12699999809E+01 0.  1.
    10030    2    1    2    0    0  0.00000000000E+00  0.00000000000E+00  0.17103829311E+04  0.39905912358E+04  0.36054692677E+04 0.  0.
        2    1    3    3  502    0 -0.17323561959E+04 -0.11731011538E+03  0.13917775593E+04  0.22252785056E+04  0.25500000920E-02 0. -1.
       -2    1    3    3    0  502  0.17323561959E+04  0.11731011538E+03  0.31860537182E+03  0.17653127303E+04  0.25500000920E-02 0.  1.
</event>
<event>
 5   0  0.4120440E-07  0.3565634E+04  0.7818609E-02  0.8098409E-01
        2   -1    0    0  501    0  0.00000000000E+00  0.00000000000E+00  0.31074163652E+04  0.31074163652E+04  0.25500000920E-02 0.  1.
       -2   -1    0    0    0  501  0.00000000000E+00  0.00000000000E+00 -0.10228551188E+04  0.10228551188E+04  0.25500000920E-02 0. -1.
    10030    2    1    2    0    0  0.00000000000E+00  0.00000000000E+00  0.20845612465E+04  0.41302714840E+04  0.35656341570E+04 0.  0.
        2    1    3    3  502    0  0.84378014158E+01 -0.17254750761E+04  0.15617372094E+04  0.23273071448E+04  0.25500000920E-02 0.  1.
       -2    1    3    3    0  502 -0.84378014158E+01  0.17254750761E+04  0.52282403705E+03  0.18029643392E+04  0.25500000920E-02 0. -1.
</event>
<event>
 5   0  0.1361743E-07  0.3606093E+04  0.7818609E-02  0.8089098E-01
        1   -1    0    0  501    0  0.00000000000E+00  0.00000000000E+00  0.17146652345E+04  0.17146652346E+04  0.50400001928E-02 0. -1.
       -1   -1    0    0    0  501  0.00000000000E+00  0.00000000000E+00 -0.18959829714E+04  0.18959829714E+04  0.50400001928E-02 0.  1.
    10030    2    1    2    0    0  0.00000000000E+00  0.00000000000E+00 -0.18131773683E+03  0.36106482059E+04  0.36060926701E+04 0.  0.
        5    1    3    3  502    0  0.39055784094E+03 -0.91401983455E+03 -0.15968818043E+04  0.18809628577E+04  0.46999998093E+01 0.  1.
       -5    1    3    3    0  502 -0.39055784094E+03  0.91401983455E+03  0.14155640674E+04  0.17296853483E+04  0.46999998093E+01 0. -1.
</event>
<event>
 5   0  0.1348226E-07  0.3589255E+04  0.7818609E-02  0.8092957E-01
        1   -1    0    0  501    0  0.00000000000E+00  0.00000000000E+00  0.32349076504E+04  0.32349076504E+04  0.50400001928E-02 0. -1.
       -1   -1    0    0    0  501  0.00000000000E+00  0.00000000000E+00 -0.99560437749E+03  0.99560437750E+03  0.50400001928E-02 0.  1.
    10030    2    1    2    0    0  0.00000000000E+00  0.00000000000E+00  0.22393032729E+04  0.42305120279E+04  0.35892551972E+04 0.  0.
        4    1    3    3  502    0  0.14456302035E+04 -0.86463708952E+03  0.18493199685E+04  0.25014855468E+04  0.12699999809E+01 0.  1.
       -4    1    3    3    0  502 -0.14456302035E+04  0.86463708952E+03  0.38998330439E+03  0.17290264811E+04  0.12699999809E+01 0. -1.
</event>
<event>
 5   0  0.1370997E-07  0.3495925E+04  0.7818609E-02  0.8114756E-01
        1   -1    0    0  501    0  0.00000000000E+00  0.00000000000E+00  0.22630947413E+04  0.22630947413E+04  0.50400001928E-02 0. -1.
       -1   -1    0    0    0  501  0.00000000000E+00  0.00000000000E+00 -0.13500859312E+04  0.13500859312E+04  0.50400001928E-02 0.  1.
    10030    2    1    2    0    0  0.00000000000E+00  0.00000000000E+00  0.91300881001E+03  0.36131806725E+04  0.34959246967E+04 0.  0.
        3    1    3    3  502    0 -0.77432018234E+03  0.84670149662E+02  0.20737997352E+04  0.22152620908E+04  0.10100000352E+00 0. -1.
       -3    1    3    3    0  502  0.77432018234E+03 -0.84670149662E+02 -0.11607909252E+04  0.13979185817E+04  0.10100000352E+00 0.  1.
</event>
<event>
 5   0  0.1361743E-07  0.3563506E+04  0.7818609E-02  0.8098903E-01
        1   -1    0    0  501    0  0.00000000000E+00  0.00000000000E+00  0.20747220441E+04  0.20747220441E+04  0.50400001928E-02 0. -1.
       -1   -1    0    0    0  501  0.00000000000E+00  0.00000000000E+00 -0.15301536720E+04  0.15301536720E+04  0.50400001928E-02 0.  1.
    10030    2    1    2    0    0  0.00000000000E+00  0.00000000000E+00  0.54456837203E+03  0.36048757161E+04  0.35635058884E+04 0.  0.
        5    1    3    3  502    0  0.12065590320E+04  0.12312388798E+04 -0.18337544500E+03  0.17336039112E+04  0.46999998093E+01 0.  1.
       -5    1    3    3    0  502 -0.12065590320E+04 -0.12312388798E+04  0.72794381703E+03  0.18712718049E+04  0.46999998093E+01 0. -1.
</event>
<event>
 5   0  0.4120440E-07  0.3556059E+04  0.7818609E-02  0.8100632E-01
       -2   -1    0    0    0  501  0.00000000000E+00  0.00000000000E+00  0.22018324212E+04  0.22018324212E+04  0.25500000920E-02 0.  1.
        2   -1    0    0  501    0  0.00000000000E+00  0.00000000000E+00 -0.14357990251E+04  0.14357990251E+04  0.25500000920E-02 0. -1.
    10030    2    1    2    0    0  0.00000000000E+00  0.00000000000E+00  0.76603339608E+03  0.36376314463E+04  0.35560589668E+04 0.  0.
        2    1    3    3  502    0  0.92873668246E+03 -0.55248531000E+03  0.18273533345E+04  0.21229724568E+04  0.25500000920E-02 0.  1.
       -2    1    3    3    0  502 -0.92873668246E+03  0.55248531000E+03 -0.10613199384E+04  0.15146589896E+04  0.25500000920E-02 0. -1.
</event>
<event>
 5   0  0.4120440E-07  0.3617408E+04  0.7818609E-02  0.8086516E-01
        2   -1    0    0  501    0  0.00000000000E+00  0.00000000000E+00  0.25561937749E+04  0.25561937749E+04  0.25500000920E-02 0. -1.
       -2   -1    0    0    0  501  0.00000000000E+00  0.00000000000E+00 -0.12797974792E+04  0.12797974792E+04  0.25500000920E-02 0.  1.
    10030    2    1    2    0    0  0.00000000000E+00  0.00000000000E+00  0.12763962957E+04  0.38359912540E+04  0.36174081049E+04 0.  0.
        2    1    3    3  502    0  0.16513268487E+04 -0.11496179608E+03  0.14111556883E+04  0.21751912451E+04  0.25500000920E-02 0.  1.
       -2    1    3    3    0  502 -0.16513268487E+04  0.11496179608E+03 -0.13475939259E+03  0.16608000090E+04  0.25500000920E-02 0. -1.
</event>
<event>
 5   0  0.1348226E-07  0.3599346E+04  0.7818609E-02  0.8090641E-01
        1   -1    0    0  501    0  0.00000000000E+00  0.00000000000E+00  0.15415753934E+04  0.15415753935E+04  0.50400001928E-02 0.  1.
       -1   -1    0    0    0  501  0.00000000000E+00  0.00000000000E+00 -0.21009829832E+04  0.21009829833E+04  0.50400001928E-02 0. -1.
    10030    2    1    2    0    0  0.00000000000E+00  0.00000000000E+00 -0.55940758980E+03  0.36425583767E+04  0.35993464235E+04 0.  0.
        4    1    3    3  502    0  0.33829346739E+03 -0.16385328913E+04  0.39127153543E+03  0.17182338412E+04  0.12699999809E+01 0. -1.
       -4    1    3    3    0  502 -0.33829346739E+03  0.16385328913E+04 -0.95067912523E+03  0.19243245355E+04  0.12699999809E+01 0.  1.
</event>
<event>
 5   0  0.1298250E-07  0.3562209E+04  0.7818609E-02  0.8099204E-01
        1   -1    0    0  501    0  0.00000000000E+00  0.00000000000E+00  0.10200074783E+04  0.10200074783E+04  0.50400001928E-02 0.  1.
       -1   -1    0    0    0  501  0.00000000000E+00  0.00000000000E+00 -0.31101069969E+04  0.31101069969E+04  0.50400001928E-02 0. -1.
    10030    2    1    2    0    0  0.00000000000E+00  0.00000000000E+00 -0.20900995186E+04  0.41301144752E+04  0.35622085257E+04 0.  0.
        1    1    3    3  502    0  0.16730465612E+04 -0.38550244419E+02 -0.33812214991E+03  0.17073070917E+04  0.50400001928E-02 0.  1.
       -1    1    3    3    0  502 -0.16730465612E+04  0.38550244419E+02 -0.17519773687E+04  0.24228073835E+04  0.50400001928E-02 0. -1.
</event>
<event>
 5   0  0.1298250E-07  0.3423423E+04  0.7818609E-02  0.8132181E-01
       -1   -1    0    0    0  501  0.00000000000E+00  0.00000000000E+00  0.11283624121E+04  0.11283624121E+04  0.50400001928E-02 0.  1.
        1   -1    0    0  501    0  0.00000000000E+00  0.00000000000E+00 -0.25966450828E+04  0.25966450828E+04  0.50400001928E-02 0. -1.
    10030    2    1    2    0    0  0.00000000000E+00  0.00000000000E+00 -0.14682826707E+04  0.37250074949E+04  0.34234232628E+04 0.  0.
        1    1    3    3  502    0 -0.82113180268E+03 -0.52182894826E+02 -0.23673619654E+04  0.25062687739E+04  0.50400001928E-02 0. -1.
       -1    1    3    3    0  502  0.82113180268E+03  0.52182894826E+02  0.89907929470E+03  0.12187387210E+04  0.50400001928E-02 0.  1.
</event>
<event>
 5   0  0.1361743E-07  0.3411080E+04  0.7818609E-02  0.8135192E-01
        1   -1    0    0  501    0  0.00000000000E+00  0.00000000000E+00  0.10481675098E+04  0.10481675098E+04  0.50400001928E-02 0. -1.
       -1   -1    0    0    0  501  0.00000000000E+00  0.00000000000E+00 -0.27751917902E+04  0.27751917902E+04  0.50400001928E-02 0.  1.
    10030    2    1    2    0    0  0.00000000000E+00  0.00000000000E+00 -0.17270242804E+04  0.38233593000E+04  0.34110795170E+04 0.  0.
        5    1    3    3  502    0  0.17008358676E+04  0.37634808994E+02 -0.99887601369E+03  0.19728239678E+04  0.46999998093E+01 0.  1.
       -5    1    3    3    0  502 -0.17008358676E+04 -0.37634808994E+02 -0.72814826669E+03  0.18505353322E+04  0.46999998093E+01 0. -1.
</event>
<event>
 5   0  0.3993751E-07  0.3590763E+04  0.7818609E-02  0.8092611E-01
        2   -1    0    0  501    0  0.00000000000E+00  0.00000000000E+00  0.22494521018E+04  0.22494521018E+04  0.25500000920E-02 0. -1.
       -2   -1    0    0    0  501  0.00000000000E+00  0.00000000000E+00 -0.14329687196E+04  0.14329687196E+04  0.25500000920E-02 0.  1.
    10030    2    1    2    0    0  0.00000000000E+00  0.00000000000E+00  0.81648338226E+03  0.36824208214E+04  0.35907628705E+04 0.  0.
        1    1    3    3  502    0  0.18071617451E+03  0.90314461746E+03  0.19887054061E+04  0.21916381380E+04  0.50400001928E-02 0. -1.
       -1    1    3    3    0  502 -0.18071617451E+03 -0.90314461746E+03 -0.11722220238E+04  0.14907826834E+04  0.50400001928E-02 0.  1.
</event>
<event>
 5   0  0.4115358E-07  0.3717676E+04  0.7818609E-02  0.8064056E-01
        2   -1    0    0  501    0  0.00000000000E+00  0.00000000000E+00  0.16710107932E+04  0.16710107932E+04  0.25500000920E-02 0. -1.
       -2   -1    0    0    0  501  0.00000000000E+00  0.00000000000E+00 -0.20677778710E+04  0.20677778710E+04  0.25500000920E-02 0.  1.
    10030    2    1    2    0    0  0.00000000000E+00  0.00000000000E+00 -0.39676707780E+03  0.37387886643E+04  0.37176762315E+04 0.  0.
        3    1    3    3  502    0 -0.32595235061E+03  0.10771448849E+04 -0.16862423018E+04  0.20272886200E+04  0.10100000352E+00 0.  1.
       -3    1    3    3    0  502  0.32595235061E+03 -0.10771448849E+04  0.12894752240E+04  0.17115000443E+04  0.10100000352E+00 0. -1.
</event>
<event>
 5   0  0.3993751E-07  0.3539344E+04  0.7818609E-02  0.8104529E-01
       -2   -1    0    0    0  501  0.00000000000E+00  0.00000000000E+00  0.16201409251E+04  0.16201409251E+04  0.25500000920E-02 0.  1.
        2   -1    0    0  501    0  0.00000000000E+00  0.00000000000E+00 -0.19330036047E+04  0.19330036047E+04  0.25500000920E-02 0. -1.
    10030    2    1    2    0    0  0.00000000000E+00  0.00000000000E+00 -0.31286267957E+03  0.35531445298E+04  0.35393435823E+04 0.  0.
        1    1    3    3  502    0  0.14479109484E+04  0.88026387361E+03 -0.66874235399E+03  0.18216824470E+04  0.50400001928E-02 0. -1.
       -1    1    3    3    0  502 -0.14479109484E+04 -0.88026387361E+03  0.35587967442E+03  0.17314620828E+04  0.50400001928E-02 0.  1.
</event>
<event>
 5   0  0.4115358E-07  0.3618170E+04  0.7818609E-02  0.8086342E-01
       -2   -1    0    0    0  501  0.00000000000E+00  0.00000000000E+00  0.33938345393E+04  0.33938345393E+04  0.25500000920E-02 0.  1.
        2   -1    0    0  501    0  0.00000000000E+00  0.00000000000E+00 -0.96433364002E+03  0.96433364002E+03  0.25500000920E-02 0. -1.
    10030    2    1    2    0    0  0.00000000000E+00  0.00000000000E+00  0.24295008993E+04  0.43581681793E+04  0.36181701535E+04 0.  0.
        3    1    3    3  502    0  0.40955787652E+03  0.13102927179E+03  0.33313825603E+04  0.33590201097E+04  0.10100000352E+00 0.  1.
       -3    1    3    3    0  502 -0.40955787652E+03 -0.13102927179E+03 -0.90188166102E+03  0.99914806959E+03  0.10100000352E+00 0. -1.
</event>
<event>
 5   0  0.3880259E-07  0.3302550E+04  0.7818609E-02  0.8162247E-01
       -2   -1    0    0    0  501  0.00000000000E+00  0.00000000000E+00  0.13136912911E+04  0.13136912911E+04  0.25500000920E-02 0. -1.
        2   -1    0    0  501    0  0.00000000000E+00  0.00000000000E+00 -0.20756082859E+04  0.20756082859E+04  0.25500000920E-02 0.  1.
    10030    2    1    2    0    0  0.00000000000E+00  0.00000000000E+00 -0.76191699477E+03  0.33892995770E+04  0.33025496387E+04 0.  0.
        5    1    3    3  502    0 -0.80160165640E+03  0.29461173838E+03  0.10694321427E+04  0.13686009243E+04  0.46999998093E+01 0. -1.
       -5    1    3    3    0  502  0.80160165640E+03 -0.29461173838E+03 -0.18313491375E+04  0.20206986528E+04  0.46999998093E+01 0.  1.
</event>
<event>
 5   0  0.3880259E-07  0.3484280E+04  0.7818609E-02  0.8117525E-01
        2   -1    0    0  501    0  0.00000000000E+00  0.00000000000E+00  0.27094499609E+04  0.27094499609E+04  0.25500000920E-02 0.  1.
       -2   -1    0    0    0  501  0.00000000000E+00  0.00000000000E+00 -0.11201728450E+04  0.11201728450E+04  0.25500000920E-02 0. -1.
    10030    2    1    2    0    0  0.00000000000E+00  0.00000000000E+00  0.15892771159E+04  0.38296228060E+04  0.34842802822E+04 0.  0.
        5    1    3    3  502    0  0.11899688924E+04  0.81019559239E+03 -0.28371949376E+03  0.14672974150E+04  0.46999998093E+01 0. -1.
       -5    1    3    3    0  502 -0.11899688924E+04 -0.81019559239E+03  0.18729966097E+04  0.23623253910E+04  0.46999998093E+01 0.  1.
</event>
<event>
 5   0  0.1370997E-07  0.3655200E+04  0.7818609E-02  0.8077963E-01
        1   -1    0    0  501    0  0.00000000000E+00  0.00000000000E+00  0.23999718363E+04  0.23999718363E+04  0.50400001928E-02 0.  1.
       -1   -1    0    0    0  501  0.00000000000E+00  0.00000000000E+00 -0.13917334136E+04  0.13917334136E+04  0.50400001928E-02 0. -1.
    10030    2    1    2    0    0  0.00000000000E+00  0.00000000000E+00  0.10082384227E+04  0.37917052499E+04  0.36551995821E+04 0.  0.
        3    1    3    3  502    0  0.14513645145E+04  0.99435177997E+03  0.10175021416E+04  0.20323643952E+04  0.10100000352E+00 0.  1.
       -3    1    3    3    0  502 -0.14513645145E+04 -0.99435177997E+03 -0.92637189007E+01  0.17593408547E+04  0.10100000352E+00 0. -1.
</event>
<event>
 5   0  0.3993751E-07  0.3601235E+04  0.7818609E-02  0.8090209E-01
        2   -1    0    0  501    0  0.00000000000E+00  0.00000000000E+00  0.21133285535E+04  0.21133285535E+04  0.25500000920E-02 0.  1.
       -2   -1    0    0    0  501  0.00000000000E+00  0.00000000000E+00 -0.15341787857E+04  0.15341787857E+04  0.25500000920E-02 0. -1.
    10030    2    1    2    0    0  0.00000000000E+00  0.00000000000E+00  0.57914976781E+03  0.36475073392E+04  0.36012352514E+04 0.  0.
        1    1    3    3  502    0  0.26914160371E+03  0.97824448742E+03  0.17962449259E+04  0.20629821410E+04  0.50400001928E-02 0.  1.
       -1    1    3    3    0  502 -0.26914160371E+03 -0.97824448742E+03 -0.12170951581E+04  0.15845251983E+04  0.50400001928E-02 0. -1.
</event>
<event>
 5   0  0.1370997E-07  0.3678462E+04  0.7818609E-02  0.8072752E-01
       -1   -1    0    0    0  501  0.00000000000E+00  0.00000000000E+00  0.11335971312E+04  0.11335971312E+04  0.50400001928E-02 0.  1.
        1   -1    0    0  501    0  0.00000000000E+00  0.00000000000E+00 -0.29841032630E+04  0.29841032630E+04  0.50400001928E-02 0. -1.
    10030    2    1    2    0    0  0.00000000000E+00  0.00000000000E+00 -0.18505061318E+04  0.41177003942E+04  0.36784621234E+04 0.  0.
        3    1    3    3  502    0 -0.81188332480E+03 -0.66313880202E+03 -0.26169536795E+04  0.28191052081E+04  0.10100000352E+00 0. -1.
       -3    1    3    3    0  502  0.81188332480E+03  0.66313880202E+03  0.76644754768E+03  0.12985951861E+04  0.10100000352E+00 0.  1.
</event>
<event>
 5   0  0.1298250E-07  0.3564674E+04  0.7818609E-02  0.8098632E-01
       -1   -1    0    0    0  501  0.00000000000E+00  0.00000000000E+00  0.15141715416E+04  0.15141715416E+04  0.50400001928E-02 0. -1.
        1   -1    0    0  501    0  0.00000000000E+00  0.00000000000E+00 -0.20979953692E+04  0.20979953692E+04  0.50400001928E-02 0.  1.
    10030    2    1    2    0    0  0.00000000000E+00  0.00000000000E+00 -0.58382382760E+03  0.36121669109E+04  0.35646738323E+04 0.  0.
        2    1    3    3  502    0  0.15992212027E+04  0.75348592920E+03 -0.52181658814E+03  0.18432422663E+04  0.25500000920E-02 0. -1.
       -2    1    3    3    0  502 -0.15992212027E+04 -0.75348592920E+03 -0.62007239464E+02  0.17689246446E+04  0.25500000920E-02 0.  1.
</event>
<event>
 5   0  0.1348226E-07  0.3644802E+04  0.7818609E-02  0.8080306E-01
        1   -1    0    0  501    0  0.00000000000E+00  0.00000000000E+00  0.15907821810E+04  0.15907821810E+04  0.50400001928E-02 0.  1.
       -1   -1    0    0    0  501  0.00000000000E+00  0.00000000000E+00 -0.20877436816E+04  0.20877436816E+04  0.50400001928E-02 0. -1.
    10030    2    1    2    0    0  0.00000000000E+00  0.00000000000E+00 -0.49696150059E+03  0.36785258625E+04  0.36448020232E+04 0.  0.
        4    1    3    3  502    0 -0.54980171340E+03 -0.68542921095E+03 -0.18598272400E+04  0.20569526253E+04  0.12699999809E+01 0. -1.
       -4    1    3    3    0  502  0.54980171340E+03  0.68542921095E+03  0.13628657394E+04  0.16215732372E+04  0.12699999809E+01 0.  1.
</event>
<event>
 5   0  0.4200635E-07  0.3601239E+04  0.7818609E-02  0.8090208E-01
       -2   -1    0    0    0  501  0.00000000000E+00  0.00000000000E+00  0.17301120156E+04  0.17301120156E+04  0.25500000920E-02 0.  1.
        2   -1    0    0  501    0  0.00000000000E+00  0.00000000000E+00 -0.18740006109E+04  0.18740006109E+04  0.25500000920E-02 0. -1.
    10030    2    1    2    0    0  0.00000000000E+00  0.00000000000E+00 -0.14388859530E+03  0.36041126265E+04  0.36012392168E+04 0.  0.
        4    1    3    3  502    0  0.89126982916E+03 -0.86389133590E+03  0.12335347815E+04  0.17499370899E+04  0.12699999809E+01 0.  1.
       -4    1    3    3    0  502 -0.89126982916E+03  0.86389133590E+03 -0.13774233768E+04  0.18541755366E+04  0.12699999809E+01 0. -1.
</event>
<event>
 5   0  0.1298250E-07  0.3563052E+04  0.7818609E-02  0.8099008E-01
       -3   -1    0    0    0  501  0.00000000000E+00  0.00000000000E+00  0.19265128997E+04  0.19265129023E+04  0.10100000352E+00 0. -1.
        3   -1    0    0  501    0  0.00000000000E+00  0.00000000000E+00 -0.16474508778E+04  0.16474508809E+04  0.10100000352E+00 0.  1.
    10030    2    1    2    0    0  0.00000000000E+00  0.00000000000E+00  0.27906202185E+03  0.35739637832E+04  0.35630522746E+04 0.  0.
        4    1    3    3  502    0  0.92777402239E+03 -0.15195627495E+04  0.20295580358E+03  0.17919342224E+04  0.12699999809E+01 0.  1.
       -4    1    3    3    0  502 -0.92777402239E+03  0.15195627495E+04  0.76106218270E+02  0.17820295608E+04  0.12699999809E+01 0. -1.
</event>
<event>
 5   0  0.1361743E-07  0.3603174E+04  0.7818609E-02  0.8089765E-01
       -1   -1    0    0    0  501  0.00000000000E+00  0.00000000000E+00  0.99980484965E+03  0.99980484966E+03  0.50400001928E-02 0.  1.
        1   -1    0    0  501    0  0.00000000000E+00  0.00000000000E+00 -0.32463488274E+04  0.32463488274E+04  0.50400001928E-02 0. -1.
    10030    2    1    2    0    0  0.00000000000E+00  0.00000000000E+00 -0.22465439777E+04  0.42461536770E+04  0.36031737684E+04 0.  0.
        5    1    3    3  502    0 -0.51267838573E+03 -0.16217309109E+04 -0.42326687113E+03  0.17527199459E+04  0.46999998093E+01 0.  1.
       -5    1    3    3    0  502  0.51267838573E+03  0.16217309109E+04 -0.18232771066E+04  0.24934337312E+04  0.46999998093E+01 0. -1.
</event>
<event>
 5   0  0.1361743E-07  0.3680268E+04  0.7818609E-02  0.8072349E-01
        1   -1    0    0  501    0  0.00000000000E+00  0.00000000000E+00  0.19800855055E+04  0.19800855055E+04  0.50400001928E-02 0.  1.
       -1   -1    0    0    0  501  0.00000000000E+00  0.00000000000E+00 -0.17100746621E+04  0.17100746621E+04  0.50400001928E-02 0. -1.
    10030    2    1    2    0    0  0.00000000000E+00  0.00000000000E+00  0.27001084347E+03  0.36901601676E+04  0.36802684966E+04 0.  0.
        5    1    3    3  502    0 -0.46455947034E+03  0.11693208327E+03  0.19164583163E+04  0.19754298726E+04  0.46999998093E+01 0.  1.
       -5    1    3    3    0  502  0.46455947034E+03 -0.11693208327E+03 -0.16464474729E+04  0.17147302950E+04  0.46999998093E+01 0. -1.
</event>
<event>
 5   0  0.3880259E-07  0.3600277E+04  0.7818609E-02  0.8090428E-01
        2   -1    0    0  501    0  0.00000000000E+00  0.00000000000E+00  0.19647214938E+04  0.19647214938E+04  0.25500000920E-02 0.  1.
       -2   -1    0    0    0  501  0.00000000000E+00  0.00000000000E+00 -0.16493428447E+04  0.16493428447E+04  0.25500000920E-02 0. -1.
    10030    2    1    2    0    0  0.00000000000E+00  0.00000000000E+00  0.31537864911E+03  0.36140643385E+04  0.36002773991E+04 0.  0.
        5    1    3    3  502    0  0.65627174909E+03  0.86774320139E+03  0.15973383263E+04  0.19326620737E+04  0.46999998093E+01 0.  1.
       -5    1    3    3    0  502 -0.65627174909E+03 -0.86774320139E+03 -0.12819596772E+04  0.16814022648E+04  0.46999998093E+01 0. -1.
</event>
<event>
 5   0  0.3993751E-07  0.3605521E+04  0.7818609E-02  0.8089228E-01
       -2   -1    0    0    0  501  0.00000000000E+00  0.00000000000E+00  0.10766119572E+04  0.10766119572E+04  0.25500000920E-02 0.  1.
        2   -1    0    0  501    0  0.00000000000E+00  0.00000000000E+00 -0.30186788623E+04  0.30186788623E+04  0.25500000920E-02 0. -1.
    10030    2    1    2    0    0  0.00000000000E+00  0.00000000000E+00 -0.19420669052E+04  0.40952908195E+04  0.36055211873E+04 0.  0.
        1    1    3    3  502    0 -0.17582664948E+04  0.29996610589E+03 -0.67383189173E+03  0.19067066240E+04  0.50400001928E-02 0.  1.
       -1    1    3    3    0  502  0.17582664948E+04 -0.29996610589E+03 -0.12682350135E+04  0.21885841955E+04  0.50400001928E-02 0. -1.
</event>
<event>
 5   0  0.1298250E-07  0.3594793E+04  0.7818609E-02  0.8091686E-01
        1   -1    0    0  501    0  0.00000000000E+00  0.00000000000E+00  0.14870210754E+04  0.14870210754E+04  0.50400001928E-02 0. -1.
       -1   -1    0    0    0  501  0.00000000000E+00  0.00000000000E+00 -0.21725538080E+04  0.21725538080E+04  0.50400001928E-02 0.  1.
    10030    2    1    2    0    0  0.00000000000E+00  0.00000000000E+00 -0.68553273258E+03  0.36595748835E+04  0.35947925114E+04 0.  0.
        2    1    3    3  502    0  0.90819462744E+03  0.51456432852E+03 -0.18323645588E+04  0.21088275904E+04  0.25500000920E-02 0.  1.
       -2    1    3    3    0  502 -0.90819462744E+03 -0.51456432852E+03  0.11468318262E+04  0.15507472931E+04  0.25500000920E-02 0. -1.
</event>
<event>
 5   0  0.3880259E-07  0.3589614E+04  0.7818609E-02  0.8092875E-01
       -2   -1    0    0    0  501  0.00000000000E+00  0.00000000000E+00  0.16314245170E+04  0.16314245170E+04  0.25500000920E-02 0. -1.
        2   -1    0    0  501    0  0.00000000000E+00  0.00000000000E+00 -0.19745523039E+04  0.19745523039E+04  0.25500000920E-02 0.  1.
    10030    2    1    2    0    0  0.00000000000E+00  0.00000000000E+00 -0.34312778693E+03  0.36059768210E+04  0.35896144856E+04 0.  0.
        5    1    3    3  502    0  0.28739021872E+03 -0.82900724430E+03 -0.17444162325E+04  0.19526536382E+04  0.46999998093E+01 0.  1.
       -5    1    3    3    0  502 -0.28739021872E+03  0.82900724430E+03  0.14012884455E+04  0.16533231827E+04  0.46999998093E+01 0. -1.
</event>
<event>
 5   0  0.3993751E-07  0.3576508E+04  0.7818609E-02  0.8095894E-01
        2   -1    0    0  501    0  0.00000000000E+00  0.00000000000E+00  0.10535520987E+04  0.10535520987E+04  0.25500000920E-02 0. -1.
       -2   -1    0    0    0  501  0.00000000000E+00  0.00000000000E+00 -0.30353047456E+04  0.30353047456E+04  0.25500000920E-02 0.  1.
    10030    2    1    2    0    0  0.00000000000E+00  0.00000000000E+00 -0.19817526469E+04  0.40888568443E+04  0.35765076177E+04 0.  0.
        1    1    3    3  502    0  0.52606198187E+03  0.64319773877E+03 -0.28011956205E+04  0.29218387095E+04  0.50400001928E-02 0.  1.
       -1    1    3    3    0  502 -0.52606198187E+03 -0.64319773877E+03  0.81944297360E+03  0.11670181348E+04  0.50400001928E-02 0. -1.
</event>
<event>
 5   0  0.3993751E-07  0.3586571E+04  0.7818609E-02  0.8093575E-01
       -2   -1    0    0    0  501  0.00000000000E+00  0.00000000000E+00  0.10114568143E+04  0.10114568143E+04  0.25500000920E-02 0.  1.
        2   -1    0    0  501    0  0.00000000000E+00  0.00000000000E+00 -0.31794468432E+04  0.31794468432E+04  0.25500000920E-02 0. -1.
    10030    2    1    2    0    0  0.00000000000E+00  0.00000000000E+00 -0.21679900288E+04  0.41909036575E+04  0.35865711622E+04 0.  0.
        1    1    3    3  502    0 -0.18663659909E+03 -0.28160877924E+02  0.99981751652E+03  0.10174779219E+04  0.50400001928E-02 0.  1.
       -1    1    3    3    0  502  0.18663659909E+03  0.28160877924E+02 -0.31678075454E+04  0.31734257357E+04  0.50400001928E-02 0. -1.
</event>
<event>
 5   0  0.4115358E-07  0.3528523E+04  0.7818609E-02  0.8107064E-01
        2   -1    0    0  501    0  0.00000000000E+00  0.00000000000E+00  0.14066908499E+04  0.14066908499E+04  0.25500000920E-02 0.  1.
       -2   -1    0    0    0  501  0.00000000000E+00  0.00000000000E+00 -0.22127235908E+04  0.22127235908E+04  0.25500000920E-02 0. -1.
    10030    2    1    2    0    0  0.00000000000E+00  0.00000000000E+00 -0.80603274085E+03  0.36194144407E+04  0.35285226532E+04 0.  0.
        3    1    3    3  502    0  0.13769443301E+02 -0.11960427665E+04  0.92727507069E+03  0.15134553061E+04  0.10100000352E+00 0.  1.
       -3    1    3    3    0  502 -0.13769443301E+02  0.11960427665E+04 -0.17333078115E+04  0.21059591346E+04  0.10100000352E+00 0. -1.
</event>
<event>
 5   0  0.1348226E-07  0.3646775E+04  0.7818609E-02  0.8079861E-01
       -1   -1    0    0    0  501  0.00000000000E+00  0.00000000000E+00  0.16915786108E+04  0.16915786108E+04  0.50400001928E-02 0.  1.
        1   -1    0    0  501    0  0.00000000000E+00  0.00000000000E+00 -0.19654669988E+04  0.19654669988E+04  0.50400001928E-02 0. -1.
    10030    2    1    2    0    0  0.00000000000E+00  0.00000000000E+00 -0.27388838795E+03  0.36570456096E+04  0.36467749782E+04 0.  0.
        4    1    3    3  502    0  0.14955568532E+04 -0.87585905271E+02 -0.11792842398E+04  0.19065871402E+04  0.12699999809E+01 0. -1.
       -4    1    3    3    0  502 -0.14955568532E+04  0.87585905271E+02  0.90539585182E+03  0.17504584695E+04  0.12699999809E+01 0.  1.
</event>
<event>
 5   0  0.1348226E-07  0.3467700E+04  0.7818609E-02  0.8121487E-01
        1   -1    0    0  501    0  0.00000000000E+00  0.00000000000E+00  0.25074047864E+04  0.25074047864E+04  0.50400001928E-02 0.  1.
       -1   -1    0    0    0  501  0.00000000000E+00  0.00000000000E+00 -0.11989433490E+04  0.11989433490E+04  0.50400001928E-02 0. -1.
    10030    2    1    2    0    0  0.00000000000E+00  0.00000000000E+00  0.13084614373E+04  0.37063481354E+04  0.34677002708E+04 0.  0.
        4    1    3    3  502    0 -0.23098249081E+03 -0.62261288239E+03  0.23660906754E+04  0.24575163091E+04  0.12699999809E+01 0.  1.
       -4    1    3    3    0  502  0.23098249081E+03  0.62261288239E+03 -0.10576292381E+04  0.12488318263E+04  0.12699999809E+01 0. -1.
</event>
<event>
 5   0  0.1298250E-07  0.3684718E+04  0.7818609E-02  0.8071357E-01
        1   -1    0    0  501    0  0.00000000000E+00  0.00000000000E+00  0.28314221839E+04  0.28314221839E+04  0.50400001928E-02 0. -1.
       -1   -1    0    0    0  501  0.00000000000E+00  0.00000000000E+00 -0.11987919264E+04  0.11987919264E+04  0.50400001928E-02 0.  1.
    10030    2    1    2    0    0  0.00000000000E+00  0.00000000000E+00  0.16326302575E+04  0.40302141103E+04  0.36847176577E+04 0.  0.
        1    1    3    3  502    0  0.16311002778E+04  0.62401553335E+03  0.14581999176E+04  0.22751330735E+04  0.50400001928E-02 0.  1.
       -1    1    3    3    0  502 -0.16311002778E+04 -0.62401553335E+03  0.17443033989E+03  0.17550810368E+04  0.50400001928E-02 0. -1.
</event>
<event>
 5   0  0.3880259E-07  0.3644245E+04  0.7818609E-02  0.8080431E-01
        2   -1    0    0  501    0  0.00000000000E+00  0.00000000000E+00  0.20806353869E+04  0.20806353869E+04  0.25500000920E-02 0. -1.
       -2   -1    0    0    0  501  0.00000000000E+00  0.00000000000E+00 -0.15957293853E+04  0.15957293853E+04  0.25500000920E-02 0.  1.
    10030    2    1    2    0    0  0.00000000000E+00  0.00000000000E+00  0.48490600159E+03  0.36763647721E+04  0.36442453413E+04 0.  0.
        5    1    3    3  502    0  0.11955833748E+04  0.66463016515E+03  0.14567882413E+04  0.19983510534E+04  0.46999998093E+01 0. -1.
       -5    1    3    3    0  502 -0.11955833748E+04 -0.66463016515E+03 -0.97188223971E+03  0.16780137188E+04  0.46999998093E+01 0.  1.
</event>
<event>
 5   0  0.1370997E-07  0.3529625E+04  0.7818609E-02  0.8106805E-01
        1   -1    0    0  501    0  0.00000000000E+00  0.00000000000E+00  0.18089214951E+04  0.18089214951E+04  0.50400001928E-02 0.  1.
       -1   -1    0    0    0  501  0.00000000000E+00  0.00000000000E+00 -0.17217793500E+04  0.17217793501E+04  0.50400001928E-02 0. -1.
    10030    2    1    2    0    0  0.00000000000E+00  0.00000000000E+00  0.87142145034E+02  0.35307008451E+04  0.35296252924E+04 0.  0.
        3    1    3    3  502    0 -0.46269518185E+03  0.39360246099E+03  0.17010473019E+04  0.18062590241E+04  0.10100000352E+00 0.  1.
       -3    1    3    3    0  502  0.46269518185E+03 -0.39360246099E+03 -0.16139051569E+04  0.17244418210E+04  0.10100000352E+00 0. -1.
</event>
<event>
 5   0  0.3880259E-07  0.3660182E+04  0.7818609E-02  0.8076844E-01
        2   -1    0    0  501    0  0.00000000000E+00  0.00000000000E+00  0.23161864337E+04  0.23161864337E+04  0.25500000920E-02 0.  1.
       -2   -1    0    0    0  501  0.00000000000E+00  0.00000000000E+00 -0.14460117734E+04  0.14460117734E+04  0.25500000920E-02 0. -1.
    10030    2    1    2    0    0  0.00000000000E+00  0.00000000000E+00  0.87017466025E+03  0.37621982071E+04  0.36601818821E+04 0.  0.
        5    1    3    3  502    0 -0.92707905696E+03 -0.25956202948E+03 -0.11646865210E+04  0.15110806753E+04  0.46999998093E+01 0. -1.
       -5    1    3    3    0  502  0.92707905696E+03  0.25956202948E+03  0.20348611813E+04  0.22511175318E+04  0.46999998093E+01 0.  1.
</event>
<event>
 5   0  0.3993751E-07  0.3605701E+04  0.7818609E-02  0.8089187E-01
        2   -1    0    0  501    0  0.00000000000E+00  0.00000000000E+00  0.26106171751E+04  0.26106171751E+04  0.25500000920E-02 0. -1.
       -2   -1    0    0    0  501  0.00000000000E+00  0.00000000000E+00 -0.12450199237E+04  0.12450199237E+04  0.25500000920E-02 0.  1.
    10030    2    1    2    0    0  0.00000000000E+00  0.00000000000E+00  0.13655972514E+04  0.38556370988E+04  0.36057012612E+04 0.  0.
        1    1    3    3  502    0 -0.87852623236E+03 -0.14520972896E+04  0.13331292432E+04  0.21581539469E+04  0.50400001928E-02 0. -1.
       -1    1    3    3    0  502  0.87852623236E+03  0.14520972896E+04  0.32468008142E+02  0.16974831519E+04  0.50400001928E-02 0.  1.
</event>
<event>
 5   0  0.4200635E-07  0.3523983E+04  0.7818609E-02  0.8108130E-01
       -2   -1    0    0    0  501  0.00000000000E+00  0.00000000000E+00  0.22355186751E+04  0.22355186751E+04  0.25500000920E-02 0. -1.
        2   -1    0    0  501    0  0.00000000000E+00  0.00000000000E+00 -0.13887663965E+04  0.13887663965E+04  0.25500000920E-02 0.  1.
    10030    2    1    2    0    0  0.00000000000E+00  0.00000000000E+00  0.84675227861E+03  0.36242850715E+04  0.35239825281E+04 0.  0.
        4    1    3    3  502    0  0.94407573178E+03  0.14342617714E+04  0.16872009405E+02  0.17171697918E+04  0.12699999809E+01 0. -1.
       -4    1    3    3    0  502 -0.94407573178E+03 -0.14342617714E+04  0.82988026921E+03  0.19071152798E+04  0.12699999809E+01 0.  1.
</event>
<event>
 5   0  0.3880259E-07  0.3646980E+04  0.7818609E-02  0.8079814E-01
       -2   -1    0    0    0  501  0.00000000000E+00  0.00000000000E+00  0.15245729071E+04  0.15245729071E+04  0.25500000920E-02 0.  1.
        2   -1    0    0  501    0  0.00000000000E+00  0.00000000000E+00 -0.21810144014E+04  0.21810144014E+04  0.25500000920E-02 0. -1.
    10030    2    1    2    0    0  0.00000000000E+00  0.00000000000E+00 -0.65644149429E+03  0.37055873086E+04  0.36469798280E+04 0.  0.
        5    1    3    3  502    0  0.41057255654E+03 -0.14760980087E+04  0.67643487137E+03  0.16748198054E+04  0.46999998093E+01 0.  1.
       -5    1    3    3    0  502 -0.41057255654E+03  0.14760980087E+04 -0.13328763657E+04  0.20307675031E+04  0.46999998093E+01 0. -1.
</event>
<event>
 5   0  0.1348226E-07  0.3613078E+04  0.7818609E-02  0.8087503E-01
        1   -1    0    0  501    0  0.00000000000E+00  0.00000000000E+00  0.18768557633E+04  0.18768557633E+04  0.50400001928E-02 0.  1.
       -1   -1    0    0    0  501  0.00000000000E+00  0.00000000000E+00 -0.17388566814E+04  0.17388566814E+04  0.50400001928E-02 0. -1.
    10030    2    1    2    0    0  0.00000000000E+00  0.00000000000E+00  0.13799908196E+03  0.36157124447E+04  0.36130780142E+04 0.  0.
        4    1    3    3  502    0  0.16855030040E+04  0.64770829761E+03  0.12966251079E+02  0.18057176279E+04  0.12699999809E+01 0.  1.
       -4    1    3    3    0  502 -0.16855030040E+04 -0.64770829761E+03  0.12503283088E+03  0.18099948168E+04  0.12699999809E+01 0. -1.
</event>
<event>
 5   0  0.3993751E-07  0.3589701E+04  0.7818609E-02  0.8092855E-01
        2   -1    0    0  501    0  0.00000000000E+00  0.00000000000E+00  0.27814709258E+04  0.27814709258E+04  0.25500000920E-02 0.  1.
       -2   -1    0    0    0  501  0.00000000000E+00  0.00000000000E+00 -0.11581961065E+04  0.11581961065E+04  0.25500000920E-02 0. -1.
    10030    2    1    2    0    0  0.00000000000E+00  0.00000000000E+00  0.16232748193E+04  0.39396670323E+04  0.35897012670E+04 0.  0.
        1    1    3    3  502    0 -0.12468611563E+04  0.10714616596E+04  0.16021330970E+04  0.22955442256E+04  0.50400001928E-02 0.  1.
       -1    1    3    3    0  502  0.12468611563E+04 -0.10714616596E+04  0.21141722240E+02  0.16441228067E+04  0.50400001928E-02 0. -1.
</event>
<event>
 5   0  0.1348226E-07  0.3611734E+04  0.7818609E-02  0.8087809E-01
        1   -1    0    0  501    0  0.00000000000E+00  0.00000000000E+00  0.17833953071E+04  0.17833953071E+04  0.50400001928E-02 0. -1.
       -1   -1    0    0    0  501  0.00000000000E+00  0.00000000000E+00 -0.18286216069E+04  0.18286216069E+04  0.50400001928E-02 0.  1.
    10030    2    1    2    0    0  0.00000000000E+00  0.00000000000E+00 -0.45226299798E+02  0.36120169140E+04  0.36117337621E+04 0.  0.
        4    1    3    3  502    0  0.12974351606E+04 -0.57240005117E+03  0.10955862036E+04  0.17920074098E+04  0.12699999809E+01 0. -1.
       -4    1    3    3    0  502 -0.12974351606E+04  0.57240005117E+03 -0.11408125034E+04  0.18200095042E+04  0.12699999809E+01 0.  1.
</event>
<event>
 5   0  0.1298250E-07  0.3597952E+04  0.7818609E-02  0.8090961E-01
        1   -1    0    0  501    0  0.00000000000E+00  0.00000000000E+00  0.12449995663E+04  0.12449995663E+04  0.50400001928E-02 0. -1.
       -1   -1    0    0    0  501  0.00000000000E+00  0.00000000000E+00 -0.25994509044E+04  0.25994509044E+04  0.50400001928E-02 0.  1.
    10030    2    1    2    0    0  0.00000000000E+00  0.00000000000E+00 -0.13544513380E+04  0.38444504707E+04  0.35979523336E+04 0.  0.
        2    1    3    3  502    0 -0.21552500693E+03 -0.78572287584E+03  0.10365614555E+04  0.13184351016E+04  0.25500000920E-02 0. -1.
       -2    1    3    3    0  502  0.21552500693E+03  0.78572287584E+03 -0.23910127935E+04  0.25260153691E+04  0.25500000920E-02 0.  1.
</event>
<event>
 5   0  0.1298250E-07  0.3591264E+04  0.7818609E-02  0.8092496E-01
        1   -1    0    0  501    0  0.00000000000E+00  0.00000000000E+00  0.20426923005E+04  0.20426923005E+04  0.50400001928E-02 0. -1.
       -1   -1    0    0    0  501  0.00000000000E+00  0.00000000000E+00 -0.15784533958E+04  0.15784533958E+04  0.50400001928E-02 0.  1.
    10030    2    1    2    0    0  0.00000000000E+00  0.00000000000E+00  0.46423890475E+03  0.36211456963E+04  0.35912641776E+04 0.  0.
        2    1    3    3  502    0  0.49055325926E+03 -0.11300578606E+04  0.15493664885E+04  0.19794468379E+04  0.25500000920E-02 0. -1.
       -2    1    3    3    0  502 -0.49055325926E+03  0.11300578606E+04 -0.10851275837E+04  0.16416988584E+04  0.25500000920E-02 0.  1.
</event>
<event>
 5   0  0.1298250E-07  0.3622604E+04  0.7818609E-02  0.8085334E-01
        1   -1    0    0  501    0  0.00000000000E+00  0.00000000000E+00  0.21241302988E+04  0.21241302988E+04  0.50400001928E-02 0.  1.
       -1   -1    0    0    0  501  0.00000000000E+00  0.00000000000E+00 -0.15445447954E+04  0.15445447955E+04  0.50400001928E-02 0. -1.
    10030    2    1    2    0    0  0.00000000000E+00  0.00000000000E+00  0.57958550339E+03  0.36686750943E+04  0.36226037034E+04 0.  0.
        1    1    3    3  502    0 -0.10638699604E+04  0.52105886334E+03  0.16774351499E+04  0.20535603993E+04  0.50400001928E-02 0.  1.
       -1    1    3    3    0  502  0.10638699604E+04 -0.52105886334E+03 -0.10978496465E+04  0.16151146950E+04  0.50400001928E-02 0. -1.
</event>
<event>
 5   0  0.1348226E-07  0.3572139E+04  0.7818609E-02  0.8096904E-01
        1   -1    0    0  501    0  0.00000000000E+00  0.00000000000E+00  0.92089356909E+03  0.92089356910E+03  0.50400001928E-02 0.  1.
       -1   -1    0    0    0  501  0.00000000000E+00  0.00000000000E+00 -0.34640740643E+04  0.34640740643E+04  0.50400001928E-02 0. -1.
    10030    2    1    2    0    0  0.00000000000E+00  0.00000000000E+00 -0.25431804952E+04  0.43849676334E+04  0.35721385912E+04 0.  0.
        4    1    3    3  502    0 -0.12899657493E+04  0.95739401479E+03 -0.22298846052E+04  0.27482725300E+04  0.12699999809E+01 0.  1.
       -4    1    3    3    0  502  0.12899657493E+04 -0.95739401479E+03 -0.31329589001E+03  0.16366951034E+04  0.12699999809E+01 0. -1.
</event>
<event>
 5   0  0.4200635E-07  0.3597960E+04  0.7818609E-02  0.8090959E-01
        2   -1    0    0  501    0  0.00000000000E+00  0.00000000000E+00  0.15085056521E+04  0.15085056521E+04  0.25500000920E-02 0. -1.
       -2   -1    0    0    0  501  0.00000000000E+00  0.00000000000E+00 -0.21453875216E+04  0.21453875216E+04  0.25500000920E-02 0.  1.
    10030    2    1    2    0    0  0.00000000000E+00  0.00000000000E+00 -0.63688186952E+03  0.36538931737E+04  0.35979600900E+04 0.  0.
        4    1    3    3  502    0  0.18190899969E+03  0.42550390418E+03  0.14470272396E+04  0.15192214788E+04  0.12699999809E+01 0. -1.
       -4    1    3    3    0  502 -0.18190899969E+03 -0.42550390418E+03 -0.20839091092E+04  0.21346716948E+04  0.12699999809E+01 0.  1.
</event>
<event>
 5   0  0.4200635E-07  0.3581586E+04  0.7818609E-02  0.8094723E-01
        2   -1    0    0  501    0  0.00000000000E+00  0.00000000000E+00  0.24617697520E+04  0.24617697520E+04  0.25500000920E-02 0.  1.
       -2   -1    0    0    0  501  0.00000000000E+00  0.00000000000E+00 -0.13026969060E+04  0.13026969060E+04  0.25500000920E-02 0. -1.
    10030    2    1    2    0    0  0.00000000000E+00  0.00000000000E+00  0.11590728460E+04  0.37644666579E+04  0.35815861509E+04 0.  0.
        4    1    3    3  502    0 -0.13545146740E+04  0.33964438161E+03  0.17578834729E+04  0.22450443704E+04  0.12699999809E+01 0.  1.
       -4    1    3    3    0  502  0.13545146740E+04 -0.33964438161E+03 -0.59881062685E+03  0.15194222875E+04  0.12699999809E+01 0. -1.
</event>
<event>
 5   0  0.1361743E-07  0.3589330E+04  0.7818609E-02  0.8092940E-01
       -1   -1    0    0    0  501  0.00000000000E+00  0.00000000000E+00  0.17058023456E+04  0.17058023456E+04  0.50400001928E-02 0. -1.
        1   -1    0    0  501    0  0.00000000000E+00  0.00000000000E+00 -0.18881565706E+04  0.18881565706E+04  0.50400001928E-02 0.  1.
    10030    2    1    2    0    0  0.00000000000E+00  0.00000000000E+00 -0.18235422499E+03  0.35939589161E+04  0.35893296905E+04 0.  0.
        5    1    3    3  502    0 -0.10003931840E+04 -0.14107684257E+04  0.38875907078E+03  0.17726279302E+04  0.46999998093E+01 0.  1.
       -5    1    3    3    0  502  0.10003931840E+04  0.14107684257E+04 -0.57111329578E+03  0.18213309859E+04  0.46999998093E+01 0. -1.
</event>
<event>
 5   0  0.4120440E-07  0.3593685E+04  0.7818609E-02  0.8091940E-01
        2   -1    0    0  501    0  0.00000000000E+00  0.00000000000E+00  0.24604160070E+04  0.24604160070E+04  0.25500000920E-02 0. -1.
       -2   -1    0    0    0  501  0.00000000000E+00  0.00000000000E+00 -0.13122349142E+04  0.13122349142E+04  0.25500000920E-02 0.  1.
    10030    2    1    2    0    0  0.00000000000E+00  0.00000000000E+00  0.11481810928E+04  0.37726509213E+04  0.35936854553E+04 0.  0.
        2    1    3    3  502    0 -0.13478476899E+04  0.58673274082E+03  0.16588418530E+04  0.22164622707E+04  0.25500000920E-02 0. -1.
       -2    1    3    3    0  502  0.13478476899E+04 -0.58673274082E+03 -0.51066076017E+03  0.15561886506E+04  0.25500000920E-02 0.  1.
</event>
<event>
 5   0  0.1298250E-07  0.3590536E+04  0.7818609E-02  0.8092663E-01
        3   -1    0    0  501    0  0.00000000000E+00  0.00000000000E+00  0.25937573710E+04  0.25937573729E+04  0.10100000352E+00 0. -1.
       -3   -1    0    0    0  501  0.00000000000E+00  0.00000000000E+00 -0.12425936660E+04  0.12425936701E+04  0.10100000352E+00 0.  1.
    10030    2    1    2    0    0  0.00000000000E+00  0.00000000000E+00  0.13511637049E+04  0.38363510431E+04  0.35905356102E+04 0.  0.
        2    1    3    3  502    0  0.13076386039E+04 -0.10252935740E+04  0.14016966356E+04  0.21739133124E+04  0.25500000920E-02 0. -1.
       -2    1    3    3    0  502 -0.13076386039E+04  0.10252935740E+04 -0.50532930691E+02  0.16624377307E+04  0.25500000920E-02 0.  1.
</event>
<event>
 5   0  0.3993751E-07  0.3610375E+04  0.7818609E-02  0.8088119E-01
       -2   -1    0    0    0  501  0.00000000000E+00  0.00000000000E+00  0.13500882854E+04  0.13500882854E+04  0.25500000920E-02 0. -1.
        2   -1    0    0  501    0  0.00000000000E+00  0.00000000000E+00 -0.24136949913E+04  0.24136949913E+04  0.25500000920E-02 0.  1.
    10030    2    1    2    0    0  0.00000000000E+00  0.00000000000E+00 -0.10636067059E+04  0.37637832767E+04  0.36103746798E+04 0.  0.
        1    1    3    3  502    0  0.10239342351E+04 -0.55960219439E+03  0.90407637288E+03  0.14761266957E+04  0.50400001928E-02 0. -1.
       -1    1    3    3    0  502 -0.10239342351E+04  0.55960219439E+03 -0.19676830788E+04  0.22876565810E+04  0.50400001928E-02 0.  1.
</event>
<event>
 5   0  0.4200635E-07  0.3599239E+04  0.7818609E-02  0.8090666E-01
        2   -1    0    0  501    0  0.00000000000E+00  0.00000000000E+00  0.25284123518E+04  0.25284123518E+04  0.25500000920E-02 0. -1.
       -2   -1    0    0    0  501  0.00000000000E+00  0.00000000000E+00 -0.12808949101E+04  0.12808949101E+04  0.25500000920E-02 0.  1.
    10030    2    1    2    0    0  0.00000000000E+00  0.00000000000E+00  0.12475174416E+04  0.38093072619E+04  0.35992390930E+04 0.  0.
        4    1    3    3  502    0 -0.89718055076E+03 -0.79490685364E+03  0.20444211485E+04  0.23699091316E+04  0.12699999809E+01 0. -1.
       -4    1    3    3    0  502  0.89718055076E+03  0.79490685364E+03 -0.79690370686E+03  0.14393981303E+04  0.12699999809E+01 0.  1.
</event>
<event>
 5   0  0.1361743E-07  0.3525924E+04  0.7818609E-02  0.8107674E-01
       -1   -1    0    0    0  501  0.00000000000E+00  0.00000000000E+00  0.13097856676E+04  0.13097856676E+04  0.50400001928E-02 0.  1.
        1   -1    0    0  501    0  0.00000000000E+00  0.00000000000E+00 -0.23729338765E+04  0.23729338765E+04  0.50400001928E-02 0. -1.
    10030    2    1    2    0    0  0.00000000000E+00  0.00000000000E+00 -0.10631482089E+04  0.36827195441E+04  0.35259238685E+04 0.  0.
        5    1    3    3  502    0  0.14188268491E+04  0.10435478716E+04 -0.45100154261E+03  0.18180996313E+04  0.46999998093E+01 0. -1.
       -5    1    3    3    0  502 -0.14188268491E+04 -0.10435478716E+04 -0.61214666625E+03  0.18646199127E+04  0.46999998093E+01 0.  1.
</event>
<event>
 5   0  0.4200635E-07  0.3566033E+04  0.7818609E-02  0.8098317E-01
        2   -1    0    0  501    0  0.00000000000E+00  0.00000000000E+00  0.20014282488E+04  0.20014282488E+04  0.25500000920E-02 0.  1.
       -2   -1    0    0    0  501  0.00000000000E+00  0.00000000000E+00 -0.15884391927E+04  0.15884391927E+04  0.25500000920E-02 0. -1.
    10030    2    1    2    0    0  0.00000000000E+00  0.00000000000E+00  0.41298905606E+03  0.35898674415E+04  0.35660325695E+04 0.  0.
        4    1    3    3  502    0 -0.14096450218E+04 -0.10917144152E+04  0.19204565230E+03  0.17932714790E+04  0.12699999809E+01 0.  1.
       -4    1    3    3    0  502  0.14096450218E+04  0.10917144152E+04  0.22094340376E+03  0.17965959625E+04  0.12699999809E+01 0. -1.
</event>
<event>
 5   0  0.3880259E-07  0.3616658E+04  0.7818609E-02  0.8086687E-01
        2   -1    0    0  501    0  0.00000000000E+00  0.00000000000E+00  0.18202944839E+04  0.18202944839E+04  0.25500000920E-02 0.  1.
       -2   -1    0    0    0  501  0.00000000000E+00  0.00000000000E+00 -0.17964421364E+04  0.17964421364E+04  0.25500000920E-02 0. -1.
    10030    2    1    2    0    0  0.00000000000E+00  0.00000000000E+00  0.23852347494E+02  0.36167366202E+04  0.36166579664E+04 0.  0.
        5    1    3    3  502    0 -0.96492580201E+03  0.12166463289E+04 -0.91476626668E+03  0.18022567813E+04  0.46999998093E+01 0. -1.
       -5    1    3    3    0  502  0.96492580201E+03 -0.12166463289E+04  0.93861861418E+03  0.18144798389E+04  0.46999998093E+01 0.  1.
</event>
<event>
 5   0  0.3993751E-07  0.3607167E+04  0.7818609E-02  0.8088852E-01
        2   -1    0    0  501    0  0.00000000000E+00  0.00000000000E+00  0.21899241918E+04  0.21899241918E+04  0.25500000920E-02 0. -1.
       -2   -1    0    0    0  501  0.00000000000E+00  0.00000000000E+00 -0.14853996390E+04  0.14853996390E+04  0.25500000920E-02 0.  1.
    10030    2    1    2    0    0  0.00000000000E+00  0.00000000000E+00  0.70452455282E+03  0.36753238308E+04  0.36071665357E+04 0.  0.
        1    1    3    3  502    0 -0.11315285783E+04  0.73856579090E+03  0.15694372297E+04  0.20709827544E+04  0.50400001928E-02 0. -1.
       -1    1    3    3    0  502  0.11315285783E+04 -0.73856579090E+03 -0.86491267686E+03  0.16043410765E+04  0.50400001928E-02 0.  1.
</event>
<event>
 5   0  0.1348226E-07  0.3606837E+04  0.7818609E-02  0.8088927E-01
        1   -1    0    0  501    0  0.00000000000E+00  0.00000000000E+00  0.24384863486E+04  0.24384863486E+04  0.50400001928E-02 0.  1.
       -1   -1    0    0    0  501  0.00000000000E+00  0.00000000000E+00 -0.13337449269E+04  0.13337449269E+04  0.50400001928E-02 0. -1.
    10030    2    1    2    0    0  0.00000000000E+00  0.00000000000E+00  0.11047414217E+04  0.37722312755E+04  0.36068372831E+04 0.  0.
        4    1    3    3  502    0  0.64833161607E+03  0.91655585325E+03 -0.92369765194E+03  0.14538319991E+04  0.12699999809E+01 0. -1.
       -4    1    3    3    0  502 -0.64833161607E+03 -0.91655585325E+03  0.20284390736E+04  0.23183992764E+04  0.12699999809E+01 0.  1.
</event>
<event>
 5   0  0.3993751E-07  0.3607956E+04  0.7818609E-02  0.8088672E-01
       -2   -1    0    0    0  501  0.00000000000E+00  0.00000000000E+00  0.20963303768E+04  0.20963303768E+04  0.25500000920E-02 0. -1.
        2   -1    0    0  501    0  0.00000000000E+00  0.00000000000E+00 -0.15523967197E+04  0.15523967197E+04  0.25500000920E-02 0.  1.
    10030    2    1    2    0    0  0.00000000000E+00  0.00000000000E+00  0.54393365711E+03  0.36487270966E+04  0.36079558758E+04 0.  0.
        1    1    3    3  502    0  0.10295331907E+04 -0.24168171740E+03 -0.12060505613E+04  0.16040282415E+04  0.50400001928E-02 0.  1.
       -1    1    3    3    0  502 -0.10295331907E+04  0.24168171740E+03  0.17499842184E+04  0.20446988551E+04  0.50400001928E-02 0. -1.
</event>
<event>
 5   0  0.1298250E-07  0.3610980E+04  0.7818609E-02  0.8087981E-01
        1   -1    0    0  501    0  0.00000000000E+00  0.00000000000E+00  0.27407240742E+04  0.27407240742E+04  0.50400001928E-02 0. -1.
       -1   -1    0    0    0  501  0.00000000000E+00  0.00000000000E+00 -0.11893914971E+04  0.11893914971E+04  0.50400001928E-02 0.  1.
    10030    2    1    2    0    0  0.00000000000E+00  0.00000000000E+00  0.15513325771E+04  0.39301155713E+04  0.36109798724E+04 0.  0.
        2    1    3    3  502    0  0.47435284745E+03 -0.13152283179E+04  0.20189735804E+04  0.24558278585E+04  0.25500000920E-02 0. -1.
       -2    1    3    3    0  502 -0.47435284745E+03  0.13152283179E+04 -0.46764100330E+03  0.14742877128E+04  0.25500000920E-02 0.  1.
</event>
<event>
 5   0  0.4115358E-07  0.3459103E+04  0.7818609E-02  0.8123551E-01
        2   -1    0    0  501    0  0.00000000000E+00  0.00000000000E+00  0.23458518633E+04  0.23458518633E+04  0.25500000920E-02 0.  1.
       -2   -1    0    0    0  501  0.00000000000E+00  0.00000000000E+00 -0.12751653024E+04  0.12751653024E+04  0.25500000920E-02 0. -1.
    10030    2    1    2    0    0  0.00000000000E+00  0.00000000000E+00  0.10706865609E+04  0.36210171657E+04  0.34591032946E+04 0.  0.
        3    1    3    3  502    0 -0.33820757409E+03  0.34982173969E+03 -0.12020393647E+04  0.12967876685E+04  0.10100000352E+00 0. -1.
       -3    1    3    3    0  502  0.33820757409E+03 -0.34982173969E+03  0.22727259256E+04  0.23242294972E+04  0.10100000352E+00 0.  1.
</event>
<event>
 5   0  0.1348226E-07  0.3606326E+04  0.7818609E-02  0.8089044E-01
        1   -1    0    0  501    0  0.00000000000E+00  0.00000000000E+00  0.28096910789E+04  0.28096910789E+04  0.50400001928E-02 0.  1.
       -1   -1    0    0    0  501  0.00000000000E+00  0.00000000000E+00 -0.11572079981E+04  0.11572079981E+04  0.50400001928E-02 0. -1.
    10030    2    1    2    0    0  0.00000000000E+00  0.00000000000E+00  0.16524830808E+04  0.39668990769E+04  0.36063261020E+04 0.  0.
        4    1    3    3  502    0 -0.12782221791E+04  0.10954169103E+04  0.15370770593E+04  0.22795608449E+04  0.12699999809E+01 0.  1.
       -4    1    3    3    0  502  0.12782221791E+04 -0.10954169103E+04  0.11540602150E+03  0.16873382320E+04  0.12699999809E+01 0. -1.
</event>
<event>
 5   0  0.1298250E-07  0.3543649E+04  0.7818609E-02  0.8103523E-01
        1   -1    0    0  501    0  0.00000000000E+00  0.00000000000E+00  0.23105823094E+04  0.23105823094E+04  0.50400001928E-02 0.  1.
       -1   -1    0    0    0  501  0.00000000000E+00  0.00000000000E+00 -0.13586883730E+04  0.13586883730E+04  0.50400001928E-02 0. -1.
    10030    2    1    2    0    0  0.00000000000E+00  0.00000000000E+00  0.95189393645E+03  0.36692706824E+04  0.35436485822E+04 0.  0.
        1    1    3    3  502    0  0.11834821719E+04  0.10422106065E+04 -0.36048146178E+03  0.16176464026E+04  0.50400001928E-02 0. -1.
       -1    1    3    3    0  502 -0.11834821719E+04 -0.10422106065E+04  0.13123753982E+04  0.20516242798E+04  0.50400001928E-02 0.  1.
</event>
<event>
 5   0  0.3993751E-07  0.3606293E+04  0.7818609E-02  0.8089052E-01
       -2   -1    0    0    0  501  0.00000000000E+00  0.00000000000E+00  0.11828420782E+04  0.11828420782E+04  0.25500000920E-02 0. -1.
        2   -1    0    0  501    0  0.00000000000E+00  0.00000000000E+00 -0.27487497719E+04  0.27487497719E+04  0.25500000920E-02 0.  1.
    10030    2    1    2    0    0  0.00000000000E+00  0.00000000000E+00 -0.15659076937E+04  0.39315918502E+04  0.36062927739E+04 0.  0.
        1    1    3    3  502    0 -0.17226572091E+04 -0.25159319513E+03 -0.27103420722E+03  0.17619042362E+04  0.50400001928E-02 0. -1.
       -1    1    3    3    0  502  0.17226572091E+04  0.25159319513E+03 -0.12948734865E+04  0.21696876140E+04  0.50400001928E-02 0.  1.
</event>
<event>
 5   0  0.4200635E-07  0.3512003E+04  0.7818609E-02  0.8110951E-01
       -2   -1    0    0    0  501  0.00000000000E+00  0.00000000000E+00  0.84133886690E+03  0.84133886690E+03  0.25500000920E-02 0.  1.
        2   -1    0    0  501    0  0.00000000000E+00  0.00000000000E+00 -0.36650403829E+04  0.36650403829E+04  0.25500000920E-02 0. -1.
    10030    2    1    2    0    0  0.00000000000E+00  0.00000000000E+00 -0.28237015160E+04  0.45063792498E+04  0.35120028034E+04 0.  0.
        4    1    3    3  502    0  0.12719506795E+04 -0.80167808785E+03 -0.24780256474E+03  0.15237959219E+04  0.12699999809E+01 0.  1.
       -4    1    3    3    0  502 -0.12719506795E+04  0.80167808785E+03 -0.25758989512E+04  0.29825833278E+04  0.12699999809E+01 0. -1.
</event>
<event>
 5   0  0.1298250E-07  0.3655671E+04  0.7818609E-02  0.8077857E-01
        3   -1    0    0  501    0  0.00000000000E+00  0.00000000000E+00  0.27725510719E+04  0.27725510738E+04  0.10100000352E+00 0.  1.
       -3   -1    0    0    0  501  0.00000000000E+00  0.00000000000E+00 -0.12050214021E+04  0.12050214064E+04  0.10100000352E+00 0. -1.
    10030    2    1    2    0    0  0.00000000000E+00  0.00000000000E+00  0.15675296698E+04  0.39775724801E+04  0.36556714252E+04 0.  0.
        4    1    3    3  502    0 -0.14379222215E+04  0.10270526792E+04  0.12923934337E+04  0.21892327243E+04  0.12699999809E+01 0.  1.
       -4    1    3    3    0  502  0.14379222215E+04 -0.10270526792E+04  0.27513623618E+03  0.17883397558E+04  0.12699999809E+01 0. -1.
</event>
<event>
 5   0  0.3993751E-07  0.3611391E+04  0.7818609E-02  0.8087887E-01
       -2   -1    0    0    0  501  0.00000000000E+00  0.00000000000E+00  0.17011692230E+04  0.17011692230E+04  0.25500000920E-02 0.  1.
        2   -1    0    0  501    0  0.00000000000E+00  0.00000000000E+00 -0.19166444172E+04  0.19166444172E+04  0.25500000920E-02 0. -1.
    10030    2    1    2    0    0  0.00000000000E+00  0.00000000000E+00 -0.21547519419E+03  0.36178136401E+04  0.36113911413E+04 0.  0.
        1    1    3    3  502    0  0.59963168592E+03  0.71361670981E+03  0.14415344886E+04  0.17166329396E+04  0.50400001928E-02 0.  1.
       -1    1    3    3    0  502 -0.59963168592E+03 -0.71361670981E+03 -0.16570096828E+04  0.19011807006E+04  0.50400001928E-02 0. -1.
</event>
<event>
 5   0  0.4115358E-07  0.3637107E+04  0.7818609E-02  0.8082044E-01
       -2   -1    0    0    0  501  0.00000000000E+00  0.00000000000E+00  0.16695978308E+04  0.16695978308E+04  0.25500000920E-02 0. -1.
        2   -1    0    0  501    0  0.00000000000E+00  0.00000000000E+00 -0.19807987015E+04  0.19807987015E+04  0.25500000920E-02 0.  1.
    10030    2    1    2    0    0  0.00000000000E+00  0.00000000000E+00 -0.31120087071E+03  0.36503965323E+04  0.36371072105E+04 0.  0.
        3    1    3    3  502    0 -0.14841441119E+04  0.79006271339E+03 -0.85113641792E+03  0.18844935787E+04  0.10100000352E+00 0.  1.
       -3    1    3    3    0  502  0.14841441119E+04 -0.79006271339E+03  0.53993554721E+03  0.17659029536E+04  0.10100000352E+00 0. -1.
</event>
<event>
 5   0  0.1298250E-07  0.3582963E+04  0.7818609E-02  0.8094405E-01
        1   -1    0    0  501    0  0.00000000000E+00  0.00000000000E+00  0.84471688322E+03  0.84471688324E+03  0.50400001928E-02 0. -1.
       -1   -1    0    0    0  501  0.00000000000E+00  0.00000000000E+00 -0.37993875668E+04  0.37993875668E+04  0.50400001928E-02 0.  1.
    10030    2    1    2    0    0  0.00000000000E+00  0.00000000000E+00 -0.29546706835E+04  0.46441044500E+04  0.35829634793E+04 0.  0.
        1    1    3    3  502    0  0.10976393223E+04 -0.10526180389E+04 -0.25001892305E+03  0.15412093562E+04  0.50400001928E-02 0. -1.
       -1    1    3    3    0  502 -0.10976393223E+04  0.10526180389E+04 -0.27046517605E+04  0.31028950938E+04  0.50400001928E-02 0.  1.
</event>
<event>
 5   0  0.1298250E-07  0.3534644E+04  0.7818609E-02  0.8105629E-01
       -1   -1    0    0    0  501  0.00000000000E+00  0.00000000000E+00  0.18281903826E+04  0.18281903826E+04  0.50400001928E-02 0.  1.
        1   -1    0    0  501    0  0.00000000000E+00  0.00000000000E+00 -0.17084799356E+04  0.17084799356E+04  0.50400001928E-02 0. -1.
    10030    2    1    2    0    0  0.00000000000E+00  0.00000000000E+00  0.11971044700E+03  0.35366703182E+04  0.35346437371E+04 0.  0.
        1    1    3    3  502    0  0.13291069021E+04  0.25007239349E+01 -0.11056710820E+04  0.17288840193E+04  0.50400001928E-02 0. -1.
       -1    1    3    3    0  502 -0.13291069021E+04 -0.25007239349E+01  0.12253815290E+04  0.18077862989E+04  0.50400001928E-02 0.  1.
</event>
<event>
 5   0  0.1370997E-07  0.3570239E+04  0.7818609E-02  0.8097343E-01
        1   -1    0    0  501    0  0.00000000000E+00  0.00000000000E+00  0.20990999692E+04  0.20990999692E+04  0.50400001928E-02 0. -1.
       -1   -1    0    0    0  501  0.00000000000E+00  0.00000000000E+00 -0.15181037015E+04  0.15181037015E+04  0.50400001928E-02 0.  1.
    10030    2    1    2    0    0  0.00000000000E+00  0.00000000000E+00  0.58099626762E+03  0.36172036707E+04  0.35702388901E+04 0.  0.
        3    1    3    3  502    0  0.13767987119E+04  0.61150476239E+03 -0.67977316685E+03  0.16527565870E+04  0.10100000352E+00 0.  1.
       -3    1    3    3    0  502 -0.13767987119E+04 -0.61150476239E+03  0.12607694345E+04  0.19644470837E+04  0.10100000352E+00 0. -1.
</event>
<event>
 5   0  0.1361743E-07  0.3593581E+04  0.7818609E-02  0.8091964E-01
        1   -1    0    0  501    0  0.00000000000E+00  0.00000000000E+00  0.16899975036E+04  0.16899975036E+04  0.50400001928E-02 0.  1.
       -1   -1    0    0    0  501  0.00000000000E+00  0.00000000000E+00 -0.19103314309E+04  0.19103314309E+04  0.50400001928E-02 0. -1.
    10030    2    1    2    0    0  0.00000000000E+00  0.00000000000E+00 -0.22033392729E+03  0.36003289345E+04  0.35935805817E+04 0.  0.
        5    1    3    3  502    0  0.14154113422E+04  0.87883024788E+03 -0.78426134238E+03  0.18414178818E+04  0.46999998093E+01 0. -1.
       -5    1    3    3    0  502 -0.14154113422E+04 -0.87883024788E+03  0.56392741508E+03  0.17589110528E+04  0.46999998093E+01 0.  1.
</event>
<event>
 5   0  0.1361743E-07  0.3639718E+04  0.7818609E-02  0.8081454E-01
        1   -1    0    0  501    0  0.00000000000E+00  0.00000000000E+00  0.30499766657E+04  0.30499766657E+04  0.50400001928E-02 0.  1.
       -1   -1    0    0    0  501  0.00000000000E+00  0.00000000000E+00 -0.10858725587E+04  0.10858725587E+04  0.50400001928E-02 0. -1.
    10030    2    1    2    0    0  0.00000000000E+00  0.00000000000E+00  0.19641041070E+04  0.41358492244E+04  0.36397175528E+04 0.  0.
        5    1    3    3  502    0  0.35061914355E+03  0.21270298902E+03  0.29967813470E+04  0.30247143463E+04  0.46999998093E+01 0.  1.
       -5    1    3    3    0  502 -0.35061914355E+03 -0.21270298902E+03 -0.10326772400E+04  0.11111348781E+04  0.46999998093E+01 0. -1.
</event>
<event>
 5   0  0.4200635E-07  0.3609089E+04  0.7818609E-02  0.8088413E-01
       -2   -1    0    0    0  501  0.00000000000E+00  0.00000000000E+00  0.18011613580E+04  0.18011613580E+04  0.25500000920E-02 0. -1.
        2   -1    0    0  501    0  0.00000000000E+00  0.00000000000E+00 -0.18079340945E+04  0.18079340945E+04  0.25500000920E-02 0.  1.
    10030    2    1    2    0    0  0.00000000000E+00  0.00000000000E+00 -0.67727365197E+01  0.36090954525E+04  0.36090890977E+04 0.  0.
        4    1    3    3  502    0 -0.16271593971E+03 -0.17525434735E+04 -0.40150051080E+03  0.18052948171E+04  0.12699999809E+01 0.  1.
       -4    1    3    3    0  502  0.16271593971E+03  0.17525434735E+04  0.39472777428E+03  0.18038006354E+04  0.12699999809E+01 0. -1.
</event>
<event>
 5   0  0.3993751E-07  0.3582611E+04  0.7818609E-02  0.8094486E-01
       -2   -1    0    0    0  501  0.00000000000E+00  0.00000000000E+00  0.15415035952E+04  0.15415035952E+04  0.25500000920E-02 0.  1.
        2   -1    0    0  501    0  0.00000000000E+00  0.00000000000E+00 -0.20815881794E+04  0.20815881794E+04  0.25500000920E-02 0. -1.
    10030    2    1    2    0    0  0.00000000000E+00  0.00000000000E+00 -0.54008458425E+03  0.36230917746E+04  0.35826111496E+04 0.  0.
        1    1    3    3  502    0 -0.52909876470E+03 -0.14906206815E+04 -0.11203038674E+04  0.19382921024E+04  0.50400001928E-02 0. -1.
       -1    1    3    3    0  502  0.52909876470E+03  0.14906206815E+04  0.58021928315E+03  0.16847996722E+04  0.50400001928E-02 0.  1.
</event>
<event>
 5   0  0.1298250E-07  0.3604095E+04  0.7818609E-02  0.8089554E-01
        1   -1    0    0  501    0  0.00000000000E+00  0.00000000000E+00  0.19114763777E+04  0.19114763777E+04  0.50400001928E-02 0.  1.
       -1   -1    0    0    0  501  0.00000000000E+00  0.00000000000E+00 -0.16988829091E+04  0.16988829091E+04  0.50400001928E-02 0. -1.
    10030    2    1    2    0    0  0.00000000000E+00  0.00000000000E+00  0.21259346865E+03  0.36103592868E+04  0.36040946432E+04 0.  0.
        2    1    3    3  502    0 -0.16168537180E+04 -0.43008036568E+03  0.77692996099E+03  0.18446694095E+04  0.25500000920E-02 0.  1.
       -2    1    3    3    0  502  0.16168537180E+04  0.43008036568E+03 -0.56433649233E+03  0.17656898773E+04  0.25500000920E-02 0. -1.
</event>
<event>
 5   0  0.3880259E-07  0.3589632E+04  0.7818609E-02  0.8092871E-01
       -2   -1    0    0    0  501  0.00000000000E+00  0.00000000000E+00  0.17209063453E+04  0.17209063453E+04  0.25500000920E-02 0. -1.
        2   -1    0    0  501    0  0.00000000000E+00  0.00000000000E+00 -0.18719004332E+04  0.18719004332E+04  0.25500000920E-02 0.  1.
    10030    2    1    2    0    0  0.00000000000E+00  0.00000000000E+00 -0.15099408789E+03  0.35928067785E+04  0.35896324789E+04 0.  0.
        5    1    3    3  502    0 -0.17244101088E+04 -0.30960814539E+03 -0.46557982635E+03  0.18127973112E+04  0.46999998093E+01 0.  1.
       -5    1    3    3    0  502  0.17244101088E+04  0.30960814539E+03  0.31458573847E+03  0.17800094673E+04  0.46999998093E+01 0. -1.
</event>
<event>
 5   0  0.1298250E-07  0.3596108E+04  0.7818609E-02  0.8091384E-01
       -1   -1    0    0    0  501  0.00000000000E+00  0.00000000000E+00  0.12589172099E+04  0.12589172099E+04  0.50400001928E-02 0. -1.
        1   -1    0    0  501    0  0.00000000000E+00  0.00000000000E+00 -0.25680785052E+04  0.25680785052E+04  0.50400001928E-02 0.  1.
    10030    2    1    2    0    0  0.00000000000E+00  0.00000000000E+00 -0.13091612953E+04  0.38269957151E+04  0.35961080220E+04 0.  0.
        2    1    3    3  502    0 -0.14883852858E+04 -0.98494090549E+03 -0.42240128475E+03  0.18340725699E+04  0.25500000920E-02 0.  1.
       -2    1    3    3    0  502  0.14883852858E+04  0.98494090549E+03 -0.88676001053E+03  0.19929231452E+04  0.25500000920E-02 0. -1.
</event>
<event>
 5   0  0.4120440E-07  0.3603029E+04  0.7818609E-02  0.8089798E-01
       -2   -1    0    0    0  501  0.00000000000E+00  0.00000000000E+00  0.20465765971E+04  0.20465765971E+04  0.25500000920E-02 0. -1.
        2   -1    0    0  501    0  0.00000000000E+00  0.00000000000E+00 -0.15857965232E+04  0.15857965232E+04  0.25500000920E-02 0.  1.
    10030    2    1    2    0    0  0.00000000000E+00  0.00000000000E+00  0.46078007383E+03  0.36323731203E+04  0.36030287549E+04 0.  0.
        2    1    3    3  502    0 -0.16794002361E+04  0.39819911198E+02 -0.42566587894E+03  0.17329634211E+04  0.25500000920E-02 0.  1.
       -2    1    3    3    0  502  0.16794002361E+04 -0.39819911198E+02  0.88644595277E+03  0.18994096992E+04  0.25500000920E-02 0. -1.
</event>
<event>
 5   0  0.4115358E-07  0.3618082E+04  0.7818609E-02  0.8086362E-01
        2   -1    0    0  501    0  0.00000000000E+00  0.00000000000E+00  0.27074544312E+04  0.27074544312E+04  0.25500000920E-02 0.  1.
       -2   -1    0    0    0  501  0.00000000000E+00  0.00000000000E+00 -0.12087476613E+04  0.12087476613E+04  0.25500000920E-02 0. -1.
    10030    2    1    2    0    0  0.00000000000E+00  0.00000000000E+00  0.14987067699E+04  0.39162020926E+04  0.36180819294E+04 0.  0.
        3    1    3    3  502    0 -0.84480995922E+03 -0.10839180791E+04 -0.52403858457E+03  0.14707816689E+04  0.10100000352E+00 0.  1.
       -3    1    3    3    0  502  0.84480995922E+03  0.10839180791E+04  0.20227453545E+04  0.24454204237E+04  0.10100000352E+00 0. -1.
</event>
<event>
 5   0  0.3993751E-07  0.3610844E+04  0.7818609E-02  0.8088012E-01
       -2   -1    0    0    0  501  0.00000000000E+00  0.00000000000E+00  0.13155258227E+04  0.13155258227E+04  0.25500000920E-02 0.  1.
        2   -1    0    0  501    0  0.00000000000E+00  0.00000000000E+00 -0.24777527906E+04  0.24777527906E+04  0.25500000920E-02 0. -1.
    10030    2    1    2    0    0  0.00000000000E+00  0.00000000000E+00 -0.11622269679E+04  0.37932786134E+04  0.36108435460E+04 0.  0.
        1    1    3    3  502    0 -0.41532867361E+03 -0.14244866579E+04 -0.16616161460E+04  0.22276957517E+04  0.50400001928E-02 0.  1.
       -1    1    3    3    0  502  0.41532867361E+03  0.14244866579E+04  0.49938917805E+03  0.15655828617E+04  0.50400001928E-02 0. -1.
</event>
<event>
 5   0  0.4200635E-07  0.3620422E+04  0.7818609E-02  0.8085830E-01
       -2   -1    0    0    0  501  0.00000000000E+00  0.00000000000E+00  0.22937268022E+04  0.22937268022E+04  0.25500000920E-02 0.  1.
        2   -1    0    0  501    0  0.00000000000E+00  0.00000000000E+00 -0.14286199294E+04  0.14286199294E+04  0.25500000920E-02 0. -1.
    10030    2    1    2    0    0  0.00000000000E+00  0.00000000000E+00  0.86510687280E+03  0.37223467317E+04  0.36204219767E+04 0.  0.
        4    1    3    3  502    0 -0.80074483638E+03  0.12348786834E+04  0.15161427875E+04  0.21130092808E+04  0.12699999809E+01 0.  1.
       -4    1    3    3    0  502  0.80074483638E+03 -0.12348786834E+04 -0.65103591475E+03  0.16093374509E+04  0.12699999809E+01 0. -1.
</event>
<event>
 5   0  0.1361743E-07  0.3572207E+04  0.7818609E-02  0.8096888E-01
       -1   -1    0    0    0  501  0.00000000000E+00  0.00000000000E+00  0.25633752922E+04  0.25633752923E+04  0.50400001928E-02 0.  1.
        1   -1    0    0  501    0  0.00000000000E+00  0.00000000000E+00 -0.12445178961E+04  0.12445178962E+04  0.50400001928E-02 0. -1.
    10030    2    1    2    0    0  0.00000000000E+00  0.00000000000E+00  0.13188573961E+04  0.38078931884E+04  0.35722073992E+04 0.  0.
        5    1    3    3  502    0  0.13174422927E+04 -0.11971372066E+04  0.81519516846E+03  0.19578960490E+04  0.46999998093E+01 0. -1.
       -5    1    3    3    0  502 -0.13174422927E+04  0.11971372066E+04  0.50366222764E+03  0.18499971394E+04  0.46999998093E+01 0.  1.
</event>
<event>
 5   0  0.1348226E-07  0.3607038E+04  0.7818609E-02  0.8088881E-01
       -1   -1    0    0    0  501  0.00000000000E+00  0.00000000000E+00  0.13315015659E+04  0.13315015659E+04  0.50400001928E-02 0. -1.
        1   -1    0    0  501    0  0.00000000000E+00  0.00000000000E+00 -0.24428670521E+04  0.24428670522E+04  0.50400001928E-02 0.  1.
    10030    2    1    2    0    0  0.00000000000E+00  0.00000000000E+00 -0.11113654862E+04  0.37743686181E+04  0.36070382894E+04 0.  0.
        4    1    3    3  502    0 -0.94343841980E+03 -0.13400584397E+04 -0.13435018212E+04  0.21191581890E+04  0.12699999809E+01 0.  1.
       -4    1    3    3    0  502  0.94343841980E+03  0.13400584397E+04  0.23213633496E+03  0.16552104291E+04  0.12699999809E+01 0. -1.
</event>
<event>
 5   0  0.1298250E-07  0.3593346E+04  0.7818609E-02  0.8092018E-01
       -3   -1    0    0    0  501  0.00000000000E+00  0.00000000000E+00  0.17181601937E+04  0.17181601966E+04  0.10100000352E+00 0. -1.
        3   -1    0    0  501    0  0.00000000000E+00  0.00000000000E+00 -0.18787729999E+04  0.18787730026E+04  0.10100000352E+00 0.  1.
    10030    2    1    2    0    0  0.00000000000E+00  0.00000000000E+00 -0.16061280626E+03  0.35969331993E+04  0.35933455117E+04 0.  0.
        1    1    3    3  502    0  0.22457995550E+03 -0.17805352336E+04  0.51668884633E+01  0.17946499858E+04  0.50400001928E-02 0.  1.
       -1    1    3    3    0  502 -0.22457995550E+03  0.17805352336E+04 -0.16577969472E+03  0.18022832135E+04  0.50400001928E-02 0. -1.
</event>
<event>
 5   0  0.4115358E-07  0.3610052E+04  0.7818609E-02  0.8088193E-01
        2   -1    0    0  501    0  0.00000000000E+00  0.00000000000E+00  0.17302957384E+04  0.17302957384E+04  0.25500000920E-02 0.  1.
       -2   -1    0    0    0  501  0.00000000000E+00  0.00000000000E+00 -0.18829839665E+04  0.18829839665E+04  0.25500000920E-02 0. -1.
    10030    2    1    2    0    0  0.00000000000E+00  0.00000000000E+00 -0.15268822809E+03  0.36132797049E+04  0.36100521507E+04 0.  0.
        3    1    3    3  502    0 -0.15358307780E+04  0.57931427145E+03  0.67515198375E+03  0.17748834934E+04  0.10100000352E+00 0.  1.
       -3    1    3    3    0  502  0.15358307780E+04 -0.57931427145E+03 -0.82784021184E+03  0.18383962115E+04  0.10100000352E+00 0. -1.
</event>
<event>
 5   0  0.4120440E-07  0.3603996E+04  0.7818609E-02  0.8089577E-01
       -2   -1    0    0    0  501  0.00000000000E+00  0.00000000000E+00  0.14201430690E+04  0.14201430690E+04  0.25500000920E-02 0. -1.
        2   -1    0    0  501    0  0.00000000000E+00  0.00000000000E+00 -0.22865277026E+04  0.22865277026E+04  0.25500000920E-02 0.  1.
    10030    2    1    2    0    0  0.00000000000E+00  0.00000000000E+00 -0.86638463355E+03  0.37066707716E+04  0.36039958207E+04 0.  0.
        2    1    3    3  502    0 -0.15974534443E+04 -0.20791315234E+03 -0.12637322633E+04  0.20474629713E+04  0.25500000920E-02 0.  1.
       -2    1    3    3    0  502  0.15974534443E+04  0.20791315234E+03  0.39734762977E+03  0.16592078003E+04  0.25500000920E-02 0. -1.
</event>
<event>
 5   0  0.3880259E-07  0.3595159E+04  0.7818609E-02  0.8091602E-01
       -2   -1    0    0    0  501  0.00000000000E+00  0.00000000000E+00  0.18401637487E+04  0.18401637487E+04  0.25500000920E-02 0. -1.
        2   -1    0    0  501    0  0.00000000000E+00  0.00000000000E+00 -0.17559805109E+04  0.17559805109E+04  0.25500000920E-02 0.  1.
    10030    2    1    2    0    0  0.00000000000E+00  0.00000000000E+00  0.84183237834E+02  0.35961442595E+04  0.35951587890E+04 0.  0.
        5    1    3    3  502    0  0.17412738515E+04  0.37083755941E+03  0.29058368295E+03  0.18038891563E+04  0.46999998093E+01 0.  1.
       -5    1    3    3    0  502 -0.17412738515E+04 -0.37083755941E+03 -0.20640044511E+03  0.17922551033E+04  0.46999998093E+01 0. -1.
</event>
<event>
 5   0  0.1348226E-07  0.3608448E+04  0.7818609E-02  0.8088559E-01
       -1   -1    0    0    0  501  0.00000000000E+00  0.00000000000E+00  0.25496398774E+04  0.25496398774E+04  0.50400001928E-02 0. -1.
        1   -1    0    0  501    0  0.00000000000E+00  0.00000000000E+00 -0.12767388722E+04  0.12767388722E+04  0.50400001928E-02 0.  1.
    10030    2    1    2    0    0  0.00000000000E+00  0.00000000000E+00  0.12729010052E+04  0.38263787496E+04  0.36084480551E+04 0.  0.
        4    1    3    3  502    0  0.12037795163E+03 -0.17694344949E+04  0.98787724134E+03  0.20300966331E+04  0.12699999809E+01 0. -1.
       -4    1    3    3    0  502 -0.12037795163E+03  0.17694344949E+04  0.28502376384E+03  0.17962821165E+04  0.12699999809E+01 0.  1.
</event>
<event>
 5   0  0.1298250E-07  0.3589437E+04  0.7818609E-02  0.8092916E-01
       -1   -1    0    0    0  501  0.00000000000E+00  0.00000000000E+00  0.15434104753E+04  0.15434104753E+04  0.50400001928E-02 0.  1.
        1   -1    0    0  501    0  0.00000000000E+00  0.00000000000E+00 -0.20869457576E+04  0.20869457577E+04  0.50400001928E-02 0. -1.
    10030    2    1    2    0    0  0.00000000000E+00  0.00000000000E+00 -0.54353528232E+03  0.36303562330E+04  0.35894366933E+04 0.  0.
        1    1    3    3  502    0  0.62131270762E+03 -0.10682457059E+04 -0.15880788202E+04  0.20122556269E+04  0.50400001928E-02 0. -1.
       -1    1    3    3    0  502 -0.62131270762E+03  0.10682457059E+04  0.10445435379E+04  0.16181006061E+04  0.50400001928E-02 0.  1.
</event>
<event>
 5   0  0.4120440E-07  0.3590562E+04  0.7818609E-02  0.8092657E-01
       -2   -1    0    0    0  501  0.00000000000E+00  0.00000000000E+00  0.14984426870E+04  0.14984426870E+04  0.25500000920E-02 0.  1.
        2   -1    0    0  501    0  0.00000000000E+00  0.00000000000E+00 -0.21509219614E+04  0.21509219614E+04  0.25500000920E-02 0. -1.
    10030    2    1    2    0    0  0.00000000000E+00  0.00000000000E+00 -0.65247927442E+03  0.36493646484E+04  0.35905616738E+04 0.  0.
        2    1    3    3  502    0  0.37250446953E+03 -0.46936620131E+03  0.13938022840E+04  0.15171516133E+04  0.25500000920E-02 0.  1.
       -2    1    3    3    0  502 -0.37250446953E+03  0.46936620131E+03 -0.20462815584E+04  0.21322130351E+04  0.25500000920E-02 0. -1.
</event>
<event>
 5   0  0.1348226E-07  0.3593476E+04  0.7818609E-02  0.8091988E-01
       -1   -1    0    0    0  501  0.00000000000E+00  0.00000000000E+00  0.18113348162E+04  0.18113348162E+04  0.50400001928E-02 0. -1.
        1   -1    0    0  501    0  0.00000000000E+00  0.00000000000E+00 -0.17822583202E+04  0.17822583202E+04  0.50400001928E-02 0.  1.
    10030    2    1    2    0    0  0.00000000000E+00  0.00000000000E+00  0.29076496044E+02  0.35935931364E+04  0.35934755026E+04 0.  0.
        4    1    3    3  502    0  0.48519010893E+03 -0.92436909952E+03  0.14769120938E+04  0.18086289337E+04  0.12699999809E+01 0. -1.
       -4    1    3    3    0  502 -0.48519010893E+03  0.92436909952E+03 -0.14478355978E+04  0.17849642027E+04  0.12699999809E+01 0.  1.
</event>
<event>
 5   0  0.4200635E-07  0.3719393E+04  0.7818609E-02  0.8063678E-01
        2   -1    0    0  501    0  0.00000000000E+00  0.00000000000E+00  0.15887332280E+04  0.15887332280E+04  0.25500000920E-02 0. -1.
       -2   -1    0    0    0  501  0.00000000000E+00  0.00000000000E+00 -0.21768730005E+04  0.21768730005E+04  0.25500000920E-02 0.  1.
    10030    2    1    2    0    0  0.00000000000E+00  0.00000000000E+00 -0.58813977253E+03  0.37656062285E+04  0.37193926757E+04 0.  0.
        4    1    3    3  502    0 -0.13529650104E+04  0.44626865124E+03  0.91610577623E+03  0.16937890762E+04  0.12699999809E+01 0. -1.
       -4    1    3    3    0  502  0.13529650104E+04 -0.44626865124E+03 -0.15042455488E+04  0.20718171523E+04  0.12699999809E+01 0.  1.
</event>
<event>
 5   0  0.1361743E-07  0.3619092E+04  0.7818609E-02  0.8086132E-01
        1   -1    0    0  501    0  0.00000000000E+00  0.00000000000E+00  0.25032186082E+04  0.25032186083E+04  0.50400001928E-02 0. -1.
       -1   -1    0    0    0  501  0.00000000000E+00  0.00000000000E+00 -0.13080987745E+04  0.13080987745E+04  0.50400001928E-02 0.  1.
    10030    2    1    2    0    0  0.00000000000E+00  0.00000000000E+00  0.11951198337E+04  0.38113173828E+04  0.36190922585E+04 0.  0.
        5    1    3    3  502    0  0.17400966215E+04  0.27450418721E+03  0.10332314885E+04  0.20422728025E+04  0.46999998093E+01 0. -1.
       -5    1    3    3    0  502 -0.17400966215E+04 -0.27450418721E+03  0.16188834524E+03  0.17690445803E+04  0.46999998093E+01 0.  1.
</event>
<event>
 5   0  0.3880259E-07  0.3605092E+04  0.7818609E-02  0.8089326E-01
       -2   -1    0    0    0  501  0.00000000000E+00  0.00000000000E+00  0.14833932023E+04  0.14833932023E+04  0.25500000920E-02 0. -1.
        2   -1    0    0  501    0  0.00000000000E+00  0.00000000000E+00 -0.21903650996E+04  0.21903650996E+04  0.25500000920E-02 0.  1.
    10030    2    1    2    0    0  0.00000000000E+00  0.00000000000E+00 -0.70697189726E+03  0.36737583019E+04  0.36050923424E+04 0.  0.
        5    1    3    3  502    0 -0.44873567394E+03 -0.57326899279E+03  0.13269065546E+04  0.15135072308E+04  0.46999998093E+01 0. -1.
       -5    1    3    3    0  502  0.44873567394E+03  0.57326899279E+03 -0.20338784518E+04  0.21602510711E+04  0.46999998093E+01 0.  1.
</event>
<event>
 5   0  0.3993751E-07  0.3758742E+04  0.7818609E-02  0.8055067E-01
        2   -1    0    0  501    0  0.00000000000E+00  0.00000000000E+00  0.19217438109E+04  0.19217438109E+04  0.25500000920E-02 0. -1.
       -2   -1    0    0    0  501  0.00000000000E+00  0.00000000000E+00 -0.18379320381E+04  0.18379320381E+04  0.25500000920E-02 0.  1.
    10030    2    1    2    0    0  0.00000000000E+00  0.00000000000E+00  0.83811772851E+02  0.37596758490E+04  0.37587415548E+04 0.  0.
        1    1    3    3  502    0  0.44041646024E+03  0.14673216012E+04 -0.10469579115E+04  0.18555646603E+04  0.50400001928E-02 0.  1.
       -1    1    3    3    0  502 -0.44041646024E+03 -0.14673216012E+04  0.11307696844E+04  0.19041111887E+04  0.50400001928E-02 0. -1.
</event>
<event>
 5   0  0.1370997E-07  0.3569800E+04  0.7818609E-02  0.8097445E-01
        1   -1    0    0  501    0  0.00000000000E+00  0.00000000000E+00  0.32259272274E+04  0.32259272274E+04  0.50400001928E-02 0.  1.
       -1   -1    0    0    0  501  0.00000000000E+00  0.00000000000E+00 -0.98758207988E+03  0.98758207989E+03  0.50400001928E-02 0. -1.
    10030    2    1    2    0    0  0.00000000000E+00  0.00000000000E+00  0.22383451475E+04  0.42135093073E+04  0.35697999500E+04 0.  0.
        3    1    3    3  502    0  0.42559516802E+02  0.92175122354E+03 -0.68422144690E+03  0.11487365360E+04  0.10100000352E+00 0. -1.
       -3    1    3    3    0  502 -0.42559516802E+02 -0.92175122354E+03  0.29225665944E+04  0.30647727713E+04  0.10100000352E+00 0.  1.
</event>
<event>
 5   0  0.1348226E-07  0.3611757E+04  0.7818609E-02  0.8087804E-01
       -1   -1    0    0    0  501  0.00000000000E+00  0.00000000000E+00  0.19298497928E+04  0.19298497928E+04  0.50400001928E-02 0. -1.
        1   -1    0    0  501    0  0.00000000000E+00  0.00000000000E+00 -0.16898709392E+04  0.16898709392E+04  0.50400001928E-02 0.  1.
    10030    2    1    2    0    0  0.00000000000E+00  0.00000000000E+00  0.23997885360E+03  0.36197207321E+04  0.36117569586E+04 0.  0.
        4    1    3    3  502    0  0.35812316889E+03 -0.17000642750E+04  0.61374675751E+03  0.18425952997E+04  0.12699999809E+01 0.  1.
       -4    1    3    3    0  502 -0.35812316889E+03  0.17000642750E+04 -0.37376790391E+03  0.17771254323E+04  0.12699999809E+01 0. -1.
</event>
<event>
 5   0  0.1348226E-07  0.3512793E+04  0.7818609E-02  0.8110765E-01
        1   -1    0    0  501    0  0.00000000000E+00  0.00000000000E+00  0.16102905021E+04  0.16102905021E+04  0.50400001928E-02 0. -1.
       -1   -1    0    0    0  501  0.00000000000E+00  0.00000000000E+00 -0.19157596247E+04  0.19157596247E+04  0.50400001928E-02 0.  1.
    10030    2    1    2    0    0  0.00000000000E+00  0.00000000000E+00 -0.30546912263E+03  0.35260501269E+04  0.35127934913E+04 0.  0.
        4    1    3    3  502    0  0.47145684396E+03 -0.12204004968E+04  0.10235577274E+04  0.16611203938E+04  0.12699999809E+01 0. -1.
       -4    1    3    3    0  502 -0.47145684396E+03  0.12204004968E+04 -0.13290268500E+04  0.18649297331E+04  0.12699999809E+01 0.  1.
</event>
<event>
 5   0  0.1348226E-07  0.3614308E+04  0.7818609E-02  0.8087222E-01
        1   -1    0    0  501    0  0.00000000000E+00  0.00000000000E+00  0.20441286617E+04  0.20441286617E+04  0.50400001928E-02 0.  1.
       -1   -1    0    0    0  501  0.00000000000E+00  0.00000000000E+00 -0.15976514236E+04  0.15976514236E+04  0.50400001928E-02 0. -1.
    10030    2    1    2    0    0  0.00000000000E+00  0.00000000000E+00  0.44647723818E+03  0.36417800853E+04  0.36143077159E+04 0.  0.
        4    1    3    3  502    0 -0.13819240322E+04  0.10686799410E+04  0.68936992326E+03  0.18780371005E+04  0.12699999809E+01 0.  1.
       -4    1    3    3    0  502  0.13819240322E+04 -0.10686799410E+04 -0.24289268509E+03  0.17637429848E+04  0.12699999809E+01 0. -1.
</event>
<event>
 5   0  0.1370997E-07  0.3199789E+04  0.7818609E-02  0.8188873E-01
       -1   -1    0    0    0  501  0.00000000000E+00  0.00000000000E+00  0.11464205032E+04  0.11464205033E+04  0.50400001928E-02 0.  1.
        1   -1    0    0  501    0  0.00000000000E+00  0.00000000000E+00 -0.22327425875E+04  0.22327425875E+04  0.50400001928E-02 0. -1.
    10030    2    1    2    0    0  0.00000000000E+00  0.00000000000E+00 -0.10863220842E+04  0.33791630907E+04  0.31997886685E+04 0.  0.
        3    1    3    3  502    0  0.67114602810E+03  0.20023547313E+03 -0.20622451216E+04  0.21779316306E+04  0.10100000352E+00 0. -1.
       -3    1    3    3    0  502 -0.67114602810E+03 -0.20023547313E+03  0.97592303738E+03  0.12012314601E+04  0.10100000352E+00 0.  1.
</event>
<event>
 5   0  0.3880259E-07  0.3620232E+04  0.7818609E-02  0.8085873E-01
        2   -1    0    0  501    0  0.00000000000E+00  0.00000000000E+00  0.13312308170E+04  0.13312308170E+04  0.25500000920E-02 0. -1.
       -2   -1    0    0    0  501  0.00000000000E+00  0.00000000000E+00 -0.24612710518E+04  0.24612710518E+04  0.25500000920E-02 0.  1.
    10030    2    1    2    0    0  0.00000000000E+00  0.00000000000E+00 -0.11300402348E+04  0.37925018688E+04  0.36202319667E+04 0.  0.
        5    1    3    3  502    0 -0.85726168382E+03  0.13705315201E+04 -0.14181711470E+04  0.21504617491E+04  0.46999998093E+01 0.  1.
       -5    1    3    3    0  502  0.85726168382E+03 -0.13705315201E+04  0.28813091220E+03  0.16420401197E+04  0.46999998093E+01 0. -1.
</event>
<event>
 5   0  0.4120440E-07  0.3588191E+04  0.7818609E-02  0.8093202E-01
       -2   -1    0    0    0  501  0.00000000000E+00  0.00000000000E+00  0.18851302730E+04  0.18851302730E+04  0.25500000920E-02 0. -1.
        2   -1    0    0  501    0  0.00000000000E+00  0.00000000000E+00 -0.17074568301E+04  0.17074568301E+04  0.25500000920E-02 0.  1.
    10030    2    1    2    0    0  0.00000000000E+00  0.00000000000E+00  0.17767344293E+03  0.35925871032E+04  0.35881909427E+04 0.  0.
        2    1    3    3  502    0  0.16389617064E+03 -0.43403116072E+03  0.18240305930E+04  0.18821085535E+04  0.25500000920E-02 0. -1.
       -2    1    3    3    0  502 -0.16389617064E+03  0.43403116072E+03 -0.16463571500E+04  0.17104785496E+04  0.25500000920E-02 0.  1.
</event>
<event>
 5   0  0.1298250E-07  0.3588982E+04  0.7818609E-02  0.8093020E-01
        1   -1    0    0  501    0  0.00000000000E+00  0.00000000000E+00  0.96574287519E+03  0.96574287520E+03  0.50400001928E-02 0.  1.
       -1   -1    0    0    0  501  0.00000000000E+00  0.00000000000E+00 -0.33344266658E+04  0.33344266658E+04  0.50400001928E-02 0. -1.
    10030    2    1    2    0    0  0.00000000000E+00  0.00000000000E+00 -0.23686837906E+04  0.43001695410E+04  0.35889824716E+04 0.  0.
        2    1    3    3  502    0 -0.24477904334E+03 -0.58388912882E+03 -0.31961620830E+04  0.32582656975E+04  0.25500000920E-02 0. -1.
       -2    1    3    3    0  502  0.24477904334E+03  0.58388912882E+03  0.82747829236E+03  0.10419038435E+04  0.25500000920E-02 0.  1.
</event>
<event>
 5   0  0.1298250E-07  0.3607323E+04  0.7818609E-02  0.8088816E-01
        1   -1    0    0  501    0  0.00000000000E+00  0.00000000000E+00  0.20072201253E+04  0.20072201253E+04  0.50400001928E-02 0.  1.
       -1   -1    0    0    0  501  0.00000000000E+00  0.00000000000E+00 -0.16207462632E+04  0.16207462632E+04  0.50400001928E-02 0. -1.
    10030    2    1    2    0    0  0.00000000000E+00  0.00000000000E+00  0.38647386213E+03  0.36279663885E+04  0.36073228397E+04 0.  0.
        1    1    3    3  502    0  0.86618794788E+03 -0.13229659539E+04  0.10657696316E+04  0.19069308808E+04  0.50400001928E-02 0. -1.
       -1    1    3    3    0  502 -0.86618794788E+03  0.13229659539E+04 -0.67929576950E+03  0.17210355077E+04  0.50400001928E-02 0.  1.
</event>
<event>
 5   0  0.1370997E-07  0.3564928E+04  0.7818609E-02  0.8098573E-01
        1   -1    0    0  501    0  0.00000000000E+00  0.00000000000E+00  0.26841528045E+04  0.26841528045E+04  0.50400001928E-02 0.  1.
       -1   -1    0    0    0  501  0.00000000000E+00  0.00000000000E+00 -0.11836796947E+04  0.11836796947E+04  0.50400001928E-02 0. -1.
    10030    2    1    2    0    0  0.00000000000E+00  0.00000000000E+00  0.15004731099E+04  0.38678324992E+04  0.35649275853E+04 0.  0.
        3    1    3    3  502    0  0.60661900184E+03  0.92466008702E+03 -0.76646738099E+03  0.13455315478E+04  0.10100000352E+00 0. -1.
       -3    1    3    3    0  502 -0.60661900184E+03 -0.92466008702E+03  0.22669404909E+04  0.25223009514E+04  0.10100000352E+00 0.  1.
</event>
<event>
 5   0  0.1298250E-07  0.3612691E+04  0.7818609E-02  0.8087591E-01
        1   -1    0    0  501    0  0.00000000000E+00  0.00000000000E+00  0.10519436545E+04  0.10519436545E+04  0.50400001928E-02 0. -1.
       -1   -1    0    0    0  501  0.00000000000E+00  0.00000000000E+00 -0.31017666948E+04  0.31017666948E+04  0.50400001928E-02 0.  1.
    10030    2    1    2    0    0  0.00000000000E+00  0.00000000000E+00 -0.20498230403E+04  0.41537103493E+04  0.36126908488E+04 0.  0.
        1    1    3    3  502    0 -0.12862186823E+04  0.37609551237E+03 -0.24175292879E+04  0.27641009734E+04  0.50400001928E-02 0.  1.
       -1    1    3    3    0  502  0.12862186823E+04 -0.37609551237E+03  0.36770624763E+03  0.13896093759E+04  0.50400001928E-02 0. -1.
</event>
<event>
 5   0  0.1348226E-07  0.3550285E+04  0.7818609E-02  0.8101975E-01
       -1   -1    0    0    0  501  0.00000000000E+00  0.00000000000E+00  0.18417384274E+04  0.18417384274E+04  0.50400001928E-02 0. -1.
        1   -1    0    0  501    0  0.00000000000E+00  0.00000000000E+00 -0.17109550268E+04  0.17109550268E+04  0.50400001928E-02 0.  1.
    10030    2    1    2    0    0  0.00000000000E+00  0.00000000000E+00  0.13078340061E+03  0.35526934543E+04  0.35502854086E+04 0.  0.
        4    1    3    3  502    0 -0.58905425853E+03  0.85195185379E+03 -0.13772251595E+04  0.17232404456E+04  0.12699999809E+01 0.  1.
       -4    1    3    3    0  502  0.58905425853E+03 -0.85195185379E+03  0.15080085601E+04  0.18294530087E+04  0.12699999809E+01 0. -1.
</event>
<event>
 5   0  0.1348226E-07  0.3594128E+04  0.7818609E-02  0.8091838E-01
        1   -1    0    0  501    0  0.00000000000E+00  0.00000000000E+00  0.18708886884E+04  0.18708886884E+04  0.50400001928E-02 0. -1.
       -1   -1    0    0    0  501  0.00000000000E+00  0.00000000000E+00 -0.17261519915E+04  0.17261519915E+04  0.50400001928E-02 0.  1.
    10030    2    1    2    0    0  0.00000000000E+00  0.00000000000E+00  0.14473669697E+03  0.35970406799E+04  0.35941275633E+04 0.  0.
        4    1    3    3  502    0 -0.12648866853E+04  0.22249172521E+03  0.13303659662E+04  0.18491392893E+04  0.12699999809E+01 0. -1.
       -4    1    3    3    0  502  0.12648866853E+04 -0.22249172521E+03 -0.11856292692E+04  0.17479013906E+04  0.12699999809E+01 0.  1.
</event>
<event>
 5   0  0.1370997E-07  0.3597987E+04  0.7818609E-02  0.8090953E-01
        1   -1    0    0  501    0  0.00000000000E+00  0.00000000000E+00  0.17259422520E+04  0.17259422520E+04  0.50400001928E-02 0. -1.
       -1   -1    0    0    0  501  0.00000000000E+00  0.00000000000E+00 -0.18751371088E+04  0.18751371088E+04  0.50400001928E-02 0.  1.
    10030    2    1    2    0    0  0.00000000000E+00  0.00000000000E+00 -0.14919485683E+03  0.36010793608E+04  0.35979874176E+04 0.  0.
        3    1    3    3  502    0 -0.16650989368E+04 -0.33350057233E+03  0.51971522651E+03  0.17759169541E+04  0.10100000352E+00 0. -1.
       -3    1    3    3    0  502  0.16650989368E+04  0.33350057233E+03 -0.66891008334E+03  0.18251624067E+04  0.10100000352E+00 0.  1.
</event>
<event>
 5   0  0.4120440E-07  0.3656322E+04  0.7818609E-02  0.8077711E-01
       -2   -1    0    0    0  501  0.00000000000E+00  0.00000000000E+00  0.17893930559E+04  0.17893930559E+04  0.25500000920E-02 0.  1.
        2   -1    0    0  501    0  0.00000000000E+00  0.00000000000E+00 -0.18677686357E+04  0.18677686357E+04  0.25500000920E-02 0. -1.
    10030    2    1    2    0    0  0.00000000000E+00  0.00000000000E+00 -0.78375579828E+02  0.36571616916E+04  0.36563217729E+04 0.  0.
        2    1    3    3  502    0  0.86610312265E+02 -0.13703431553E+04 -0.12464573999E+04  0.18544534934E+04  0.25500000920E-02 0. -1.
       -2    1    3    3    0  502 -0.86610312265E+02  0.13703431553E+04  0.11680818201E+04  0.18027081982E+04  0.25500000920E-02 0.  1.
</event>
<event>
 5   0  0.1298250E-07  0.3578358E+04  0.7818609E-02  0.8095467E-01
        3   -1    0    0  501    0  0.00000000000E+00  0.00000000000E+00  0.13816173000E+04  0.13816173037E+04  0.10100000352E+00 0.  1.
       -3   -1    0    0    0  501  0.00000000000E+00  0.00000000000E+00 -0.23169666432E+04  0.23169666454E+04  0.10100000352E+00 0. -1.
    10030    2    1    2    0    0  0.00000000000E+00  0.00000000000E+00 -0.93534934319E+03  0.36985839490E+04  0.35783578404E+04 0.  0.
        1    1    3    3  502    0 -0.75960861501E+03  0.42342533443E+03 -0.20838159645E+04  0.22580042594E+04  0.50400001928E-02 0. -1.
       -1    1    3    3    0  502  0.75960861501E+03 -0.42342533443E+03  0.11484666213E+04  0.14405796896E+04  0.50400001928E-02 0.  1.
</event>
<event>
 5   0  0.3993751E-07  0.3598492E+04  0.7818609E-02  0.8090837E-01
        2   -1    0    0  501    0  0.00000000000E+00  0.00000000000E+00  0.22585479600E+04  0.22585479600E+04  0.25500000920E-02 0. -1.
       -2   -1    0    0    0  501  0.00000000000E+00  0.00000000000E+00 -0.14333483549E+04  0.14333483549E+04  0.25500000920E-02 0.  1.
    10030    2    1    2    0    0  0.00000000000E+00  0.00000000000E+00  0.82519960501E+03  0.36918963149E+04  0.35984919080E+04 0.  0.
        1    1    3    3  502    0 -0.16720335409E+04 -0.65602599206E+03  0.30392713240E+03  0.18216580266E+04  0.50400001928E-02 0.  1.
       -1    1    3    3    0  502  0.16720335409E+04  0.65602599206E+03  0.52127247261E+03  0.18702382883E+04  0.50400001928E-02 0. -1.
</event>
<event>
 5   0  0.1370997E-07  0.3609282E+04  0.7818609E-02  0.8088369E-01
        1   -1    0    0  501    0  0.00000000000E+00  0.00000000000E+00  0.17548850179E+04  0.17548850179E+04  0.50400001928E-02 0. -1.
       -1   -1    0    0    0  501  0.00000000000E+00  0.00000000000E+00 -0.18558081012E+04  0.18558081012E+04  0.50400001928E-02 0.  1.
    10030    2    1    2    0    0  0.00000000000E+00  0.00000000000E+00 -0.10092308328E+03  0.36106931192E+04  0.36092823846E+04 0.  0.
        3    1    3    3  502    0  0.27560321675E+03 -0.17442272655E+03 -0.18260776580E+04  0.18549771007E+04  0.10100000352E+00 0.  1.
       -3    1    3    3    0  502 -0.27560321675E+03  0.17442272655E+03  0.17251545748E+04  0.17557160185E+04  0.10100000352E+00 0. -1.
</event>
<event>
 5   0  0.3993751E-07  0.3609607E+04  0.7818609E-02  0.8088295E-01
       -2   -1    0    0    0  501  0.00000000000E+00  0.00000000000E+00  0.15459691917E+04  0.15459691917E+04  0.25500000920E-02 0. -1.
        2   -1    0    0  501    0  0.00000000000E+00  0.00000000000E+00 -0.21069727773E+04  0.21069727773E+04  0.25500000920E-02 0.  1.
    10030    2    1    2    0    0  0.00000000000E+00  0.00000000000E+00 -0.56100358558E+03  0.36529419689E+04  0.36096066275E+04 0.  0.
        1    1    3    3  502    0  0.96382842098E+03  0.13966068443E+04  0.34156403679E+03  0.17309367099E+04  0.50400001928E-02 0. -1.
       -1    1    3    3    0  502 -0.96382842098E+03 -0.13966068443E+04 -0.90256762236E+03  0.19220052590E+04  0.50400001928E-02 0.  1.
</event>
<event>
 5   0  0.1298250E-07  0.3600184E+04  0.7818609E-02  0.8090450E-01
       -1   -1    0    0    0  501  0.00000000000E+00  0.00000000000E+00  0.14654129347E+04  0.14654129347E+04  0.50400001928E-02 0.  1.
        1   -1    0    0  501    0  0.00000000000E+00  0.00000000000E+00 -0.22112067301E+04  0.22112067302E+04  0.50400001928E-02 0. -1.
    10030    2    1    2    0    0  0.00000000000E+00  0.00000000000E+00 -0.74579379541E+03  0.36766196649E+04  0.36001838529E+04 0.  0.
        1    1    3    3  502    0  0.71970155704E+03  0.24434198995E+03  0.12935124293E+04  0.15002825547E+04  0.50400001928E-02 0.  1.
       -1    1    3    3    0  502 -0.71970155704E+03 -0.24434198995E+03 -0.20393062247E+04  0.21763371102E+04  0.50400001928E-02 0. -1.
</event>
<event>
 5   0  0.3880259E-07  0.3609049E+04  0.7818609E-02  0.8088422E-01
        2   -1    0    0  501    0  0.00000000000E+00  0.00000000000E+00  0.24837434209E+04  0.24837434209E+04  0.25500000920E-02 0. -1.
       -2   -1    0    0    0  501  0.00000000000E+00  0.00000000000E+00 -0.13110487308E+04  0.13110487308E+04  0.25500000920E-02 0.  1.
    10030    2    1    2    0    0  0.00000000000E+00  0.00000000000E+00  0.11726946901E+04  0.37947921518E+04  0.36090489937E+04 0.  0.
        5    1    3    3  502    0 -0.36106587267E+03  0.38774498520E+03  0.24001099155E+04  0.24578983776E+04  0.46999998093E+01 0. -1.
       -5    1    3    3    0  502  0.36106587267E+03 -0.38774498520E+03 -0.12274152254E+04  0.13368937742E+04  0.46999998093E+01 0.  1.
</event>
<event>
 5   0  0.1298250E-07  0.3603288E+04  0.7818609E-02  0.8089739E-01
       -1   -1    0    0    0  501  0.00000000000E+00  0.00000000000E+00  0.14548075818E+04  0.14548075818E+04  0.50400001928E-02 0. -1.
        1   -1    0    0  501    0  0.00000000000E+00  0.00000000000E+00 -0.22311686294E+04  0.22311686294E+04  0.50400001928E-02 0.  1.
    10030    2    1    2    0    0  0.00000000000E+00  0.00000000000E+00 -0.77636104752E+03  0.36859762112E+04  0.36032879643E+04 0.  0.
        2    1    3    3  502    0  0.25804831851E+03 -0.14882606734E+04 -0.13927614335E+04  0.20545785888E+04  0.25500000920E-02 0.  1.
       -2    1    3    3    0  502 -0.25804831851E+03  0.14882606734E+04  0.61640038596E+03  0.16313976225E+04  0.25500000920E-02 0. -1.
</event>
<event>
 5   0  0.4115358E-07  0.3605268E+04  0.7818609E-02  0.8089286E-01
       -2   -1    0    0    0  501  0.00000000000E+00  0.00000000000E+00  0.16666125377E+04  0.16666125377E+04  0.25500000920E-02 0. -1.
        2   -1    0    0  501    0  0.00000000000E+00  0.00000000000E+00 -0.19497573940E+04  0.19497573940E+04  0.25500000920E-02 0.  1.
    10030    2    1    2    0    0  0.00000000000E+00  0.00000000000E+00 -0.28314485626E+03  0.36163699316E+04  0.36052684329E+04 0.  0.
        3    1    3    3  502    0  0.64013950624E+03  0.16651339688E+04  0.11814643794E+03  0.17878501930E+04  0.10100000352E+00 0.  1.
       -3    1    3    3    0  502 -0.64013950624E+03 -0.16651339688E+04 -0.40129129420E+03  0.18285197386E+04  0.10100000352E+00 0. -1.
</event>
<event>
 5   0  0.4120440E-07  0.3647777E+04  0.7818609E-02  0.8079635E-01
       -2   -1    0    0    0  501  0.00000000000E+00  0.00000000000E+00  0.17062100068E+04  0.17062100068E+04  0.25500000920E-02 0.  1.
        2   -1    0    0  501    0  0.00000000000E+00  0.00000000000E+00 -0.19496828616E+04  0.19496828616E+04  0.25500000920E-02 0. -1.
    10030    2    1    2    0    0  0.00000000000E+00  0.00000000000E+00 -0.24347285477E+03  0.36558928684E+04  0.36477765329E+04 0.  0.
        2    1    3    3  502    0 -0.10386170401E+04  0.13712594411E+04  0.48582242314E+03  0.17874846118E+04  0.25500000920E-02 0.  1.
       -2    1    3    3    0  502  0.10386170401E+04 -0.13712594411E+04 -0.72929527790E+03  0.18684082565E+04  0.25500000920E-02 0. -1.
</event>
<event>
 5   0  0.1298250E-07  0.3597323E+04  0.7818609E-02  0.8091105E-01
       -1   -1    0    0    0  501  0.00000000000E+00  0.00000000000E+00  0.13160765706E+04  0.13160765706E+04  0.50400001928E-02 0. -1.
        1   -1    0    0  501    0  0.00000000000E+00  0.00000000000E+00 -0.24582025743E+04  0.24582025743E+04  0.50400001928E-02 0.  1.
    10030    2    1    2    0    0  0.00000000000E+00  0.00000000000E+00 -0.11421260037E+04  0.37742791449E+04  0.35973227900E+04 0.  0.
        2    1    3    3  502    0  0.13844333942E+04 -0.10723400773E+04 -0.10018882046E+04  0.20175106044E+04  0.25500000920E-02 0.  1.
       -2    1    3    3    0  502 -0.13844333942E+04  0.10723400773E+04 -0.14023779910E+03  0.17567685405E+04  0.25500000920E-02 0. -1.
</event>
<event>
 5   0  0.3880259E-07  0.3600470E+04  0.7818609E-02  0.8090384E-01
       -2   -1    0    0    0  501  0.00000000000E+00  0.00000000000E+00  0.16394222201E+04  0.16394222201E+04  0.25500000920E-02 0.  1.
        2   -1    0    0  501    0  0.00000000000E+00  0.00000000000E+00 -0.19768222757E+04  0.19768222757E+04  0.25500000920E-02 0. -1.
    10030    2    1    2    0    0  0.00000000000E+00  0.00000000000E+00 -0.33740005559E+03  0.36162444958E+04  0.36004701715E+04 0.  0.
        5    1    3    3  502    0 -0.42632264433E+03  0.11309065817E+04 -0.15087581793E+04  0.19331513203E+04  0.46999998093E+01 0. -1.
       -5    1    3    3    0  502  0.42632264433E+03 -0.11309065817E+04  0.11713581237E+04  0.16830931755E+04  0.46999998093E+01 0.  1.
</event>
<event>
 5   0  0.3880259E-07  0.3583612E+04  0.7818609E-02  0.8094256E-01
        2   -1    0    0  501    0  0.00000000000E+00  0.00000000000E+00  0.19523726495E+04  0.19523726495E+04  0.25500000920E-02 0.  1.
       -2   -1    0    0    0  501  0.00000000000E+00  0.00000000000E+00 -0.16444445627E+04  0.16444445627E+04  0.25500000920E-02 0. -1.
    10030    2    1    2    0    0  0.00000000000E+00  0.00000000000E+00  0.30792808686E+03  0.35968172122E+04  0.35836119141E+04 0.  0.
        5    1    3    3  502    0 -0.23017907801E+03 -0.80500430517E+03 -0.14360237080E+04  0.16622877366E+04  0.46999998093E+01 0. -1.
       -5    1    3    3    0  502  0.23017907801E+03  0.80500430517E+03  0.17439517948E+04  0.19345294756E+04  0.46999998093E+01 0.  1.
</event>
<event>
 5   0  0.4115358E-07  0.3554741E+04  0.7818609E-02  0.8100938E-01
       -2   -1    0    0    0  501  0.00000000000E+00  0.00000000000E+00  0.12047185399E+04  0.12047185399E+04  0.25500000920E-02 0.  1.
        2   -1    0    0  501    0  0.00000000000E+00  0.00000000000E+00 -0.26222274272E+04  0.26222274272E+04  0.25500000920E-02 0. -1.
    10030    2    1    2    0    0  0.00000000000E+00  0.00000000000E+00 -0.14175088873E+04  0.38269459672E+04  0.35547410581E+04 0.  0.
        3    1    3    3  502    0  0.33118784582E+03 -0.15037781376E+04 -0.16644306006E+04  0.22674574551E+04  0.10100000352E+00 0. -1.
       -3    1    3    3    0  502 -0.33118784582E+03  0.15037781376E+04  0.24692171331E+03  0.15594885120E+04  0.10100000352E+00 0.  1.
</event>
<event>
 5   0  0.3993751E-07  0.3452340E+04  0.7818609E-02  0.8125178E-01
       -2   -1    0    0    0  501  0.00000000000E+00  0.00000000000E+00  0.91092630986E+03  0.91092630986E+03  0.25500000920E-02 0. -1.
        2   -1    0    0  501    0  0.00000000000E+00  0.00000000000E+00 -0.32710257254E+04  0.32710257254E+04  0.25500000920E-02 0.  1.
    10030    2    1    2    0    0  0.00000000000E+00  0.00000000000E+00 -0.23600994155E+04  0.41819520353E+04  0.34523403039E+04 0.  0.
        1    1    3    3  502    0 -0.91186663011E+03  0.28488026163E+03 -0.29216011406E+04  0.30738267256E+04  0.50400001928E-02 0.  1.
       -1    1    3    3    0  502  0.91186663011E+03 -0.28488026163E+03  0.56150172504E+03  0.11081253096E+04  0.50400001928E-02 0. -1.
</event>
<event>
 5   0  0.1361743E-07  0.3588884E+04  0.7818609E-02  0.8093043E-01
        1   -1    0    0  501    0  0.00000000000E+00  0.00000000000E+00  0.32538821394E+04  0.32538821394E+04  0.50400001928E-02 0.  1.
       -1   -1    0    0    0  501  0.00000000000E+00  0.00000000000E+00 -0.98959401075E+03  0.98959401077E+03  0.50400001928E-02 0. -1.
    10030    2    1    2    0    0  0.00000000000E+00  0.00000000000E+00  0.22642881286E+04  0.42434761502E+04  0.35888841034E+04 0.  0.
        5    1    3    3  502    0 -0.10901273929E+04 -0.49575179233E+03 -0.44795799397E+03  0.12786070650E+04  0.46999998093E+01 0. -1.
       -5    1    3    3    0  502  0.10901273929E+04  0.49575179233E+03  0.27122461226E+04  0.29648690851E+04  0.46999998093E+01 0.  1.
</event>
<event>
 5   0  0.1298250E-07  0.3667514E+04  0.7818609E-02  0.8075199E-01
        1   -1    0    0  501    0  0.00000000000E+00  0.00000000000E+00  0.14039060679E+04  0.14039060680E+04  0.50400001928E-02 0. -1.
       -1   -1    0    0    0  501  0.00000000000E+00  0.00000000000E+00 -0.23952211429E+04  0.23952211430E+04  0.50400001928E-02 0.  1.
    10030    2    1    2    0    0  0.00000000000E+00  0.00000000000E+00 -0.99131507500E+03  0.37991272109E+04  0.36675144153E+04 0.  0.
        1    1    3    3  502    0  0.16110020340E+04 -0.48939653471E+03  0.25693276826E+03  0.17031884714E+04  0.50400001928E-02 0. -1.
       -1    1    3    3    0  502 -0.16110020340E+04  0.48939653471E+03 -0.12482478433E+04  0.20959387395E+04  0.50400001928E-02 0.  1.
</event>
<event>
 5   0  0.4120440E-07  0.3608267E+04  0.7818609E-02  0.8088601E-01
       -2   -1    0    0    0  501  0.00000000000E+00  0.00000000000E+00  0.17420446040E+04  0.17420446040E+04  0.25500000920E-02 0. -1.
        2   -1    0    0  501    0  0.00000000000E+00  0.00000000000E+00 -0.18684355360E+04  0.18684355360E+04  0.25500000920E-02 0.  1.
    10030    2    1    2    0    0  0.00000000000E+00  0.00000000000E+00 -0.12639093202E+03  0.36104801400E+04  0.36082671982E+04 0.  0.
        2    1    3    3  502    0 -0.27143181914E+03  0.28301526402E+03 -0.18252766683E+04  0.18669246872E+04  0.25500000920E-02 0.  1.
       -2    1    3    3    0  502  0.27143181914E+03 -0.28301526402E+03  0.16988857362E+04  0.17435554528E+04  0.25500000920E-02 0. -1.
</event>
<event>
 5   0  0.1298250E-07  0.3595442E+04  0.7818609E-02  0.8091537E-01
        1   -1    0    0  501    0  0.00000000000E+00  0.00000000000E+00  0.24269006494E+04  0.24269006494E+04  0.50400001928E-02 0.  1.
       -1   -1    0    0    0  501  0.00000000000E+00  0.00000000000E+00 -0.13316577824E+04  0.13316577824E+04  0.50400001928E-02 0. -1.
    10030    2    1    2    0    0  0.00000000000E+00  0.00000000000E+00  0.10952428670E+04  0.37585584317E+04  0.35954421907E+04 0.  0.
        2    1    3    3  502    0  0.69346853996E+02  0.16869369136E+04  0.11930764020E+04  0.20673646117E+04  0.25500000920E-02 0.  1.
       -2    1    3    3    0  502 -0.69346853996E+02 -0.16869369136E+04 -0.97833535026E+02  0.16911938201E+04  0.25500000920E-02 0. -1.
</event>
<event>
 5   0  0.3993751E-07  0.3512576E+04  0.7818609E-02  0.8110816E-01
       -2   -1    0    0    0  501  0.00000000000E+00  0.00000000000E+00  0.11684114070E+04  0.11684114070E+04  0.25500000920E-02 0. -1.
        2   -1    0    0  501    0  0.00000000000E+00  0.00000000000E+00 -0.26399496292E+04  0.26399496292E+04  0.25500000920E-02 0.  1.
    10030    2    1    2    0    0  0.00000000000E+00  0.00000000000E+00 -0.14715382222E+04  0.38083610362E+04  0.35125758415E+04 0.  0.
        1    1    3    3  502    0 -0.24846119215E+03 -0.49217109019E+03  0.10721552218E+04  0.12056044814E+04  0.50400001928E-02 0. -1.
       -1    1    3    3    0  502  0.24846119215E+03  0.49217109019E+03 -0.25436934440E+04  0.26027565547E+04  0.50400001928E-02 0.  1.
</event>
<event>
 5   0  0.3880259E-07  0.3604788E+04  0.7818609E-02  0.8089396E-01
        2   -1    0    0  501    0  0.00000000000E+00  0.00000000000E+00  0.18761984772E+04  0.18761984772E+04  0.25500000920E-02 0.  1.
       -2   -1    0    0    0  501  0.00000000000E+00  0.00000000000E+00 -0.17314928829E+04  0.17314928829E+04  0.25500000920E-02 0. -1.
    10030    2    1    2    0    0  0.00000000000E+00  0.00000000000E+00  0.14470559428E+03  0.36076913602E+04  0.36047880993E+04 0.  0.
        5    1    3    3  502    0  0.21297323849E+03 -0.17883007947E+04  0.14469439711E+03  0.18067473236E+04  0.46999998093E+01 0.  1.
       -5    1    3    3    0  502 -0.21297323849E+03  0.17883007947E+04  0.11197175196E-01  0.18009440366E+04  0.46999998093E+01 0. -1.
</event>
<event>
 5   0  0.1361743E-07  0.3632354E+04  0.7818609E-02  0.8083121E-01
       -1   -1    0    0    0  501  0.00000000000E+00  0.00000000000E+00  0.17076647641E+04  0.17076647641E+04  0.50400001928E-02 0.  1.
        1   -1    0    0  501    0  0.00000000000E+00  0.00000000000E+00 -0.19315847599E+04  0.19315847599E+04  0.50400001928E-02 0. -1.
    10030    2    1    2    0    0  0.00000000000E+00  0.00000000000E+00 -0.22391999576E+03  0.36392495240E+04  0.36323541862E+04 0.  0.
        5    1    3    3  502    0  0.10811366136E+04 -0.29815716039E+03  0.13192906028E+04  0.17315611032E+04  0.46999998093E+01 0.  1.
       -5    1    3    3    0  502 -0.10811366136E+04  0.29815716039E+03 -0.15432105986E+04  0.19076884208E+04  0.46999998093E+01 0. -1.
</event>
<event>
 5   0  0.1361743E-07  0.3697777E+04  0.7818609E-02  0.8068455E-01
        1   -1    0    0  501    0  0.00000000000E+00  0.00000000000E+00  0.14928130532E+04  0.14928130532E+04  0.50400001928E-02 0.  1.
       -1   -1    0    0    0  501  0.00000000000E+00  0.00000000000E+00 -0.22898972002E+04  0.22898972002E+04  0.50400001928E-02 0. -1.
    10030    2    1    2    0    0  0.00000000000E+00  0.00000000000E+00 -0.79708414695E+03  0.37827102534E+04  0.36977768624E+04 0.  0.
        5    1    3    3  502    0  0.15196289861E+03 -0.16756873995E+04 -0.11825295878E+04  0.20565552021E+04  0.46999998093E+01 0. -1.
       -5    1    3    3    0  502 -0.15196289861E+03  0.16756873995E+04  0.38544544087E+03  0.17261550513E+04  0.46999998093E+01 0.  1.
</event>
<event>
 5   0  0.3993751E-07  0.3576174E+04  0.7818609E-02  0.8095971E-01
       -2   -1    0    0    0  501  0.00000000000E+00  0.00000000000E+00  0.13840333774E+04  0.13840333774E+04  0.25500000920E-02 0. -1.
        2   -1    0    0  501    0  0.00000000000E+00  0.00000000000E+00 -0.23100991333E+04  0.23100991333E+04  0.25500000920E-02 0.  1.
    10030    2    1    2    0    0  0.00000000000E+00  0.00000000000E+00 -0.92606575592E+03  0.36941325107E+04  0.35761735448E+04 0.  0.
        1    1    3    3  502    0 -0.12409469621E+04 -0.52760772626E+03  0.74998104550E+03  0.15429811548E+04  0.50400001928E-02 0. -1.
       -1    1    3    3    0  502  0.12409469621E+04  0.52760772626E+03 -0.16760468014E+04  0.21511513559E+04  0.50400001928E-02 0.  1.
</event>
<event>
 5   0  0.4200635E-07  0.3577015E+04  0.7818609E-02  0.8095777E-01
        2   -1    0    0  501    0  0.00000000000E+00  0.00000000000E+00  0.23165340495E+04  0.23165340495E+04  0.25500000920E-02 0.  1.
       -2   -1    0    0    0  501  0.00000000000E+00  0.00000000000E+00 -0.13808385054E+04  0.13808385054E+04  0.25500000920E-02 0. -1.
    10030    2    1    2    0    0  0.00000000000E+00  0.00000000000E+00  0.93569554414E+03  0.36973725549E+04  0.35770151885E+04 0.  0.
        4    1    3    3  502    0  0.67344830725E+03 -0.36746795946E+03 -0.12021223298E+04  0.14260662791E+04  0.12699999809E+01 0. -1.
       -4    1    3    3    0  502 -0.67344830725E+03  0.36746795946E+03  0.21378178739E+04  0.22713062758E+04  0.12699999809E+01 0.  1.
</event>
<event>
 5   0  0.1298250E-07  0.3582471E+04  0.7818609E-02  0.8094519E-01
        1   -1    0    0  501    0  0.00000000000E+00  0.00000000000E+00  0.24453021527E+04  0.24453021527E+04  0.50400001928E-02 0. -1.
       -1   -1    0    0    0  501  0.00000000000E+00  0.00000000000E+00 -0.13121179158E+04  0.13121179158E+04  0.50400001928E-02 0.  1.
    10030    2    1    2    0    0  0.00000000000E+00  0.00000000000E+00  0.11331842369E+04  0.37574200685E+04  0.35824710825E+04 0.  0.
        2    1    3    3  502    0 -0.11059226352E+04  0.50661378028E+03  0.19456412254E+04  0.22946115522E+04  0.25500000920E-02 0. -1.
       -2    1    3    3    0  502  0.11059226352E+04 -0.50661378028E+03 -0.81245698847E+03  0.14628085164E+04  0.25500000920E-02 0.  1.
</event>
<event>
 5   0  0.1348226E-07  0.3589514E+04  0.7818609E-02  0.8092898E-01
       -1   -1    0    0    0  501  0.00000000000E+00  0.00000000000E+00  0.16968502309E+04  0.16968502309E+04  0.50400001928E-02 0. -1.
        1   -1    0    0  501    0  0.00000000000E+00  0.00000000000E+00 -0.18983124702E+04  0.18983124702E+04  0.50400001928E-02 0.  1.
    10030    2    1    2    0    0  0.00000000000E+00  0.00000000000E+00 -0.20146223930E+03  0.35951627011E+04  0.35895135901E+04 0.  0.
        4    1    3    3  502    0 -0.14725806855E+04  0.99713842148E+02  0.92200941677E+03  0.17402700087E+04  0.12699999809E+01 0. -1.
       -4    1    3    3    0  502  0.14725806855E+04 -0.99713842148E+02 -0.11234716561E+04  0.18548926925E+04  0.12699999809E+01 0.  1.
</event>
<event>
 5   0  0.4115358E-07  0.3575858E+04  0.7818609E-02  0.8096044E-01
        2   -1    0    0  501    0  0.00000000000E+00  0.00000000000E+00  0.17946898594E+04  0.17946898594E+04  0.25500000920E-02 0.  1.
       -2   -1    0    0    0  501  0.00000000000E+00  0.00000000000E+00 -0.17811939272E+04  0.17811939272E+04  0.25500000920E-02 0. -1.
    10030    2    1    2    0    0  0.00000000000E+00  0.00000000000E+00  0.13495932205E+02  0.35758837865E+04  0.35758583186E+04 0.  0.
        3    1    3    3  502    0 -0.82274588130E+03 -0.63141931214E+03 -0.14496584845E+04  0.17824451926E+04  0.10100000352E+00 0. -1.
       -3    1    3    3    0  502  0.82274588130E+03  0.63141931214E+03  0.14631544167E+04  0.17934385939E+04  0.10100000352E+00 0.  1.
</event>
<event>
 5   0  0.1298250E-07  0.3585273E+04  0.7818609E-02  0.8093873E-01
        1   -1    0    0  501    0  0.00000000000E+00  0.00000000000E+00  0.17344511322E+04  0.17344511322E+04  0.50400001928E-02 0.  1.
       -1   -1    0    0    0  501  0.00000000000E+00  0.00000000000E+00 -0.18527742497E+04  0.18527742497E+04  0.50400001928E-02 0. -1.
    10030    2    1    2    0    0  0.00000000000E+00  0.00000000000E+00 -0.11832311746E+03  0.35872253819E+04  0.35852734317E+04 0.  0.
        1    1    3    3  502    0 -0.62937957289E+03  0.48888653723E+02 -0.17378824096E+04  0.18489845907E+04  0.50400001928E-02 0. -1.
       -1    1    3    3    0  502  0.62937957289E+03 -0.48888653723E+02  0.16195592921E+04  0.17382407911E+04  0.50400001928E-02 0.  1.
</event>
<event>
 5   0  0.3880259E-07  0.3590337E+04  0.7818609E-02  0.8092709E-01
       -2   -1    0    0    0  501  0.00000000000E+00  0.00000000000E+00  0.13755906217E+04  0.13755906217E+04  0.25500000920E-02 0. -1.
        2   -1    0    0  501    0  0.00000000000E+00  0.00000000000E+00 -0.23427248801E+04  0.23427248801E+04  0.25500000920E-02 0.  1.
    10030    2    1    2    0    0  0.00000000000E+00  0.00000000000E+00 -0.96713425844E+03  0.37183155018E+04  0.35903372400E+04 0.  0.
        5    1    3    3  502    0 -0.25862045814E+03 -0.16498256161E+04  0.19854434731E+03  0.16817404831E+04  0.46999998093E+01 0. -1.
       -5    1    3    3    0  502  0.25862045814E+03  0.16498256161E+04 -0.11656786058E+04  0.20365750187E+04  0.46999998093E+01 0.  1.
</event>
<event>
 5   0  0.1298250E-07  0.3601840E+04  0.7818609E-02  0.8090070E-01
        1   -1    0    0  501    0  0.00000000000E+00  0.00000000000E+00  0.10471160708E+04  0.10471160708E+04  0.50400001928E-02 0. -1.
       -1   -1    0    0    0  501  0.00000000000E+00  0.00000000000E+00 -0.30973759066E+04  0.30973759066E+04  0.50400001928E-02 0.  1.
    10030    2    1    2    0    0  0.00000000000E+00  0.00000000000E+00 -0.20502598358E+04  0.41444919774E+04  0.36018395795E+04 0.  0.
        2    1    3    3  502    0  0.47525599884E+03 -0.14394229423E+04 -0.21439981627E+04  0.26257446169E+04  0.25500000920E-02 0.  1.
       -2    1    3    3    0  502 -0.47525599884E+03  0.14394229423E+04  0.93738326913E+02  0.15187473605E+04  0.25500000920E-02 0. -1.
</event>
<event>
 5   0  0.3993751E-07  0.3597365E+04  0.7818609E-02  0.8091095E-01
       -2   -1    0    0    0  501  0.00000000000E+00  0.00000000000E+00  0.16587501420E+04  0.16587501420E+04  0.25500000920E-02 0.  1.
        2   -1    0    0  501    0  0.00000000000E+00  0.00000000000E+00 -0.19504199324E+04  0.19504199324E+04  0.25500000920E-02 0. -1.
    10030    2    1    2    0    0  0.00000000000E+00  0.00000000000E+00 -0.29166979041E+03  0.36091700745E+04  0.35973653359E+04 0.  0.
        1    1    3    3  502    0  0.12390081117E+04  0.20918702913E+03  0.11453845020E+04  0.17002370339E+04  0.50400001928E-02 0.  1.
       -1    1    3    3    0  502 -0.12390081117E+04 -0.20918702913E+03 -0.14370542924E+04  0.19089330406E+04  0.50400001928E-02 0. -1.
</event>
<event>
 5   0  0.4120440E-07  0.3519968E+04  0.7818609E-02  0.8109074E-01
        2   -1    0    0  501    0  0.00000000000E+00  0.00000000000E+00  0.16573930986E+04  0.16573930986E+04  0.25500000920E-02 0.  1.
       -2   -1    0    0    0  501  0.00000000000E+00  0.00000000000E+00 -0.18689250596E+04  0.18689250596E+04  0.25500000920E-02 0. -1.
    10030    2    1    2    0    0  0.00000000000E+00  0.00000000000E+00 -0.21153196106E+03  0.35263181582E+04  0.35199678951E+04 0.  0.
        2    1    3    3  502    0  0.17134344052E+03 -0.26333067997E+03 -0.18406065687E+04  0.18672263286E+04  0.25500000920E-02 0. -1.
       -2    1    3    3    0  502 -0.17134344052E+03  0.26333067997E+03  0.16290746076E+04  0.16590918295E+04  0.25500000920E-02 0.  1.
</event>
<event>
 5   0  0.1348226E-07  0.3627001E+04  0.7818609E-02  0.8084335E-01
       -1   -1    0    0    0  501  0.00000000000E+00  0.00000000000E+00  0.21982600694E+04  0.21982600694E+04  0.50400001928E-02 0.  1.
        1   -1    0    0  501    0  0.00000000000E+00  0.00000000000E+00 -0.14960846849E+04  0.14960846849E+04  0.50400001928E-02 0. -1.
    10030    2    1    2    0    0  0.00000000000E+00  0.00000000000E+00  0.70217538454E+03  0.36943447543E+04  0.36270005367E+04 0.  0.
        4    1    3    3  502    0 -0.15740785875E+04  0.48352871075E+03  0.11249698883E+04  0.19942623389E+04  0.12699999809E+01 0.  1.
       -4    1    3    3    0  502  0.15740785875E+04 -0.48352871075E+03 -0.42279450377E+03  0.17000824154E+04  0.12699999809E+01 0. -1.
</event>
<event>
 5   0  0.4200635E-07  0.3611277E+04  0.7818609E-02  0.8087913E-01
        2   -1    0    0  501    0  0.00000000000E+00  0.00000000000E+00  0.27175856385E+04  0.27175856385E+04  0.25500000920E-02 0.  1.
       -2   -1    0    0    0  501  0.00000000000E+00  0.00000000000E+00 -0.11997160239E+04  0.11997160239E+04  0.25500000920E-02 0. -1.
    10030    2    1    2    0    0  0.00000000000E+00  0.00000000000E+00  0.15178696146E+04  0.39173016624E+04  0.36112773568E+04 0.  0.
        4    1    3    3  502    0 -0.76117625795E+03  0.71122481345E+01 -0.10171579060E+04  0.12704533436E+04  0.12699999809E+01 0. -1.
       -4    1    3    3    0  502  0.76117625795E+03 -0.71122481345E+01  0.25350275205E+04  0.26468483188E+04  0.12699999809E+01 0.  1.
</event>
<event>
 5   0  0.3880259E-07  0.3592958E+04  0.7818609E-02  0.8092107E-01
        2   -1    0    0  501    0  0.00000000000E+00  0.00000000000E+00  0.17337335034E+04  0.17337335034E+04  0.25500000920E-02 0.  1.
       -2   -1    0    0    0  501  0.00000000000E+00  0.00000000000E+00 -0.18614949682E+04  0.18614949682E+04  0.25500000920E-02 0. -1.
    10030    2    1    2    0    0  0.00000000000E+00  0.00000000000E+00 -0.12776146476E+03  0.35952284716E+04  0.35929576634E+04 0.  0.
        5    1    3    3  502    0 -0.15318661433E+04  0.59748445432E+03 -0.78801797604E+03  0.18233474641E+04  0.46999998093E+01 0. -1.
       -5    1    3    3    0  502  0.15318661433E+04 -0.59748445432E+03  0.66025651128E+03  0.17718810075E+04  0.46999998093E+01 0.  1.
</event>
<event>
 5   0  0.1298250E-07  0.3594325E+04  0.7818609E-02  0.8091793E-01
       -1   -1    0    0    0  501  0.00000000000E+00  0.00000000000E+00  0.16577479678E+04  0.16577479678E+04  0.50400001928E-02 0.  1.
        1   -1    0    0  501    0  0.00000000000E+00  0.00000000000E+00 -0.19483018879E+04  0.19483018879E+04  0.50400001928E-02 0. -1.
    10030    2    1    2    0    0  0.00000000000E+00  0.00000000000E+00 -0.29055392012E+03  0.36060498556E+04  0.35943252469E+04 0.  0.
        1    1    3    3  502    0 -0.36763404523E+03 -0.30122127378E+03 -0.18841081047E+04  0.19431295369E+04  0.50400001928E-02 0. -1.
       -1    1    3    3    0  502  0.36763404523E+03  0.30122127378E+03  0.15935541846E+04  0.16629203187E+04  0.50400001928E-02 0.  1.
</event>
<event>
 5   0  0.4200635E-07  0.3622869E+04  0.7818609E-02  0.8085273E-01
        2   -1    0    0  501    0  0.00000000000E+00  0.00000000000E+00  0.23091820213E+04  0.23091820213E+04  0.25500000920E-02 0.  1.
       -2   -1    0    0    0  501  0.00000000000E+00  0.00000000000E+00 -0.14209774948E+04  0.14209774948E+04  0.25500000920E-02 0. -1.
    10030    2    1    2    0    0  0.00000000000E+00  0.00000000000E+00  0.88820452654E+03  0.37301595161E+04  0.36228694063E+04 0.  0.
        4    1    3    3  502    0  0.11357817315E+04 -0.13628696648E+03 -0.10020280374E+04  0.15207353745E+04  0.12699999809E+01 0. -1.
       -4    1    3    3    0  502 -0.11357817315E+04  0.13628696648E+03  0.18902325639E+04  0.22094241416E+04  0.12699999809E+01 0.  1.
</event>
<event>
 5   0  0.1370997E-07  0.3586367E+04  0.7818609E-02  0.8093622E-01
        1   -1    0    0  501    0  0.00000000000E+00  0.00000000000E+00  0.22478900812E+04  0.22478900812E+04  0.50400001928E-02 0.  1.
       -1   -1    0    0    0  501  0.00000000000E+00  0.00000000000E+00 -0.14304552504E+04  0.14304552504E+04  0.50400001928E-02 0. -1.
    10030    2    1    2    0    0  0.00000000000E+00  0.00000000000E+00  0.81743483075E+03  0.36783453316E+04  0.35863665005E+04 0.  0.
        3    1    3    3  502    0 -0.55933020065E+03  0.15008207030E+04  0.12357431225E+04  0.20229617225E+04  0.10100000352E+00 0.  1.
       -3    1    3    3    0  502  0.55933020065E+03 -0.15008207030E+04 -0.41830829170E+03  0.16553836091E+04  0.10100000352E+00 0. -1.
</event>
<event>
 5   0  0.1298250E-07  0.3568797E+04  0.7818609E-02  0.8097677E-01
        1   -1    0    0  501    0  0.00000000000E+00  0.00000000000E+00  0.25808951297E+04  0.25808951297E+04  0.50400001928E-02 0. -1.
       -1   -1    0    0    0  501  0.00000000000E+00  0.00000000000E+00 -0.12337105979E+04  0.12337105980E+04  0.50400001928E-02 0.  1.
    10030    2    1    2    0    0  0.00000000000E+00  0.00000000000E+00  0.13471845318E+04  0.38146057277E+04  0.35687968133E+04 0.  0.
        2    1    3    3  502    0 -0.96332950257E+03  0.94603911981E+03 -0.57341874093E+03  0.14669024505E+04  0.25500000920E-02 0.  1.
       -2    1    3    3    0  502  0.96332950257E+03 -0.94603911981E+03  0.19206032727E+04  0.23477032772E+04  0.25500000920E-02 0. -1.
</event>
<event>
 5   0  0.1298250E-07  0.3613828E+04  0.7818609E-02  0.8087332E-01
       -1   -1    0    0    0  501  0.00000000000E+00  0.00000000000E+00  0.18882242608E+04  0.18882242608E+04  0.50400001928E-02 0.  1.
        1   -1    0    0  501    0  0.00000000000E+00  0.00000000000E+00 -0.17291050546E+04  0.17291050546E+04  0.50400001928E-02 0. -1.
    10030    2    1    2    0    0  0.00000000000E+00  0.00000000000E+00  0.15911920625E+03  0.36173293154E+04  0.36138279503E+04 0.  0.
        2    1    3    3  502    0 -0.26142347460E+03  0.37250808929E+03 -0.16708008801E+04  0.17316697406E+04  0.25500000920E-02 0. -1.
       -2    1    3    3    0  502  0.26142347460E+03 -0.37250808929E+03  0.18299200863E+04  0.18856595748E+04  0.25500000920E-02 0.  1.
</event>
<event>
 5   0  0.1298250E-07  0.3240461E+04  0.7818609E-02  0.8178213E-01
        1   -1    0    0  501    0  0.00000000000E+00  0.00000000000E+00  0.18132425992E+04  0.18132425992E+04  0.50400001928E-02 0. -1.
       -1   -1    0    0    0  501  0.00000000000E+00  0.00000000000E+00 -0.14477635124E+04  0.14477635125E+04  0.50400001928E-02 0.  1.
    10030    2    1    2    0    0  0.00000000000E+00  0.00000000000E+00  0.36547908675E+03  0.32610061117E+04  0.32404607539E+04 0.  0.
        1    1    3    3  502    0  0.11970448206E+04  0.98905597270E+03  0.64827221474E+03  0.16826778908E+04  0.50400001928E-02 0.  1.
       -1    1    3    3    0  502 -0.11970448206E+04 -0.98905597270E+03 -0.28279312800E+03  0.15783282209E+04  0.50400001928E-02 0. -1.
</event>
<event>
 5   0  0.1361743E-07  0.3626349E+04  0.7818609E-02  0.8084483E-01
       -1   -1    0    0    0  501  0.00000000000E+00  0.00000000000E+00  0.14849097950E+04  0.14849097950E+04  0.50400001928E-02 0. -1.
        1   -1    0    0  501    0  0.00000000000E+00  0.00000000000E+00 -0.22140075487E+04  0.22140075487E+04  0.50400001928E-02 0.  1.
    10030    2    1    2    0    0  0.00000000000E+00  0.00000000000E+00 -0.72909775369E+03  0.36989173437E+04  0.36263488499E+04 0.  0.
        5    1    3    3  502    0 -0.48846457543E+03 -0.17068226390E+04 -0.74034834199E+03  0.19235329267E+04  0.46999998093E+01 0.  1.
       -5    1    3    3    0  502  0.48846457543E+03  0.17068226390E+04  0.11250588304E+02  0.17753844171E+04  0.46999998093E+01 0. -1.
</event>
<event>
 5   0  0.1298250E-07  0.3600080E+04  0.7818609E-02  0.8090473E-01
        1   -1    0    0  501    0  0.00000000000E+00  0.00000000000E+00  0.18094169712E+04  0.18094169712E+04  0.50400001928E-02 0. -1.
       -1   -1    0    0    0  501  0.00000000000E+00  0.00000000000E+00 -0.17907115507E+04  0.17907115507E+04  0.50400001928E-02 0.  1.
    10030    2    1    2    0    0  0.00000000000E+00  0.00000000000E+00  0.18705420531E+02  0.36001285219E+04  0.36000799270E+04 0.  0.
        2    1    3    3  502    0  0.65072049686E+03  0.10416012734E+04 -0.13066337048E+04  0.17932267052E+04  0.25500000920E-02 0.  1.
       -2    1    3    3    0  502 -0.65072049686E+03 -0.10416012734E+04  0.13253391254E+04  0.18069018166E+04  0.25500000920E-02 0. -1.
</event>
<event>
 5   0  0.4200635E-07  0.3587727E+04  0.7818609E-02  0.8093309E-01
       -2   -1    0    0    0  501  0.00000000000E+00  0.00000000000E+00  0.11223451042E+04  0.11223451042E+04  0.25500000920E-02 0. -1.
        2   -1    0    0  501    0  0.00000000000E+00  0.00000000000E+00 -0.28671627353E+04  0.28671627353E+04  0.25500000920E-02 0.  1.
    10030    2    1    2    0    0  0.00000000000E+00  0.00000000000E+00 -0.17448176312E+04  0.39895078395E+04  0.35877268897E+04 0.  0.
        4    1    3    3  502    0  0.64163248504E+03 -0.15144793390E+04 -0.76265656210E+02  0.16465594363E+04  0.12699999809E+01 0. -1.
       -4    1    3    3    0  502 -0.64163248504E+03  0.15144793390E+04 -0.16685519750E+04  0.23429484032E+04  0.12699999809E+01 0.  1.
</event>
<event>
 5   0  0.4200635E-07  0.3603600E+04  0.7818609E-02  0.8089668E-01
       -2   -1    0    0    0  501  0.00000000000E+00  0.00000000000E+00  0.18188179857E+04  0.18188179857E+04  0.25500000920E-02 0. -1.
        2   -1    0    0  501    0  0.00000000000E+00  0.00000000000E+00 -0.17849409900E+04  0.17849409900E+04  0.25500000920E-02 0.  1.
    10030    2    1    2    0    0  0.00000000000E+00  0.00000000000E+00  0.33876995649E+02  0.36037589757E+04  0.36035997425E+04 0.  0.
        4    1    3    3  502    0  0.10972028707E+04 -0.43115224767E+03 -0.13457422625E+04  0.17890696605E+04  0.12699999809E+01 0.  1.
       -4    1    3    3    0  502 -0.10972028707E+04  0.43115224767E+03  0.13796192582E+04  0.18146893152E+04  0.12699999809E+01 0. -1.
</event>
<event>
 5   0  0.3993751E-07  0.3591820E+04  0.7818609E-02  0.8092368E-01
       -2   -1    0    0    0  501  0.00000000000E+00  0.00000000000E+00  0.13447558421E+04  0.13447558421E+04  0.25500000920E-02 0. -1.
        2   -1    0    0  501    0  0.00000000000E+00  0.00000000000E+00 -0.23984225459E+04  0.23984225459E+04  0.25500000920E-02 0.  1.
    10030    2    1    2    0    0  0.00000000000E+00  0.00000000000E+00 -0.10536667038E+04  0.37431783879E+04  0.35918200012E+04 0.  0.
        1    1    3    3  502    0 -0.14257153378E+04  0.81135435735E+01 -0.16648970402E+04  0.21919425651E+04  0.50400001928E-02 0.  1.
       -1    1    3    3    0  502  0.14257153378E+04 -0.81135435735E+01  0.61123033644E+03  0.15512358229E+04  0.50400001928E-02 0. -1.
</event>
<event>
 5   0  0.1348226E-07  0.3601252E+04  0.7818609E-02  0.8090205E-01
       -1   -1    0    0    0  501  0.00000000000E+00  0.00000000000E+00  0.15505985816E+04  0.15505985816E+04  0.50400001928E-02 0. -1.
        1   -1    0    0  501    0  0.00000000000E+00  0.00000000000E+00 -0.20909694527E+04  0.20909694527E+04  0.50400001928E-02 0.  1.
    10030    2    1    2    0    0  0.00000000000E+00  0.00000000000E+00 -0.54037087110E+03  0.36415680343E+04  0.36012521531E+04 0.  0.
        4    1    3    3  502    0  0.13870732031E+04 -0.79496834700E+03  0.56752469408E+03  0.16964765353E+04  0.12699999809E+01 0. -1.
       -4    1    3    3    0  502 -0.13870732031E+04  0.79496834700E+03 -0.11078955652E+04  0.19450914991E+04  0.12699999809E+01 0.  1.
</event>
<event>
 5   0  0.1348226E-07  0.3601544E+04  0.7818609E-02  0.8090138E-01
        1   -1    0    0  501    0  0.00000000000E+00  0.00000000000E+00  0.15807950250E+04  0.15807950250E+04  0.50400001928E-02 0. -1.
       -1   -1    0    0    0  501  0.00000000000E+00  0.00000000000E+00 -0.20513597350E+04  0.20513597350E+04  0.50400001928E-02 0.  1.
    10030    2    1    2    0    0  0.00000000000E+00  0.00000000000E+00 -0.47056470998E+03  0.36321547599E+04  0.36015437043E+04 0.  0.
        4    1    3    3  502    0 -0.37202053085E+03  0.11826102325E+04 -0.15524503316E+04  0.19867234036E+04  0.12699999809E+01 0.  1.
       -4    1    3    3    0  502  0.37202053085E+03 -0.11826102325E+04  0.10818856216E+04  0.16454313564E+04  0.12699999809E+01 0. -1.
</event>
<event>
 5   0  0.3880259E-07  0.3614003E+04  0.7818609E-02  0.8087292E-01
        2   -1    0    0  501    0  0.00000000000E+00  0.00000000000E+00  0.89455263039E+03  0.89455263040E+03  0.25500000920E-02 0.  1.
       -2   -1    0    0    0  501  0.00000000000E+00  0.00000000000E+00 -0.36501544181E+04  0.36501544181E+04  0.25500000920E-02 0. -1.
    10030    2    1    2    0    0  0.00000000000E+00  0.00000000000E+00 -0.27556017877E+04  0.45447070485E+04  0.36140034511E+04 0.  0.
        5    1    3    3  502    0  0.61714224115E+03 -0.12565407693E+03 -0.35076595718E+04  0.35637552181E+04  0.46999998093E+01 0. -1.
       -5    1    3    3    0  502 -0.61714224115E+03  0.12565407693E+03  0.75205778412E+03  0.98095183037E+03  0.46999998093E+01 0.  1.
</event>
<event>
 5   0  0.1361743E-07  0.3589858E+04  0.7818609E-02  0.8092819E-01
        1   -1    0    0  501    0  0.00000000000E+00  0.00000000000E+00  0.27620873439E+04  0.27620873439E+04  0.50400001928E-02 0. -1.
       -1   -1    0    0    0  501  0.00000000000E+00  0.00000000000E+00 -0.11664261451E+04  0.11664261451E+04  0.50400001928E-02 0.  1.
    10030    2    1    2    0    0  0.00000000000E+00  0.00000000000E+00  0.15956611988E+04  0.39285134891E+04  0.35898584335E+04 0.  0.
        5    1    3    3  502    0  0.52123268008E+03 -0.90076116789E+03 -0.80255750328E+03  0.13142202344E+04  0.46999998093E+01 0. -1.
       -5    1    3    3    0  502 -0.52123268008E+03  0.90076116789E+03  0.23982187021E+04  0.26142932547E+04  0.46999998093E+01 0.  1.
</event>
<event>
 5   0  0.1298250E-07  0.3607154E+04  0.7818609E-02  0.8088855E-01
        3   -1    0    0  501    0  0.00000000000E+00  0.00000000000E+00  0.15703956668E+04  0.15703956701E+04  0.10100000352E+00 0. -1.
       -3   -1    0    0    0  501  0.00000000000E+00  0.00000000000E+00 -0.20713824634E+04  0.20713824659E+04  0.10100000352E+00 0.  1.
    10030    2    1    2    0    0  0.00000000000E+00  0.00000000000E+00 -0.50098679658E+03  0.36417781359E+04  0.36071540334E+04 0.  0.
        1    1    3    3  502    0  0.17966792578E+04  0.27867897370E+02 -0.40708564426E+03  0.18424309205E+04  0.50400001928E-02 0. -1.
       -1    1    3    3    0  502 -0.17966792578E+04 -0.27867897370E+02 -0.93901152327E+02  0.17993472154E+04  0.50400001928E-02 0.  1.
</event>
<event>
 5   0  0.4120440E-07  0.3649660E+04  0.7818609E-02  0.8079210E-01
        2   -1    0    0  501    0  0.00000000000E+00  0.00000000000E+00  0.19230352197E+04  0.19230352197E+04  0.25500000920E-02 0.  1.
       -2   -1    0    0    0  501  0.00000000000E+00  0.00000000000E+00 -0.17316398924E+04  0.17316398924E+04  0.25500000920E-02 0. -1.
    10030    2    1    2    0    0  0.00000000000E+00  0.00000000000E+00  0.19139532729E+03  0.36546751121E+04  0.36496599847E+04 0.  0.
        2    1    3    3  502    0  0.16687610568E+04  0.62697969014E+03 -0.29488639498E+03  0.18068826698E+04  0.25500000920E-02 0. -1.
       -2    1    3    3    0  502 -0.16687610568E+04 -0.62697969014E+03  0.48628172228E+03  0.18477924423E+04  0.25500000920E-02 0.  1.
</event>
<event>
 5   0  0.1370997E-07  0.3586117E+04  0.7818609E-02  0.8093679E-01
       -1   -1    0    0    0  501  0.00000000000E+00  0.00000000000E+00  0.13081384055E+04  0.13081384055E+04  0.50400001928E-02 0. -1.
        1   -1    0    0  501    0  0.00000000000E+00  0.00000000000E+00 -0.24577360828E+04  0.24577360828E+04  0.50400001928E-02 0.  1.
    10030    2    1    2    0    0  0.00000000000E+00  0.00000000000E+00 -0.11495976773E+04  0.37658744883E+04  0.35861170982E+04 0.  0.
        3    1    3    3  502    0 -0.10959266769E+04 -0.11902786545E+04  0.23675243084E+03  0.16351973215E+04  0.10100000352E+00 0. -1.
       -3    1    3    3    0  502  0.10959266769E+04  0.11902786545E+04 -0.13863501082E+04  0.21306771668E+04  0.10100000352E+00 0.  1.
</event>
<event>
 5   0  0.4115358E-07  0.3518407E+04  0.7818609E-02  0.8109441E-01
       -2   -1    0    0    0  501  0.00000000000E+00  0.00000000000E+00  0.23959350338E+04  0.23959350338E+04  0.25500000920E-02 0.  1.
        2   -1    0    0  501    0  0.00000000000E+00  0.00000000000E+00 -0.12916866131E+04  0.12916866131E+04  0.25500000920E-02 0. -1.
    10030    2    1    2    0    0  0.00000000000E+00  0.00000000000E+00  0.11042484207E+04  0.36876216468E+04  0.35184071447E+04 0.  0.
        3    1    3    3  502    0 -0.87874324113E+03 -0.42826907741E+03 -0.98081614561E+03  0.13847759415E+04  0.10100000352E+00 0. -1.
       -3    1    3    3    0  502  0.87874324113E+03  0.42826907741E+03  0.20850645663E+04  0.23028457053E+04  0.10100000352E+00 0.  1.
</event>
<event>
 5   0  0.4200635E-07  0.3590600E+04  0.7818609E-02  0.8092648E-01
        2   -1    0    0  501    0  0.00000000000E+00  0.00000000000E+00  0.17293353666E+04  0.17293353666E+04  0.25500000920E-02 0. -1.
       -2   -1    0    0    0  501  0.00000000000E+00  0.00000000000E+00 -0.18637813025E+04  0.18637813025E+04  0.25500000920E-02 0.  1.
    10030    2    1    2    0    0  0.00000000000E+00  0.00000000000E+00 -0.13444593592E+03  0.35931166691E+04  0.35906004634E+04 0.  0.
        4    1    3    3  502    0  0.31079874612E+03  0.27348342307E+03 -0.18153622348E+04  0.18619695754E+04  0.12699999809E+01 0.  1.
       -4    1    3    3    0  502 -0.31079874612E+03 -0.27348342307E+03  0.16809162989E+04  0.17311470937E+04  0.12699999809E+01 0. -1.
</event>
<event>
 5   0  0.4200635E-07  0.3593503E+04  0.7818609E-02  0.8091982E-01
       -2   -1    0    0    0  501  0.00000000000E+00  0.00000000000E+00  0.14992391873E+04  0.14992391873E+04  0.25500000920E-02 0. -1.
        2   -1    0    0  501    0  0.00000000000E+00  0.00000000000E+00 -0.21533024183E+04  0.21533024183E+04  0.25500000920E-02 0.  1.
    10030    2    1    2    0    0  0.00000000000E+00  0.00000000000E+00 -0.65406323096E+03  0.36525416056E+04  0.35935026743E+04 0.  0.
        4    1    3    3  502    0 -0.16021221063E+04  0.78503141551E+03 -0.54323306314E+03  0.18649861502E+04  0.12699999809E+01 0.  1.
       -4    1    3    3    0  502  0.16021221063E+04 -0.78503141551E+03 -0.11083016782E+03  0.17875554553E+04  0.12699999809E+01 0. -1.
</event>
<event>
 5   0  0.1298250E-07  0.3611295E+04  0.7818609E-02  0.8087909E-01
        1   -1    0    0  501    0  0.00000000000E+00  0.00000000000E+00  0.18775964115E+04  0.18775964115E+04  0.50400001928E-02 0. -1.
       -1   -1    0    0    0  501  0.00000000000E+00  0.00000000000E+00 -0.17364561059E+04  0.17364561059E+04  0.50400001928E-02 0.  1.
    10030    2    1    2    0    0  0.00000000000E+00  0.00000000000E+00  0.14114030562E+03  0.36140525174E+04  0.36112954757E+04 0.  0.
        2    1    3    3  502    0  0.16604928643E+04 -0.26969760933E+03 -0.58597216412E+03  0.17813861821E+04  0.25500000920E-02 0.  1.
       -2    1    3    3    0  502 -0.16604928643E+04  0.26969760933E+03  0.72711246974E+03  0.18326663353E+04  0.25500000920E-02 0. -1.
</event>
<event>
 5   0  0.3993751E-07  0.3544744E+04  0.7818609E-02  0.8103267E-01
       -2   -1    0    0    0  501  0.00000000000E+00  0.00000000000E+00  0.10816145476E+04  0.10816145476E+04  0.25500000920E-02 0. -1.
        2   -1    0    0  501    0  0.00000000000E+00  0.00000000000E+00 -0.29042722563E+04  0.29042722563E+04  0.25500000920E-02 0.  1.
    10030    2    1    2    0    0  0.00000000000E+00  0.00000000000E+00 -0.18226577087E+04  0.39858868039E+04  0.35447443477E+04 0.  0.
        1    1    3    3  502    0  0.73185917489E+03  0.15971142227E+04 -0.64783443553E+03  0.18724532432E+04  0.50400001928E-02 0. -1.
       -1    1    3    3    0  502 -0.73185917489E+03 -0.15971142227E+04 -0.11748232732E+04  0.21134335607E+04  0.50400001928E-02 0.  1.
</event>
<event>
 5   0  0.1298250E-07  0.3561989E+04  0.7818609E-02  0.8099254E-01
       -1   -1    0    0    0  501  0.00000000000E+00  0.00000000000E+00  0.19542053393E+04  0.19542053393E+04  0.50400001928E-02 0.  1.
        1   -1    0    0  501    0  0.00000000000E+00  0.00000000000E+00 -0.16231362667E+04  0.16231362667E+04  0.50400001928E-02 0. -1.
    10030    2    1    2    0    0  0.00000000000E+00  0.00000000000E+00  0.33106907254E+03  0.35773416060E+04  0.35619890841E+04 0.  0.
        1    1    3    3  502    0  0.61308128848E+02  0.15684136195E+04 -0.67967555662E+03  0.17104498914E+04  0.50400001928E-02 0. -1.
       -1    1    3    3    0  502 -0.61308128848E+02 -0.15684136195E+04  0.10107446292E+04  0.18668917146E+04  0.50400001928E-02 0.  1.
</event>
<event>
 5   0  0.1361743E-07  0.3569450E+04  0.7818609E-02  0.8097526E-01
        1   -1    0    0  501    0  0.00000000000E+00  0.00000000000E+00  0.26725187230E+04  0.26725187230E+04  0.50400001928E-02 0. -1.
       -1   -1    0    0    0  501  0.00000000000E+00  0.00000000000E+00 -0.11918508545E+04  0.11918508545E+04  0.50400001928E-02 0.  1.
    10030    2    1    2    0    0  0.00000000000E+00  0.00000000000E+00  0.14806678685E+04  0.38643695776E+04  0.35694502231E+04 0.  0.
        5    1    3    3  502    0  0.64221052765E+03  0.12307484409E+04 -0.47396470106E+03  0.14669153740E+04  0.46999998093E+01 0.  1.
       -5    1    3    3    0  502 -0.64221052765E+03 -0.12307484409E+04  0.19546325696E+04  0.23974542036E+04  0.46999998093E+01 0. -1.
</event>
<event>
 5   0  0.3993751E-07  0.3670257E+04  0.7818609E-02  0.8074585E-01
        2   -1    0    0  501    0  0.00000000000E+00  0.00000000000E+00  0.25915253025E+04  0.25915253025E+04  0.25500000920E-02 0.  1.
       -2   -1    0    0    0  501  0.00000000000E+00  0.00000000000E+00 -0.12995033372E+04  0.12995033372E+04  0.25500000920E-02 0. -1.
    10030    2    1    2    0    0  0.00000000000E+00  0.00000000000E+00  0.12920219653E+04  0.38910286398E+04  0.36702565464E+04 0.  0.
        1    1    3    3  502    0 -0.12773368220E+04  0.50384700131E+03  0.19367188197E+04  0.23740958161E+04  0.50400001928E-02 0.  1.
       -1    1    3    3    0  502  0.12773368220E+04 -0.50384700131E+03 -0.64469685438E+03  0.15169328237E+04  0.50400001928E-02 0. -1.
</event>
<event>
 5   0  0.1361743E-07  0.3576996E+04  0.7818609E-02  0.8095781E-01
       -1   -1    0    0    0  501  0.00000000000E+00  0.00000000000E+00  0.12584239404E+04  0.12584239404E+04  0.50400001928E-02 0.  1.
        1   -1    0    0  501    0  0.00000000000E+00  0.00000000000E+00 -0.25418505120E+04  0.25418505120E+04  0.50400001928E-02 0. -1.
    10030    2    1    2    0    0  0.00000000000E+00  0.00000000000E+00 -0.12834265716E+04  0.38002744524E+04  0.35769962467E+04 0.  0.
        5    1    3    3  502    0  0.44944605021E+03 -0.86494553050E+02 -0.24785706996E+04  0.25204796890E+04  0.46999998093E+01 0. -1.
       -5    1    3    3    0  502 -0.44944605021E+03  0.86494553050E+02  0.11951441280E+04  0.12797947634E+04  0.46999998093E+01 0.  1.
</event>
<event>
 5   0  0.1370997E-07  0.3610901E+04  0.7818609E-02  0.8087999E-01
        1   -1    0    0  501    0  0.00000000000E+00  0.00000000000E+00  0.12251339634E+04  0.12251339634E+04  0.50400001928E-02 0.  1.
       -1   -1    0    0    0  501  0.00000000000E+00  0.00000000000E+00 -0.26606496783E+04  0.26606496783E+04  0.50400001928E-02 0. -1.
    10030    2    1    2    0    0  0.00000000000E+00  0.00000000000E+00 -0.14355157149E+04  0.38857836418E+04  0.36109014308E+04 0.  0.
        3    1    3    3  502    0 -0.14150436059E+04 -0.55156810064E+03  0.33281666090E+03  0.15547806007E+04  0.10100000352E+00 0.  1.
       -3    1    3    3    0  502  0.14150436059E+04  0.55156810064E+03 -0.17683323758E+04  0.23310030411E+04  0.10100000352E+00 0. -1.
</event>
<event>
 5   0  0.1348226E-07  0.3601199E+04  0.7818609E-02  0.8090217E-01
        1   -1    0    0  501    0  0.00000000000E+00  0.00000000000E+00  0.17927455265E+04  0.17927455265E+04  0.50400001928E-02 0. -1.
       -1   -1    0    0    0  501  0.00000000000E+00  0.00000000000E+00 -0.18084877012E+04  0.18084877012E+04  0.50400001928E-02 0.  1.
    10030    2    1    2    0    0  0.00000000000E+00  0.00000000000E+00 -0.15742174748E+02  0.36012332277E+04  0.36011988204E+04 0.  0.
        4    1    3    3  502    0  0.31343461319E+03  0.14969171516E+04  0.94248235529E+03  0.17964623064E+04  0.12699999809E+01 0. -1.
       -4    1    3    3    0  502 -0.31343461319E+03 -0.14969171516E+04 -0.95822453004E+03  0.18047709213E+04  0.12699999809E+01 0.  1.
</event>
<event>
 5   0  0.3880259E-07  0.3632414E+04  0.7818609E-02  0.8083107E-01
        2   -1    0    0  501    0  0.00000000000E+00  0.00000000000E+00  0.11468471129E+04  0.11468471129E+04  0.25500000920E-02 0. -1.
       -2   -1    0    0    0  501  0.00000000000E+00  0.00000000000E+00 -0.28762401500E+04  0.28762401500E+04  0.25500000920E-02 0.  1.
    10030    2    1    2    0    0  0.00000000000E+00  0.00000000000E+00 -0.17293930371E+04  0.40230872629E+04  0.36324139148E+04 0.  0.
        5    1    3    3  502    0 -0.24804974167E+03  0.12283235808E+04  0.59133554602E+03  0.13856432844E+04  0.46999998093E+01 0. -1.
       -5    1    3    3    0  502  0.24804974167E+03 -0.12283235808E+04 -0.23207285831E+04  0.26374439785E+04  0.46999998093E+01 0.  1.
</event>
<event>
 5   0  0.3993751E-07  0.3601642E+04  0.7818609E-02  0.8090116E-01
       -2   -1    0    0    0  501  0.00000000000E+00  0.00000000000E+00  0.15852997055E+04  0.15852997055E+04  0.25500000920E-02 0.  1.
        2   -1    0    0  501    0  0.00000000000E+00  0.00000000000E+00 -0.20456421030E+04  0.20456421030E+04  0.25500000920E-02 0. -1.
    10030    2    1    2    0    0  0.00000000000E+00  0.00000000000E+00 -0.46034239749E+03  0.36309418085E+04  0.36016417498E+04 0.  0.
        1    1    3    3  502    0  0.18434989690E+03 -0.96033884684E+03  0.12943213095E+04  0.16221908758E+04  0.50400001928E-02 0. -1.
       -1    1    3    3    0  502 -0.18434989690E+03  0.96033884684E+03 -0.17546637070E+04  0.20087509327E+04  0.50400001928E-02 0.  1.
</event>
<event>
 5   0  0.1298250E-07  0.3572442E+04  0.7818609E-02  0.8096833E-01
        1   -1    0    0  501    0  0.00000000000E+00  0.00000000000E+00  0.18989983451E+04  0.18989983451E+04  0.50400001928E-02 0.  1.
       -1   -1    0    0    0  501  0.00000000000E+00  0.00000000000E+00 -0.16801414606E+04  0.16801414607E+04  0.50400001928E-02 0. -1.
    10030    2    1    2    0    0  0.00000000000E+00  0.00000000000E+00  0.21885688442E+03  0.35791398057E+04  0.35724422197E+04 0.  0.
        2    1    3    3  502    0 -0.47398176193E+03  0.12412416712E+04  0.13055034174E+04  0.18627073763E+04  0.25500000920E-02 0.  1.
       -2    1    3    3    0  502  0.47398176193E+03 -0.12412416712E+04 -0.10866465330E+04  0.17164324294E+04  0.25500000920E-02 0. -1.
</event>
<event>
 5   0  0.1361743E-07  0.3202980E+04  0.7818609E-02  0.8188031E-01
       -1   -1    0    0    0  501  0.00000000000E+00  0.00000000000E+00  0.13045203924E+04  0.13045203924E+04  0.50400001928E-02 0.  1.
        1   -1    0    0  501    0  0.00000000000E+00  0.00000000000E+00 -0.19660635720E+04  0.19660635720E+04  0.50400001928E-02 0. -1.
    10030    2    1    2    0    0  0.00000000000E+00  0.00000000000E+00 -0.66154317959E+03  0.32705839644E+04  0.32029798766E+04 0.  0.
        5    1    3    3  502    0  0.13318383423E+04 -0.78689184102E+03  0.92410023474E+02  0.15496947577E+04  0.46999998093E+01 0.  1.
       -5    1    3    3    0  502 -0.13318383423E+04  0.78689184102E+03 -0.75395320307E+03  0.17208892067E+04  0.46999998093E+01 0. -1.
</event>
<event>
 5   0  0.4115358E-07  0.3598574E+04  0.7818609E-02  0.8090818E-01
       -2   -1    0    0    0  501  0.00000000000E+00  0.00000000000E+00  0.27105193939E+04  0.27105193939E+04  0.25500000920E-02 0.  1.
        2   -1    0    0  501    0  0.00000000000E+00  0.00000000000E+00 -0.11943962838E+04  0.11943962838E+04  0.25500000920E-02 0. -1.
    10030    2    1    2    0    0  0.00000000000E+00  0.00000000000E+00  0.15161231100E+04  0.39049156777E+04  0.35985743240E+04 0.  0.
        3    1    3    3  502    0  0.11051357676E+03  0.10320500843E+04 -0.83677974562E+03  0.13332445312E+04  0.10100000352E+00 0. -1.
       -3    1    3    3    0  502 -0.11051357676E+03 -0.10320500843E+04  0.23529028556E+04  0.25716711465E+04  0.10100000352E+00 0.  1.
</event>
<event>
 5   0  0.3993751E-07  0.3591053E+04  0.7818609E-02  0.8092544E-01
       -2   -1    0    0    0  501  0.00000000000E+00  0.00000000000E+00  0.34419601190E+04  0.34419601190E+04  0.25500000920E-02 0. -1.
        2   -1    0    0  501    0  0.00000000000E+00  0.00000000000E+00 -0.93665120427E+03  0.93665120428E+03  0.25500000920E-02 0.  1.
    10030    2    1    2    0    0  0.00000000000E+00  0.00000000000E+00  0.25053089148E+04  0.43786113233E+04  0.35910533778E+04 0.  0.
        1    1    3    3  502    0 -0.15088048555E+04  0.95319746100E+03  0.10123585844E+04  0.20518156338E+04  0.50400001928E-02 0.  1.
       -1    1    3    3    0  502  0.15088048555E+04 -0.95319746100E+03  0.14929503303E+04  0.23267956895E+04  0.50400001928E-02 0. -1.
</event>
<event>
 5   0  0.1298250E-07  0.3613477E+04  0.7818609E-02  0.8087412E-01
       -3   -1    0    0    0  501  0.00000000000E+00  0.00000000000E+00  0.12509369017E+04  0.12509369057E+04  0.10100000352E+00 0. -1.
        3   -1    0    0  501    0  0.00000000000E+00  0.00000000000E+00 -0.26094868765E+04  0.26094868785E+04  0.10100000352E+00 0.  1.
    10030    2    1    2    0    0  0.00000000000E+00  0.00000000000E+00 -0.13585499749E+04  0.38604237842E+04  0.36134766859E+04 0.  0.
        5    1    3    3  502    0  0.80204696963E+03 -0.30430042822E+03  0.10194884156E+04  0.13323876356E+04  0.46999998093E+01 0. -1.
       -5    1    3    3    0  502 -0.80204696963E+03  0.30430042822E+03 -0.23780383905E+04  0.25280361486E+04  0.46999998093E+01 0.  1.
</event>
<event>
 5   0  0.1298250E-07  0.3573182E+04  0.7818609E-02  0.8096663E-01
        1   -1    0    0  501    0  0.00000000000E+00  0.00000000000E+00  0.18563077013E+04  0.18563077013E+04  0.50400001928E-02 0. -1.
       -1   -1    0    0    0  501  0.00000000000E+00  0.00000000000E+00 -0.17194922206E+04  0.17194922207E+04  0.50400001928E-02 0.  1.
    10030    2    1    2    0    0  0.00000000000E+00  0.00000000000E+00  0.13681548065E+03  0.35757999220E+04  0.35731815803E+04 0.  0.
        2    1    3    3  502    0 -0.14567266205E+04  0.48944925869E+03  0.98027994195E+03  0.18227895623E+04  0.25500000920E-02 0. -1.
       -2    1    3    3    0  502  0.14567266205E+04 -0.48944925869E+03 -0.84346446130E+03  0.17530103597E+04  0.25500000920E-02 0.  1.
</event>
<event>
 5   0  0.1361743E-07  0.3600674E+04  0.7818609E-02  0.8090337E-01
       -1   -1    0    0    0  501  0.00000000000E+00  0.00000000000E+00  0.11156889018E+04  0.11156889018E+04  0.50400001928E-02 0.  1.
        1   -1    0    0  501    0  0.00000000000E+00  0.00000000000E+00 -0.29051229568E+04  0.29051229568E+04  0.50400001928E-02 0. -1.
    10030    2    1    2    0    0  0.00000000000E+00  0.00000000000E+00 -0.17894340550E+04  0.40208118586E+04  0.36006740709E+04 0.  0.
        5    1    3    3  502    0 -0.15932338232E+04  0.67816427851E+03 -0.34437174566E+03  0.17654786300E+04  0.46999998093E+01 0.  1.
       -5    1    3    3    0  502  0.15932338232E+04 -0.67816427851E+03 -0.14450623093E+04  0.22553332285E+04  0.46999998093E+01 0. -1.
</event>
<event>
 5   0  0.1298250E-07  0.3613942E+04  0.7818609E-02  0.8087306E-01
        1   -1    0    0  501    0  0.00000000000E+00  0.00000000000E+00  0.20798903206E+04  0.20798903206E+04  0.50400001928E-02 0. -1.
       -1   -1    0    0    0  501  0.00000000000E+00  0.00000000000E+00 -0.15698636117E+04  0.15698636117E+04  0.50400001928E-02 0.  1.
    10030    2    1    2    0    0  0.00000000000E+00  0.00000000000E+00  0.51002670891E+03  0.36497539323E+04  0.36139419645E+04 0.  0.
        2    1    3    3  502    0 -0.68487013946E+03  0.11870930377E+04  0.14443535684E+04  0.19910786571E+04  0.25500000920E-02 0. -1.
       -2    1    3    3    0  502  0.68487013946E+03 -0.11870930377E+04 -0.93432685954E+03  0.16586752752E+04  0.25500000920E-02 0.  1.
</event>
<event>
 5   0  0.1361743E-07  0.3537934E+04  0.7818609E-02  0.8104858E-01
       -1   -1    0    0    0  501  0.00000000000E+00  0.00000000000E+00  0.21057284080E+04  0.21057284080E+04  0.50400001928E-02 0.  1.
        1   -1    0    0  501    0  0.00000000000E+00  0.00000000000E+00 -0.14860626973E+04  0.14860626973E+04  0.50400001928E-02 0. -1.
    10030    2    1    2    0    0  0.00000000000E+00  0.00000000000E+00  0.61966571065E+03  0.35917911053E+04  0.35379341078E+04 0.  0.
        5    1    3    3  502    0 -0.10497754427E+02  0.58786888365E+03  0.20036194236E+04  0.20881122843E+04  0.46999998093E+01 0.  1.
       -5    1    3    3    0  502  0.10497754427E+02 -0.58786888365E+03 -0.13839537130E+04  0.15036788210E+04  0.46999998093E+01 0. -1.
</event>
<event>
 5   0  0.1298250E-07  0.3581740E+04  0.7818609E-02  0.8094687E-01
        1   -1    0    0  501    0  0.00000000000E+00  0.00000000000E+00  0.18123306853E+04  0.18123306853E+04  0.50400001928E-02 0. -1.
       -1   -1    0    0    0  501  0.00000000000E+00  0.00000000000E+00 -0.17696631306E+04  0.17696631306E+04  0.50400001928E-02 0.  1.
    10030    2    1    2    0    0  0.00000000000E+00  0.00000000000E+00  0.42667554720E+02  0.35819938159E+04  0.35817396858E+04 0.  0.
        2    1    3    3  502    0 -0.13409329723E+04 -0.85863327855E+03 -0.79839654044E+03  0.17812325449E+04  0.25500000920E-02 0.  1.
       -2    1    3    3    0  502  0.13409329723E+04  0.85863327855E+03  0.84106409516E+03  0.18007612710E+04  0.25500000920E-02 0. -1.
</event>
<event>
 5   0  0.4115358E-07  0.3592303E+04  0.7818609E-02  0.8092257E-01
        2   -1    0    0  501    0  0.00000000000E+00  0.00000000000E+00  0.24039128830E+04  0.24039128830E+04  0.25500000920E-02 0. -1.
       -2   -1    0    0    0  501  0.00000000000E+00  0.00000000000E+00 -0.13420452744E+04  0.13420452744E+04  0.25500000920E-02 0.  1.
    10030    2    1    2    0    0  0.00000000000E+00  0.00000000000E+00  0.10618676086E+04  0.37459581574E+04  0.35923028406E+04 0.  0.
        3    1    3    3  502    0  0.67133059960E+03 -0.85394640213E+03 -0.96072466723E+03  0.14501383134E+04  0.10100000352E+00 0.  1.
       -3    1    3    3    0  502 -0.67133059960E+03  0.85394640213E+03  0.20225922758E+04  0.22958198440E+04  0.10100000352E+00 0. -1.
</event>
<event>
 5   0  0.4120440E-07  0.3617345E+04  0.7818609E-02  0.8086530E-01
        2   -1    0    0  501    0  0.00000000000E+00  0.00000000000E+00  0.21530814844E+04  0.21530814844E+04  0.25500000920E-02 0.  1.
       -2   -1    0    0    0  501  0.00000000000E+00  0.00000000000E+00 -0.15193559176E+04  0.15193559176E+04  0.25500000920E-02 0. -1.
    10030    2    1    2    0    0  0.00000000000E+00  0.00000000000E+00  0.63372556680E+03  0.36724374020E+04  0.36173454877E+04 0.  0.
        2    1    3    3  502    0 -0.11760548624E+02 -0.56201966851E+03  0.20621409711E+04  0.21373885475E+04  0.25500000920E-02 0.  1.
       -2    1    3    3    0  502  0.11760548624E+02  0.56201966851E+03 -0.14284154043E+04  0.15350488545E+04  0.25500000920E-02 0. -1.
</event>
<event>
 5   0  0.3993751E-07  0.3702707E+04  0.7818609E-02  0.8067362E-01
        2   -1    0    0  501    0  0.00000000000E+00  0.00000000000E+00  0.20367723681E+04  0.20367723681E+04  0.25500000920E-02 0.  1.
       -2   -1    0    0    0  501  0.00000000000E+00  0.00000000000E+00 -0.16828141535E+04  0.16828141535E+04  0.25500000920E-02 0. -1.
    10030    2    1    2    0    0  0.00000000000E+00  0.00000000000E+00  0.35395821459E+03  0.37195865216E+04  0.37027067767E+04 0.  0.
        1    1    3    3  502    0  0.11794950426E+04  0.56774992862E+03  0.14921306262E+04  0.19849439142E+04  0.50400001928E-02 0.  1.
       -1    1    3    3    0  502 -0.11794950426E+04 -0.56774992862E+03 -0.11381724116E+04  0.17346426074E+04  0.50400001928E-02 0. -1.
</event>
<event>
 5   0  0.1298250E-07  0.3635420E+04  0.7818609E-02  0.8082426E-01
       -1   -1    0    0    0  501  0.00000000000E+00  0.00000000000E+00  0.17272036143E+04  0.17272036143E+04  0.50400001928E-02 0. -1.
        1   -1    0    0  501    0  0.00000000000E+00  0.00000000000E+00 -0.19129590935E+04  0.19129590935E+04  0.50400001928E-02 0.  1.
    10030    2    1    2    0    0  0.00000000000E+00  0.00000000000E+00 -0.18575547921E+03  0.36401627078E+04  0.36354201189E+04 0.  0.
        2    1    3    3  502    0 -0.17329329487E+04  0.45886623968E+03 -0.39402751966E+03  0.18354488597E+04  0.25500000920E-02 0. -1.
       -2    1    3    3    0  502  0.17329329487E+04 -0.45886623968E+03  0.20827204045E+03  0.18047138480E+04  0.25500000920E-02 0.  1.
</event>
<event>
 5   0  0.4200635E-07  0.3644290E+04  0.7818609E-02  0.8080421E-01
        2   -1    0    0  501    0  0.00000000000E+00  0.00000000000E+00  0.16023643693E+04  0.16023643693E+04  0.25500000920E-02 0. -1.
       -2   -1    0    0    0  501  0.00000000000E+00  0.00000000000E+00 -0.20720707702E+04  0.20720707702E+04  0.25500000920E-02 0.  1.
    10030    2    1    2    0    0  0.00000000000E+00  0.00000000000E+00 -0.46970640084E+03  0.36744351395E+04  0.36442899846E+04 0.  0.
        4    1    3    3  502    0  0.16097028182E+04 -0.81987170282E+03 -0.47531703633E+03  0.18679562816E+04  0.12699999809E+01 0. -1.
       -4    1    3    3    0  502 -0.16097028182E+04  0.81987170282E+03  0.56106354884E+01  0.18064788579E+04  0.12699999809E+01 0.  1.
</event>
<event>
 5   0  0.1298250E-07  0.3414474E+04  0.7818609E-02  0.8134363E-01
        1   -1    0    0  501    0  0.00000000000E+00  0.00000000000E+00  0.16093496424E+04  0.16093496424E+04  0.50400001928E-02 0. -1.
       -1   -1    0    0    0  501  0.00000000000E+00  0.00000000000E+00 -0.18110782247E+04  0.18110782247E+04  0.50400001928E-02 0.  1.
    10030    2    1    2    0    0  0.00000000000E+00  0.00000000000E+00 -0.20172858233E+03  0.34204278671E+04  0.34144739526E+04 0.  0.
        1    1    3    3  502    0  0.33727325403E+03 -0.69054822890E+03  0.14262768521E+04  0.16201468338E+04  0.50400001928E-02 0. -1.
       -1    1    3    3    0  502 -0.33727325403E+03  0.69054822890E+03 -0.16280054344E+04  0.18002810333E+04  0.50400001928E-02 0.  1.
</event>
<event>
 5   0  0.1348226E-07  0.3589520E+04  0.7818609E-02  0.8092897E-01
       -1   -1    0    0    0  501  0.00000000000E+00  0.00000000000E+00  0.14981327523E+04  0.14981327523E+04  0.50400001928E-02 0. -1.
        1   -1    0    0  501    0  0.00000000000E+00  0.00000000000E+00 -0.21501186111E+04  0.21501186111E+04  0.50400001928E-02 0.  1.
    10030    2    1    2    0    0  0.00000000000E+00  0.00000000000E+00 -0.65198585880E+03  0.36482513634E+04  0.35895198077E+04 0.  0.
        4    1    3    3  502    0  0.25515192830E+03 -0.96925891641E+03  0.11871908811E+04  0.15537017586E+04  0.12699999809E+01 0. -1.
       -4    1    3    3    0  502 -0.25515192830E+03  0.96925891641E+03 -0.18391767399E+04  0.20945496048E+04  0.12699999809E+01 0.  1.
</event>
<event>
 5   0  0.4115358E-07  0.3605855E+04  0.7818609E-02  0.8089152E-01
       -2   -1    0    0    0  501  0.00000000000E+00  0.00000000000E+00  0.21313116255E+04  0.21313116255E+04  0.25500000920E-02 0.  1.
        2   -1    0    0  501    0  0.00000000000E+00  0.00000000000E+00 -0.15251393596E+04  0.15251393596E+04  0.25500000920E-02 0. -1.
    10030    2    1    2    0    0  0.00000000000E+00  0.00000000000E+00  0.60617226592E+03  0.36564509852E+04  0.36058548211E+04 0.  0.
        3    1    3    3  502    0  0.53776044671E+03 -0.17111415691E+04  0.48828360415E+03  0.18589278242E+04  0.10100000352E+00 0. -1.
       -3    1    3    3    0  502 -0.53776044671E+03  0.17111415691E+04  0.11788866177E+03  0.17975231610E+04  0.10100000352E+00 0.  1.
</event>
<event>
 5   0  0.1361743E-07  0.3563122E+04  0.7818609E-02  0.8098992E-01
       -1   -1    0    0    0  501  0.00000000000E+00  0.00000000000E+00  0.14736246681E+04  0.14736246681E+04  0.50400001928E-02 0.  1.
        1   -1    0    0  501    0  0.00000000000E+00  0.00000000000E+00 -0.21538458453E+04  0.21538458453E+04  0.50400001928E-02 0. -1.
    10030    2    1    2    0    0  0.00000000000E+00  0.00000000000E+00 -0.68022117717E+03  0.36274705134E+04  0.35631224334E+04 0.  0.
        5    1    3    3  502    0 -0.15273146146E+04  0.75581162375E+03  0.18888582086E+03  0.17145381553E+04  0.46999998093E+01 0.  1.
       -5    1    3    3    0  502  0.15273146146E+04 -0.75581162375E+03 -0.86910699803E+03  0.19129323581E+04  0.46999998093E+01 0. -1.
</event>
<event>
 5   0  0.4115358E-07  0.3576849E+04  0.7818609E-02  0.8095815E-01
        2   -1    0    0  501    0  0.00000000000E+00  0.00000000000E+00  0.25874899400E+04  0.25874899400E+04  0.25500000920E-02 0.  1.
       -2   -1    0    0    0  501  0.00000000000E+00  0.00000000000E+00 -0.12361256457E+04  0.12361256457E+04  0.25500000920E-02 0. -1.
    10030    2    1    2    0    0  0.00000000000E+00  0.00000000000E+00  0.13513642943E+04  0.38236155857E+04  0.35768492687E+04 0.  0.
        3    1    3    3  502    0 -0.32678409647E+03  0.16012539526E+04 -0.10083476006E+03  0.16373667046E+04  0.10100000352E+00 0. -1.
       -3    1    3    3    0  502  0.32678409647E+03 -0.16012539526E+04  0.14521990544E+04  0.21862488811E+04  0.10100000352E+00 0.  1.
</event>
<event>
 5   0  0.1348226E-07  0.3632801E+04  0.7818609E-02  0.8083019E-01
       -1   -1    0    0    0  501  0.00000000000E+00  0.00000000000E+00  0.18829831310E+04  0.18829831310E+04  0.50400001928E-02 0. -1.
        1   -1    0    0  501    0  0.00000000000E+00  0.00000000000E+00 -0.17521717956E+04  0.17521717956E+04  0.50400001928E-02 0.  1.
    10030    2    1    2    0    0  0.00000000000E+00  0.00000000000E+00  0.13081133539E+03  0.36351549266E+04  0.36328005361E+04 0.  0.
        4    1    3    3  502    0 -0.37825929157E+03 -0.29510581293E+03 -0.16876260637E+04  0.17544944788E+04  0.12699999809E+01 0.  1.
       -4    1    3    3    0  502  0.37825929157E+03  0.29510581293E+03  0.18184373991E+04  0.18806604478E+04  0.12699999809E+01 0. -1.
</event>
<event>
 5   0  0.1361743E-07  0.3595739E+04  0.7818609E-02  0.8091468E-01
        1   -1    0    0  501    0  0.00000000000E+00  0.00000000000E+00  0.28952533948E+04  0.28952533948E+04  0.50400001928E-02 0. -1.
       -1   -1    0    0    0  501  0.00000000000E+00  0.00000000000E+00 -0.11164255566E+04  0.11164255566E+04  0.50400001928E-02 0.  1.
    10030    2    1    2    0    0  0.00000000000E+00  0.00000000000E+00  0.17788278381E+04  0.40116789514E+04  0.35957390800E+04 0.  0.
        5    1    3    3  502    0  0.11421599138E+04 -0.13935387668E+03 -0.65182018231E+03  0.13224372997E+04  0.46999998093E+01 0.  1.
       -5    1    3    3    0  502 -0.11421599138E+04  0.13935387668E+03  0.24306480204E+04  0.26892416516E+04  0.46999998093E+01 0. -1.
</event>
<event>
 5   0  0.3880259E-07  0.3606963E+04  0.7818609E-02  0.8088899E-01
       -2   -1    0    0    0  501  0.00000000000E+00  0.00000000000E+00  0.14497672960E+04  0.14497672960E+04  0.25500000920E-02 0. -1.
        2   -1    0    0  501    0  0.00000000000E+00  0.00000000000E+00 -0.22434951876E+04  0.22434951876E+04  0.25500000920E-02 0.  1.
    10030    2    1    2    0    0  0.00000000000E+00  0.00000000000E+00 -0.79372789157E+03  0.36932624836E+04  0.36069632389E+04 0.  0.
        5    1    3    3  502    0  0.97873993412E+03 -0.11997524113E+04  0.55002443822E+03  0.16431331899E+04  0.46999998093E+01 0. -1.
       -5    1    3    3    0  502 -0.97873993412E+03  0.11997524113E+04 -0.13437523298E+04  0.20501292937E+04  0.46999998093E+01 0.  1.
</event>
<event>
 5   0  0.1298250E-07  0.3597233E+04  0.7818609E-02  0.8091126E-01
        1   -1    0    0  501    0  0.00000000000E+00  0.00000000000E+00  0.26145987498E+04  0.26145987498E+04  0.50400001928E-02 0. -1.
       -1   -1    0    0    0  501  0.00000000000E+00  0.00000000000E+00 -0.12372916043E+04  0.12372916043E+04  0.50400001928E-02 0.  1.
    10030    2    1    2    0    0  0.00000000000E+00  0.00000000000E+00  0.13773071455E+04  0.38518903541E+04  0.35972328708E+04 0.  0.
        1    1    3    3  502    0 -0.14724238729E+04 -0.47869769670E+03  0.16687871546E+04  0.22764081606E+04  0.50400001928E-02 0. -1.
       -1    1    3    3    0  502  0.14724238729E+04  0.47869769670E+03 -0.29148000912E+03  0.15754821935E+04  0.50400001928E-02 0.  1.
</event>
<event>
 5   0  0.3880259E-07  0.3578049E+04  0.7818609E-02  0.8095538E-01
       -2   -1    0    0    0  501  0.00000000000E+00  0.00000000000E+00  0.16619326839E+04  0.16619326839E+04  0.25500000920E-02 0.  1.
        2   -1    0    0  501    0  0.00000000000E+00  0.00000000000E+00 -0.19258358126E+04  0.19258358126E+04  0.25500000920E-02 0. -1.
    10030    2    1    2    0    0  0.00000000000E+00  0.00000000000E+00 -0.26390312871E+03  0.35877684965E+04  0.35780494579E+04 0.  0.
        5    1    3    3  502    0 -0.15366672919E+04  0.27612434346E+03 -0.10078208743E+04  0.18583099913E+04  0.46999998093E+01 0. -1.
       -5    1    3    3    0  502  0.15366672919E+04 -0.27612434346E+03  0.74391774559E+03  0.17294585052E+04  0.46999998093E+01 0.  1.
</event>
<event>
 5   0  0.1298250E-07  0.3605254E+04  0.7818609E-02  0.8089289E-01
       -1   -1    0    0    0  501  0.00000000000E+00  0.00000000000E+00  0.22347142205E+04  0.22347142206E+04  0.50400001928E-02 0. -1.
        1   -1    0    0  501    0  0.00000000000E+00  0.00000000000E+00 -0.14540845982E+04  0.14540845982E+04  0.50400001928E-02 0.  1.
    10030    2    1    2    0    0  0.00000000000E+00  0.00000000000E+00  0.78062962232E+03  0.36887988188E+04  0.36052536829E+04 0.  0.
        2    1    3    3  502    0  0.12151183898E+04 -0.10902539641E+04  0.11724215261E+04  0.20099101080E+04  0.25500000920E-02 0.  1.
       -2    1    3    3    0  502 -0.12151183898E+04  0.10902539641E+04 -0.39179190377E+03  0.16788887108E+04  0.25500000920E-02 0. -1.
</event>
<event>
 5   0  0.1370997E-07  0.3625651E+04  0.7818609E-02  0.8084641E-01
       -1   -1    0    0    0  501  0.00000000000E+00  0.00000000000E+00  0.13860929514E+04  0.13860929514E+04  0.50400001928E-02 0.  1.
        1   -1    0    0  501    0  0.00000000000E+00  0.00000000000E+00 -0.23709346255E+04  0.23709346255E+04  0.50400001928E-02 0. -1.
    10030    2    1    2    0    0  0.00000000000E+00  0.00000000000E+00 -0.98484167416E+03  0.37570275769E+04  0.36256507127E+04 0.  0.
        3    1    3    3  502    0  0.12593409666E+03  0.27008482896E+03 -0.23453796727E+04  0.23642358239E+04  0.10100000352E+00 0. -1.
       -3    1    3    3    0  502 -0.12593409666E+03 -0.27008482896E+03  0.13605379986E+04  0.13927917530E+04  0.10100000352E+00 0.  1.
</event>
<event>
 5   0  0.1361743E-07  0.3595299E+04  0.7818609E-02  0.8091569E-01
       -1   -1    0    0    0  501  0.00000000000E+00  0.00000000000E+00  0.11812722078E+04  0.11812722078E+04  0.50400001928E-02 0. -1.
        1   -1    0    0  501    0  0.00000000000E+00  0.00000000000E+00 -0.27356475121E+04  0.27356475121E+04  0.50400001928E-02 0.  1.
    10030    2    1    2    0    0  0.00000000000E+00  0.00000000000E+00 -0.15543753044E+04  0.39169197199E+04  0.35952993624E+04 0.  0.
        5    1    3    3  502    0 -0.29541198139E+03 -0.10242288048E+04 -0.23541572836E+04  0.25842584022E+04  0.46999998093E+01 0.  1.
       -5    1    3    3    0  502  0.29541198139E+03  0.10242288048E+04  0.79978197922E+03  0.13326613177E+04  0.46999998093E+01 0. -1.
</event>
<event>
 5   0  0.4120440E-07  0.3610526E+04  0.7818609E-02  0.8088085E-01
        2   -1    0    0  501    0  0.00000000000E+00  0.00000000000E+00  0.20507814488E+04  0.20507814488E+04  0.25500000920E-02 0. -1.
       -2   -1    0    0    0  501  0.00000000000E+00  0.00000000000E+00 -0.15891379816E+04  0.15891379816E+04  0.25500000920E-02 0.  1.
    10030    2    1    2    0    0  0.00000000000E+00  0.00000000000E+00  0.46164346725E+03  0.36399194304E+04  0.36105261070E+04 0.  0.
        2    1    3    3  502    0 -0.16746052170E+03  0.10793892596E+04  0.16798295394E+04  0.20037343839E+04  0.25500000920E-02 0. -1.
       -2    1    3    3    0  502  0.16746052170E+03 -0.10793892596E+04 -0.12181860721E+04  0.16361850465E+04  0.25500000920E-02 0.  1.
</event>
<event>
 5   0  0.3993751E-07  0.3590324E+04  0.7818609E-02  0.8092712E-01
       -2   -1    0    0    0  501  0.00000000000E+00  0.00000000000E+00  0.27164690162E+04  0.27164690162E+04  0.25500000920E-02 0.  1.
        2   -1    0    0  501    0  0.00000000000E+00  0.00000000000E+00 -0.11863220918E+04  0.11863220918E+04  0.25500000920E-02 0. -1.
    10030    2    1    2    0    0  0.00000000000E+00  0.00000000000E+00  0.15301469243E+04  0.39027911080E+04  0.35903243339E+04 0.  0.
        1    1    3    3  502    0 -0.19427750943E+03 -0.14826314103E+04  0.18448329979E+04  0.23747312353E+04  0.50400001928E-02 0.  1.
       -1    1    3    3    0  502  0.19427750943E+03  0.14826314103E+04 -0.31468607359E+03  0.15280598727E+04  0.50400001928E-02 0. -1.
</event>
<event>
 5   0  0.1298250E-07  0.3586185E+04  0.7818609E-02  0.8093664E-01
       -1   -1    0    0    0  501  0.00000000000E+00  0.00000000000E+00  0.23321252718E+04  0.23321252718E+04  0.50400001928E-02 0. -1.
        1   -1    0    0  501    0  0.00000000000E+00  0.00000000000E+00 -0.13786481767E+04  0.13786481767E+04  0.50400001928E-02 0.  1.
    10030    2    1    2    0    0  0.00000000000E+00  0.00000000000E+00  0.95347709504E+03  0.37107734485E+04  0.35861847436E+04 0.  0.
        1    1    3    3  502    0 -0.17687105246E+03 -0.37305690532E+03  0.22822732877E+04  0.23193158870E+04  0.50400001928E-02 0. -1.
       -1    1    3    3    0  502  0.17687105246E+03  0.37305690532E+03 -0.13287961927E+04  0.13914575615E+04  0.50400001928E-02 0.  1.
</event>
<event>
 5   0  0.1370997E-07  0.3580857E+04  0.7818609E-02  0.8094891E-01
        1   -1    0    0  501    0  0.00000000000E+00  0.00000000000E+00  0.13771229894E+04  0.13771229894E+04  0.50400001928E-02 0.  1.
       -1   -1    0    0    0  501  0.00000000000E+00  0.00000000000E+00 -0.23277764325E+04  0.23277764325E+04  0.50400001928E-02 0. -1.
    10030    2    1    2    0    0  0.00000000000E+00  0.00000000000E+00 -0.95065344310E+03  0.37048994218E+04  0.35808571260E+04 0.  0.
        3    1    3    3  502    0  0.89117446079E+03 -0.62658683931E+03  0.99474816745E+03  0.14752379176E+04  0.10100000352E+00 0.  1.
       -3    1    3    3    0  502 -0.89117446079E+03  0.62658683931E+03 -0.19454016105E+04  0.22296615042E+04  0.10100000352E+00 0. -1.
</event>
<event>
 5   0  0.1370997E-07  0.3651826E+04  0.7818609E-02  0.8078722E-01
        1   -1    0    0  501    0  0.00000000000E+00  0.00000000000E+00  0.17459067627E+04  0.17459067627E+04  0.50400001928E-02 0.  1.
       -1   -1    0    0    0  501  0.00000000000E+00  0.00000000000E+00 -0.19095855875E+04  0.19095855875E+04  0.50400001928E-02 0. -1.
    10030    2    1    2    0    0  0.00000000000E+00  0.00000000000E+00 -0.16367882476E+03  0.36554923502E+04  0.36518260589E+04 0.  0.
        3    1    3    3  502    0 -0.15911360195E+04 -0.50581473116E+03  0.65808874474E+03  0.17946150509E+04  0.10100000352E+00 0.  1.
       -3    1    3    3    0  502  0.15911360195E+04  0.50581473116E+03 -0.82176756950E+03  0.18608772993E+04  0.10100000352E+00 0. -1.
</event>
<event>
 5   0  0.1298250E-07  0.3598728E+04  0.7818609E-02  0.8090783E-01
       -1   -1    0    0    0  501  0.00000000000E+00  0.00000000000E+00  0.19951632730E+04  0.19951632730E+04  0.50400001928E-02 0.  1.
        1   -1    0    0  501    0  0.00000000000E+00  0.00000000000E+00 -0.16227800499E+04  0.16227800499E+04  0.50400001928E-02 0. -1.
    10030    2    1    2    0    0  0.00000000000E+00  0.00000000000E+00  0.37238322309E+03  0.36179433229E+04  0.35987281952E+04 0.  0.
        2    1    3    3  502    0  0.47574126783E+03  0.12610452062E+04 -0.10122920578E+04  0.16856156075E+04  0.25500000920E-02 0. -1.
       -2    1    3    3    0  502 -0.47574126783E+03 -0.12610452062E+04  0.13846752809E+04  0.19323277154E+04  0.25500000920E-02 0.  1.
</event>
<event>
 5   0  0.3993751E-07  0.3593721E+04  0.7818609E-02  0.8091932E-01
        2   -1    0    0  501    0  0.00000000000E+00  0.00000000000E+00  0.21900610713E+04  0.21900610713E+04  0.25500000920E-02 0.  1.
       -2   -1    0    0    0  501  0.00000000000E+00  0.00000000000E+00 -0.14742542624E+04  0.14742542624E+04  0.25500000920E-02 0. -1.
    10030    2    1    2    0    0  0.00000000000E+00  0.00000000000E+00  0.71580680887E+03  0.36643153336E+04  0.35937205619E+04 0.  0.
        1    1    3    3  502    0  0.98670541236E+03  0.13917872688E+04  0.93293873163E+03  0.19444881201E+04  0.50400001928E-02 0.  1.
       -1    1    3    3    0  502 -0.98670541236E+03 -0.13917872688E+04 -0.21713192276E+03  0.17198272135E+04  0.50400001928E-02 0. -1.
</event>
<event>
 5   0  0.4115358E-07  0.3637929E+04  0.7818609E-02  0.8081858E-01
        2   -1    0    0  501    0  0.00000000000E+00  0.00000000000E+00  0.92427329570E+03  0.92427329570E+03  0.25500000920E-02 0. -1.
       -2   -1    0    0    0  501  0.00000000000E+00  0.00000000000E+00 -0.35797121326E+04  0.35797121326E+04  0.25500000920E-02 0.  1.
    10030    2    1    2    0    0  0.00000000000E+00  0.00000000000E+00 -0.26554388369E+04  0.45039854283E+04  0.36379292629E+04 0.  0.
        3    1    3    3  502    0 -0.36361070146E+03 -0.10402193146E+04  0.46399480695E+03  0.11956421521E+04  0.10100000352E+00 0. -1.
       -3    1    3    3    0  502  0.36361070146E+03  0.10402193146E+04 -0.31194336439E+04  0.33083432763E+04  0.10100000352E+00 0.  1.
</event>
<event>
 5   0  0.1370997E-07  0.3604590E+04  0.7818609E-02  0.8089441E-01
       -1   -1    0    0    0  501  0.00000000000E+00  0.00000000000E+00  0.14924971892E+04  0.14924971892E+04  0.50400001928E-02 0.  1.
        1   -1    0    0  501    0  0.00000000000E+00  0.00000000000E+00 -0.21763978234E+04  0.21763978234E+04  0.50400001928E-02 0. -1.
    10030    2    1    2    0    0  0.00000000000E+00  0.00000000000E+00 -0.68390063418E+03  0.36688950126E+04  0.36045902036E+04 0.  0.
        3    1    3    3  502    0  0.42071234437E+03 -0.55143177800E+03  0.13512136314E+04  0.15188331608E+04  0.10100000352E+00 0.  1.
       -3    1    3    3    0  502 -0.42071234437E+03  0.55143177800E+03 -0.20351142656E+04  0.21500618518E+04  0.10100000352E+00 0. -1.
</event>
<event>
 5   0  0.4200635E-07  0.3581653E+04  0.7818609E-02  0.8094707E-01
       -2   -1    0    0    0  501  0.00000000000E+00  0.00000000000E+00  0.19556314082E+04  0.19556314083E+04  0.25500000920E-02 0. -1.
        2   -1    0    0  501    0  0.00000000000E+00  0.00000000000E+00 -0.16399101999E+04  0.16399101999E+04  0.25500000920E-02 0.  1.
    10030    2    1    2    0    0  0.00000000000E+00  0.00000000000E+00  0.31572120832E+03  0.35955416082E+04  0.35816531902E+04 0.  0.
        4    1    3    3  502    0 -0.10997521003E+04  0.13889431999E+04  0.42048617740E+03  0.18208317146E+04  0.12699999809E+01 0.  1.
       -4    1    3    3    0  502  0.10997521003E+04 -0.13889431999E+04 -0.10476496907E+03  0.17747098936E+04  0.12699999809E+01 0. -1.
</event>
<event>
 5   0  0.1370997E-07  0.3596115E+04  0.7818609E-02  0.8091382E-01
       -1   -1    0    0    0  501  0.00000000000E+00  0.00000000000E+00  0.16335271697E+04  0.16335271697E+04  0.50400001928E-02 0. -1.
        1   -1    0    0  501    0  0.00000000000E+00  0.00000000000E+00 -0.19791597034E+04  0.19791597034E+04  0.50400001928E-02 0.  1.
    10030    2    1    2    0    0  0.00000000000E+00  0.00000000000E+00 -0.34563253370E+03  0.36126868732E+04  0.35961152088E+04 0.  0.
        3    1    3    3  502    0  0.56790542042E+03  0.14505176334E+04 -0.10750043170E+04  0.18926574606E+04  0.10100000352E+00 0.  1.
       -3    1    3    3    0  502 -0.56790542042E+03 -0.14505176334E+04  0.72937178333E+03  0.17200294125E+04  0.10100000352E+00 0. -1.
</event>
<event>
 5   0  0.1370997E-07  0.3590097E+04  0.7818609E-02  0.8092764E-01
       -1   -1    0    0    0  501  0.00000000000E+00  0.00000000000E+00  0.19428434013E+04  0.19428434013E+04  0.50400001928E-02 0. -1.
        1   -1    0    0  501    0  0.00000000000E+00  0.00000000000E+00 -0.16584962590E+04  0.16584962590E+04  0.50400001928E-02 0.  1.
    10030    2    1    2    0    0  0.00000000000E+00  0.00000000000E+00  0.28434714232E+03  0.36013396603E+04  0.35900966633E+04 0.  0.
        3    1    3    3  502    0 -0.46563605260E+03  0.11478613953E+04  0.14453940349E+04  0.19035668212E+04  0.10100000352E+00 0. -1.
       -3    1    3    3    0  502  0.46563605260E+03 -0.11478613953E+04 -0.11610468926E+04  0.16977728391E+04  0.10100000352E+00 0.  1.
</event>
<event>
 5   0  0.3880259E-07  0.3600938E+04  0.7818609E-02  0.8090277E-01
       -2   -1    0    0    0  501  0.00000000000E+00  0.00000000000E+00  0.28490591726E+04  0.28490591726E+04  0.25500000920E-02 0.  1.
        2   -1    0    0  501    0  0.00000000000E+00  0.00000000000E+00 -0.11378103129E+04  0.11378103129E+04  0.25500000920E-02 0. -1.
    10030    2    1    2    0    0  0.00000000000E+00  0.00000000000E+00  0.17112488597E+04  0.39868694856E+04  0.36009381604E+04 0.  0.
        5    1    3    3  502    0  0.26393642072E+03  0.11694380269E+04 -0.63162928248E+03  0.13550739365E+04  0.46999998093E+01 0. -1.
       -5    1    3    3    0  502 -0.26393642072E+03 -0.11694380269E+04  0.23428781422E+04  0.26317955491E+04  0.46999998093E+01 0.  1.
</event>
<event>
 5   0  0.1348226E-07  0.3539251E+04  0.7818609E-02  0.8104550E-01
       -1   -1    0    0    0  501  0.00000000000E+00  0.00000000000E+00  0.30651711448E+04  0.30651711448E+04  0.50400001928E-02 0. -1.
        1   -1    0    0  501    0  0.00000000000E+00  0.00000000000E+00 -0.10216639325E+04  0.10216639325E+04  0.50400001928E-02 0.  1.
    10030    2    1    2    0    0  0.00000000000E+00  0.00000000000E+00  0.20435072123E+04  0.40868350773E+04  0.35392512234E+04 0.  0.
        4    1    3    3  502    0 -0.73072955646E+03 -0.12928496089E+04 -0.89506635606E+02  0.14877630344E+04  0.12699999809E+01 0.  1.
       -4    1    3    3    0  502  0.73072955646E+03  0.12928496089E+04  0.21330138479E+04  0.25990720429E+04  0.12699999809E+01 0. -1.
</event>
<event>
 5   0  0.1370997E-07  0.3598119E+04  0.7818609E-02  0.8090923E-01
       -1   -1    0    0    0  501  0.00000000000E+00  0.00000000000E+00  0.16479765142E+04  0.16479765142E+04  0.50400001928E-02 0.  1.
        1   -1    0    0  501    0  0.00000000000E+00  0.00000000000E+00 -0.19639937141E+04  0.19639937141E+04  0.50400001928E-02 0. -1.
    10030    2    1    2    0    0  0.00000000000E+00  0.00000000000E+00 -0.31601719984E+03  0.36119702283E+04  0.35981192392E+04 0.  0.
        3    1    3    3  502    0 -0.14226800741E+04  0.48234851464E+03 -0.11517368790E+04  0.18929280313E+04  0.10100000352E+00 0. -1.
       -3    1    3    3    0  502  0.14226800741E+04 -0.48234851464E+03  0.83571967920E+03  0.17190421970E+04  0.10100000352E+00 0.  1.
</event>
<event>
 5   0  0.4120440E-07  0.3565586E+04  0.7818609E-02  0.8098420E-01
        2   -1    0    0  501    0  0.00000000000E+00  0.00000000000E+00  0.15879150023E+04  0.15879150023E+04  0.25500000920E-02 0.  1.
       -2   -1    0    0    0  501  0.00000000000E+00  0.00000000000E+00 -0.20015877447E+04  0.20015877447E+04  0.25500000920E-02 0. -1.
    10030    2    1    2    0    0  0.00000000000E+00  0.00000000000E+00 -0.41367274240E+03  0.35895027469E+04  0.35655861836E+04 0.  0.
        2    1    3    3  502    0  0.68904688416E+03 -0.12691066810E+04 -0.12592834977E+04  0.19160407887E+04  0.25500000920E-02 0. -1.
       -2    1    3    3    0  502 -0.68904688416E+03  0.12691066810E+04  0.84561075531E+03  0.16734619583E+04  0.25500000920E-02 0.  1.
</event>
<event>
 5   0  0.1348226E-07  0.3597804E+04  0.7818609E-02  0.8090995E-01
        1   -1    0    0  501    0  0.00000000000E+00  0.00000000000E+00  0.14355044662E+04  0.14355044663E+04  0.50400001928E-02 0.  1.
       -1   -1    0    0    0  501  0.00000000000E+00  0.00000000000E+00 -0.22542940876E+04  0.22542940876E+04  0.50400001928E-02 0. -1.
    10030    2    1    2    0    0  0.00000000000E+00  0.00000000000E+00 -0.81878962131E+03  0.36897985538E+04  0.35978044588E+04 0.  0.
        4    1    3    3  502    0 -0.93288631429E+03 -0.15378747677E+04 -0.43675929294E+03  0.18509716285E+04  0.12699999809E+01 0. -1.
       -4    1    3    3    0  502  0.93288631429E+03  0.15378747677E+04 -0.38203032837E+03  0.18388269253E+04  0.12699999809E+01 0.  1.
</event>
<event>
 5   0  0.3993751E-07  0.3609162E+04  0.7818609E-02  0.8088396E-01
       -2   -1    0    0    0  501  0.00000000000E+00  0.00000000000E+00  0.19393063855E+04  0.19393063855E+04  0.25500000920E-02 0.  1.
        2   -1    0    0  501    0  0.00000000000E+00  0.00000000000E+00 -0.16792152571E+04  0.16792152572E+04  0.25500000920E-02 0. -1.
    10030    2    1    2    0    0  0.00000000000E+00  0.00000000000E+00  0.26009112836E+03  0.36185216427E+04  0.36091621581E+04 0.  0.
        1    1    3    3  502    0  0.63987678654E+03  0.12678038094E+04  0.12463709453E+04  0.18894997577E+04  0.50400001928E-02 0.  1.
       -1    1    3    3    0  502 -0.63987678654E+03 -0.12678038094E+04 -0.98627981697E+03  0.17290218849E+04  0.50400001928E-02 0. -1.
</event>
<event>
 5   0  0.1298250E-07  0.3592663E+04  0.7818609E-02  0.8092174E-01
        1   -1    0    0  501    0  0.00000000000E+00  0.00000000000E+00  0.11284418134E+04  0.11284418134E+04  0.50400001928E-02 0.  1.
       -1   -1    0    0    0  501  0.00000000000E+00  0.00000000000E+00 -0.28595241403E+04  0.28595241403E+04  0.50400001928E-02 0. -1.
    10030    2    1    2    0    0  0.00000000000E+00  0.00000000000E+00 -0.17310823269E+04  0.39879659537E+04  0.35926628600E+04 0.  0.
        2    1    3    3  502    0 -0.17406724197E+04  0.26402323947E+03 -0.46971309464E+03  0.18221633118E+04  0.25500000920E-02 0.  1.
       -2    1    3    3    0  502  0.17406724197E+04 -0.26402323947E+03 -0.12613692322E+04  0.21658026419E+04  0.25500000920E-02 0. -1.
</event>
<event>
 5   0  0.1348226E-07  0.3591099E+04  0.7818609E-02  0.8092534E-01
       -1   -1    0    0    0  501  0.00000000000E+00  0.00000000000E+00  0.15455969704E+04  0.15455969704E+04  0.50400001928E-02 0.  1.
        1   -1    0    0  501    0  0.00000000000E+00  0.00000000000E+00 -0.20859236891E+04  0.20859236891E+04  0.50400001928E-02 0. -1.
    10030    2    1    2    0    0  0.00000000000E+00  0.00000000000E+00 -0.54032671868E+03  0.36315206594E+04  0.35910986254E+04 0.  0.
        4    1    3    3  502    0  0.98537697188E+03 -0.61965510216E+03  0.11123593863E+04  0.16100575268E+04  0.12699999809E+01 0.  1.
       -4    1    3    3    0  502 -0.98537697188E+03  0.61965510216E+03 -0.16526861050E+04  0.20214631327E+04  0.12699999809E+01 0. -1.
</event>
<event>
 5   0  0.4115358E-07  0.3565209E+04  0.7818609E-02  0.8098508E-01
        2   -1    0    0  501    0  0.00000000000E+00  0.00000000000E+00  0.11054672608E+04  0.11054672608E+04  0.25500000920E-02 0.  1.
       -2   -1    0    0    0  501  0.00000000000E+00  0.00000000000E+00 -0.28745116728E+04  0.28745116728E+04  0.25500000920E-02 0. -1.
    10030    2    1    2    0    0  0.00000000000E+00  0.00000000000E+00 -0.17690444120E+04  0.39799789337E+04  0.35652088551E+04 0.  0.
        3    1    3    3  502    0 -0.12463883534E+04  0.12740161580E+04 -0.92116526192E+03  0.20062767875E+04  0.10100000352E+00 0. -1.
       -3    1    3    3    0  502  0.12463883534E+04 -0.12740161580E+04 -0.84787915007E+03  0.19737021461E+04  0.10100000352E+00 0.  1.
</event>
<event>
 5   0  0.1370997E-07  0.3616361E+04  0.7818609E-02  0.8086754E-01
       -1   -1    0    0    0  501  0.00000000000E+00  0.00000000000E+00  0.17230649646E+04  0.17230649646E+04  0.50400001928E-02 0.  1.
        1   -1    0    0  501    0  0.00000000000E+00  0.00000000000E+00 -0.18975003981E+04  0.18975003981E+04  0.50400001928E-02 0. -1.
    10030    2    1    2    0    0  0.00000000000E+00  0.00000000000E+00 -0.17443543350E+03  0.36205653626E+04  0.36163608537E+04 0.  0.
        3    1    3    3  502    0  0.12268582388E+04 -0.10548703771E+04  0.72092817653E+03  0.17713469724E+04  0.10100000352E+00 0.  1.
       -3    1    3    3    0  502 -0.12268582388E+04  0.10548703771E+04 -0.89536361003E+03  0.18492183903E+04  0.10100000352E+00 0. -1.
</event>
<event>
 5   0  0.4120440E-07  0.3608889E+04  0.7818609E-02  0.8088459E-01
        2   -1    0    0  501    0  0.00000000000E+00  0.00000000000E+00  0.18333733547E+04  0.18333733547E+04  0.25500000920E-02 0.  1.
       -2   -1    0    0    0  501  0.00000000000E+00  0.00000000000E+00 -0.17759718244E+04  0.17759718244E+04  0.25500000920E-02 0. -1.
    10030    2    1    2    0    0  0.00000000000E+00  0.00000000000E+00  0.57401530280E+02  0.36093451792E+04  0.36088887052E+04 0.  0.
        2    1    3    3  502    0  0.10737110969E+04  0.95076401919E+03 -0.10665229874E+04  0.17872546048E+04  0.25500000920E-02 0.  1.
       -2    1    3    3    0  502 -0.10737110969E+04 -0.95076401919E+03  0.11239245176E+04  0.18220905744E+04  0.25500000920E-02 0. -1.
</event>
<event>
 5   0  0.4115358E-07  0.3583873E+04  0.7818609E-02  0.8094196E-01
        2   -1    0    0  501    0  0.00000000000E+00  0.00000000000E+00  0.24358895172E+04  0.24358895172E+04  0.25500000920E-02 0. -1.
       -2   -1    0    0    0  501  0.00000000000E+00  0.00000000000E+00 -0.13182191615E+04  0.13182191615E+04  0.25500000920E-02 0.  1.
    10030    2    1    2    0    0  0.00000000000E+00  0.00000000000E+00  0.11176703557E+04  0.37541086786E+04  0.35838728977E+04 0.  0.
        3    1    3    3  502    0  0.15393301821E+04  0.63367476350E+03  0.12536329636E+04  0.20839090030E+04  0.10100000352E+00 0. -1.
       -3    1    3    3    0  502 -0.15393301821E+04 -0.63367476350E+03 -0.13596260787E+03  0.16701996756E+04  0.10100000352E+00 0.  1.
</event>
<event>
 5   0  0.4120440E-07  0.3599046E+04  0.7818609E-02  0.8090710E-01
        2   -1    0    0  501    0  0.00000000000E+00  0.00000000000E+00  0.19179594953E+04  0.19179594953E+04  0.25500000920E-02 0.  1.
       -2   -1    0    0    0  501  0.00000000000E+00  0.00000000000E+00 -0.16884002900E+04  0.16884002900E+04  0.25500000920E-02 0. -1.
    10030    2    1    2    0    0  0.00000000000E+00  0.00000000000E+00  0.22955920536E+03  0.36063597853E+04  0.35990461893E+04 0.  0.
        2    1    3    3  502    0 -0.11807370563E+04 -0.75390878688E+03 -0.10170132789E+04  0.17311367550E+04  0.25500000920E-02 0. -1.
       -2    1    3    3    0  502  0.11807370563E+04  0.75390878688E+03  0.12465724843E+04  0.18752230303E+04  0.25500000920E-02 0.  1.
</event>
<event>
 5   0  0.4120440E-07  0.3622402E+04  0.7818609E-02  0.8085379E-01
       -2   -1    0    0    0  501  0.00000000000E+00  0.00000000000E+00  0.18875764879E+04  0.18875764879E+04  0.25500000920E-02 0. -1.
        2   -1    0    0  501    0  0.00000000000E+00  0.00000000000E+00 -0.17379162886E+04  0.17379162886E+04  0.25500000920E-02 0.  1.
    10030    2    1    2    0    0  0.00000000000E+00  0.00000000000E+00  0.14966019924E+03  0.36254927765E+04  0.36224024759E+04 0.  0.
        2    1    3    3  502    0 -0.77713605478E+03 -0.11381767022E+04  0.12510191442E+04  0.18612994258E+04  0.25500000920E-02 0. -1.
       -2    1    3    3    0  502  0.77713605478E+03  0.11381767022E+04 -0.11013589450E+04  0.17641933507E+04  0.25500000920E-02 0.  1.
</event>
<event>
 5   0  0.1361743E-07  0.3618299E+04  0.7818609E-02  0.8086313E-01
        1   -1    0    0  501    0  0.00000000000E+00  0.00000000000E+00  0.11564509955E+04  0.11564509955E+04  0.50400001928E-02 0.  1.
       -1   -1    0    0    0  501  0.00000000000E+00  0.00000000000E+00 -0.28302296134E+04  0.28302296134E+04  0.50400001928E-02 0. -1.
    10030    2    1    2    0    0  0.00000000000E+00  0.00000000000E+00 -0.16737786179E+04  0.39866806090E+04  0.36182989672E+04 0.  0.
        5    1    3    3  502    0  0.39313988479E+03  0.11372265292E+04 -0.23254175000E+04  0.26182879496E+04  0.46999998093E+01 0. -1.
       -5    1    3    3    0  502 -0.39313988479E+03 -0.11372265292E+04  0.65163888208E+03  0.13683926594E+04  0.46999998093E+01 0.  1.
</event>
<event>
 5   0  0.1348226E-07  0.3682519E+04  0.7818609E-02  0.8071847E-01
       -1   -1    0    0    0  501  0.00000000000E+00  0.00000000000E+00  0.14729333117E+04  0.14729333117E+04  0.50400001928E-02 0.  1.
        1   -1    0    0  501    0  0.00000000000E+00  0.00000000000E+00 -0.23016907543E+04  0.23016907543E+04  0.50400001928E-02 0. -1.
    10030    2    1    2    0    0  0.00000000000E+00  0.00000000000E+00 -0.82875744267E+03  0.37746240660E+04  0.36825192383E+04 0.  0.
        4    1    3    3  502    0 -0.68866058083E+03  0.12837961780E+04 -0.15685293868E+04  0.21407176536E+04  0.12699999809E+01 0. -1.
       -4    1    3    3    0  502  0.68866058083E+03 -0.12837961780E+04  0.73977194411E+03  0.16339064124E+04  0.12699999809E+01 0.  1.
</event>
<event>
 5   0  0.4120440E-07  0.3522717E+04  0.7818609E-02  0.8108427E-01
        2   -1    0    0  501    0  0.00000000000E+00  0.00000000000E+00  0.16421893685E+04  0.16421893686E+04  0.25500000920E-02 0.  1.
       -2   -1    0    0    0  501  0.00000000000E+00  0.00000000000E+00 -0.18891754478E+04  0.18891754478E+04  0.25500000920E-02 0. -1.
    10030    2    1    2    0    0  0.00000000000E+00  0.00000000000E+00 -0.24698607926E+03  0.35313648164E+04  0.35227170399E+04 0.  0.
        2    1    3    3  502    0 -0.15555212283E+03  0.16860586020E+04 -0.60985802550E+03  0.17996991091E+04  0.25500000920E-02 0. -1.
       -2    1    3    3    0  502  0.15555212283E+03 -0.16860586020E+04  0.36287194625E+03  0.17316657072E+04  0.25500000920E-02 0.  1.
</event>
<event>
 5   0  0.4120440E-07  0.3602998E+04  0.7818609E-02  0.8089805E-01
        2   -1    0    0  501    0  0.00000000000E+00  0.00000000000E+00  0.20593074087E+04  0.20593074087E+04  0.25500000920E-02 0. -1.
       -2   -1    0    0    0  501  0.00000000000E+00  0.00000000000E+00 -0.15759659682E+04  0.15759659682E+04  0.25500000920E-02 0.  1.
    10030    2    1    2    0    0  0.00000000000E+00  0.00000000000E+00  0.48334144044E+03  0.36352733769E+04  0.36029978596E+04 0.  0.
        2    1    3    3  502    0  0.11942361967E+03 -0.15048238706E+04 -0.75031584997E+03  0.16857433841E+04  0.25500000920E-02 0.  1.
       -2    1    3    3    0  502 -0.11942361967E+03  0.15048238706E+04  0.12336572904E+04  0.19495299927E+04  0.25500000920E-02 0. -1.
</event>
<event>
 5   0  0.4115358E-07  0.3635991E+04  0.7818609E-02  0.8082297E-01
        2   -1    0    0  501    0  0.00000000000E+00  0.00000000000E+00  0.18831929944E+04  0.18831929944E+04  0.25500000920E-02 0.  1.
       -2   -1    0    0    0  501  0.00000000000E+00  0.00000000000E+00 -0.17550556384E+04  0.17550556384E+04  0.25500000920E-02 0. -1.
    10030    2    1    2    0    0  0.00000000000E+00  0.00000000000E+00  0.12813735608E+03  0.36382486328E+04  0.36359914648E+04 0.  0.
        3    1    3    3  502    0 -0.64249408033E+03  0.90004664037E+03  0.15079564525E+04  0.18699773450E+04  0.10100000352E+00 0.  1.
       -3    1    3    3    0  502  0.64249408033E+03 -0.90004664037E+03 -0.13798190964E+04  0.17682712878E+04  0.10100000352E+00 0. -1.
</event>
<event>
 5   0  0.1298250E-07  0.3594124E+04  0.7818609E-02  0.8091839E-01
        1   -1    0    0  501    0  0.00000000000E+00  0.00000000000E+00  0.20566895063E+04  0.20566895063E+04  0.50400001928E-02 0. -1.
       -1   -1    0    0    0  501  0.00000000000E+00  0.00000000000E+00 -0.15702083775E+04  0.15702083775E+04  0.50400001928E-02 0.  1.
    10030    2    1    2    0    0  0.00000000000E+00  0.00000000000E+00  0.48648112879E+03  0.36268978838E+04  0.35941235887E+04 0.  0.
        2    1    3    3  502    0 -0.52116155933E+03  0.16529303160E+04 -0.23611010984E+03  0.17491529334E+04  0.25500000920E-02 0.  1.
       -2    1    3    3    0  502  0.52116155933E+03 -0.16529303160E+04  0.72259123863E+03  0.18777449504E+04  0.25500000920E-02 0. -1.
</event>
<event>
 5   0  0.1298250E-07  0.3589752E+04  0.7818609E-02  0.8092843E-01
        1   -1    0    0  501    0  0.00000000000E+00  0.00000000000E+00  0.24699452929E+04  0.24699452929E+04  0.50400001928E-02 0. -1.
       -1   -1    0    0    0  501  0.00000000000E+00  0.00000000000E+00 -0.13043120184E+04  0.13043120184E+04  0.50400001928E-02 0.  1.
    10030    2    1    2    0    0  0.00000000000E+00  0.00000000000E+00  0.11656332746E+04  0.37742573113E+04  0.35897517074E+04 0.  0.
        1    1    3    3  502    0  0.15927633696E+04 -0.28119786830E+03 -0.23539246737E+03  0.16344347667E+04  0.50400001928E-02 0.  1.
       -1    1    3    3    0  502 -0.15927633696E+04  0.28119786830E+03  0.14010257419E+04  0.21398225446E+04  0.50400001928E-02 0. -1.
</event>
<event>
 5   0  0.4120440E-07  0.3605512E+04  0.7818609E-02  0.8089230E-01
       -2   -1    0    0    0  501  0.00000000000E+00  0.00000000000E+00  0.10412926740E+04  0.10412926740E+04  0.25500000920E-02 0.  1.
        2   -1    0    0  501    0  0.00000000000E+00  0.00000000000E+00 -0.31210523344E+04  0.31210523344E+04  0.25500000920E-02 0. -1.
    10030    2    1    2    0    0  0.00000000000E+00  0.00000000000E+00 -0.20797596604E+04  0.41623450084E+04  0.36055118532E+04 0.  0.
        2    1    3    3  502    0  0.32217062523E+03 -0.16876420391E+03  0.99849985097E+03  0.10626745601E+04  0.25500000920E-02 0.  1.
       -2    1    3    3    0  502 -0.32217062523E+03  0.16876420391E+03 -0.30782595114E+04  0.30996704483E+04  0.25500000920E-02 0. -1.
</event>
<event>
 5   0  0.3880259E-07  0.3589392E+04  0.7818609E-02  0.8092926E-01
        2   -1    0    0  501    0  0.00000000000E+00  0.00000000000E+00  0.23133873310E+04  0.23133873310E+04  0.25500000920E-02 0.  1.
       -2   -1    0    0    0  501  0.00000000000E+00  0.00000000000E+00 -0.13923020423E+04  0.13923020423E+04  0.25500000920E-02 0. -1.
    10030    2    1    2    0    0  0.00000000000E+00  0.00000000000E+00  0.92108528867E+03  0.37056893733E+04  0.35893920965E+04 0.  0.
        5    1    3    3  502    0  0.39794453789E+03  0.11924231932E+04 -0.86184841652E+03  0.15241514722E+04  0.46999998093E+01 0. -1.
       -5    1    3    3    0  502 -0.39794453789E+03 -0.11924231932E+04  0.17829337052E+04  0.21815379011E+04  0.46999998093E+01 0.  1.
</event>
<event>
 5   0  0.1298250E-07  0.3695531E+04  0.7818609E-02  0.8068953E-01
        1   -1    0    0  501    0  0.00000000000E+00  0.00000000000E+00  0.19466493344E+04  0.19466493344E+04  0.50400001928E-02 0.  1.
       -1   -1    0    0    0  501  0.00000000000E+00  0.00000000000E+00 -0.17539048962E+04  0.17539048962E+04  0.50400001928E-02 0. -1.
    10030    2    1    2    0    0  0.00000000000E+00  0.00000000000E+00  0.19274443817E+03  0.37005542307E+04  0.36955312467E+04 0.  0.
        2    1    3    3  502    0  0.12383621070E+04  0.12043684687E+04 -0.56041078912E+03  0.18160683823E+04  0.25500000920E-02 0.  1.
       -2    1    3    3    0  502 -0.12383621070E+04 -0.12043684687E+04  0.75315522729E+03  0.18844858484E+04  0.25500000920E-02 0. -1.
</event>
<event>
 5   0  0.1361743E-07  0.3563500E+04  0.7818609E-02  0.8098904E-01
        1   -1    0    0  501    0  0.00000000000E+00  0.00000000000E+00  0.11484749629E+04  0.11484749629E+04  0.50400001928E-02 0. -1.
       -1   -1    0    0    0  501  0.00000000000E+00  0.00000000000E+00 -0.27642162776E+04  0.27642162776E+04  0.50400001928E-02 0.  1.
    10030    2    1    2    0    0  0.00000000000E+00  0.00000000000E+00 -0.16157413148E+04  0.39126912405E+04  0.35635000698E+04 0.  0.
        5    1    3    3  502    0 -0.72923490941E+02  0.41945421592E+03 -0.27075384498E+04  0.27408112343E+04  0.46999998093E+01 0.  1.
       -5    1    3    3    0  502  0.72923490941E+02 -0.41945421592E+03  0.10917971351E+04  0.11718800062E+04  0.46999998093E+01 0. -1.
</event>
<event>
 5   0  0.4200635E-07  0.3598317E+04  0.7818609E-02  0.8090877E-01
       -2   -1    0    0    0  501  0.00000000000E+00  0.00000000000E+00  0.14372982700E+04  0.14372982700E+04  0.25500000920E-02 0. -1.
        2   -1    0    0  501    0  0.00000000000E+00  0.00000000000E+00 -0.22521223735E+04  0.22521223735E+04  0.25500000920E-02 0.  1.
    10030    2    1    2    0    0  0.00000000000E+00  0.00000000000E+00 -0.81482410347E+03  0.36894206435E+04  0.35983171573E+04 0.  0.
        4    1    3    3  502    0 -0.11454010113E+04 -0.12070161662E+03  0.10097758560E+04  0.15317183975E+04  0.12699999809E+01 0. -1.
       -4    1    3    3    0  502  0.11454010113E+04  0.12070161662E+03 -0.18245999595E+04  0.21577022459E+04  0.12699999809E+01 0.  1.
</event>
<event>
 5   0  0.1370997E-07  0.3663540E+04  0.7818609E-02  0.8076090E-01
        1   -1    0    0  501    0  0.00000000000E+00  0.00000000000E+00  0.19576642166E+04  0.19576642166E+04  0.50400001928E-02 0. -1.
       -1   -1    0    0    0  501  0.00000000000E+00  0.00000000000E+00 -0.17139719227E+04  0.17139719227E+04  0.50400001928E-02 0.  1.
    10030    2    1    2    0    0  0.00000000000E+00  0.00000000000E+00  0.24369229391E+03  0.36716361393E+04  0.36635400920E+04 0.  0.
        3    1    3    3  502    0  0.94898244966E+03 -0.39243972996E+03 -0.13983463346E+04  0.17349204919E+04  0.10100000352E+00 0.  1.
       -3    1    3    3    0  502 -0.94898244966E+03  0.39243972996E+03  0.16420386285E+04  0.19367156475E+04  0.10100000352E+00 0. -1.
</event>
<event>
 5   0  0.1298250E-07  0.3626730E+04  0.7818609E-02  0.8084396E-01
        1   -1    0    0  501    0  0.00000000000E+00  0.00000000000E+00  0.22696029270E+04  0.22696029270E+04  0.50400001928E-02 0. -1.
       -1   -1    0    0    0  501  0.00000000000E+00  0.00000000000E+00 -0.14488403646E+04  0.14488403646E+04  0.50400001928E-02 0.  1.
    10030    2    1    2    0    0  0.00000000000E+00  0.00000000000E+00  0.82076256247E+03  0.37184432916E+04  0.36267298395E+04 0.  0.
        2    1    3    3  502    0 -0.29438528094E+03  0.15775105173E+04  0.12761825003E+04  0.20503277543E+04  0.25500000920E-02 0. -1.
       -2    1    3    3    0  502  0.29438528094E+03 -0.15775105173E+04 -0.45541993787E+03  0.16681155373E+04  0.25500000920E-02 0.  1.
</event>
<event>
 5   0  0.4120440E-07  0.3529450E+04  0.7818609E-02  0.8106846E-01
        2   -1    0    0  501    0  0.00000000000E+00  0.00000000000E+00  0.22000454188E+04  0.22000454188E+04  0.25500000920E-02 0.  1.
       -2   -1    0    0    0  501  0.00000000000E+00  0.00000000000E+00 -0.14155408097E+04  0.14155408097E+04  0.25500000920E-02 0. -1.
    10030    2    1    2    0    0  0.00000000000E+00  0.00000000000E+00  0.78450460908E+03  0.36155862284E+04  0.35294498571E+04 0.  0.
        2    1    3    3  502    0 -0.17046194390E+04 -0.36871838770E+03  0.66822138027E+03  0.18676724804E+04  0.25500000920E-02 0.  1.
       -2    1    3    3    0  502  0.17046194390E+04  0.36871838770E+03  0.11628322882E+03  0.17479137480E+04  0.25500000920E-02 0. -1.
</event>
<event>
 5   0  0.3880259E-07  0.3600830E+04  0.7818609E-02  0.8090302E-01
        2   -1    0    0  501    0  0.00000000000E+00  0.00000000000E+00  0.22516310957E+04  0.22516310957E+04  0.25500000920E-02 0. -1.
       -2   -1    0    0    0  501  0.00000000000E+00  0.00000000000E+00 -0.14396203201E+04  0.14396203201E+04  0.25500000920E-02 0.  1.
    10030    2    1    2    0    0  0.00000000000E+00  0.00000000000E+00  0.81201077563E+03  0.36912514158E+04  0.36008298370E+04 0.  0.
        5    1    3    3  502    0 -0.68633666985E+03 -0.16437137236E+04  0.67453556093E+03  0.19046976512E+04  0.46999998093E+01 0. -1.
       -5    1    3    3    0  502  0.68633666985E+03  0.16437137236E+04  0.13747521470E+03  0.17865537647E+04  0.46999998093E+01 0.  1.
</event>
<event>
 5   0  0.1348226E-07  0.3658543E+04  0.7818609E-02  0.8077212E-01
        1   -1    0    0  501    0  0.00000000000E+00  0.00000000000E+00  0.28825376285E+04  0.28825376285E+04  0.50400001928E-02 0. -1.
       -1   -1    0    0    0  501  0.00000000000E+00  0.00000000000E+00 -0.11608641842E+04  0.11608641842E+04  0.50400001928E-02 0.  1.
    10030    2    1    2    0    0  0.00000000000E+00  0.00000000000E+00  0.17216734443E+04  0.40434018127E+04  0.36585432579E+04 0.  0.
        4    1    3    3  502    0  0.10124792989E+03  0.15372726323E+04 -0.22920936581E+03  0.15575611820E+04  0.12699999809E+01 0.  1.
       -4    1    3    3    0  502 -0.10124792989E+03 -0.15372726323E+04  0.19508828101E+04  0.24858406307E+04  0.12699999809E+01 0. -1.
</event>
<event>
 5   0  0.3880259E-07  0.3559846E+04  0.7818609E-02  0.8099752E-01
        2   -1    0    0  501    0  0.00000000000E+00  0.00000000000E+00  0.27962334597E+04  0.27962334597E+04  0.25500000920E-02 0. -1.
       -2   -1    0    0    0  501  0.00000000000E+00  0.00000000000E+00 -0.11329975015E+04  0.11329975015E+04  0.25500000920E-02 0.  1.
    10030    2    1    2    0    0  0.00000000000E+00  0.00000000000E+00  0.16632359583E+04  0.39292309612E+04  0.35598457963E+04 0.  0.
        5    1    3    3  502    0 -0.97473171490E+03  0.58377526844E+02 -0.81095014326E+03  0.12693195329E+04  0.46999998093E+01 0.  1.
       -5    1    3    3    0  502  0.97473171490E+03 -0.58377526844E+02  0.24741861015E+04  0.26599114283E+04  0.46999998093E+01 0. -1.
</event>
<event>
 5   0  0.1370997E-07  0.3608906E+04  0.7818609E-02  0.8088455E-01
        1   -1    0    0  501    0  0.00000000000E+00  0.00000000000E+00  0.13469892354E+04  0.13469892354E+04  0.50400001928E-02 0.  1.
       -1   -1    0    0    0  501  0.00000000000E+00  0.00000000000E+00 -0.24172803322E+04  0.24172803322E+04  0.50400001928E-02 0. -1.
    10030    2    1    2    0    0  0.00000000000E+00  0.00000000000E+00 -0.10702910967E+04  0.37642695676E+04  0.36089059763E+04 0.  0.
        3    1    3    3  502    0 -0.17062037703E+04 -0.54298059607E+03 -0.30169952220E+03  0.18157593027E+04  0.10100000352E+00 0. -1.
       -3    1    3    3    0  502  0.17062037703E+04  0.54298059607E+03 -0.76859157452E+03  0.19485102649E+04  0.10100000352E+00 0.  1.
</event>
<event>
 5   0  0.4120440E-07  0.3597804E+04  0.7818609E-02  0.8090995E-01
        2   -1    0    0  501    0  0.00000000000E+00  0.00000000000E+00  0.19107793544E+04  0.19107793544E+04  0.25500000920E-02 0. -1.
       -2   -1    0    0    0  501  0.00000000000E+00  0.00000000000E+00 -0.16935750636E+04  0.16935750636E+04  0.25500000920E-02 0.  1.
    10030    2    1    2    0    0  0.00000000000E+00  0.00000000000E+00  0.21720429085E+03  0.36043544180E+04  0.35978039227E+04 0.  0.
        2    1    3    3  502    0 -0.36411309175E+02  0.16552721263E+04 -0.59609641184E+03  0.17597109216E+04  0.25500000920E-02 0.  1.
       -2    1    3    3    0  502  0.36411309175E+02 -0.16552721263E+04  0.81330070268E+03  0.18446434963E+04  0.25500000920E-02 0. -1.
</event>
<event>
 5   0  0.4115358E-07  0.3500910E+04  0.7818609E-02  0.8113574E-01
       -2   -1    0    0    0  501  0.00000000000E+00  0.00000000000E+00  0.12784093033E+04  0.12784093033E+04  0.25500000920E-02 0. -1.
        2   -1    0    0  501    0  0.00000000000E+00  0.00000000000E+00 -0.23968005721E+04  0.23968005721E+04  0.25500000920E-02 0.  1.
    10030    2    1    2    0    0  0.00000000000E+00  0.00000000000E+00 -0.11183912688E+04  0.36752098754E+04  0.35009096815E+04 0.  0.
        3    1    3    3  502    0  0.13253985402E+03 -0.76304334947E+03 -0.22071575112E+04  0.23390909036E+04  0.10100000352E+00 0.  1.
       -3    1    3    3    0  502 -0.13253985402E+03  0.76304334947E+03  0.10887662424E+04  0.13361189718E+04  0.10100000352E+00 0. -1.
</event>
<event>
 5   0  0.3993751E-07  0.3668186E+04  0.7818609E-02  0.8075049E-01
       -2   -1    0    0    0  501  0.00000000000E+00  0.00000000000E+00  0.13801251447E+04  0.13801251447E+04  0.25500000920E-02 0.  1.
        2   -1    0    0  501    0  0.00000000000E+00  0.00000000000E+00 -0.24373858766E+04  0.24373858766E+04  0.25500000920E-02 0. -1.
    10030    2    1    2    0    0  0.00000000000E+00  0.00000000000E+00 -0.10572607318E+04  0.38175110213E+04  0.36681862198E+04 0.  0.
        1    1    3    3  502    0 -0.12941334166E+04  0.12269045830E+04 -0.82433068415E+02  0.17851810459E+04  0.50400001928E-02 0.  1.
       -1    1    3    3    0  502  0.12941334166E+04 -0.12269045830E+04 -0.97482766340E+03  0.20323299754E+04  0.50400001928E-02 0. -1.
</event>
<event>
 5   0  0.1298250E-07  0.3651807E+04  0.7818609E-02  0.8078727E-01
       -1   -1    0    0    0  501  0.00000000000E+00  0.00000000000E+00  0.16311599804E+04  0.16311599804E+04  0.50400001928E-02 0. -1.
        1   -1    0    0  501    0  0.00000000000E+00  0.00000000000E+00 -0.20438976073E+04  0.20438976073E+04  0.50400001928E-02 0.  1.
    10030    2    1    2    0    0  0.00000000000E+00  0.00000000000E+00 -0.41273762692E+03  0.36750575877E+04  0.36518072135E+04 0.  0.
        1    1    3    3  502    0  0.13159875940E+04 -0.56421827054E+03 -0.13466132236E+04  0.19655871333E+04  0.50400001928E-02 0.  1.
       -1    1    3    3    0  502 -0.13159875940E+04  0.56421827054E+03  0.93387559669E+03  0.17094704544E+04  0.50400001928E-02 0. -1.
</event>
<event>
 5   0  0.4115358E-07  0.3592257E+04  0.7818609E-02  0.8092268E-01
       -2   -1    0    0    0  501  0.00000000000E+00  0.00000000000E+00  0.16970096101E+04  0.16970096101E+04  0.25500000920E-02 0. -1.
        2   -1    0    0  501    0  0.00000000000E+00  0.00000000000E+00 -0.19010371234E+04  0.19010371234E+04  0.25500000920E-02 0.  1.
    10030    2    1    2    0    0  0.00000000000E+00  0.00000000000E+00 -0.20402751330E+03  0.35980467335E+04  0.35922573781E+04 0.  0.
        3    1    3    3  502    0 -0.11913759254E+03  0.15233516959E+04  0.84358618017E+03  0.17454030505E+04  0.10100000352E+00 0. -1.
       -3    1    3    3    0  502  0.11913759254E+03 -0.15233516959E+04 -0.10476136935E+04  0.18526436830E+04  0.10100000352E+00 0.  1.
</event>
<event>
 5   0  0.1348226E-07  0.3612233E+04  0.7818609E-02  0.8087695E-01
       -1   -1    0    0    0  501  0.00000000000E+00  0.00000000000E+00  0.14648616245E+04  0.14648616245E+04  0.50400001928E-02 0. -1.
        1   -1    0    0  501    0  0.00000000000E+00  0.00000000000E+00 -0.22268698932E+04  0.22268698932E+04  0.50400001928E-02 0.  1.
    10030    2    1    2    0    0  0.00000000000E+00  0.00000000000E+00 -0.76200826871E+03  0.36917315178E+04  0.36122326888E+04 0.  0.
        4    1    3    3  502    0 -0.17070323881E+04 -0.57272505691E+03 -0.23617770193E+03  0.18159722148E+04  0.12699999809E+01 0. -1.
       -4    1    3    3    0  502  0.17070323881E+04  0.57272505691E+03 -0.52583056678E+03  0.18757593030E+04  0.12699999809E+01 0.  1.
</event>
<event>
 5   0  0.3880259E-07  0.3592155E+04  0.7818609E-02  0.8092291E-01
       -2   -1    0    0    0  501  0.00000000000E+00  0.00000000000E+00  0.29313422391E+04  0.29313422392E+04  0.25500000920E-02 0. -1.
        2   -1    0    0  501    0  0.00000000000E+00  0.00000000000E+00 -0.11004835907E+04  0.11004835907E+04  0.25500000920E-02 0.  1.
    10030    2    1    2    0    0  0.00000000000E+00  0.00000000000E+00  0.18308586484E+04  0.40318258299E+04  0.35921548034E+04 0.  0.
        5    1    3    3  502    0  0.80349427265E+03  0.12075534918E+04  0.21043675741E+04  0.25558117025E+04  0.46999998093E+01 0. -1.
       -5    1    3    3    0  502 -0.80349427265E+03 -0.12075534918E+04 -0.27350892565E+03  0.14760141274E+04  0.46999998093E+01 0.  1.
</event>
<event>
 5   0  0.1348226E-07  0.3575507E+04  0.7818609E-02  0.8096125E-01
       -1   -1    0    0    0  501  0.00000000000E+00  0.00000000000E+00  0.19140048721E+04  0.19140048721E+04  0.50400001928E-02 0. -1.
        1   -1    0    0  501    0  0.00000000000E+00  0.00000000000E+00 -0.16698298482E+04  0.16698298482E+04  0.50400001928E-02 0.  1.
    10030    2    1    2    0    0  0.00000000000E+00  0.00000000000E+00  0.24417502391E+03  0.35838347203E+04  0.35755069375E+04 0.  0.
        4    1    3    3  502    0  0.23194470456E+03 -0.21494068807E+03  0.18857490451E+04  0.19120797367E+04  0.12699999809E+01 0. -1.
       -4    1    3    3    0  502 -0.23194470456E+03  0.21494068807E+03 -0.16415740212E+04  0.16717549836E+04  0.12699999809E+01 0.  1.
</event>
<event>
 5   0  0.1361743E-07  0.3615781E+04  0.7818609E-02  0.8086886E-01
       -1   -1    0    0    0  501  0.00000000000E+00  0.00000000000E+00  0.12946809146E+04  0.12946809146E+04  0.50400001928E-02 0.  1.
        1   -1    0    0  501    0  0.00000000000E+00  0.00000000000E+00 -0.25245351472E+04  0.25245351472E+04  0.50400001928E-02 0. -1.
    10030    2    1    2    0    0  0.00000000000E+00  0.00000000000E+00 -0.12298542326E+04  0.38192160619E+04  0.36157806756E+04 0.  0.
        5    1    3    3  502    0  0.93450509455E+03 -0.36907446926E+02 -0.22491623854E+04  0.24358603116E+04  0.46999998093E+01 0. -1.
       -5    1    3    3    0  502 -0.93450509455E+03  0.36907446926E+02  0.10193081529E+04  0.13833557503E+04  0.46999998093E+01 0.  1.
</event>
<event>
 5   0  0.3993751E-07  0.3550853E+04  0.7818609E-02  0.8101843E-01
       -2   -1    0    0    0  501  0.00000000000E+00  0.00000000000E+00  0.12952402099E+04  0.12952402099E+04  0.25500000920E-02 0. -1.
        2   -1    0    0  501    0  0.00000000000E+00  0.00000000000E+00 -0.24336331557E+04  0.24336331557E+04  0.25500000920E-02 0.  1.
    10030    2    1    2    0    0  0.00000000000E+00  0.00000000000E+00 -0.11383929458E+04  0.37288733656E+04  0.35508531479E+04 0.  0.
        1    1    3    3  502    0 -0.10809331739E+04  0.54991808873E+03  0.79246522091E+03  0.14487330869E+04  0.50400001928E-02 0. -1.
       -1    1    3    3    0  502  0.10809331739E+04 -0.54991808873E+03 -0.19308581667E+04  0.22801402787E+04  0.50400001928E-02 0.  1.
</event>
<event>
 5   0  0.4200635E-07  0.3608653E+04  0.7818609E-02  0.8088513E-01
       -2   -1    0    0    0  501  0.00000000000E+00  0.00000000000E+00  0.99533809783E+03  0.99533809783E+03  0.25500000920E-02 0. -1.
        2   -1    0    0  501    0  0.00000000000E+00  0.00000000000E+00 -0.32708420973E+04  0.32708420973E+04  0.25500000920E-02 0.  1.
    10030    2    1    2    0    0  0.00000000000E+00  0.00000000000E+00 -0.22755039995E+04  0.42661801952E+04  0.36086527965E+04 0.  0.
        4    1    3    3  502    0  0.10571781058E+04  0.14516312815E+04 -0.93050030793E+03  0.20225457624E+04  0.12699999809E+01 0. -1.
       -4    1    3    3    0  502 -0.10571781058E+04 -0.14516312815E+04 -0.13450036916E+04  0.22436344328E+04  0.12699999809E+01 0.  1.
</event>
<event>
 5   0  0.4115358E-07  0.3238140E+04  0.7818609E-02  0.8178816E-01
        2   -1    0    0  501    0  0.00000000000E+00  0.00000000000E+00  0.19443425828E+04  0.19443425828E+04  0.25500000920E-02 0. -1.
       -2   -1    0    0    0  501  0.00000000000E+00  0.00000000000E+00 -0.13482129374E+04  0.13482129374E+04  0.25500000920E-02 0.  1.
    10030    2    1    2    0    0  0.00000000000E+00  0.00000000000E+00  0.59612964543E+03  0.32925555202E+04  0.32381400988E+04 0.  0.
        3    1    3    3  502    0  0.15258746246E+04 -0.35175562123E+03  0.71651716890E+03  0.17220401420E+04  0.10100000352E+00 0.  1.
       -3    1    3    3    0  502 -0.15258746246E+04  0.35175562123E+03 -0.12038752347E+03  0.15705153782E+04  0.10100000352E+00 0. -1.
</event>
<event>
 5   0  0.1348226E-07  0.3644063E+04  0.7818609E-02  0.8080472E-01
        1   -1    0    0  501    0  0.00000000000E+00  0.00000000000E+00  0.13879121122E+04  0.13879121122E+04  0.50400001928E-02 0.  1.
       -1   -1    0    0    0  501  0.00000000000E+00  0.00000000000E+00 -0.23919373317E+04  0.23919373317E+04  0.50400001928E-02 0. -1.
    10030    2    1    2    0    0  0.00000000000E+00  0.00000000000E+00 -0.10040252196E+04  0.37798494439E+04  0.36440630040E+04 0.  0.
        4    1    3    3  502    0 -0.13676868786E+04 -0.10206240061E+04 -0.11642024222E+04  0.20658193658E+04  0.12699999809E+01 0. -1.
       -4    1    3    3    0  502  0.13676868786E+04  0.10206240061E+04  0.16017720262E+03  0.17140300781E+04  0.12699999809E+01 0.  1.
</event>
<event>
 5   0  0.1298250E-07  0.3609435E+04  0.7818609E-02  0.8088334E-01
       -1   -1    0    0    0  501  0.00000000000E+00  0.00000000000E+00  0.13482382592E+04  0.13482382592E+04  0.50400001928E-02 0.  1.
        1   -1    0    0  501    0  0.00000000000E+00  0.00000000000E+00 -0.24157488243E+04  0.24157488243E+04  0.50400001928E-02 0. -1.
    10030    2    1    2    0    0  0.00000000000E+00  0.00000000000E+00 -0.10675105651E+04  0.37639870835E+04  0.36094348530E+04 0.  0.
        2    1    3    3  502    0 -0.56054232234E+03 -0.52285699349E+03  0.11700391612E+04  0.13987775983E+04  0.25500000920E-02 0.  1.
       -2    1    3    3    0  502  0.56054232234E+03  0.52285699349E+03 -0.22375497264E+04  0.23652094852E+04  0.25500000920E-02 0. -1.
</event>
<event>
 5   0  0.3880259E-07  0.3717523E+04  0.7818609E-02  0.8064090E-01
        2   -1    0    0  501    0  0.00000000000E+00  0.00000000000E+00  0.23454923799E+04  0.23454923799E+04  0.25500000920E-02 0. -1.
       -2   -1    0    0    0  501  0.00000000000E+00  0.00000000000E+00 -0.14730355407E+04  0.14730355407E+04  0.25500000920E-02 0.  1.
    10030    2    1    2    0    0  0.00000000000E+00  0.00000000000E+00  0.87245683911E+03  0.38185279206E+04  0.37175226354E+04 0.  0.
        5    1    3    3  502    0 -0.44147632712E+03 -0.17926946628E+04  0.65728735854E+03  0.19597714824E+04  0.46999998093E+01 0.  1.
       -5    1    3    3    0  502  0.44147632712E+03  0.17926946628E+04  0.21516948058E+03  0.18587564383E+04  0.46999998093E+01 0. -1.
</event>
<event>
 5   0  0.1298250E-07  0.3477071E+04  0.7818609E-02  0.8119245E-01
       -1   -1    0    0    0  501  0.00000000000E+00  0.00000000000E+00  0.11918014584E+04  0.11918014584E+04  0.50400001928E-02 0.  1.
        1   -1    0    0  501    0  0.00000000000E+00  0.00000000000E+00 -0.25360814021E+04  0.25360814021E+04  0.50400001928E-02 0. -1.
    10030    2    1    2    0    0  0.00000000000E+00  0.00000000000E+00 -0.13442799437E+04  0.37278828605E+04  0.34770709015E+04 0.  0.
        1    1    3    3  502    0  0.30701129976E+03 -0.10360693207E+04  0.78801320544E+03  0.13374080856E+04  0.50400001928E-02 0.  1.
       -1    1    3    3    0  502 -0.30701129976E+03  0.10360693207E+04 -0.21322931492E+04  0.23904747749E+04  0.50400001928E-02 0. -1.
</event>
<event>
 5   0  0.4115358E-07  0.3584448E+04  0.7818609E-02  0.8094063E-01
        2   -1    0    0  501    0  0.00000000000E+00  0.00000000000E+00  0.14844127555E+04  0.14844127555E+04  0.25500000920E-02 0.  1.
       -2   -1    0    0    0  501  0.00000000000E+00  0.00000000000E+00 -0.21638641306E+04  0.21638641306E+04  0.25500000920E-02 0. -1.
    10030    2    1    2    0    0  0.00000000000E+00  0.00000000000E+00 -0.67945137505E+03  0.36482768861E+04  0.35844483629E+04 0.  0.
        3    1    3    3  502    0 -0.11305395242E+04 -0.11621935565E+04  0.43758445887E+03  0.16793729923E+04  0.10100000352E+00 0.  1.
       -3    1    3    3    0  502  0.11305395242E+04  0.11621935565E+04 -0.11170358339E+04  0.19689038938E+04  0.10100000352E+00 0. -1.
</event>
<event>
 5   0  0.1298250E-07  0.3601077E+04  0.7818609E-02  0.8090245E-01
       -1   -1    0    0    0  501  0.00000000000E+00  0.00000000000E+00  0.21525950656E+04  0.21525950656E+04  0.50400001928E-02 0.  1.
        1   -1    0    0  501    0  0.00000000000E+00  0.00000000000E+00 -0.15060604833E+04  0.15060604833E+04  0.50400001928E-02 0. -1.
    10030    2    1    2    0    0  0.00000000000E+00  0.00000000000E+00  0.64653458237E+03  0.36586555489E+04  0.36010767083E+04 0.  0.
        2    1    3    3  502    0 -0.16444811043E+04  0.57481729295E+03  0.78574374415E+03  0.19110537026E+04  0.25500000920E-02 0. -1.
       -2    1    3    3    0  502  0.16444811043E+04 -0.57481729295E+03 -0.13920916178E+03  0.17476018463E+04  0.25500000920E-02 0.  1.
</event>
<event>
 5   0  0.1348226E-07  0.3544559E+04  0.7818609E-02  0.8103311E-01
        1   -1    0    0  501    0  0.00000000000E+00  0.00000000000E+00  0.22996922370E+04  0.22996922370E+04  0.50400001928E-02 0.  1.
       -1   -1    0    0    0  501  0.00000000000E+00  0.00000000000E+00 -0.13658235458E+04  0.13658235458E+04  0.50400001928E-02 0. -1.
    10030    2    1    2    0    0  0.00000000000E+00  0.00000000000E+00  0.93386869122E+03  0.36655157828E+04  0.35445585369E+04 0.  0.
        4    1    3    3  502    0 -0.14827873020E+04 -0.38950373749E+03  0.13864340179E+04  0.20670201361E+04  0.12699999809E+01 0.  1.
       -4    1    3    3    0  502  0.14827873020E+04  0.38950373749E+03 -0.45256532663E+03  0.15984956466E+04  0.12699999809E+01 0. -1.
</event>
<event>
 5   0  0.4200635E-07  0.3600181E+04  0.7818609E-02  0.8090450E-01
       -2   -1    0    0    0  501  0.00000000000E+00  0.00000000000E+00  0.14235542245E+04  0.14235542246E+04  0.25500000920E-02 0.  1.
        2   -1    0    0  501    0  0.00000000000E+00  0.00000000000E+00 -0.22762220654E+04  0.22762220654E+04  0.25500000920E-02 0. -1.
    10030    2    1    2    0    0  0.00000000000E+00  0.00000000000E+00 -0.85266784088E+03  0.36997762900E+04  0.36001808495E+04 0.  0.
        4    1    3    3  502    0 -0.23309644853E+03 -0.53699430404E+03  0.13229986969E+04  0.14467287243E+04  0.12699999809E+01 0.  1.
       -4    1    3    3    0  502  0.23309644853E+03  0.53699430404E+03 -0.21756665378E+04  0.22530475657E+04  0.12699999809E+01 0. -1.
</event>
<event>
 5   0  0.1361743E-07  0.3626839E+04  0.7818609E-02  0.8084371E-01
        1   -1    0    0  501    0  0.00000000000E+00  0.00000000000E+00  0.18888713056E+04  0.18888713056E+04  0.50400001928E-02 0.  1.
       -1   -1    0    0    0  501  0.00000000000E+00  0.00000000000E+00 -0.17409818316E+04  0.17409818317E+04  0.50400001928E-02 0. -1.
    10030    2    1    2    0    0  0.00000000000E+00  0.00000000000E+00  0.14788947397E+03  0.36298531373E+04  0.36268391888E+04 0.  0.
        5    1    3    3  502    0  0.16373444341E+04  0.47583865607E+03  0.69183069397E+03  0.18401008183E+04  0.46999998093E+01 0.  1.
       -5    1    3    3    0  502 -0.16373444341E+04 -0.47583865607E+03 -0.54394122000E+03  0.17897523190E+04  0.46999998093E+01 0. -1.
</event>
<event>
 5   0  0.4120440E-07  0.3638404E+04  0.7818609E-02  0.8081751E-01
       -2   -1    0    0    0  501  0.00000000000E+00  0.00000000000E+00  0.18573897885E+04  0.18573897885E+04  0.25500000920E-02 0. -1.
        2   -1    0    0  501    0  0.00000000000E+00  0.00000000000E+00 -0.17817997841E+04  0.17817997841E+04  0.25500000920E-02 0.  1.
    10030    2    1    2    0    0  0.00000000000E+00  0.00000000000E+00  0.75590004434E+02  0.36391895726E+04  0.36384044438E+04 0.  0.
        2    1    3    3  502    0 -0.85390210121E+03  0.13177232979E+04 -0.88107251133E+03  0.18005088887E+04  0.25500000920E-02 0.  1.
       -2    1    3    3    0  502  0.85390210121E+03 -0.13177232979E+04  0.95666251576E+03  0.18386806839E+04  0.25500000920E-02 0. -1.
</event>
<event>
 5   0  0.1348226E-07  0.3601568E+04  0.7818609E-02  0.8090133E-01
        1   -1    0    0  501    0  0.00000000000E+00  0.00000000000E+00  0.15245729047E+04  0.15245729047E+04  0.50400001928E-02 0. -1.
       -1   -1    0    0    0  501  0.00000000000E+00  0.00000000000E+00 -0.21270371846E+04  0.21270371846E+04  0.50400001928E-02 0.  1.
    10030    2    1    2    0    0  0.00000000000E+00  0.00000000000E+00 -0.60246427989E+03  0.36516100894E+04  0.36015681357E+04 0.  0.
        4    1    3    3  502    0 -0.13035640454E+04 -0.11989750457E+04  0.28869960587E+02  0.17713428432E+04  0.12699999809E+01 0. -1.
       -4    1    3    3    0  502  0.13035640454E+04  0.11989750457E+04 -0.63133424048E+03  0.18802672461E+04  0.12699999809E+01 0.  1.
</event>
<event>
 5   0  0.1298250E-07  0.3579155E+04  0.7818609E-02  0.8095283E-01
        1   -1    0    0  501    0  0.00000000000E+00  0.00000000000E+00  0.23773158590E+04  0.23773158590E+04  0.50400001928E-02 0. -1.
       -1   -1    0    0    0  501  0.00000000000E+00  0.00000000000E+00 -0.13471443699E+04  0.13471443699E+04  0.50400001928E-02 0.  1.
    10030    2    1    2    0    0  0.00000000000E+00  0.00000000000E+00  0.10301714891E+04  0.37244602289E+04  0.35791550260E+04 0.  0.
        1    1    3    3  502    0  0.80190930620E+03  0.53765777949E+03  0.20830606710E+04  0.22959259967E+04  0.50400001928E-02 0. -1.
       -1    1    3    3    0  502 -0.80190930620E+03 -0.53765777949E+03 -0.10528891819E+04  0.14285342322E+04  0.50400001928E-02 0.  1.
</event>
<event>
 5   0  0.4120440E-07  0.3629808E+04  0.7818609E-02  0.8083698E-01
        2   -1    0    0  501    0  0.00000000000E+00  0.00000000000E+00  0.22421987667E+04  0.22421987667E+04  0.25500000920E-02 0.  1.
       -2   -1    0    0    0  501  0.00000000000E+00  0.00000000000E+00 -0.14690385090E+04  0.14690385090E+04  0.25500000920E-02 0. -1.
    10030    2    1    2    0    0  0.00000000000E+00  0.00000000000E+00  0.77316025773E+03  0.37112372758E+04  0.36298078920E+04 0.  0.
        2    1    3    3  502    0 -0.15228267289E+04  0.97259984804E+03  0.56046785628E+03  0.18918445836E+04  0.25500000920E-02 0.  1.
       -2    1    3    3    0  502  0.15228267289E+04 -0.97259984804E+03  0.21269240145E+03  0.18193926922E+04  0.25500000920E-02 0. -1.
</event>
<event>
 5   0  0.3993751E-07  0.3596952E+04  0.7818609E-02  0.8091190E-01
       -2   -1    0    0    0  501  0.00000000000E+00  0.00000000000E+00  0.13129616413E+04  0.13129616413E+04  0.25500000920E-02 0.  1.
        2   -1    0    0  501    0  0.00000000000E+00  0.00000000000E+00 -0.24635261708E+04  0.24635261708E+04  0.25500000920E-02 0. -1.
    10030    2    1    2    0    0  0.00000000000E+00  0.00000000000E+00 -0.11505645295E+04  0.37764878121E+04  0.35969516898E+04 0.  0.
        1    1    3    3  502    0 -0.37142162460E+03 -0.12458844078E+04 -0.18800223711E+04  0.22857528512E+04  0.50400001928E-02 0. -1.
       -1    1    3    3    0  502  0.37142162460E+03  0.12458844078E+04  0.72945784167E+03  0.14907349609E+04  0.50400001928E-02 0.  1.
</event>
<event>
 5   0  0.1298250E-07  0.3740587E+04  0.7818609E-02  0.8059026E-01
       -1   -1    0    0    0  501  0.00000000000E+00  0.00000000000E+00  0.12509661205E+04  0.12509661205E+04  0.50400001928E-02 0. -1.
        1   -1    0    0  501    0  0.00000000000E+00  0.00000000000E+00 -0.27962370366E+04  0.27962370367E+04  0.50400001928E-02 0.  1.
    10030    2    1    2    0    0  0.00000000000E+00  0.00000000000E+00 -0.15452709161E+04  0.40472031572E+04  0.37405870116E+04 0.  0.
        2    1    3    3  502    0  0.13450953149E+04  0.12974185378E+04 -0.85230203531E+03  0.20540192374E+04  0.25500000920E-02 0. -1.
       -2    1    3    3    0  502 -0.13450953149E+04 -0.12974185378E+04 -0.69296888080E+03  0.19931839198E+04  0.25500000920E-02 0.  1.
</event>
<event>
 5   0  0.1298250E-07  0.3581424E+04  0.7818609E-02  0.8094760E-01
        1   -1    0    0  501    0  0.00000000000E+00  0.00000000000E+00  0.14897596858E+04  0.14897596858E+04  0.50400001928E-02 0.  1.
       -1   -1    0    0    0  501  0.00000000000E+00  0.00000000000E+00 -0.21524610543E+04  0.21524610543E+04  0.50400001928E-02 0. -1.
    10030    2    1    2    0    0  0.00000000000E+00  0.00000000000E+00 -0.66270136847E+03  0.36422207401E+04  0.35814241324E+04 0.  0.
        1    1    3    3  502    0 -0.98177042725E+03  0.26474135512E+03  0.11676755897E+04  0.15483628256E+04  0.50400001928E-02 0.  1.
       -1    1    3    3    0  502  0.98177042725E+03 -0.26474135512E+03 -0.18303769582E+04  0.20938579145E+04  0.50400001928E-02 0. -1.
</event>
<event>
 5   0  0.1298250E-07  0.3643944E+04  0.7818609E-02  0.8080499E-01
        1   -1    0    0  501    0  0.00000000000E+00  0.00000000000E+00  0.23290916587E+04  0.23290916587E+04  0.50400001928E-02 0.  1.
       -1   -1    0    0    0  501  0.00000000000E+00  0.00000000000E+00 -0.14252687984E+04  0.14252687984E+04  0.50400001928E-02 0. -1.
    10030    2    1    2    0    0  0.00000000000E+00  0.00000000000E+00  0.90382286031E+03  0.37543604572E+04  0.36439438359E+04 0.  0.
        1    1    3    3  502    0 -0.96086121936E+03  0.13734244477E+04  0.11877173738E+04  0.20543177838E+04  0.50400001928E-02 0.  1.
       -1    1    3    3    0  502  0.96086121936E+03 -0.13734244477E+04 -0.28389451354E+03  0.17000426734E+04  0.50400001928E-02 0. -1.
</event>
<event>
 5   0  0.4200635E-07  0.3597919E+04  0.7818609E-02  0.8090969E-01
        2   -1    0    0  501    0  0.00000000000E+00  0.00000000000E+00  0.11320506087E+04  0.11320506087E+04  0.25500000920E-02 0.  1.
       -2   -1    0    0    0  501  0.00000000000E+00  0.00000000000E+00 -0.28587551183E+04  0.28587551183E+04  0.25500000920E-02 0. -1.
    10030    2    1    2    0    0  0.00000000000E+00  0.00000000000E+00 -0.17267045095E+04  0.39908057270E+04  0.35979191052E+04 0.  0.
        4    1    3    3  502    0  0.72324418810E+03 -0.75777151604E+03  0.75886836738E+03  0.12935156118E+04  0.12699999809E+01 0.  1.
       -4    1    3    3    0  502 -0.72324418810E+03  0.75777151604E+03 -0.24855728769E+04  0.26972901152E+04  0.12699999809E+01 0. -1.
</event>
<event>
 5   0  0.1370997E-07  0.3681366E+04  0.7818609E-02  0.8072104E-01
       -1   -1    0    0    0  501  0.00000000000E+00  0.00000000000E+00  0.25880079228E+04  0.25880079228E+04  0.50400001928E-02 0.  1.
        1   -1    0    0  501    0  0.00000000000E+00  0.00000000000E+00 -0.13091589011E+04  0.13091589011E+04  0.50400001928E-02 0. -1.
    10030    2    1    2    0    0  0.00000000000E+00  0.00000000000E+00  0.12788490217E+04  0.38971668240E+04  0.36813658381E+04 0.  0.
        3    1    3    3  502    0 -0.98474937122E+03 -0.15275671829E+04  0.33093031655E+03  0.18473515386E+04  0.10100000352E+00 0. -1.
       -3    1    3    3    0  502  0.98474937122E+03  0.15275671829E+04  0.94791870515E+03  0.20498152854E+04  0.10100000352E+00 0.  1.
</event>
<event>
 5   0  0.1298250E-07  0.3570066E+04  0.7818609E-02  0.8097383E-01
        1   -1    0    0  501    0  0.00000000000E+00  0.00000000000E+00  0.22832280588E+04  0.22832280588E+04  0.50400001928E-02 0.  1.
       -1   -1    0    0    0  501  0.00000000000E+00  0.00000000000E+00 -0.13955426501E+04  0.13955426501E+04  0.50400001928E-02 0. -1.
    10030    2    1    2    0    0  0.00000000000E+00  0.00000000000E+00  0.88768540867E+03  0.36787707090E+04  0.35700656218E+04 0.  0.
        1    1    3    3  502    0  0.50726444199E+03 -0.11464533858E+04  0.17532306828E+04  0.21553399749E+04  0.50400001928E-02 0.  1.
       -1    1    3    3    0  502 -0.50726444199E+03  0.11464533858E+04 -0.86554527415E+03  0.15234307341E+04  0.50400001928E-02 0. -1.
</event>
<event>
 5   0  0.1298250E-07  0.3566220E+04  0.7818609E-02  0.8098273E-01
        1   -1    0    0  501    0  0.00000000000E+00  0.00000000000E+00  0.22024458414E+04  0.22024458414E+04  0.50400001928E-02 0.  1.
       -1   -1    0    0    0  501  0.00000000000E+00  0.00000000000E+00 -0.14436140521E+04  0.14436140521E+04  0.50400001928E-02 0. -1.
    10030    2    1    2    0    0  0.00000000000E+00  0.00000000000E+00  0.75883178934E+03  0.36460598935E+04  0.35662202768E+04 0.  0.
        1    1    3    3  502    0  0.16445332873E+04  0.68678026720E+03  0.43836873719E+03  0.18352994355E+04  0.50400001928E-02 0.  1.
       -1    1    3    3    0  502 -0.16445332873E+04 -0.68678026720E+03  0.32046305215E+03  0.18107604580E+04  0.50400001928E-02 0. -1.
</event>
<event>
 5   0  0.4200635E-07  0.3474369E+04  0.7818609E-02  0.8119891E-01
        2   -1    0    0  501    0  0.00000000000E+00  0.00000000000E+00  0.25262258219E+04  0.25262258219E+04  0.25500000920E-02 0.  1.
       -2   -1    0    0    0  501  0.00000000000E+00  0.00000000000E+00 -0.11945922764E+04  0.11945922764E+04  0.25500000920E-02 0. -1.
    10030    2    1    2    0    0  0.00000000000E+00  0.00000000000E+00  0.13316335456E+04  0.37208180983E+04  0.34743689241E+04 0.  0.
        4    1    3    3  502    0 -0.16746572195E+04 -0.44114885913E+02  0.11581962186E+04  0.20366253999E+04  0.12699999809E+01 0.  1.
       -4    1    3    3    0  502  0.16746572195E+04  0.44114885913E+02  0.17343732701E+03  0.16841926984E+04  0.12699999809E+01 0. -1.
</event>
<event>
 5   0  0.4115358E-07  0.3491015E+04  0.7818609E-02  0.8115923E-01
       -2   -1    0    0    0  501  0.00000000000E+00  0.00000000000E+00  0.16825958002E+04  0.16825958002E+04  0.25500000920E-02 0. -1.
        2   -1    0    0  501    0  0.00000000000E+00  0.00000000000E+00 -0.18107711928E+04  0.18107711928E+04  0.25500000920E-02 0.  1.
    10030    2    1    2    0    0  0.00000000000E+00  0.00000000000E+00 -0.12817539254E+03  0.34933669930E+04  0.34910147545E+04 0.  0.
        3    1    3    3  502    0 -0.31779173738E+03 -0.10540256975E+04  0.12913855356E+04  0.16969497256E+04  0.10100000352E+00 0. -1.
       -3    1    3    3    0  502  0.31779173738E+03  0.10540256975E+04 -0.14195609282E+04  0.17964172674E+04  0.10100000352E+00 0.  1.
</event>
<event>
 5   0  0.3880259E-07  0.3592757E+04  0.7818609E-02  0.8092153E-01
        2   -1    0    0  501    0  0.00000000000E+00  0.00000000000E+00  0.21581553977E+04  0.21581553977E+04  0.25500000920E-02 0.  1.
       -2   -1    0    0    0  501  0.00000000000E+00  0.00000000000E+00 -0.14952470729E+04  0.14952470729E+04  0.25500000920E-02 0. -1.
    10030    2    1    2    0    0  0.00000000000E+00  0.00000000000E+00  0.66290832478E+03  0.36534024706E+04  0.35927569031E+04 0.  0.
        5    1    3    3  502    0 -0.95678562228E+03 -0.91291969478E+03 -0.90483616390E+03  0.16023768813E+04  0.46999998093E+01 0. -1.
       -5    1    3    3    0  502  0.95678562228E+03  0.91291969478E+03  0.15677444887E+04  0.20510255893E+04  0.46999998093E+01 0.  1.
</event>
<event>
 5   0  0.4115358E-07  0.3353741E+04  0.7818609E-02  0.8149354E-01
        2   -1    0    0  501    0  0.00000000000E+00  0.00000000000E+00  0.18403882707E+04  0.18403882707E+04  0.25500000920E-02 0. -1.
       -2   -1    0    0    0  501  0.00000000000E+00  0.00000000000E+00 -0.15278809486E+04  0.15278809486E+04  0.25500000920E-02 0.  1.
    10030    2    1    2    0    0  0.00000000000E+00  0.00000000000E+00  0.31250732207E+03  0.33682692194E+04  0.33537407037E+04 0.  0.
        3    1    3    3  502    0 -0.15678823701E+04 -0.47147157427E+03 -0.20774375116E+03  0.16503630050E+04  0.10100000352E+00 0. -1.
       -3    1    3    3    0  502  0.15678823701E+04  0.47147157427E+03  0.52025107323E+03  0.17179062144E+04  0.10100000352E+00 0.  1.
</event>
<event>
 5   0  0.1361743E-07  0.3596707E+04  0.7818609E-02  0.8091246E-01
       -1   -1    0    0    0  501  0.00000000000E+00  0.00000000000E+00  0.17111522495E+04  0.17111522495E+04  0.50400001928E-02 0. -1.
        1   -1    0    0  501    0  0.00000000000E+00  0.00000000000E+00 -0.18899984098E+04  0.18899984098E+04  0.50400001928E-02 0.  1.
    10030    2    1    2    0    0  0.00000000000E+00  0.00000000000E+00 -0.17884616035E+03  0.36011506593E+04  0.35967068440E+04 0.  0.
        5    1    3    3  502    0 -0.51542807628E+03  0.10579827954E+04 -0.14509043241E+04  0.18681914101E+04  0.46999998093E+01 0.  1.
       -5    1    3    3    0  502  0.51542807628E+03 -0.10579827954E+04  0.12720581638E+04  0.17329592491E+04  0.46999998093E+01 0. -1.
</event>
<event>
 5   0  0.3880259E-07  0.3610108E+04  0.7818609E-02  0.8088180E-01
        2   -1    0    0  501    0  0.00000000000E+00  0.00000000000E+00  0.14398614446E+04  0.14398614446E+04  0.25500000920E-02 0.  1.
       -2   -1    0    0    0  501  0.00000000000E+00  0.00000000000E+00 -0.22628704527E+04  0.22628704527E+04  0.25500000920E-02 0. -1.
    10030    2    1    2    0    0  0.00000000000E+00  0.00000000000E+00 -0.82300900812E+03  0.37027318973E+04  0.36101079868E+04 0.  0.
        5    1    3    3  502    0 -0.66222690793E+03  0.14380199122E+04  0.47777727663E+03  0.16537046174E+04  0.46999998093E+01 0.  1.
       -5    1    3    3    0  502  0.66222690793E+03 -0.14380199122E+04 -0.13007862847E+04  0.20490272800E+04  0.46999998093E+01 0. -1.
</event>
<event>
 5   0  0.4120440E-07  0.3699935E+04  0.7818609E-02  0.8067976E-01
        2   -1    0    0  501    0  0.00000000000E+00  0.00000000000E+00  0.15876974080E+04  0.15876974080E+04  0.25500000920E-02 0. -1.
       -2   -1    0    0    0  501  0.00000000000E+00  0.00000000000E+00 -0.21555613020E+04  0.21555613020E+04  0.25500000920E-02 0.  1.
    10030    2    1    2    0    0  0.00000000000E+00  0.00000000000E+00 -0.56786389403E+03  0.37432587100E+04  0.36999346437E+04 0.  0.
        2    1    3    3  502    0 -0.75338126403E+03  0.45478773990E+03  0.13623788220E+04  0.16218789326E+04  0.25500000920E-02 0. -1.
       -2    1    3    3    0  502  0.75338126403E+03 -0.45478773990E+03 -0.19302427160E+04  0.21213797774E+04  0.25500000920E-02 0.  1.
</event>
<event>
 5   0  0.3880259E-07  0.3591619E+04  0.7818609E-02  0.8092414E-01
        2   -1    0    0  501    0  0.00000000000E+00  0.00000000000E+00  0.16931838254E+04  0.16931838254E+04  0.25500000920E-02 0.  1.
       -2   -1    0    0    0  501  0.00000000000E+00  0.00000000000E+00 -0.19046553645E+04  0.19046553646E+04  0.25500000920E-02 0. -1.
    10030    2    1    2    0    0  0.00000000000E+00  0.00000000000E+00 -0.21147153917E+03  0.35978391899E+04  0.35916189420E+04 0.  0.
        5    1    3    3  502    0  0.62407645515E+03 -0.17513057361E+03  0.15719086720E+04  0.17003120604E+04  0.46999998093E+01 0.  1.
       -5    1    3    3    0  502 -0.62407645515E+03  0.17513057361E+03 -0.17833802112E+04  0.18975271295E+04  0.46999998093E+01 0. -1.
</event>
<event>
 5   0  0.1298250E-07  0.3607935E+04  0.7818609E-02  0.8088676E-01
       -1   -1    0    0    0  501  0.00000000000E+00  0.00000000000E+00  0.16970456207E+04  0.16970456207E+04  0.50400001928E-02 0.  1.
        1   -1    0    0  501    0  0.00000000000E+00  0.00000000000E+00 -0.19176262535E+04  0.19176262535E+04  0.50400001928E-02 0. -1.
    10030    2    1    2    0    0  0.00000000000E+00  0.00000000000E+00 -0.22058063279E+03  0.36146718743E+04  0.36079352742E+04 0.  0.
        1    1    3    3  502    0  0.13013072213E+04 -0.63499055902E+03 -0.11882573620E+04  0.18731174690E+04  0.50400001928E-02 0. -1.
       -1    1    3    3    0  502 -0.13013072213E+04  0.63499055902E+03  0.96767672920E+03  0.17415544053E+04  0.50400001928E-02 0.  1.
</event>
<event>
 5   0  0.4120440E-07  0.3507964E+04  0.7818609E-02  0.8111905E-01
       -2   -1    0    0    0  501  0.00000000000E+00  0.00000000000E+00  0.13046154338E+04  0.13046154338E+04  0.25500000920E-02 0.  1.
        2   -1    0    0  501    0  0.00000000000E+00  0.00000000000E+00 -0.23581296957E+04  0.23581296957E+04  0.25500000920E-02 0. -1.
    10030    2    1    2    0    0  0.00000000000E+00  0.00000000000E+00 -0.10535142618E+04  0.36627451295E+04  0.35079637375E+04 0.  0.
        2    1    3    3  502    0 -0.60641888259E+03  0.10135600847E+04  0.82714635221E+03  0.14419497198E+04  0.25500000920E-02 0.  1.
       -2    1    3    3    0  502  0.60641888259E+03 -0.10135600847E+04 -0.18806606141E+04  0.22207954097E+04  0.25500000920E-02 0. -1.
</event>
<event>
 5   0  0.1361743E-07  0.3592909E+04  0.7818609E-02  0.8092118E-01
        1   -1    0    0  501    0  0.00000000000E+00  0.00000000000E+00  0.26343948028E+04  0.26343948028E+04  0.50400001928E-02 0.  1.
       -1   -1    0    0    0  501  0.00000000000E+00  0.00000000000E+00 -0.12250438844E+04  0.12250438844E+04  0.50400001928E-02 0. -1.
    10030    2    1    2    0    0  0.00000000000E+00  0.00000000000E+00  0.14093509184E+04  0.38594386872E+04  0.35929092625E+04 0.  0.
        5    1    3    3  502    0  0.94933197385E+03  0.38661281956E+03  0.22894222262E+04  0.25084211945E+04  0.46999998093E+01 0.  1.
       -5    1    3    3    0  502 -0.94933197385E+03 -0.38661281956E+03 -0.88007130781E+03  0.13510174927E+04  0.46999998093E+01 0. -1.
</event>
<event>
 5   0  0.1370997E-07  0.3616672E+04  0.7818609E-02  0.8086683E-01
       -1   -1    0    0    0  501  0.00000000000E+00  0.00000000000E+00  0.20272460140E+04  0.20272460141E+04  0.50400001928E-02 0. -1.
        1   -1    0    0  501    0  0.00000000000E+00  0.00000000000E+00 -0.16130647855E+04  0.16130647855E+04  0.50400001928E-02 0.  1.
    10030    2    1    2    0    0  0.00000000000E+00  0.00000000000E+00  0.41418122852E+03  0.36403107996E+04  0.36166720376E+04 0.  0.
        3    1    3    3  502    0  0.16752766967E+04 -0.75817602608E+02 -0.47392518394E+03  0.17426719168E+04  0.10100000352E+00 0.  1.
       -3    1    3    3    0  502 -0.16752766967E+04  0.75817602608E+02  0.88810641247E+03  0.18976388828E+04  0.10100000352E+00 0. -1.
</event>
<event>
 5   0  0.4200635E-07  0.3608928E+04  0.7818609E-02  0.8088450E-01
        2   -1    0    0  501    0  0.00000000000E+00  0.00000000000E+00  0.24266236185E+04  0.24266236185E+04  0.25500000920E-02 0. -1.
       -2   -1    0    0    0  501  0.00000000000E+00  0.00000000000E+00 -0.13418191390E+04  0.13418191390E+04  0.25500000920E-02 0.  1.
    10030    2    1    2    0    0  0.00000000000E+00  0.00000000000E+00  0.10848044795E+04  0.37684427575E+04  0.36089278266E+04 0.  0.
        4    1    3    3  502    0  0.65211142353E+03 -0.12496056817E+04  0.17188430920E+04  0.22228780570E+04  0.12699999809E+01 0. -1.
       -4    1    3    3    0  502 -0.65211142353E+03  0.12496056817E+04 -0.63403861248E+03  0.15455647005E+04  0.12699999809E+01 0.  1.
</event>
<event>
 5   0  0.1361743E-07  0.3728263E+04  0.7818609E-02  0.8061727E-01
       -1   -1    0    0    0  501  0.00000000000E+00  0.00000000000E+00  0.21883940992E+04  0.21883940992E+04  0.50400001928E-02 0.  1.
        1   -1    0    0  501    0  0.00000000000E+00  0.00000000000E+00 -0.15879158606E+04  0.15879158606E+04  0.50400001928E-02 0. -1.
    10030    2    1    2    0    0  0.00000000000E+00  0.00000000000E+00  0.60047823863E+03  0.37763099598E+04  0.37282627049E+04 0.  0.
        5    1    3    3  502    0 -0.54757776022E+03 -0.17735752357E+04  0.47436469678E+03  0.19158430196E+04  0.46999998093E+01 0. -1.
       -5    1    3    3    0  502  0.54757776022E+03  0.17735752357E+04  0.12611354186E+03  0.18604669402E+04  0.46999998093E+01 0.  1.
</event>
<event>
 5   0  0.1298250E-07  0.3591100E+04  0.7818609E-02  0.8092533E-01
        1   -1    0    0  501    0  0.00000000000E+00  0.00000000000E+00  0.12517561166E+04  0.12517561166E+04  0.50400001928E-02 0. -1.
       -1   -1    0    0    0  501  0.00000000000E+00  0.00000000000E+00 -0.25755821283E+04  0.25755821283E+04  0.50400001928E-02 0.  1.
    10030    2    1    2    0    0  0.00000000000E+00  0.00000000000E+00 -0.13238260117E+04  0.38273382449E+04  0.35911004903E+04 0.  0.
        1    1    3    3  502    0  0.39666461653E+03 -0.13750682440E+04  0.49378499025E+03  0.15139283703E+04  0.50400001928E-02 0. -1.
       -1    1    3    3    0  502 -0.39666461653E+03  0.13750682440E+04 -0.18176110020E+04  0.23134098747E+04  0.50400001928E-02 0.  1.
</event>
<event>
 5   0  0.1361743E-07  0.3574657E+04  0.7818609E-02  0.8096322E-01
        1   -1    0    0  501    0  0.00000000000E+00  0.00000000000E+00  0.20910967179E+04  0.20910967179E+04  0.50400001928E-02 0. -1.
       -1   -1    0    0    0  501  0.00000000000E+00  0.00000000000E+00 -0.15276881161E+04  0.15276881161E+04  0.50400001928E-02 0.  1.
    10030    2    1    2    0    0  0.00000000000E+00  0.00000000000E+00  0.56340860181E+03  0.36187848339E+04  0.35746572454E+04 0.  0.
        5    1    3    3  502    0  0.11506735054E+04 -0.48937119895E+03  0.15745708999E+04  0.20106788146E+04  0.46999998093E+01 0. -1.
       -5    1    3    3    0  502 -0.11506735054E+04  0.48937119895E+03 -0.10111622981E+04  0.16081060194E+04  0.46999998093E+01 0.  1.
</event>
<event>
 5   0  0.3880259E-07  0.3599917E+04  0.7818609E-02  0.8090511E-01
        2   -1    0    0  501    0  0.00000000000E+00  0.00000000000E+00  0.22777016468E+04  0.22777016468E+04  0.25500000920E-02 0. -1.
       -2   -1    0    0    0  501  0.00000000000E+00  0.00000000000E+00 -0.14224208467E+04  0.14224208467E+04  0.25500000920E-02 0.  1.
    10030    2    1    2    0    0  0.00000000000E+00  0.00000000000E+00  0.85528080004E+03  0.37001224935E+04  0.35999168352E+04 0.  0.
        5    1    3    3  502    0 -0.12456395633E+04 -0.12865285781E+04  0.61451014950E+03  0.18932560624E+04  0.46999998093E+01 0. -1.
       -5    1    3    3    0  502  0.12456395633E+04  0.12865285781E+04  0.24077065054E+03  0.18068664312E+04  0.46999998093E+01 0.  1.
</event>
<event>
 5   0  0.1348226E-07  0.3637183E+04  0.7818609E-02  0.8082027E-01
       -1   -1    0    0    0  501  0.00000000000E+00  0.00000000000E+00  0.13618078786E+04  0.13618078786E+04  0.50400001928E-02 0. -1.
        1   -1    0    0  501    0  0.00000000000E+00  0.00000000000E+00 -0.24285919361E+04  0.24285919361E+04  0.50400001928E-02 0.  1.
    10030    2    1    2    0    0  0.00000000000E+00  0.00000000000E+00 -0.10667840575E+04  0.37903998148E+04  0.36371833238E+04 0.  0.
        4    1    3    3  502    0 -0.99263511644E+03  0.65479916687E+03  0.90050067927E+03  0.14916398726E+04  0.12699999809E+01 0. -1.
       -4    1    3    3    0  502  0.99263511644E+03 -0.65479916687E+03 -0.19672847368E+04  0.22987599422E+04  0.12699999809E+01 0.  1.
</event>
<event>
 5   0  0.1298250E-07  0.3539267E+04  0.7818609E-02  0.8104547E-01
        3   -1    0    0  501    0  0.00000000000E+00  0.00000000000E+00  0.20559990740E+04  0.20559990764E+04  0.10100000352E+00 0. -1.
       -3   -1    0    0    0  501  0.00000000000E+00  0.00000000000E+00 -0.15231536772E+04  0.15231536805E+04  0.10100000352E+00 0.  1.
    10030    2    1    2    0    0  0.00000000000E+00  0.00000000000E+00  0.53284539681E+03  0.35791527569E+04  0.35392669072E+04 0.  0.
        3    1    3    3  502    0 -0.55591727128E+03  0.90895424073E+03 -0.11624266057E+04  0.15768568255E+04  0.10100000352E+00 0.  1.
       -3    1    3    3    0  502  0.55591727128E+03 -0.90895424073E+03  0.16952720025E+04  0.20022959314E+04  0.10100000352E+00 0. -1.
</event>
<event>
 5   0  0.3880259E-07  0.3592499E+04  0.7818609E-02  0.8092212E-01
        2   -1    0    0  501    0  0.00000000000E+00  0.00000000000E+00  0.31807391220E+04  0.31807391220E+04  0.25500000920E-02 0. -1.
       -2   -1    0    0    0  501  0.00000000000E+00  0.00000000000E+00 -0.10143904441E+04  0.10143904441E+04  0.25500000920E-02 0.  1.
    10030    2    1    2    0    0  0.00000000000E+00  0.00000000000E+00  0.21663486779E+04  0.41951295662E+04  0.35924985014E+04 0.  0.
        5    1    3    3  502    0  0.11922573362E+04 -0.84333438173E+03  0.23044607172E+04  0.27282323439E+04  0.46999998093E+01 0.  1.
       -5    1    3    3    0  502 -0.11922573362E+04  0.84333438173E+03 -0.13811203933E+03  0.14668972223E+04  0.46999998093E+01 0. -1.
</event>
<event>
 5   0  0.1361743E-07  0.3606568E+04  0.7818609E-02  0.8088989E-01
        1   -1    0    0  501    0  0.00000000000E+00  0.00000000000E+00  0.15663244212E+04  0.15663244212E+04  0.50400001928E-02 0.  1.
       -1   -1    0    0    0  501  0.00000000000E+00  0.00000000000E+00 -0.20760913899E+04  0.20760913899E+04  0.50400001928E-02 0. -1.
    10030    2    1    2    0    0  0.00000000000E+00  0.00000000000E+00 -0.50976696877E+03  0.36424158111E+04  0.36065677005E+04 0.  0.
        5    1    3    3  502    0 -0.17841452605E+04  0.23050382645E+03 -0.12912985287E+03  0.18036083093E+04  0.46999998093E+01 0.  1.
       -5    1    3    3    0  502  0.17841452605E+04 -0.23050382645E+03 -0.38063711590E+03  0.18388075018E+04  0.46999998093E+01 0. -1.
</event>
<event>
 5   0  0.4200635E-07  0.3505422E+04  0.7818609E-02  0.8112506E-01
       -2   -1    0    0    0  501  0.00000000000E+00  0.00000000000E+00  0.14061420026E+04  0.14061420026E+04  0.25500000920E-02 0.  1.
        2   -1    0    0  501    0  0.00000000000E+00  0.00000000000E+00 -0.21846978716E+04  0.21846978716E+04  0.25500000920E-02 0. -1.
    10030    2    1    2    0    0  0.00000000000E+00  0.00000000000E+00 -0.77855586893E+03  0.35908398742E+04  0.35054217665E+04 0.  0.
        4    1    3    3  502    0  0.25158706274E+03 -0.17335153521E+04 -0.32762580899E+03  0.17820526955E+04  0.12699999809E+01 0. -1.
       -4    1    3    3    0  502 -0.25158706274E+03  0.17335153521E+04 -0.45093005993E+03  0.18087871787E+04  0.12699999809E+01 0.  1.
</event>
<event>
 5   0  0.1348226E-07  0.3604001E+04  0.7818609E-02  0.8089576E-01
        1   -1    0    0  501    0  0.00000000000E+00  0.00000000000E+00  0.19518671149E+04  0.19518671149E+04  0.50400001928E-02 0. -1.
       -1   -1    0    0    0  501  0.00000000000E+00  0.00000000000E+00 -0.16636403807E+04  0.16636403807E+04  0.50400001928E-02 0.  1.
    10030    2    1    2    0    0  0.00000000000E+00  0.00000000000E+00  0.28822673416E+03  0.36155074956E+04  0.36040005273E+04 0.  0.
        4    1    3    3  502    0  0.31069112885E+03  0.15521083227E+04  0.10080447884E+04  0.18766259967E+04  0.12699999809E+01 0.  1.
       -4    1    3    3    0  502 -0.31069112885E+03 -0.15521083227E+04 -0.71981805429E+03  0.17388814989E+04  0.12699999809E+01 0. -1.
</event>
<event>
 5   0  0.1298250E-07  0.3560655E+04  0.7818609E-02  0.8099564E-01
        1   -1    0    0  501    0  0.00000000000E+00  0.00000000000E+00  0.21868506851E+04  0.21868506852E+04  0.50400001928E-02 0.  1.
       -1   -1    0    0    0  501  0.00000000000E+00  0.00000000000E+00 -0.14493746876E+04  0.14493746876E+04  0.50400001928E-02 0. -1.
    10030    2    1    2    0    0  0.00000000000E+00  0.00000000000E+00  0.73747599753E+03  0.36362253728E+04  0.35606550120E+04 0.  0.
        2    1    3    3  502    0 -0.17746915763E+04  0.94008194194E+02  0.26067005413E+03  0.17961950363E+04  0.25500000920E-02 0. -1.
       -2    1    3    3    0  502  0.17746915763E+04 -0.94008194194E+02  0.47680594340E+03  0.18400303365E+04  0.25500000920E-02 0.  1.
</event>
<event>
 5   0  0.1370997E-07  0.3623236E+04  0.7818609E-02  0.8085190E-01
        1   -1    0    0  501    0  0.00000000000E+00  0.00000000000E+00  0.28851762728E+04  0.28851762728E+04  0.50400001928E-02 0. -1.
       -1   -1    0    0    0  501  0.00000000000E+00  0.00000000000E+00 -0.11375249696E+04  0.11375249696E+04  0.50400001928E-02 0.  1.
    10030    2    1    2    0    0  0.00000000000E+00  0.00000000000E+00  0.17476513032E+04  0.40227012424E+04  0.36232361513E+04 0.  0.
        3    1    3    3  502    0  0.90461920094E+03 -0.34726948066E+02  0.26160418341E+04  0.27682515687E+04  0.10100000352E+00 0. -1.
       -3    1    3    3    0  502 -0.90461920094E+03  0.34726948066E+02 -0.86839053087E+03  0.12544496737E+04  0.10100000352E+00 0.  1.
</event>
<event>
 5   0  0.4115358E-07  0.3619977E+04  0.7818609E-02  0.8085931E-01
        2   -1    0    0  501    0  0.00000000000E+00  0.00000000000E+00  0.17189806165E+04  0.17189806165E+04  0.25500000920E-02 0.  1.
       -2   -1    0    0    0  501  0.00000000000E+00  0.00000000000E+00 -0.19058147366E+04  0.19058147366E+04  0.25500000920E-02 0. -1.
    10030    2    1    2    0    0  0.00000000000E+00  0.00000000000E+00 -0.18683412012E+03  0.36247953531E+04  0.36199771220E+04 0.  0.
        3    1    3    3  502    0  0.45068970546E+03  0.21425802705E+03 -0.18355692510E+04  0.19021940485E+04  0.10100000352E+00 0. -1.
       -3    1    3    3    0  502 -0.45068970546E+03 -0.21425802705E+03  0.16487351309E+04  0.17226013046E+04  0.10100000352E+00 0.  1.
</event>
<event>
 5   0  0.1298250E-07  0.3630476E+04  0.7818609E-02  0.8083546E-01
        1   -1    0    0  501    0  0.00000000000E+00  0.00000000000E+00  0.21872133332E+04  0.21872133332E+04  0.50400001928E-02 0. -1.
       -1   -1    0    0    0  501  0.00000000000E+00  0.00000000000E+00 -0.15065236038E+04  0.15065236038E+04  0.50400001928E-02 0.  1.
    10030    2    1    2    0    0  0.00000000000E+00  0.00000000000E+00  0.68068972942E+03  0.36937369370E+04  0.36304757335E+04 0.  0.
        2    1    3    3  502    0 -0.41157540280E+03 -0.13821895494E+03  0.21336094615E+04  0.21773350973E+04  0.25500000920E-02 0. -1.
       -2    1    3    3    0  502  0.41157540280E+03  0.13821895494E+03 -0.14529197320E+04  0.15164018397E+04  0.25500000920E-02 0.  1.
</event>
<event>
 5   0  0.1298250E-07  0.3606005E+04  0.7818609E-02  0.8089118E-01
        1   -1    0    0  501    0  0.00000000000E+00  0.00000000000E+00  0.18427950641E+04  0.18427950641E+04  0.50400001928E-02 0.  1.
       -1   -1    0    0    0  501  0.00000000000E+00  0.00000000000E+00 -0.17640693837E+04  0.17640693837E+04  0.50400001928E-02 0. -1.
    10030    2    1    2    0    0  0.00000000000E+00  0.00000000000E+00  0.78725680489E+02  0.36068644478E+04  0.36060051875E+04 0.  0.
        2    1    3    3  502    0 -0.16812970388E+04  0.49786975123E+03  0.45920603201E+03  0.18125959841E+04  0.25500000920E-02 0.  1.
       -2    1    3    3    0  502  0.16812970388E+04 -0.49786975123E+03 -0.38048035152E+03  0.17942684637E+04  0.25500000920E-02 0. -1.
</event>
<event>
 5   0  0.3880259E-07  0.3595775E+04  0.7818609E-02  0.8091460E-01
        2   -1    0    0  501    0  0.00000000000E+00  0.00000000000E+00  0.22597362666E+04  0.22597362666E+04  0.25500000920E-02 0. -1.
       -2   -1    0    0    0  501  0.00000000000E+00  0.00000000000E+00 -0.14304323092E+04  0.14304323092E+04  0.25500000920E-02 0.  1.
    10030    2    1    2    0    0  0.00000000000E+00  0.00000000000E+00  0.82930395745E+03  0.36901685758E+04  0.35957751687E+04 0.  0.
        5    1    3    3  502    0  0.43468111050E+03 -0.13582836331E+04  0.15381489232E+04  0.20975715234E+04  0.46999998093E+01 0. -1.
       -5    1    3    3    0  502 -0.43468111050E+03  0.13582836331E+04 -0.70884496575E+03  0.15925970524E+04  0.46999998093E+01 0.  1.
</event>
<event>
 5   0  0.4200635E-07  0.3633262E+04  0.7818609E-02  0.8082915E-01
        2   -1    0    0  501    0  0.00000000000E+00  0.00000000000E+00  0.20910117134E+04  0.20910117134E+04  0.25500000920E-02 0. -1.
       -2   -1    0    0    0  501  0.00000000000E+00  0.00000000000E+00 -0.15782540311E+04  0.15782540311E+04  0.25500000920E-02 0.  1.
    10030    2    1    2    0    0  0.00000000000E+00  0.00000000000E+00  0.51275768226E+03  0.36692657444E+04  0.36332617113E+04 0.  0.
        4    1    3    3  502    0  0.65144379742E+03 -0.12983677454E+04  0.13580639180E+04  0.19885866946E+04  0.12699999809E+01 0. -1.
       -4    1    3    3    0  502 -0.65144379742E+03  0.12983677454E+04 -0.84530623574E+03  0.16806790499E+04  0.12699999809E+01 0.  1.
</event>
<event>
 5   0  0.1298250E-07  0.3578670E+04  0.7818609E-02  0.8095395E-01
        1   -1    0    0  501    0  0.00000000000E+00  0.00000000000E+00  0.13400649937E+04  0.13400649937E+04  0.50400001928E-02 0.  1.
       -1   -1    0    0    0  501  0.00000000000E+00  0.00000000000E+00 -0.23892275586E+04  0.23892275586E+04  0.50400001928E-02 0. -1.
    10030    2    1    2    0    0  0.00000000000E+00  0.00000000000E+00 -0.10491625649E+04  0.37292925524E+04  0.35786702633E+04 0.  0.
        2    1    3    3  502    0  0.40279045933E+02  0.70877378806E+01 -0.23887404322E+04  0.23890905153E+04  0.25500000920E-02 0. -1.
       -2    1    3    3    0  502 -0.40279045933E+02 -0.70877378806E+01  0.13395778673E+04  0.13402020371E+04  0.25500000920E-02 0.  1.
</event>
<event>
 5   0  0.1370997E-07  0.3529947E+04  0.7818609E-02  0.8106729E-01
        1   -1    0    0  501    0  0.00000000000E+00  0.00000000000E+00  0.21370265287E+04  0.21370265287E+04  0.50400001928E-02 0. -1.
       -1   -1    0    0    0  501  0.00000000000E+00  0.00000000000E+00 -0.14576944392E+04  0.14576944392E+04  0.50400001928E-02 0.  1.
    10030    2    1    2    0    0  0.00000000000E+00  0.00000000000E+00  0.67933208945E+03  0.35947209679E+04  0.35299471312E+04 0.  0.
        3    1    3    3  502    0 -0.32861991107E+03 -0.52474704522E+03  0.20228048679E+04  0.21154408645E+04  0.10100000352E+00 0. -1.
       -3    1    3    3    0  502  0.32861991107E+03  0.52474704522E+03 -0.13434727785E+04  0.14792801033E+04  0.10100000352E+00 0.  1.
</event>
<event>
 5   0  0.1370997E-07  0.3642097E+04  0.7818609E-02  0.8080916E-01
       -1   -1    0    0    0  501  0.00000000000E+00  0.00000000000E+00  0.12515044244E+04  0.12515044244E+04  0.50400001928E-02 0.  1.
        1   -1    0    0  501    0  0.00000000000E+00  0.00000000000E+00 -0.26497844639E+04  0.26497844639E+04  0.50400001928E-02 0. -1.
    10030    2    1    2    0    0  0.00000000000E+00  0.00000000000E+00 -0.13982800395E+04  0.39012888883E+04  0.36420966381E+04 0.  0.
        3    1    3    3  502    0 -0.17524355078E+03  0.85180926004E+03  0.10147008358E+04  0.13363783573E+04  0.10100000352E+00 0.  1.
       -3    1    3    3    0  502  0.17524355078E+03 -0.85180926004E+03 -0.24129808752E+04  0.25649105310E+04  0.10100000352E+00 0. -1.
</event>
<event>
 5   0  0.4120440E-07  0.3598179E+04  0.7818609E-02  0.8090909E-01
        2   -1    0    0  501    0  0.00000000000E+00  0.00000000000E+00  0.17866333909E+04  0.17866333909E+04  0.25500000920E-02 0. -1.
       -2   -1    0    0    0  501  0.00000000000E+00  0.00000000000E+00 -0.18116320479E+04  0.18116320479E+04  0.25500000920E-02 0.  1.
    10030    2    1    2    0    0  0.00000000000E+00  0.00000000000E+00 -0.24998656971E+02  0.35982654388E+04  0.35981785997E+04 0.  0.
        2    1    3    3  502    0  0.59799777298E+03 -0.79284753457E+02 -0.17074841570E+04  0.18109084889E+04  0.25500000920E-02 0.  1.
       -2    1    3    3    0  502 -0.59799777298E+03  0.79284753457E+02  0.16824855001E+04  0.17873569500E+04  0.25500000920E-02 0. -1.
</event>
<event>
 5   0  0.1298250E-07  0.3599748E+04  0.7818609E-02  0.8090549E-01
        1   -1    0    0  501    0  0.00000000000E+00  0.00000000000E+00  0.18908139715E+04  0.18908139716E+04  0.50400001928E-02 0. -1.
       -1   -1    0    0    0  501  0.00000000000E+00  0.00000000000E+00 -0.17133076206E+04  0.17133076206E+04  0.50400001928E-02 0.  1.
    10030    2    1    2    0    0  0.00000000000E+00  0.00000000000E+00  0.17750635092E+03  0.36041215922E+04  0.35997477615E+04 0.  0.
        1    1    3    3  502    0 -0.36331118803E+03  0.42071847298E+03  0.18027172102E+04  0.18864751239E+04  0.50400001928E-02 0. -1.
       -1    1    3    3    0  502  0.36331118803E+03 -0.42071847298E+03 -0.16252108593E+04  0.17176464683E+04  0.50400001928E-02 0.  1.
</event>
<event>
 5   0  0.3880259E-07  0.3596298E+04  0.7818609E-02  0.8091340E-01
       -2   -1    0    0    0  501  0.00000000000E+00  0.00000000000E+00  0.13888184894E+04  0.13888184894E+04  0.25500000920E-02 0.  1.
        2   -1    0    0  501    0  0.00000000000E+00  0.00000000000E+00 -0.23281222220E+04  0.23281222220E+04  0.25500000920E-02 0. -1.
    10030    2    1    2    0    0  0.00000000000E+00  0.00000000000E+00 -0.93930373257E+03  0.37169407114E+04  0.35962976448E+04 0.  0.
        5    1    3    3  502    0  0.45262887429E+03 -0.12581981613E+04  0.77291927824E+03  0.15444616575E+04  0.46999998093E+01 0.  1.
       -5    1    3    3    0  502 -0.45262887429E+03  0.12581981613E+04 -0.17122230108E+04  0.21724790539E+04  0.46999998093E+01 0. -1.
</event>
<event>
 5   0  0.1370997E-07  0.3590476E+04  0.7818609E-02  0.8092677E-01
       -1   -1    0    0    0  501  0.00000000000E+00  0.00000000000E+00  0.12659639544E+04  0.12659639544E+04  0.50400001928E-02 0. -1.
        1   -1    0    0  501    0  0.00000000000E+00  0.00000000000E+00 -0.25457912763E+04  0.25457912763E+04  0.50400001928E-02 0.  1.
    10030    2    1    2    0    0  0.00000000000E+00  0.00000000000E+00 -0.12798273219E+04  0.38117552307E+04  0.35904762867E+04 0.  0.
        3    1    3    3  502    0  0.65858357148E+02 -0.12863367203E+04 -0.19675365288E+04  0.23516376174E+04  0.10100000352E+00 0.  1.
       -3    1    3    3    0  502 -0.65858357148E+02  0.12863367203E+04  0.68770920687E+03  0.14601176133E+04  0.10100000352E+00 0. -1.
</event>
<event>
 5   0  0.4120440E-07  0.3595240E+04  0.7818609E-02  0.8091583E-01
        2   -1    0    0  501    0  0.00000000000E+00  0.00000000000E+00  0.19179061353E+04  0.19179061353E+04  0.25500000920E-02 0.  1.
       -2   -1    0    0    0  501  0.00000000000E+00  0.00000000000E+00 -0.16848783517E+04  0.16848783517E+04  0.25500000920E-02 0. -1.
    10030    2    1    2    0    0  0.00000000000E+00  0.00000000000E+00  0.23302778365E+03  0.36027844870E+04  0.35952404804E+04 0.  0.
        2    1    3    3  502    0 -0.24949895509E+03 -0.17529775415E+04 -0.19439272873E+03  0.17812828306E+04  0.25500000920E-02 0. -1.
       -2    1    3    3    0  502  0.24949895509E+03  0.17529775415E+04  0.42742051238E+03  0.18215016564E+04  0.25500000920E-02 0.  1.
</event>
<event>
 5   0  0.3880259E-07  0.3444208E+04  0.7818609E-02  0.8127141E-01
        2   -1    0    0  501    0  0.00000000000E+00  0.00000000000E+00  0.23081086934E+04  0.23081086934E+04  0.25500000920E-02 0. -1.
       -2   -1    0    0    0  501  0.00000000000E+00  0.00000000000E+00 -0.12848795273E+04  0.12848795273E+04  0.25500000920E-02 0.  1.
    10030    2    1    2    0    0  0.00000000000E+00  0.00000000000E+00  0.10232291660E+04  0.35929882207E+04  0.34442076633E+04 0.  0.
        5    1    3    3  502    0 -0.96242903288E+03  0.60389470970E+03 -0.83837346907E+03  0.14120377571E+04  0.46999998093E+01 0.  1.
       -5    1    3    3    0  502  0.96242903288E+03 -0.60389470970E+03  0.18616026351E+04  0.21809504636E+04  0.46999998093E+01 0. -1.
</event>
<event>
 5   0  0.1298250E-07  0.3629521E+04  0.7818609E-02  0.8083763E-01
       -1   -1    0    0    0  501  0.00000000000E+00  0.00000000000E+00  0.13021467299E+04  0.13021467299E+04  0.50400001928E-02 0.  1.
        1   -1    0    0  501    0  0.00000000000E+00  0.00000000000E+00 -0.25291744745E+04  0.25291744745E+04  0.50400001928E-02 0. -1.
    10030    2    1    2    0    0  0.00000000000E+00  0.00000000000E+00 -0.12270277446E+04  0.38313212044E+04  0.36295213301E+04 0.  0.
        1    1    3    3  502    0  0.19909033424E+03  0.17341940926E+04 -0.89644823886E+02  0.17478850954E+04  0.50400001928E-02 0.  1.
       -1    1    3    3    0  502 -0.19909033424E+03 -0.17341940926E+04 -0.11373829207E+04  0.20834361091E+04  0.50400001928E-02 0. -1.
</event>
<event>
 5   0  0.1348226E-07  0.3516305E+04  0.7818609E-02  0.8109937E-01
        1   -1    0    0  501    0  0.00000000000E+00  0.00000000000E+00  0.93937630317E+03  0.93937630318E+03  0.50400001928E-02 0. -1.
       -1   -1    0    0    0  501  0.00000000000E+00  0.00000000000E+00 -0.32905875044E+04  0.32905875044E+04  0.50400001928E-02 0.  1.
    10030    2    1    2    0    0  0.00000000000E+00  0.00000000000E+00 -0.23512112013E+04  0.42299638076E+04  0.35163048362E+04 0.  0.
        4    1    3    3  502    0 -0.10820810078E+04 -0.69811926476E+03 -0.26155550256E+04  0.29153729642E+04  0.12699999809E+01 0.  1.
       -4    1    3    3    0  502  0.10820810078E+04  0.69811926476E+03  0.26434382434E+03  0.13145908435E+04  0.12699999809E+01 0. -1.
</event>
<event>
 5   0  0.4115358E-07  0.3622645E+04  0.7818609E-02  0.8085324E-01
        2   -1    0    0  501    0  0.00000000000E+00  0.00000000000E+00  0.20942419065E+04  0.20942419065E+04  0.25500000920E-02 0. -1.
       -2   -1    0    0    0  501  0.00000000000E+00  0.00000000000E+00 -0.15666237016E+04  0.15666237016E+04  0.25500000920E-02 0.  1.
    10030    2    1    2    0    0  0.00000000000E+00  0.00000000000E+00  0.52761820482E+03  0.36608656081E+04  0.36226448943E+04 0.  0.
        3    1    3    3  502    0  0.56969413100E+03 -0.17076274193E+04  0.60826277306E+02  0.18011781290E+04  0.10100000352E+00 0.  1.
       -3    1    3    3    0  502 -0.56969413100E+03  0.17076274193E+04  0.46679192752E+03  0.18596874791E+04  0.10100000352E+00 0. -1.
</event>
<event>
 5   0  0.1361743E-07  0.3734498E+04  0.7818609E-02  0.8060359E-01
        1   -1    0    0  501    0  0.00000000000E+00  0.00000000000E+00  0.11181536584E+04  0.11181536584E+04  0.50400001928E-02 0.  1.
       -1   -1    0    0    0  501  0.00000000000E+00  0.00000000000E+00 -0.31181935757E+04  0.31181935757E+04  0.50400001928E-02 0. -1.
    10030    2    1    2    0    0  0.00000000000E+00  0.00000000000E+00 -0.20000399173E+04  0.42363472341E+04  0.37344983890E+04 0.  0.
        5    1    3    3  502    0 -0.12808387008E+04  0.13326710637E+04 -0.13002296184E+04  0.22599068768E+04  0.46999998093E+01 0. -1.
       -5    1    3    3    0  502  0.12808387008E+04 -0.13326710637E+04 -0.69981029896E+03  0.19764403573E+04  0.46999998093E+01 0.  1.
</event>
<event>
 5   0  0.3993751E-07  0.3796026E+04  0.7818609E-02  0.8047008E-01
       -2   -1    0    0    0  501  0.00000000000E+00  0.00000000000E+00  0.19799606384E+04  0.19799606384E+04  0.25500000920E-02 0. -1.
        2   -1    0    0  501    0  0.00000000000E+00  0.00000000000E+00 -0.18194572061E+04  0.18194572061E+04  0.25500000920E-02 0.  1.
    10030    2    1    2    0    0  0.00000000000E+00  0.00000000000E+00  0.16050343226E+03  0.37994178445E+04  0.37960261598E+04 0.  0.
        1    1    3    3  502    0 -0.18814661757E+04 -0.21507906918E+03  0.20795754702E+03  0.19051037551E+04  0.50400001928E-02 0. -1.
       -1    1    3    3    0  502  0.18814661757E+04  0.21507906918E+03 -0.47454114761E+02  0.18943140894E+04  0.50400001928E-02 0.  1.
</event>
<event>
 5   0  0.1298250E-07  0.3503335E+04  0.7818609E-02  0.8113000E-01
       -1   -1    0    0    0  501  0.00000000000E+00  0.00000000000E+00  0.15836880561E+04  0.15836880561E+04  0.50400001928E-02 0.  1.
        1   -1    0    0  501    0  0.00000000000E+00  0.00000000000E+00 -0.19374638873E+04  0.19374638873E+04  0.50400001928E-02 0. -1.
    10030    2    1    2    0    0  0.00000000000E+00  0.00000000000E+00 -0.35377583119E+03  0.35211519435E+04  0.35033346500E+04 0.  0.
        1    1    3    3  502    0  0.12447830092E+04  0.87649065132E+03 -0.10476761962E+04  0.18480654788E+04  0.50400001928E-02 0. -1.
       -1    1    3    3    0  502 -0.12447830092E+04 -0.87649065132E+03  0.69390036499E+03  0.16730864647E+04  0.50400001928E-02 0.  1.
</event>
<event>
 5   0  0.4120440E-07  0.3579768E+04  0.7818609E-02  0.8095142E-01
       -2   -1    0    0    0  501  0.00000000000E+00  0.00000000000E+00  0.12699268333E+04  0.12699268333E+04  0.25500000920E-02 0.  1.
        2   -1    0    0  501    0  0.00000000000E+00  0.00000000000E+00 -0.25227321570E+04  0.25227321570E+04  0.25500000920E-02 0. -1.
    10030    2    1    2    0    0  0.00000000000E+00  0.00000000000E+00 -0.12528053237E+04  0.37926589903E+04  0.35797682939E+04 0.  0.
        2    1    3    3  502    0  0.15026856279E+04 -0.64686137421E+03 -0.13956625525E+04  0.21504343036E+04  0.25500000920E-02 0. -1.
       -2    1    3    3    0  502 -0.15026856279E+04  0.64686137421E+03  0.14285722875E+03  0.16422246867E+04  0.25500000920E-02 0.  1.
</event>
<event>
 5   0  0.1370997E-07  0.3591665E+04  0.7818609E-02  0.8092404E-01
        1   -1    0    0  501    0  0.00000000000E+00  0.00000000000E+00  0.17955517348E+04  0.17955517348E+04  0.50400001928E-02 0.  1.
       -1   -1    0    0    0  501  0.00000000000E+00  0.00000000000E+00 -0.17961135008E+04  0.17961135009E+04  0.50400001928E-02 0. -1.
    10030    2    1    2    0    0  0.00000000000E+00  0.00000000000E+00 -0.56176606398E+00  0.35916652356E+04  0.35916651917E+04 0.  0.
        3    1    3    3  502    0  0.68291509123E+03  0.82166414322E+03  0.14431559071E+04  0.17956068524E+04  0.10100000352E+00 0.  1.
       -3    1    3    3    0  502 -0.68291509123E+03 -0.82166414322E+03 -0.14437176731E+04  0.17960583832E+04  0.10100000352E+00 0. -1.
</event>
<event>
 5   0  0.4200635E-07  0.3604960E+04  0.7818609E-02  0.8089356E-01
        2   -1    0    0  501    0  0.00000000000E+00  0.00000000000E+00  0.15018647115E+04  0.15018647115E+04  0.25500000920E-02 0.  1.
       -2   -1    0    0    0  501  0.00000000000E+00  0.00000000000E+00 -0.21632668845E+04  0.21632668845E+04  0.25500000920E-02 0. -1.
    10030    2    1    2    0    0  0.00000000000E+00  0.00000000000E+00 -0.66140217297E+03  0.36651315960E+04  0.36049600250E+04 0.  0.
        4    1    3    3  502    0 -0.11263053275E+04 -0.11152395082E+04 -0.12032862918E+04  0.19900307446E+04  0.12699999809E+01 0. -1.
       -4    1    3    3    0  502  0.11263053275E+04  0.11152395082E+04  0.54188411884E+03  0.16751008515E+04  0.12699999809E+01 0.  1.
</event>
<event>
 5   0  0.3993751E-07  0.3539326E+04  0.7818609E-02  0.8104533E-01
       -2   -1    0    0    0  501  0.00000000000E+00  0.00000000000E+00  0.13793786627E+04  0.13793786627E+04  0.25500000920E-02 0. -1.
        2   -1    0    0  501    0  0.00000000000E+00  0.00000000000E+00 -0.22703757314E+04  0.22703757314E+04  0.25500000920E-02 0.  1.
    10030    2    1    2    0    0  0.00000000000E+00  0.00000000000E+00 -0.89099706866E+03  0.36497543941E+04  0.35393263993E+04 0.  0.
        1    1    3    3  502    0  0.41219953385E+03 -0.70318277454E+03  0.11742848546E+04  0.14294472323E+04  0.50400001928E-02 0. -1.
       -1    1    3    3    0  502 -0.41219953385E+03  0.70318277454E+03 -0.20652819233E+04  0.22203071618E+04  0.50400001928E-02 0.  1.
</event>
<event>
 5   0  0.1370997E-07  0.3681018E+04  0.7818609E-02  0.8072181E-01
        1   -1    0    0  501    0  0.00000000000E+00  0.00000000000E+00  0.13568488763E+04  0.13568488763E+04  0.50400001928E-02 0. -1.
       -1   -1    0    0    0  501  0.00000000000E+00  0.00000000000E+00 -0.24965743548E+04  0.24965743548E+04  0.50400001928E-02 0.  1.
    10030    2    1    2    0    0  0.00000000000E+00  0.00000000000E+00 -0.11397254786E+04  0.38534232311E+04  0.36810183960E+04 0.  0.
        3    1    3    3  502    0 -0.76469340177E+03  0.62306318843E+03  0.10567840497E+04  0.14455989324E+04  0.10100000352E+00 0. -1.
       -3    1    3    3    0  502  0.76469340177E+03 -0.62306318843E+03 -0.21965095283E+04  0.24078242987E+04  0.10100000352E+00 0.  1.
</event>
<event>
 5   0  0.1361743E-07  0.3571945E+04  0.7818609E-02  0.8096948E-01
        1   -1    0    0  501    0  0.00000000000E+00  0.00000000000E+00  0.24331793632E+04  0.24331793632E+04  0.50400001928E-02 0. -1.
       -1   -1    0    0    0  501  0.00000000000E+00  0.00000000000E+00 -0.13109176224E+04  0.13109176224E+04  0.50400001928E-02 0.  1.
    10030    2    1    2    0    0  0.00000000000E+00  0.00000000000E+00  0.11222617407E+04  0.37440969856E+04  0.35719449636E+04 0.  0.
        5    1    3    3  502    0  0.55459430116E+03 -0.16744216575E+04  0.26761197703E+03  0.17840686607E+04  0.46999998093E+01 0.  1.
       -5    1    3    3    0  502 -0.55459430116E+03  0.16744216575E+04  0.85464976369E+03  0.19600283249E+04  0.46999998093E+01 0. -1.
</event>
<event>
 5   0  0.1370997E-07  0.3483296E+04  0.7818609E-02  0.8117760E-01
       -1   -1    0    0    0  501  0.00000000000E+00  0.00000000000E+00  0.12560443282E+04  0.12560443283E+04  0.50400001928E-02 0.  1.
        1   -1    0    0  501    0  0.00000000000E+00  0.00000000000E+00 -0.24149923702E+04  0.24149923702E+04  0.50400001928E-02 0. -1.
    10030    2    1    2    0    0  0.00000000000E+00  0.00000000000E+00 -0.11589480420E+04  0.36710366985E+04  0.34832958355E+04 0.  0.
        3    1    3    3  502    0 -0.14769648433E+04  0.45156477686E+03 -0.14278461496E+04  0.21033498361E+04  0.10100000352E+00 0. -1.
       -3    1    3    3    0  502  0.14769648433E+04 -0.45156477686E+03  0.26889810761E+03  0.15676868624E+04  0.10100000352E+00 0.  1.
</event>
<event>
 5   0  0.1298250E-07  0.3586230E+04  0.7818609E-02  0.8093653E-01
       -3   -1    0    0    0  501  0.00000000000E+00  0.00000000000E+00  0.17211530400E+04  0.17211530430E+04  0.10100000352E+00 0.  1.
        3   -1    0    0  501    0  0.00000000000E+00  0.00000000000E+00 -0.18680851919E+04  0.18680851947E+04  0.10100000352E+00 0. -1.
    10030    2    1    2    0    0  0.00000000000E+00  0.00000000000E+00 -0.14693215194E+03  0.35892382376E+04  0.35862295059E+04 0.  0.
        3    1    3    3  502    0  0.82551020036E+03  0.15173803696E+04  0.40792626293E+03  0.17749124269E+04  0.10100000352E+00 0. -1.
       -3    1    3    3    0  502 -0.82551020036E+03 -0.15173803696E+04 -0.55485841487E+03  0.18143258108E+04  0.10100000352E+00 0.  1.
</event>
<event>
 5   0  0.4120440E-07  0.3655398E+04  0.7818609E-02  0.8077919E-01
       -2   -1    0    0    0  501  0.00000000000E+00  0.00000000000E+00  0.18796298566E+04  0.18796298567E+04  0.25500000920E-02 0.  1.
        2   -1    0    0  501    0  0.00000000000E+00  0.00000000000E+00 -0.17772029924E+04  0.17772029924E+04  0.25500000920E-02 0. -1.
    10030    2    1    2    0    0  0.00000000000E+00  0.00000000000E+00  0.10242686427E+03  0.36568328490E+04  0.36553980937E+04 0.  0.
        2    1    3    3  502    0  0.95400424096E+03  0.13075952299E+04  0.90040138512E+03  0.18522019413E+04  0.25500000920E-02 0.  1.
       -2    1    3    3    0  502 -0.95400424096E+03 -0.13075952299E+04 -0.79797452084E+03  0.18046309077E+04  0.25500000920E-02 0. -1.
</event>
<event>
 5   0  0.1370997E-07  0.3534992E+04  0.7818609E-02  0.8105547E-01
       -1   -1    0    0    0  501  0.00000000000E+00  0.00000000000E+00  0.10647107777E+04  0.10647107777E+04  0.50400001928E-02 0. -1.
        1   -1    0    0  501    0  0.00000000000E+00  0.00000000000E+00 -0.29341694384E+04  0.29341694384E+04  0.50400001928E-02 0.  1.
    10030    2    1    2    0    0  0.00000000000E+00  0.00000000000E+00 -0.18694586608E+04  0.39988802161E+04  0.35349918385E+04 0.  0.
        3    1    3    3  502    0 -0.15799493159E+04 -0.60484999208E+03 -0.35574582043E+03  0.17287679002E+04  0.10100000352E+00 0. -1.
       -3    1    3    3    0  502  0.15799493159E+04  0.60484999208E+03 -0.15137128403E+04  0.22701123159E+04  0.10100000352E+00 0.  1.
</event>
<event>
 5   0  0.3993751E-07  0.3610487E+04  0.7818609E-02  0.8088094E-01
        2   -1    0    0  501    0  0.00000000000E+00  0.00000000000E+00  0.21687572080E+04  0.21687572080E+04  0.25500000920E-02 0. -1.
       -2   -1    0    0    0  501  0.00000000000E+00  0.00000000000E+00 -0.15026597288E+04  0.15026597288E+04  0.25500000920E-02 0.  1.
    10030    2    1    2    0    0  0.00000000000E+00  0.00000000000E+00  0.66609747917E+03  0.36714169368E+04  0.36104870131E+04 0.  0.
        1    1    3    3  502    0 -0.23590392259E+03  0.12815553393E+03  0.21483442859E+04  0.21650537343E+04  0.50400001928E-02 0. -1.
       -1    1    3    3    0  502  0.23590392259E+03 -0.12815553393E+03 -0.14822468067E+04  0.15063632025E+04  0.50400001928E-02 0.  1.
</event>
<event>
 5   0  0.4200635E-07  0.3596854E+04  0.7818609E-02  0.8091213E-01
       -2   -1    0    0    0  501  0.00000000000E+00  0.00000000000E+00  0.21284667900E+04  0.21284667900E+04  0.25500000920E-02 0. -1.
        2   -1    0    0  501    0  0.00000000000E+00  0.00000000000E+00 -0.15195630119E+04  0.15195630119E+04  0.25500000920E-02 0.  1.
    10030    2    1    2    0    0  0.00000000000E+00  0.00000000000E+00  0.60890377809E+03  0.36480298019E+04  0.35968538508E+04 0.  0.
        4    1    3    3  502    0  0.95289839496E+03 -0.85549819263E+02 -0.12400423896E+04  0.15662186513E+04  0.12699999809E+01 0.  1.
       -4    1    3    3    0  502 -0.95289839496E+03  0.85549819263E+02  0.18489461677E+04  0.20818111506E+04  0.12699999809E+01 0. -1.
</event>
<event>
 5   0  0.1361743E-07  0.3549914E+04  0.7818609E-02  0.8102062E-01
        1   -1    0    0  501    0  0.00000000000E+00  0.00000000000E+00  0.15022457614E+04  0.15022457614E+04  0.50400001928E-02 0.  1.
       -1   -1    0    0    0  501  0.00000000000E+00  0.00000000000E+00 -0.20971756145E+04  0.20971756145E+04  0.50400001928E-02 0. -1.
    10030    2    1    2    0    0  0.00000000000E+00  0.00000000000E+00 -0.59492985308E+03  0.35994213759E+04  0.35499144653E+04 0.  0.
        5    1    3    3  502    0 -0.99190406416E+03  0.22092468190E+03  0.11780858797E+04  0.15558244816E+04  0.46999998093E+01 0.  1.
       -5    1    3    3    0  502  0.99190406416E+03 -0.22092468190E+03 -0.17730157328E+04  0.20435968943E+04  0.46999998093E+01 0. -1.
</event>
<event>
 5   0  0.4115358E-07  0.3601468E+04  0.7818609E-02  0.8090155E-01
        2   -1    0    0  501    0  0.00000000000E+00  0.00000000000E+00  0.22563352604E+04  0.22563352604E+04  0.25500000920E-02 0.  1.
       -2   -1    0    0    0  501  0.00000000000E+00  0.00000000000E+00 -0.14371284647E+04  0.14371284647E+04  0.25500000920E-02 0. -1.
    10030    2    1    2    0    0  0.00000000000E+00  0.00000000000E+00  0.81920679565E+03  0.36934637251E+04  0.36014683831E+04 0.  0.
        3    1    3    3  502    0 -0.18760689290E+03  0.93427336110E+03 -0.11573593209E+04  0.14991809989E+04  0.10100000352E+00 0. -1.
       -3    1    3    3    0  502  0.18760689290E+03 -0.93427336110E+03  0.19765661165E+04  0.21942827262E+04  0.10100000352E+00 0.  1.
</event>
<event>
 5   0  0.4115358E-07  0.3610740E+04  0.7818609E-02  0.8088036E-01
        2   -1    0    0  501    0  0.00000000000E+00  0.00000000000E+00  0.17642115308E+04  0.17642115308E+04  0.25500000920E-02 0. -1.
       -2   -1    0    0    0  501  0.00000000000E+00  0.00000000000E+00 -0.18474884406E+04  0.18474884406E+04  0.25500000920E-02 0.  1.
    10030    2    1    2    0    0  0.00000000000E+00  0.00000000000E+00 -0.83276909845E+02  0.36116999714E+04  0.36107397635E+04 0.  0.
        3    1    3    3  502    0  0.54381312320E+02 -0.27471493084E+03  0.17423533677E+04  0.17647155262E+04  0.10100000352E+00 0. -1.
       -3    1    3    3    0  502 -0.54381312320E+02  0.27471493084E+03 -0.18256302775E+04  0.18469844452E+04  0.10100000352E+00 0.  1.
</event>
<event>
 5   0  0.1298250E-07  0.3643889E+04  0.7818609E-02  0.8080512E-01
       -1   -1    0    0    0  501  0.00000000000E+00  0.00000000000E+00  0.16293126960E+04  0.16293126960E+04  0.50400001928E-02 0. -1.
        1   -1    0    0  501    0  0.00000000000E+00  0.00000000000E+00 -0.20373514240E+04  0.20373514240E+04  0.50400001928E-02 0.  1.
    10030    2    1    2    0    0  0.00000000000E+00  0.00000000000E+00 -0.40803872802E+03  0.36666641200E+04  0.36438894283E+04 0.  0.
        2    1    3    3  502    0  0.81444682912E+03 -0.16211193022E+04 -0.37279097238E+03  0.18521135328E+04  0.25500000920E-02 0. -1.
       -2    1    3    3    0  502 -0.81444682912E+03  0.16211193022E+04 -0.35247755637E+02  0.18145505872E+04  0.25500000920E-02 0.  1.
</event>
<event>
 5   0  0.1361743E-07  0.3618293E+04  0.7818609E-02  0.8086314E-01
       -1   -1    0    0    0  501  0.00000000000E+00  0.00000000000E+00  0.14761451578E+04  0.14761451578E+04  0.50400001928E-02 0.  1.
        1   -1    0    0  501    0  0.00000000000E+00  0.00000000000E+00 -0.22172685549E+04  0.22172685549E+04  0.50400001928E-02 0. -1.
    10030    2    1    2    0    0  0.00000000000E+00  0.00000000000E+00 -0.74112339703E+03  0.36934137127E+04  0.36182925481E+04 0.  0.
        5    1    3    3  502    0 -0.10909288786E+04  0.10714220962E+04  0.61642389528E+03  0.16486575250E+04  0.46999998093E+01 0.  1.
       -5    1    3    3    0  502  0.10909288786E+04 -0.10714220962E+04 -0.13575472923E+04  0.20447561877E+04  0.46999998093E+01 0. -1.
</event>
<event>
 5   0  0.1298250E-07  0.3627926E+04  0.7818609E-02  0.8084125E-01
       -1   -1    0    0    0  501  0.00000000000E+00  0.00000000000E+00  0.18092665879E+04  0.18092665879E+04  0.50400001928E-02 0. -1.
        1   -1    0    0  501    0  0.00000000000E+00  0.00000000000E+00 -0.18186714984E+04  0.18186714984E+04  0.50400001928E-02 0.  1.
    10030    2    1    2    0    0  0.00000000000E+00  0.00000000000E+00 -0.94049105108E+01  0.36279380862E+04  0.36279258958E+04 0.  0.
        1    1    3    3  502    0 -0.88232401588E+03 -0.99831834202E+03  0.12262876254E+04  0.18107778774E+04  0.50400001928E-02 0. -1.
       -1    1    3    3    0  502  0.88232401588E+03  0.99831834202E+03 -0.12356925360E+04  0.18171602088E+04  0.50400001928E-02 0.  1.
</event>
<event>
 5   0  0.3880259E-07  0.3613785E+04  0.7818609E-02  0.8087341E-01
        2   -1    0    0  501    0  0.00000000000E+00  0.00000000000E+00  0.14525481866E+04  0.14525481866E+04  0.25500000920E-02 0. -1.
       -2   -1    0    0    0  501  0.00000000000E+00  0.00000000000E+00 -0.22476782590E+04  0.22476782590E+04  0.25500000920E-02 0.  1.
    10030    2    1    2    0    0  0.00000000000E+00  0.00000000000E+00 -0.79513007238E+03  0.37002264456E+04  0.36137852615E+04 0.  0.
        5    1    3    3  502    0  0.89666703293E+03 -0.14399875991E+04  0.23962484567E+03  0.17131894846E+04  0.46999998093E+01 0.  1.
       -5    1    3    3    0  502 -0.89666703293E+03  0.14399875991E+04 -0.10347549181E+04  0.19870369609E+04  0.46999998093E+01 0. -1.
</event>
<event>
 5   0  0.4115358E-07  0.3599792E+04  0.7818609E-02  0.8090539E-01
        2   -1    0    0  501    0  0.00000000000E+00  0.00000000000E+00  0.27543116261E+04  0.27543116261E+04  0.25500000920E-02 0.  1.
       -2   -1    0    0    0  501  0.00000000000E+00  0.00000000000E+00 -0.11762015603E+04  0.11762015603E+04  0.25500000920E-02 0. -1.
    10030    2    1    2    0    0  0.00000000000E+00  0.00000000000E+00  0.15781100659E+04  0.39305131864E+04  0.35997920119E+04 0.  0.
        3    1    3    3  502    0  0.10995473511E+04  0.11921441656E+04  0.16414245227E+04  0.23074848997E+04  0.10100000352E+00 0.  1.
       -3    1    3    3    0  502 -0.10995473511E+04 -0.11921441656E+04 -0.63314456803E+02  0.16230282867E+04  0.10100000352E+00 0. -1.
</event>
<event>
 5   0  0.4200635E-07  0.3627690E+04  0.7818609E-02  0.8084178E-01
       -2   -1    0    0    0  501  0.00000000000E+00  0.00000000000E+00  0.14692668018E+04  0.14692668018E+04  0.25500000920E-02 0. -1.
        2   -1    0    0  501    0  0.00000000000E+00  0.00000000000E+00 -0.22392346944E+04  0.22392346944E+04  0.25500000920E-02 0.  1.
    10030    2    1    2    0    0  0.00000000000E+00  0.00000000000E+00 -0.76996789268E+03  0.37085014962E+04  0.36276897320E+04 0.  0.
        4    1    3    3  502    0  0.43326366282E+03  0.74203238270E+03  0.12480052465E+04  0.15152056516E+04  0.12699999809E+01 0. -1.
       -4    1    3    3    0  502 -0.43326366282E+03 -0.74203238270E+03 -0.20179731392E+04  0.21932958446E+04  0.12699999809E+01 0.  1.
</event>
<event>
 5   0  0.4115358E-07  0.3567827E+04  0.7818609E-02  0.8097901E-01
       -2   -1    0    0    0  501  0.00000000000E+00  0.00000000000E+00  0.12532624899E+04  0.12532624899E+04  0.25500000920E-02 0.  1.
        2   -1    0    0  501    0  0.00000000000E+00  0.00000000000E+00 -0.25392499984E+04  0.25392499984E+04  0.25500000920E-02 0. -1.
    10030    2    1    2    0    0  0.00000000000E+00  0.00000000000E+00 -0.12859875085E+04  0.37925124883E+04  0.35678266637E+04 0.  0.
        3    1    3    3  502    0  0.10888018667E+04 -0.13651149995E+04 -0.10311156586E+04  0.20278629092E+04  0.10100000352E+00 0. -1.
       -3    1    3    3    0  502 -0.10888018667E+04  0.13651149995E+04 -0.25487184996E+03  0.17646495791E+04  0.10100000352E+00 0.  1.
</event>
<event>
 5   0  0.1361743E-07  0.3621298E+04  0.7818609E-02  0.8085630E-01
        1   -1    0    0  501    0  0.00000000000E+00  0.00000000000E+00  0.24786403044E+04  0.24786403044E+04  0.50400001928E-02 0. -1.
       -1   -1    0    0    0  501  0.00000000000E+00  0.00000000000E+00 -0.13226809813E+04  0.13226809813E+04  0.50400001928E-02 0.  1.
    10030    2    1    2    0    0  0.00000000000E+00  0.00000000000E+00  0.11559593231E+04  0.38013212857E+04  0.36212983253E+04 0.  0.
        5    1    3    3  502    0 -0.71966418856E+03 -0.70431196330E+03  0.21575983261E+04  0.23810133374E+04  0.46999998093E+01 0. -1.
       -5    1    3    3    0  502  0.71966418856E+03  0.70431196330E+03 -0.10016390030E+04  0.14203079484E+04  0.46999998093E+01 0.  1.
</event>
<event>
 5   0  0.1348226E-07  0.3624955E+04  0.7818609E-02  0.8084799E-01
        1   -1    0    0  501    0  0.00000000000E+00  0.00000000000E+00  0.18771471932E+04  0.18771471932E+04  0.50400001928E-02 0.  1.
       -1   -1    0    0    0  501  0.00000000000E+00  0.00000000000E+00 -0.17500359497E+04  0.17500359497E+04  0.50400001928E-02 0. -1.
    10030    2    1    2    0    0  0.00000000000E+00  0.00000000000E+00  0.12711124357E+03  0.36271831429E+04  0.36249552113E+04 0.  0.
        4    1    3    3  502    0 -0.16431795405E+03  0.18661823178E+03  0.18599993300E+04  0.18765462624E+04  0.12699999809E+01 0.  1.
       -4    1    3    3    0  502  0.16431795405E+03 -0.18661823178E+03 -0.17328880864E+04  0.17506368805E+04  0.12699999809E+01 0. -1.
</event>
<event>
 5   0  0.1361743E-07  0.3652077E+04  0.7818609E-02  0.8078666E-01
       -1   -1    0    0    0  501  0.00000000000E+00  0.00000000000E+00  0.22841634294E+04  0.22841634294E+04  0.50400001928E-02 0. -1.
        1   -1    0    0  501    0  0.00000000000E+00  0.00000000000E+00 -0.14597975168E+04  0.14597975168E+04  0.50400001928E-02 0.  1.
    10030    2    1    2    0    0  0.00000000000E+00  0.00000000000E+00  0.82436591253E+03  0.37439609462E+04  0.36520767255E+04 0.  0.
        5    1    3    3  502    0  0.15829665241E+04 -0.33368071197E+02 -0.52037274146E+03  0.16666452306E+04  0.46999998093E+01 0.  1.
       -5    1    3    3    0  502 -0.15829665241E+04  0.33368071197E+02  0.13447386540E+04  0.20773157156E+04  0.46999998093E+01 0. -1.
</event>
<event>
 5   0  0.1348226E-07  0.3604543E+04  0.7818609E-02  0.8089452E-01
        1   -1    0    0  501    0  0.00000000000E+00  0.00000000000E+00  0.28080815709E+04  0.28080815709E+04  0.50400001928E-02 0.  1.
       -1   -1    0    0    0  501  0.00000000000E+00  0.00000000000E+00 -0.11567262827E+04  0.11567262827E+04  0.50400001928E-02 0. -1.
    10030    2    1    2    0    0  0.00000000000E+00  0.00000000000E+00  0.16513552882E+04  0.39648078535E+04  0.36045425546E+04 0.  0.
        4    1    3    3  502    0  0.49651750858E+03  0.19876114479E+03  0.27187844169E+04  0.27708890176E+04  0.12699999809E+01 0.  1.
       -4    1    3    3    0  502 -0.49651750858E+03 -0.19876114479E+03 -0.10674291288E+04  0.11939188359E+04  0.12699999809E+01 0. -1.
</event>
<event>
 5   0  0.4115358E-07  0.3479523E+04  0.7818609E-02  0.8118660E-01
       -2   -1    0    0    0  501  0.00000000000E+00  0.00000000000E+00  0.20168316749E+04  0.20168316749E+04  0.25500000920E-02 0. -1.
        2   -1    0    0  501    0  0.00000000000E+00  0.00000000000E+00 -0.15007550469E+04  0.15007550469E+04  0.25500000920E-02 0.  1.
    10030    2    1    2    0    0  0.00000000000E+00  0.00000000000E+00  0.51607662793E+03  0.35175867218E+04  0.34795231368E+04 0.  0.
        3    1    3    3  502    0  0.22700550723E+03 -0.23286647493E+03  0.19858314957E+04  0.20122835374E+04  0.10100000352E+00 0. -1.
       -3    1    3    3    0  502 -0.22700550723E+03  0.23286647493E+03 -0.14697548678E+04  0.15053031844E+04  0.10100000352E+00 0.  1.
</event>
<event>
 5   0  0.1370997E-07  0.3619955E+04  0.7818609E-02  0.8085936E-01
       -1   -1    0    0    0  501  0.00000000000E+00  0.00000000000E+00  0.14302289847E+04  0.14302289848E+04  0.50400001928E-02 0.  1.
        1   -1    0    0  501    0  0.00000000000E+00  0.00000000000E+00 -0.22905549905E+04  0.22905549906E+04  0.50400001928E-02 0. -1.
    10030    2    1    2    0    0  0.00000000000E+00  0.00000000000E+00 -0.86032600581E+03  0.37207839753E+04  0.36199547725E+04 0.  0.
        3    1    3    3  502    0 -0.46400809544E+03 -0.14650613787E+04 -0.14129920704E+04  0.20876433980E+04  0.10100000352E+00 0. -1.
       -3    1    3    3    0  502  0.46400809544E+03  0.14650613787E+04  0.55266606462E+03  0.16331405773E+04  0.10100000352E+00 0.  1.
</event>
<event>
 5   0  0.3880259E-07  0.3682862E+04  0.7818609E-02  0.8071771E-01
        2   -1    0    0  501    0  0.00000000000E+00  0.00000000000E+00  0.29431815493E+04  0.29431815493E+04  0.25500000920E-02 0. -1.
       -2   -1    0    0    0  501  0.00000000000E+00  0.00000000000E+00 -0.11521095878E+04  0.11521095878E+04  0.25500000920E-02 0.  1.
    10030    2    1    2    0    0  0.00000000000E+00  0.00000000000E+00  0.17910719616E+04  0.40952911371E+04  0.36828617577E+04 0.  0.
        5    1    3    3  502    0  0.14651197721E+04 -0.54843202368E+03  0.19756471728E+04  0.25200312444E+04  0.46999998093E+01 0.  1.
       -5    1    3    3    0  502 -0.14651197721E+04  0.54843202368E+03 -0.18457521121E+03  0.15752598928E+04  0.46999998093E+01 0. -1.
</event>
<event>
 5   0  0.4115358E-07  0.3592727E+04  0.7818609E-02  0.8092160E-01
        2   -1    0    0  501    0  0.00000000000E+00  0.00000000000E+00  0.21401732252E+04  0.21401732252E+04  0.25500000920E-02 0. -1.
       -2   -1    0    0    0  501  0.00000000000E+00  0.00000000000E+00 -0.15077855976E+04  0.15077855976E+04  0.25500000920E-02 0.  1.
    10030    2    1    2    0    0  0.00000000000E+00  0.00000000000E+00  0.63238762764E+03  0.36479588228E+04  0.35927273013E+04 0.  0.
        3    1    3    3  502    0 -0.43998544340E+03 -0.14589186199E+04  0.12820755580E+04  0.19914187095E+04  0.10100000352E+00 0. -1.
       -3    1    3    3    0  502  0.43998544340E+03  0.14589186199E+04 -0.64968793037E+03  0.16565401133E+04  0.10100000352E+00 0.  1.
</event>
<event>
 5   0  0.1370997E-07  0.3620507E+04  0.7818609E-02  0.8085811E-01
       -1   -1    0    0    0  501  0.00000000000E+00  0.00000000000E+00  0.20215287545E+04  0.20215287545E+04  0.50400001928E-02 0.  1.
        1   -1    0    0  501    0  0.00000000000E+00  0.00000000000E+00 -0.16210587413E+04  0.16210587414E+04  0.50400001928E-02 0. -1.
    10030    2    1    2    0    0  0.00000000000E+00  0.00000000000E+00  0.40047001314E+03  0.36425874958E+04  0.36205065161E+04 0.  0.
        3    1    3    3  502    0  0.36674068288E+03  0.47758899590E+02  0.19831140760E+04  0.20173054031E+04  0.10100000352E+00 0.  1.
       -3    1    3    3    0  502 -0.36674068288E+03 -0.47758899590E+02 -0.15826440628E+04  0.16252820927E+04  0.10100000352E+00 0. -1.
</event>
<event>
 5   0  0.4200635E-07  0.3399818E+04  0.7818609E-02  0.8137951E-01
       -2   -1    0    0    0  501  0.00000000000E+00  0.00000000000E+00  0.17909430052E+04  0.17909430052E+04  0.25500000920E-02 0.  1.
        2   -1    0    0  501    0  0.00000000000E+00  0.00000000000E+00 -0.16135021429E+04  0.16135021429E+04  0.25500000920E-02 0. -1.
    10030    2    1    2    0    0  0.00000000000E+00  0.00000000000E+00  0.17744086224E+03  0.34044451481E+04  0.33998178638E+04 0.  0.
        4    1    3    3  502    0  0.12275892860E+04 -0.11705065876E+04 -0.23805271427E+02  0.16963576954E+04  0.12699999809E+01 0.  1.
       -4    1    3    3    0  502 -0.12275892860E+04  0.11705065876E+04  0.20124613367E+03  0.17080874527E+04  0.12699999809E+01 0. -1.
</event>
<event>
 5   0  0.3880259E-07  0.3564971E+04  0.7818609E-02  0.8098563E-01
        2   -1    0    0  501    0  0.00000000000E+00  0.00000000000E+00  0.14652477705E+04  0.14652477705E+04  0.25500000920E-02 0. -1.
       -2   -1    0    0    0  501  0.00000000000E+00  0.00000000000E+00 -0.21684080328E+04  0.21684080328E+04  0.25500000920E-02 0.  1.
    10030    2    1    2    0    0  0.00000000000E+00  0.00000000000E+00 -0.70316026225E+03  0.36336558033E+04  0.35649712681E+04 0.  0.
        5    1    3    3  502    0  0.80327471055E+03 -0.37512253177E+03 -0.19277451195E+04  0.21218365889E+04  0.46999998093E+01 0.  1.
       -5    1    3    3    0  502 -0.80327471055E+03  0.37512253177E+03  0.12245848572E+04  0.15118192144E+04  0.46999998093E+01 0. -1.
</event>
<event>
 5   0  0.1298250E-07  0.3570669E+04  0.7818609E-02  0.8097243E-01
        1   -1    0    0  501    0  0.00000000000E+00  0.00000000000E+00  0.18874442387E+04  0.18874442387E+04  0.50400001928E-02 0.  1.
       -1   -1    0    0    0  501  0.00000000000E+00  0.00000000000E+00 -0.16887489988E+04  0.16887489988E+04  0.50400001928E-02 0. -1.
    10030    2    1    2    0    0  0.00000000000E+00  0.00000000000E+00  0.19869523994E+03  0.35761932375E+04  0.35706691633E+04 0.  0.
        2    1    3    3  502    0 -0.11472083769E+03  0.97653855734E+03  0.15918312552E+04  0.18710198207E+04  0.25500000920E-02 0.  1.
       -2    1    3    3    0  502  0.11472083769E+03 -0.97653855734E+03 -0.13931360152E+04  0.17051734168E+04  0.25500000920E-02 0. -1.
</event>
<event>
 5   0  0.1348226E-07  0.3589616E+04  0.7818609E-02  0.8092874E-01
        1   -1    0    0  501    0  0.00000000000E+00  0.00000000000E+00  0.20003493808E+04  0.20003493808E+04  0.50400001928E-02 0.  1.
       -1   -1    0    0    0  501  0.00000000000E+00  0.00000000000E+00 -0.16103868632E+04  0.16103868632E+04  0.50400001928E-02 0. -1.
    10030    2    1    2    0    0  0.00000000000E+00  0.00000000000E+00  0.38996251759E+03  0.36107362440E+04  0.35896163387E+04 0.  0.
        4    1    3    3  502    0 -0.81781583059E+03  0.95889940757E+03 -0.10904356502E+04  0.16665420267E+04  0.12699999809E+01 0. -1.
       -4    1    3    3    0  502  0.81781583059E+03 -0.95889940757E+03  0.14803981678E+04  0.19441942173E+04  0.12699999809E+01 0.  1.
</event>
<event>
 5   0  0.1370997E-07  0.3582830E+04  0.7818609E-02  0.8094436E-01
       -1   -1    0    0    0  501  0.00000000000E+00  0.00000000000E+00  0.17555251278E+04  0.17555251278E+04  0.50400001928E-02 0. -1.
        1   -1    0    0  501    0  0.00000000000E+00  0.00000000000E+00 -0.18280381668E+04  0.18280381668E+04  0.50400001928E-02 0.  1.
    10030    2    1    2    0    0  0.00000000000E+00  0.00000000000E+00 -0.72513039003E+02  0.35835632946E+04  0.35828295725E+04 0.  0.
        3    1    3    3  502    0  0.25925516456E+03  0.26449924136E+03 -0.17893258803E+04  0.18272548276E+04  0.10100000352E+00 0.  1.
       -3    1    3    3    0  502 -0.25925516456E+03 -0.26449924136E+03  0.17168128413E+04  0.17563084670E+04  0.10100000352E+00 0. -1.
</event>
<event>
 5   0  0.1361743E-07  0.3621267E+04  0.7818609E-02  0.8085638E-01
        1   -1    0    0  501    0  0.00000000000E+00  0.00000000000E+00  0.20982190438E+04  0.20982190438E+04  0.50400001928E-02 0. -1.
       -1   -1    0    0    0  501  0.00000000000E+00  0.00000000000E+00 -0.15624646896E+04  0.15624646896E+04  0.50400001928E-02 0.  1.
    10030    2    1    2    0    0  0.00000000000E+00  0.00000000000E+00  0.53575435425E+03  0.36606837334E+04  0.36212667214E+04 0.  0.
        5    1    3    3  502    0 -0.24360921141E+03  0.16893600151E+04  0.87867952004E+03  0.19197350071E+04  0.46999998093E+01 0. -1.
       -5    1    3    3    0  502  0.24360921141E+03 -0.16893600151E+04 -0.34292516579E+03  0.17409487263E+04  0.46999998093E+01 0.  1.
</event>
<event>
 5   0  0.4115358E-07  0.3592988E+04  0.7818609E-02  0.8092100E-01
        2   -1    0    0  501    0  0.00000000000E+00  0.00000000000E+00  0.23268353206E+04  0.23268353206E+04  0.25500000920E-02 0. -1.
       -2   -1    0    0    0  501  0.00000000000E+00  0.00000000000E+00 -0.13870300272E+04  0.13870300272E+04  0.25500000920E-02 0.  1.
    10030    2    1    2    0    0  0.00000000000E+00  0.00000000000E+00  0.93980529337E+03  0.37138653478E+04  0.35929878698E+04 0.  0.
        3    1    3    3  502    0  0.40081065209E+02  0.74114159536E+03  0.21609410326E+04  0.22848552499E+04  0.10100000352E+00 0. -1.
       -3    1    3    3    0  502 -0.40081065209E+02 -0.74114159536E+03 -0.12211357393E+04  0.14290100980E+04  0.10100000352E+00 0.  1.
</event>
<event>
 5   0  0.1298250E-07  0.3578373E+04  0.7818609E-02  0.8095464E-01
        1   -1    0    0  501    0  0.00000000000E+00  0.00000000000E+00  0.32399323707E+04  0.32399323707E+04  0.50400001928E-02 0. -1.
       -1   -1    0    0    0  501  0.00000000000E+00  0.00000000000E+00 -0.98804172734E+03  0.98804172735E+03  0.50400001928E-02 0.  1.
    10030    2    1    2    0    0  0.00000000000E+00  0.00000000000E+00  0.22518906433E+04  0.42279740980E+04  0.35783730247E+04 0.  0.
        1    1    3    3  502    0  0.66537318856E+03  0.80052919734E+03 -0.59343008917E+03  0.11982185721E+04  0.50400001928E-02 0.  1.
       -1    1    3    3    0  502 -0.66537318856E+03 -0.80052919734E+03  0.28453207325E+04  0.30297555259E+04  0.50400001928E-02 0. -1.
</event>
<event>
 5   0  0.3993751E-07  0.3588088E+04  0.7818609E-02  0.8093226E-01
       -2   -1    0    0    0  501  0.00000000000E+00  0.00000000000E+00  0.13836873353E+04  0.13836873353E+04  0.25500000920E-02 0. -1.
        2   -1    0    0  501    0  0.00000000000E+00  0.00000000000E+00 -0.23260993704E+04  0.23260993704E+04  0.25500000920E-02 0.  1.
    10030    2    1    2    0    0  0.00000000000E+00  0.00000000000E+00 -0.94241203507E+03  0.37097867058E+04  0.35880882038E+04 0.  0.
        1    1    3    3  502    0 -0.75522780217E+03  0.14731307292E+04  0.24370209545E+03  0.16732823701E+04  0.50400001928E-02 0. -1.
       -1    1    3    3    0  502  0.75522780217E+03 -0.14731307292E+04 -0.11861141305E+04  0.20365043357E+04  0.50400001928E-02 0.  1.
</event>
<event>
 5   0  0.1370997E-07  0.3606420E+04  0.7818609E-02  0.8089023E-01
       -1   -1    0    0    0  501  0.00000000000E+00  0.00000000000E+00  0.15703837082E+04  0.15703837082E+04  0.50400001928E-02 0.  1.
        1   -1    0    0  501    0  0.00000000000E+00  0.00000000000E+00 -0.20705558459E+04  0.20705558459E+04  0.50400001928E-02 0. -1.
    10030    2    1    2    0    0  0.00000000000E+00  0.00000000000E+00 -0.50017213763E+03  0.36409395541E+04  0.36064204787E+04 0.  0.
        3    1    3    3  502    0 -0.74813830749E+03  0.14881535125E+03  0.13994779334E+04  0.15938617983E+04  0.10100000352E+00 0.  1.
       -3    1    3    3    0  502  0.74813830749E+03 -0.14881535125E+03 -0.18996500710E+04  0.20470777558E+04  0.10100000352E+00 0. -1.
</event>
<event>
 5   0  0.1298250E-07  0.3497109E+04  0.7818609E-02  0.8114475E-01
       -1   -1    0    0    0  501  0.00000000000E+00  0.00000000000E+00  0.17439532299E+04  0.17439532299E+04  0.50400001928E-02 0. -1.
        1   -1    0    0  501    0  0.00000000000E+00  0.00000000000E+00 -0.17531679653E+04  0.17531679653E+04  0.50400001928E-02 0.  1.
    10030    2    1    2    0    0  0.00000000000E+00  0.00000000000E+00 -0.92147353807E+01  0.34971211952E+04  0.34971090550E+04 0.  0.
        2    1    3    3  502    0 -0.67850287612E+03 -0.37680641601E+02 -0.16157172254E+04  0.17528057896E+04  0.25500000920E-02 0.  1.
       -2    1    3    3    0  502  0.67850287612E+03  0.37680641601E+02  0.16065024900E+04  0.17443154056E+04  0.25500000920E-02 0. -1.
</event>
<event>
 5   0  0.1361743E-07  0.3614514E+04  0.7818609E-02  0.8087175E-01
       -1   -1    0    0    0  501  0.00000000000E+00  0.00000000000E+00  0.14722495430E+04  0.14722495430E+04  0.50400001928E-02 0. -1.
        1   -1    0    0  501    0  0.00000000000E+00  0.00000000000E+00 -0.22184941668E+04  0.22184941668E+04  0.50400001928E-02 0.  1.
    10030    2    1    2    0    0  0.00000000000E+00  0.00000000000E+00 -0.74624462377E+03  0.36907437098E+04  0.36145135348E+04 0.  0.
        5    1    3    3  502    0 -0.81968084834E+03 -0.45129274013E+03  0.12056470171E+04  0.15261548579E+04  0.46999998093E+01 0. -1.
       -5    1    3    3    0  502  0.81968084834E+03  0.45129274013E+03 -0.19518916409E+04  0.21645888520E+04  0.46999998093E+01 0.  1.
</event>
<event>
 5   0  0.3880259E-07  0.3303283E+04  0.7818609E-02  0.8162060E-01
       -2   -1    0    0    0  501  0.00000000000E+00  0.00000000000E+00  0.12758025602E+04  0.12758025602E+04  0.25500000920E-02 0.  1.
        2   -1    0    0  501    0  0.00000000000E+00  0.00000000000E+00 -0.21381994247E+04  0.21381994247E+04  0.25500000920E-02 0. -1.
    10030    2    1    2    0    0  0.00000000000E+00  0.00000000000E+00 -0.86239686445E+03  0.34140019849E+04  0.33032833971E+04 0.  0.
        5    1    3    3  502    0  0.16165419174E+04  0.33589968697E+03 -0.38660313284E+03  0.16957359591E+04  0.46999998093E+01 0.  1.
       -5    1    3    3    0  502 -0.16165419174E+04 -0.33589968697E+03 -0.47579373162E+03  0.17182660259E+04  0.46999998093E+01 0. -1.
</event>
<event>
 5   0  0.3880259E-07  0.3596245E+04  0.7818609E-02  0.8091352E-01
       -2   -1    0    0    0  501  0.00000000000E+00  0.00000000000E+00  0.17531514592E+04  0.17531514592E+04  0.25500000920E-02 0.  1.
        2   -1    0    0  501    0  0.00000000000E+00  0.00000000000E+00 -0.18442476226E+04  0.18442476226E+04  0.25500000920E-02 0. -1.
    10030    2    1    2    0    0  0.00000000000E+00  0.00000000000E+00 -0.91096163375E+02  0.35973990817E+04  0.35962454925E+04 0.  0.
        5    1    3    3  502    0  0.52932558643E+03  0.23655426249E+02 -0.17643769379E+04  0.18422250744E+04  0.46999998093E+01 0. -1.
       -5    1    3    3    0  502 -0.52932558643E+03 -0.23655426249E+02  0.16732807745E+04  0.17551740074E+04  0.46999998093E+01 0.  1.
</event>
<event>
 5   0  0.3880259E-07  0.3596359E+04  0.7818609E-02  0.8091326E-01
       -2   -1    0    0    0  501  0.00000000000E+00  0.00000000000E+00  0.19284070180E+04  0.19284070180E+04  0.25500000920E-02 0.  1.
        2   -1    0    0  501    0  0.00000000000E+00  0.00000000000E+00 -0.16767466353E+04  0.16767466354E+04  0.25500000920E-02 0. -1.
    10030    2    1    2    0    0  0.00000000000E+00  0.00000000000E+00  0.25166038264E+03  0.36051536533E+04  0.35963592585E+04 0.  0.
        5    1    3    3  502    0 -0.36789565686E+03  0.17029756660E+04  0.57183902510E+03  0.18337107989E+04  0.46999998093E+01 0.  1.
       -5    1    3    3    0  502  0.36789565686E+03 -0.17029756660E+04 -0.32017864246E+03  0.17714428544E+04  0.46999998093E+01 0. -1.
</event>
<event>
 5   0  0.1348226E-07  0.3597098E+04  0.7818609E-02  0.8091157E-01
        1   -1    0    0  501    0  0.00000000000E+00  0.00000000000E+00  0.13124901743E+04  0.13124901743E+04  0.50400001928E-02 0.  1.
       -1   -1    0    0    0  501  0.00000000000E+00  0.00000000000E+00 -0.24646116523E+04  0.24646116523E+04  0.50400001928E-02 0. -1.
    10030    2    1    2    0    0  0.00000000000E+00  0.00000000000E+00 -0.11521214780E+04  0.37771018266E+04  0.35970980399E+04 0.  0.
        4    1    3    3  502    0  0.58753318161E+03 -0.54924823786E+03  0.11131383677E+04  0.13732980393E+04  0.12699999809E+01 0.  1.
       -4    1    3    3    0  502 -0.58753318161E+03  0.54924823786E+03 -0.22652598457E+04  0.24038037873E+04  0.12699999809E+01 0. -1.
</event>
<event>
 5   0  0.4120440E-07  0.3544997E+04  0.7818609E-02  0.8103208E-01
        2   -1    0    0  501    0  0.00000000000E+00  0.00000000000E+00  0.16557913009E+04  0.16557913009E+04  0.25500000920E-02 0. -1.
       -2   -1    0    0    0  501  0.00000000000E+00  0.00000000000E+00 -0.18974314533E+04  0.18974314533E+04  0.25500000920E-02 0.  1.
    10030    2    1    2    0    0  0.00000000000E+00  0.00000000000E+00 -0.24164015243E+03  0.35532227542E+04  0.35449967528E+04 0.  0.
        2    1    3    3  502    0 -0.16920423683E+04  0.35580324441E+03  0.27014551014E+03  0.17500234060E+04  0.25500000920E-02 0. -1.
       -2    1    3    3    0  502  0.16920423683E+04 -0.35580324441E+03 -0.51178566257E+03  0.18031993482E+04  0.25500000920E-02 0.  1.
</event>
<event>
 5   0  0.4115358E-07  0.3611832E+04  0.7818609E-02  0.8087787E-01
        2   -1    0    0  501    0  0.00000000000E+00  0.00000000000E+00  0.21645321938E+04  0.21645321938E+04  0.25500000920E-02 0. -1.
       -2   -1    0    0    0  501  0.00000000000E+00  0.00000000000E+00 -0.15067149518E+04  0.15067149518E+04  0.25500000920E-02 0.  1.
    10030    2    1    2    0    0  0.00000000000E+00  0.00000000000E+00  0.65781724198E+03  0.36712471456E+04  0.36118322331E+04 0.  0.
        3    1    3    3  502    0  0.26760822480E+03 -0.11980367204E+04 -0.10174280863E+04  0.15943857960E+04  0.10100000352E+00 0.  1.
       -3    1    3    3    0  502 -0.26760822480E+03  0.11980367204E+04  0.16752453283E+04  0.20768613496E+04  0.10100000352E+00 0. -1.
</event>
<event>
 5   0  0.1370997E-07  0.3598538E+04  0.7818609E-02  0.8090827E-01
        1   -1    0    0  501    0  0.00000000000E+00  0.00000000000E+00  0.17952447965E+04  0.17952447965E+04  0.50400001928E-02 0. -1.
       -1   -1    0    0    0  501  0.00000000000E+00  0.00000000000E+00 -0.18033025887E+04  0.18033025887E+04  0.50400001928E-02 0.  1.
    10030    2    1    2    0    0  0.00000000000E+00  0.00000000000E+00 -0.80577921604E+01  0.35985473852E+04  0.35985383638E+04 0.  0.
        3    1    3    3  502    0  0.12061936488E+04  0.46636393414E+03  0.12469623061E+04  0.17964724992E+04  0.10100000352E+00 0. -1.
       -3    1    3    3    0  502 -0.12061936488E+04 -0.46636393414E+03 -0.12550200983E+04  0.18020748860E+04  0.10100000352E+00 0.  1.
</event>
<event>
 5   0  0.4115358E-07  0.3615967E+04  0.7818609E-02  0.8086844E-01
        2   -1    0    0  501    0  0.00000000000E+00  0.00000000000E+00  0.18130201722E+04  0.18130201722E+04  0.25500000920E-02 0. -1.
       -2   -1    0    0    0  501  0.00000000000E+00  0.00000000000E+00 -0.18029609689E+04  0.18029609689E+04  0.25500000920E-02 0.  1.
    10030    2    1    2    0    0  0.00000000000E+00  0.00000000000E+00  0.10059203283E+02  0.36159811411E+04  0.36159671494E+04 0.  0.
        3    1    3    3  502    0 -0.10931895253E+04  0.68152557220E+03  0.12736022666E+04  0.18115195796E+04  0.10100000352E+00 0. -1.
       -3    1    3    3    0  502  0.10931895253E+04 -0.68152557220E+03 -0.12635430633E+04  0.18044615615E+04  0.10100000352E+00 0.  1.
</event>
<event>
 5   0  0.1348226E-07  0.3570150E+04  0.7818609E-02  0.8097364E-01
        1   -1    0    0  501    0  0.00000000000E+00  0.00000000000E+00  0.13336057202E+04  0.13336057202E+04  0.50400001928E-02 0.  1.
       -1   -1    0    0    0  501  0.00000000000E+00  0.00000000000E+00 -0.23893815180E+04  0.23893815180E+04  0.50400001928E-02 0. -1.
    10030    2    1    2    0    0  0.00000000000E+00  0.00000000000E+00 -0.10557757978E+04  0.37229872382E+04  0.35701500586E+04 0.  0.
        4    1    3    3  502    0 -0.89715279059E+03 -0.39778139361E+03 -0.20828211005E+04  0.23024462027E+04  0.12699999809E+01 0. -1.
       -4    1    3    3    0  502  0.89715279059E+03  0.39778139361E+03  0.10270453027E+04  0.14205410355E+04  0.12699999809E+01 0.  1.
</event>
<event>
 5   0  0.3880259E-07  0.3546313E+04  0.7818609E-02  0.8102901E-01
       -2   -1    0    0    0  501  0.00000000000E+00  0.00000000000E+00  0.15629276218E+04  0.15629276218E+04  0.25500000920E-02 0.  1.
        2   -1    0    0  501    0  0.00000000000E+00  0.00000000000E+00 -0.20116632820E+04  0.20116632820E+04  0.25500000920E-02 0. -1.
    10030    2    1    2    0    0  0.00000000000E+00  0.00000000000E+00 -0.44873566013E+03  0.35745909038E+04  0.35463130766E+04 0.  0.
        5    1    3    3  502    0 -0.13375336565E+04 -0.11181171847E+04  0.10206586953E+03  0.17463166530E+04  0.46999998093E+01 0. -1.
       -5    1    3    3    0  502  0.13375336565E+04  0.11181171847E+04 -0.55080152965E+03  0.18282742508E+04  0.46999998093E+01 0.  1.
</event>
<event>
 5   0  0.1370997E-07  0.3578141E+04  0.7818609E-02  0.8095517E-01
       -1   -1    0    0    0  501  0.00000000000E+00  0.00000000000E+00  0.27060062851E+04  0.27060062851E+04  0.50400001928E-02 0.  1.
        1   -1    0    0  501    0  0.00000000000E+00  0.00000000000E+00 -0.11828404289E+04  0.11828404289E+04  0.50400001928E-02 0. -1.
    10030    2    1    2    0    0  0.00000000000E+00  0.00000000000E+00  0.15231658562E+04  0.38888467141E+04  0.35781412130E+04 0.  0.
        3    1    3    3  502    0  0.64799861851E+03 -0.41257533415E+03  0.25176371632E+04  0.26322267212E+04  0.10100000352E+00 0.  1.
       -3    1    3    3    0  502 -0.64799861851E+03  0.41257533415E+03 -0.99447130700E+03  0.12566199929E+04  0.10100000352E+00 0. -1.
</event>
<event>
 5   0  0.4120440E-07  0.3594546E+04  0.7818609E-02  0.8091742E-01
       -2   -1    0    0    0  501  0.00000000000E+00  0.00000000000E+00  0.12996117947E+04  0.12996117947E+04  0.25500000920E-02 0.  1.
        2   -1    0    0  501    0  0.00000000000E+00  0.00000000000E+00 -0.24855043683E+04  0.24855043683E+04  0.25500000920E-02 0. -1.
    10030    2    1    2    0    0  0.00000000000E+00  0.00000000000E+00 -0.11858925736E+04  0.37851161630E+04  0.35945463095E+04 0.  0.
        2    1    3    3  502    0  0.16908502170E+04  0.38021752035E+03 -0.10942650088E+04  0.20496233138E+04  0.25500000920E-02 0.  1.
       -2    1    3    3    0  502 -0.16908502170E+04 -0.38021752035E+03 -0.91627564861E+02  0.17354928492E+04  0.25500000920E-02 0. -1.
</event>
<event>
 5   0  0.1361743E-07  0.3579608E+04  0.7818609E-02  0.8095179E-01
       -1   -1    0    0    0  501  0.00000000000E+00  0.00000000000E+00  0.12564476647E+04  0.12564476647E+04  0.50400001928E-02 0.  1.
        1   -1    0    0  501    0  0.00000000000E+00  0.00000000000E+00 -0.25495669705E+04  0.25495669705E+04  0.50400001928E-02 0. -1.
    10030    2    1    2    0    0  0.00000000000E+00  0.00000000000E+00 -0.12931193058E+04  0.38060146352E+04  0.35796075014E+04 0.  0.
        5    1    3    3  502    0  0.75425307743E+03 -0.10969869959E+04  0.62538909087E+03  0.14708540985E+04  0.46999998093E+01 0.  1.
       -5    1    3    3    0  502 -0.75425307743E+03  0.10969869959E+04 -0.19185083966E+04  0.23351605367E+04  0.46999998093E+01 0. -1.
</event>
<event>
 5   0  0.1298250E-07  0.3593333E+04  0.7818609E-02  0.8092021E-01
       -1   -1    0    0    0  501  0.00000000000E+00  0.00000000000E+00  0.19767925958E+04  0.19767925958E+04  0.50400001928E-02 0. -1.
        1   -1    0    0  501    0  0.00000000000E+00  0.00000000000E+00 -0.16329531323E+04  0.16329531323E+04  0.50400001928E-02 0.  1.
    10030    2    1    2    0    0  0.00000000000E+00  0.00000000000E+00  0.34383946350E+03  0.36097457281E+04  0.35933325263E+04 0.  0.
        2    1    3    3  502    0 -0.87067889566E+03 -0.80546665004E+03  0.15275842463E+04  0.19340041089E+04  0.25500000920E-02 0. -1.
       -2    1    3    3    0  502  0.87067889566E+03  0.80546665004E+03 -0.11837447828E+04  0.16757416192E+04  0.25500000920E-02 0.  1.
</event>
<event>
 5   0  0.1298250E-07  0.3669922E+04  0.7818609E-02  0.8074660E-01
        3   -1    0    0  501    0  0.00000000000E+00  0.00000000000E+00  0.23370488000E+04  0.23370488022E+04  0.10100000352E+00 0.  1.
       -3   -1    0    0    0  501  0.00000000000E+00  0.00000000000E+00 -0.14407410872E+04  0.14407410907E+04  0.10100000352E+00 0. -1.
    10030    2    1    2    0    0  0.00000000000E+00  0.00000000000E+00  0.89630771281E+03  0.37777898929E+04  0.36699222007E+04 0.  0.
        2    1    3    3  502    0 -0.78626587183E+03 -0.83581109384E+03  0.19221229634E+04  0.22386046753E+04  0.25500000920E-02 0.  1.
       -2    1    3    3    0  502  0.78626587183E+03  0.83581109384E+03 -0.10258152506E+04  0.15391852176E+04  0.25500000920E-02 0. -1.
</event>
<event>
 5   0  0.3880259E-07  0.3567495E+04  0.7818609E-02  0.8097978E-01
        2   -1    0    0  501    0  0.00000000000E+00  0.00000000000E+00  0.18463695176E+04  0.18463695176E+04  0.25500000920E-02 0. -1.
       -2   -1    0    0    0  501  0.00000000000E+00  0.00000000000E+00 -0.17232491055E+04  0.17232491055E+04  0.25500000920E-02 0.  1.
    10030    2    1    2    0    0  0.00000000000E+00  0.00000000000E+00  0.12312041217E+03  0.35696186231E+04  0.35674947062E+04 0.  0.
        5    1    3    3  502    0 -0.13322073360E+04  0.51071700390E+03 -0.10096491048E+04  0.17478620223E+04  0.46999998093E+01 0.  1.
       -5    1    3    3    0  502  0.13322073360E+04 -0.51071700390E+03  0.11327695169E+04  0.18217566008E+04  0.46999998093E+01 0. -1.
</event>
<event>
 5   0  0.1361743E-07  0.3612057E+04  0.7818609E-02  0.8087735E-01
        1   -1    0    0  501    0  0.00000000000E+00  0.00000000000E+00  0.25330479205E+04  0.25330479205E+04  0.50400001928E-02 0.  1.
       -1   -1    0    0    0  501  0.00000000000E+00  0.00000000000E+00 -0.12876738528E+04  0.12876738528E+04  0.50400001928E-02 0. -1.
    10030    2    1    2    0    0  0.00000000000E+00  0.00000000000E+00  0.12453740677E+04  0.38207217733E+04  0.36120573501E+04 0.  0.
        5    1    3    3  502    0 -0.12556693333E+04 -0.39816794450E+03 -0.68419240233E+03  0.14843801804E+04  0.46999998093E+01 0. -1.
       -5    1    3    3    0  502  0.12556693333E+04  0.39816794450E+03  0.19295664700E+04  0.23363415929E+04  0.46999998093E+01 0.  1.
</event>
<event>
 5   0  0.3993751E-07  0.3584065E+04  0.7818609E-02  0.8094152E-01
        2   -1    0    0  501    0  0.00000000000E+00  0.00000000000E+00  0.31945895439E+04  0.31945895439E+04  0.25500000920E-02 0. -1.
       -2   -1    0    0    0  501  0.00000000000E+00  0.00000000000E+00 -0.10052559394E+04  0.10052559394E+04  0.25500000920E-02 0.  1.
    10030    2    1    2    0    0  0.00000000000E+00  0.00000000000E+00  0.21893336045E+04  0.41998454834E+04  0.35840647947E+04 0.  0.
        1    1    3    3  502    0  0.11571701168E+04 -0.54758065732E+03 -0.37477300537E+03  0.13339198106E+04  0.50400001928E-02 0.  1.
       -1    1    3    3    0  502 -0.11571701168E+04  0.54758065732E+03  0.25641066098E+04  0.28659256728E+04  0.50400001928E-02 0. -1.
</event>
<event>
 5   0  0.3880259E-07  0.3610034E+04  0.7818609E-02  0.8088197E-01
        2   -1    0    0  501    0  0.00000000000E+00  0.00000000000E+00  0.19524947179E+04  0.19524947179E+04  0.25500000920E-02 0.  1.
       -2   -1    0    0    0  501  0.00000000000E+00  0.00000000000E+00 -0.16686790395E+04  0.16686790395E+04  0.25500000920E-02 0. -1.
    10030    2    1    2    0    0  0.00000000000E+00  0.00000000000E+00  0.28381567836E+03  0.36211737574E+04  0.36100343546E+04 0.  0.
        5    1    3    3  502    0  0.11682258802E+03  0.73708982637E+03 -0.15066707172E+04  0.16813767185E+04  0.46999998093E+01 0. -1.
       -5    1    3    3    0  502 -0.11682258802E+03 -0.73708982637E+03  0.17904863956E+04  0.19397970389E+04  0.46999998093E+01 0.  1.
</event>
<event>
 5   0  0.3880259E-07  0.3605307E+04  0.7818609E-02  0.8089277E-01
        2   -1    0    0  501    0  0.00000000000E+00  0.00000000000E+00  0.21281489402E+04  0.21281489402E+04  0.25500000920E-02 0. -1.
       -2   -1    0    0    0  501  0.00000000000E+00  0.00000000000E+00 -0.15269414646E+04  0.15269414646E+04  0.25500000920E-02 0.  1.
    10030    2    1    2    0    0  0.00000000000E+00  0.00000000000E+00  0.60120747559E+03  0.36550904048E+04  0.36053065665E+04 0.  0.
        5    1    3    3  502    0  0.10938024960E+04 -0.14321996530E+04  0.34522309726E+03  0.18348844169E+04  0.46999998093E+01 0. -1.
       -5    1    3    3    0  502 -0.10938024960E+04  0.14321996530E+04  0.25598437833E+03  0.18202059879E+04  0.46999998093E+01 0.  1.
</event>
<event>
 5   0  0.1361743E-07  0.3590819E+04  0.7818609E-02  0.8092598E-01
        1   -1    0    0  501    0  0.00000000000E+00  0.00000000000E+00  0.12509584715E+04  0.12509584715E+04  0.50400001928E-02 0.  1.
       -1   -1    0    0    0  501  0.00000000000E+00  0.00000000000E+00 -0.25768201285E+04  0.25768201285E+04  0.50400001928E-02 0. -1.
    10030    2    1    2    0    0  0.00000000000E+00  0.00000000000E+00 -0.13258616570E+04  0.38277786000E+04  0.35908188311E+04 0.  0.
        5    1    3    3  502    0 -0.17638829484E+04  0.24886941539E+03 -0.42396382765E+03  0.18311161784E+04  0.46999998093E+01 0.  1.
       -5    1    3    3    0  502  0.17638829484E+04 -0.24886941539E+03 -0.90189782933E+03  0.19966624217E+04  0.46999998093E+01 0. -1.
</event>
<event>
 5   0  0.1298250E-07  0.3594174E+04  0.7818609E-02  0.8091827E-01
       -3   -1    0    0    0  501  0.00000000000E+00  0.00000000000E+00  0.23502428470E+04  0.23502428492E+04  0.10100000352E+00 0.  1.
        3   -1    0    0  501    0  0.00000000000E+00  0.00000000000E+00 -0.13741227039E+04  0.13741227076E+04  0.10100000352E+00 0. -1.
    10030    2    1    2    0    0  0.00000000000E+00  0.00000000000E+00  0.97612014317E+03  0.37243655568E+04  0.35941742120E+04 0.  0.
        2    1    3    3  502    0 -0.21230963957E+03  0.17265767078E+04  0.20748188236E+02  0.17397048595E+04  0.25500000920E-02 0. -1.
       -2    1    3    3    0  502  0.21230963957E+03 -0.17265767078E+04  0.95537195494E+03  0.19846606972E+04  0.25500000920E-02 0.  1.
</event>
<event>
 5   0  0.3880259E-07  0.3624683E+04  0.7818609E-02  0.8084861E-01
       -2   -1    0    0    0  501  0.00000000000E+00  0.00000000000E+00  0.19580968684E+04  0.19580968684E+04  0.25500000920E-02 0. -1.
        2   -1    0    0  501    0  0.00000000000E+00  0.00000000000E+00 -0.16774360450E+04  0.16774360450E+04  0.25500000920E-02 0.  1.
    10030    2    1    2    0    0  0.00000000000E+00  0.00000000000E+00  0.28066082339E+03  0.36355329134E+04  0.36246833057E+04 0.  0.
        5    1    3    3  502    0  0.93278691259E+02  0.11657508683E+04 -0.12483296630E+04  0.17105627842E+04  0.46999998093E+01 0.  1.
       -5    1    3    3    0  502 -0.93278691259E+02 -0.11657508683E+04  0.15289904863E+04  0.19249701292E+04  0.46999998093E+01 0. -1.
</event>
<event>
 5   0  0.1348226E-07  0.3512584E+04  0.7818609E-02  0.8110814E-01
        1   -1    0    0  501    0  0.00000000000E+00  0.00000000000E+00  0.20732538328E+04  0.20732538328E+04  0.50400001928E-02 0.  1.
       -1   -1    0    0    0  501  0.00000000000E+00  0.00000000000E+00 -0.14877876187E+04  0.14877876187E+04  0.50400001928E-02 0. -1.
    10030    2    1    2    0    0  0.00000000000E+00  0.00000000000E+00  0.58546621411E+03  0.35610414516E+04  0.35125838825E+04 0.  0.
        4    1    3    3  502    0 -0.10340056596E+04  0.13439422853E+04  0.75643918674E+03  0.18567580419E+04  0.12699999809E+01 0.  1.
       -4    1    3    3    0  502  0.10340056596E+04 -0.13439422853E+04 -0.17097297263E+03  0.17042834096E+04  0.12699999809E+01 0. -1.
</event>
<event>
 5   0  0.3993751E-07  0.3590627E+04  0.7818609E-02  0.8092642E-01
       -2   -1    0    0    0  501  0.00000000000E+00  0.00000000000E+00  0.32557891508E+04  0.32557891508E+04  0.25500000920E-02 0.  1.
        2   -1    0    0  501    0  0.00000000000E+00  0.00000000000E+00 -0.98997530569E+03  0.98997530569E+03  0.25500000920E-02 0. -1.
    10030    2    1    2    0    0  0.00000000000E+00  0.00000000000E+00  0.22658138451E+04  0.42457644565E+04  0.35906271652E+04 0.  0.
        1    1    3    3  502    0  0.79568751541E+03 -0.15891664933E+04  0.14334049651E+04  0.22832473715E+04  0.50400001928E-02 0.  1.
       -1    1    3    3    0  502 -0.79568751541E+03  0.15891664933E+04  0.83240888008E+03  0.19625170851E+04  0.50400001928E-02 0. -1.
</event>
<event>
 5   0  0.1361743E-07  0.3639317E+04  0.7818609E-02  0.8081545E-01
       -1   -1    0    0    0  501  0.00000000000E+00  0.00000000000E+00  0.17361022904E+04  0.17361022904E+04  0.50400001928E-02 0.  1.
        1   -1    0    0  501    0  0.00000000000E+00  0.00000000000E+00 -0.19072360981E+04  0.19072360981E+04  0.50400001928E-02 0. -1.
    10030    2    1    2    0    0  0.00000000000E+00  0.00000000000E+00 -0.17113380765E+03  0.36433383885E+04  0.36393169460E+04 0.  0.
        5    1    3    3  502    0  0.19963487219E+03  0.14067424745E+04 -0.12236416291E+04  0.18751265019E+04  0.46999998093E+01 0. -1.
       -5    1    3    3    0  502 -0.19963487219E+03 -0.14067424745E+04  0.10525078215E+04  0.17682118866E+04  0.46999998093E+01 0.  1.
</event>
<event>
 5   0  0.1298250E-07  0.3582394E+04  0.7818609E-02  0.8094537E-01
        1   -1    0    0  501    0  0.00000000000E+00  0.00000000000E+00  0.20398472904E+04  0.20398472904E+04  0.50400001928E-02 0.  1.
       -1   -1    0    0    0  501  0.00000000000E+00  0.00000000000E+00 -0.15728561154E+04  0.15728561154E+04  0.50400001928E-02 0. -1.
    10030    2    1    2    0    0  0.00000000000E+00  0.00000000000E+00  0.46699117499E+03  0.36127034058E+04  0.35823937724E+04 0.  0.
        1    1    3    3  502    0  0.20550870481E+03 -0.26759858090E+03 -0.15405193820E+04  0.15770360791E+04  0.50400001928E-02 0. -1.
       -1    1    3    3    0  502 -0.20550870481E+03  0.26759858090E+03  0.20075105570E+04  0.20356673267E+04  0.50400001928E-02 0.  1.
</event>
<event>
 5   0  0.1298250E-07  0.3602767E+04  0.7818609E-02  0.8089858E-01
       -1   -1    0    0    0  501  0.00000000000E+00  0.00000000000E+00  0.13722714748E+04  0.13722714748E+04  0.50400001928E-02 0.  1.
        1   -1    0    0  501    0  0.00000000000E+00  0.00000000000E+00 -0.23646798970E+04  0.23646798970E+04  0.50400001928E-02 0. -1.
    10030    2    1    2    0    0  0.00000000000E+00  0.00000000000E+00 -0.99240842224E+03  0.37369513718E+04  0.36027671419E+04 0.  0.
        1    1    3    3  502    0  0.51415362203E+03  0.16305598127E+04  0.92292602704E+02  0.17121907530E+04  0.50400001928E-02 0.  1.
       -1    1    3    3    0  502 -0.51415362203E+03 -0.16305598127E+04 -0.10847010249E+04  0.20247606188E+04  0.50400001928E-02 0. -1.
</event>
<event>
 5   0  0.1348226E-07  0.3588913E+04  0.7818609E-02  0.8093036E-01
        1   -1    0    0  501    0  0.00000000000E+00  0.00000000000E+00  0.22916289033E+04  0.22916289033E+04  0.50400001928E-02 0.  1.
       -1   -1    0    0    0  501  0.00000000000E+00  0.00000000000E+00 -0.14051461126E+04  0.14051461127E+04  0.50400001928E-02 0. -1.
    10030    2    1    2    0    0  0.00000000000E+00  0.00000000000E+00  0.88648279067E+03  0.36967750160E+04  0.35889126181E+04 0.  0.
        4    1    3    3  502    0 -0.11392816230E+04 -0.12241206814E+03  0.18657328262E+04  0.21894994685E+04  0.12699999809E+01 0.  1.
       -4    1    3    3    0  502  0.11392816230E+04  0.12241206814E+03 -0.97925003556E+03  0.15072755474E+04  0.12699999809E+01 0. -1.
</event>
<event>
 5   0  0.4200635E-07  0.3600870E+04  0.7818609E-02  0.8090292E-01
       -2   -1    0    0    0  501  0.00000000000E+00  0.00000000000E+00  0.17721230395E+04  0.17721230395E+04  0.25500000920E-02 0.  1.
        2   -1    0    0  501    0  0.00000000000E+00  0.00000000000E+00 -0.18291995925E+04  0.18291995925E+04  0.25500000920E-02 0. -1.
    10030    2    1    2    0    0  0.00000000000E+00  0.00000000000E+00 -0.57076552988E+02  0.36013226319E+04  0.36008703068E+04 0.  0.
        4    1    3    3  502    0 -0.30209216840E+03  0.16140063827E+04  0.70999124164E+03  0.17889565276E+04  0.12699999809E+01 0.  1.
       -4    1    3    3    0  502  0.30209216840E+03 -0.16140063827E+04 -0.76706779463E+03  0.18123661043E+04  0.12699999809E+01 0. -1.
</event>
<event>
 5   0  0.4115358E-07  0.3560099E+04  0.7818609E-02  0.8099693E-01
        2   -1    0    0  501    0  0.00000000000E+00  0.00000000000E+00  0.22456583464E+04  0.22456583464E+04  0.25500000920E-02 0.  1.
       -2   -1    0    0    0  501  0.00000000000E+00  0.00000000000E+00 -0.14109788109E+04  0.14109788109E+04  0.25500000920E-02 0. -1.
    10030    2    1    2    0    0  0.00000000000E+00  0.00000000000E+00  0.83467953549E+03  0.36566371572E+04  0.35600990678E+04 0.  0.
        3    1    3    3  502    0 -0.43226982045E+03 -0.25713021699E+02  0.21907327922E+04  0.22331208060E+04  0.10100000352E+00 0.  1.
       -3    1    3    3    0  502  0.43226982045E+03  0.25713021699E+02 -0.13560532567E+04  0.14235163513E+04  0.10100000352E+00 0. -1.
</event>
<event>
 5   0  0.1348226E-07  0.3379243E+04  0.7818609E-02  0.8143020E-01
       -1   -1    0    0    0  501  0.00000000000E+00  0.00000000000E+00  0.12277787313E+04  0.12277787313E+04  0.50400001928E-02 0. -1.
        1   -1    0    0  501    0  0.00000000000E+00  0.00000000000E+00 -0.23251920667E+04  0.23251920667E+04  0.50400001928E-02 0.  1.
    10030    2    1    2    0    0  0.00000000000E+00  0.00000000000E+00 -0.10974133354E+04  0.35529707980E+04  0.33792433269E+04 0.  0.
        4    1    3    3  502    0  0.73823966900E+03  0.15040590410E+04 -0.77816557362E+03  0.18473588392E+04  0.12699999809E+01 0.  1.
       -4    1    3    3    0  502 -0.73823966900E+03 -0.15040590410E+04 -0.31924776179E+03  0.17056119588E+04  0.12699999809E+01 0. -1.
</event>
<event>
 5   0  0.3880259E-07  0.3531634E+04  0.7818609E-02  0.8106334E-01
       -2   -1    0    0    0  501  0.00000000000E+00  0.00000000000E+00  0.12209718782E+04  0.12209718782E+04  0.25500000920E-02 0.  1.
        2   -1    0    0  501    0  0.00000000000E+00  0.00000000000E+00 -0.25537932421E+04  0.25537932421E+04  0.25500000920E-02 0. -1.
    10030    2    1    2    0    0  0.00000000000E+00  0.00000000000E+00 -0.13328213639E+04  0.37747651204E+04  0.35316340306E+04 0.  0.
        5    1    3    3  502    0  0.43936417868E+03 -0.14436677025E+04 -0.16465295581E+04  0.22334500202E+04  0.46999998093E+01 0. -1.
       -5    1    3    3    0  502 -0.43936417868E+03  0.14436677025E+04  0.31370819428E+03  0.15413151002E+04  0.46999998093E+01 0.  1.
</event>
<event>
 5   0  0.4115358E-07  0.3642115E+04  0.7818609E-02  0.8080912E-01
        2   -1    0    0  501    0  0.00000000000E+00  0.00000000000E+00  0.10436179761E+04  0.10436179761E+04  0.25500000920E-02 0.  1.
       -2   -1    0    0    0  501  0.00000000000E+00  0.00000000000E+00 -0.31776475658E+04  0.31776475658E+04  0.25500000920E-02 0. -1.
    10030    2    1    2    0    0  0.00000000000E+00  0.00000000000E+00 -0.21340295897E+04  0.42212655419E+04  0.36421148370E+04 0.  0.
        3    1    3    3  502    0 -0.92893552721E+03 -0.10371383050E+04 -0.24274006774E+04  0.27983657975E+04  0.10100000352E+00 0. -1.
       -3    1    3    3    0  502  0.92893552721E+03  0.10371383050E+04  0.29337108770E+03  0.14228997445E+04  0.10100000352E+00 0.  1.
</event>
<event>
 5   0  0.4200635E-07  0.3742918E+04  0.7818609E-02  0.8058517E-01
       -2   -1    0    0    0  501  0.00000000000E+00  0.00000000000E+00  0.16552235371E+04  0.16552235371E+04  0.25500000920E-02 0. -1.
        2   -1    0    0  501    0  0.00000000000E+00  0.00000000000E+00 -0.21159428038E+04  0.21159428038E+04  0.25500000920E-02 0.  1.
    10030    2    1    2    0    0  0.00000000000E+00  0.00000000000E+00 -0.46071926673E+03  0.37711663409E+04  0.37429177560E+04 0.  0.
        4    1    3    3  502    0 -0.93443695553E+03  0.11151914137E+04 -0.14163297567E+04  0.20304718431E+04  0.12699999809E+01 0.  1.
       -4    1    3    3    0  502  0.93443695553E+03 -0.11151914137E+04  0.95561048999E+03  0.17406944978E+04  0.12699999809E+01 0. -1.
</event>
<event>
 5   0  0.4120440E-07  0.3573438E+04  0.7818609E-02  0.8096603E-01
       -2   -1    0    0    0  501  0.00000000000E+00  0.00000000000E+00  0.11006247905E+04  0.11006247905E+04  0.25500000920E-02 0.  1.
        2   -1    0    0  501    0  0.00000000000E+00  0.00000000000E+00 -0.29005024501E+04  0.29005024501E+04  0.25500000920E-02 0. -1.
    10030    2    1    2    0    0  0.00000000000E+00  0.00000000000E+00 -0.17998776596E+04  0.40011272407E+04  0.35734380653E+04 0.  0.
        2    1    3    3  502    0 -0.26555959068E+03 -0.19083716471E+03  0.10668310238E+04  0.11158266680E+04  0.25500000920E-02 0.  1.
       -2    1    3    3    0  502  0.26555959068E+03  0.19083716471E+03 -0.28667086833E+04  0.28853005727E+04  0.25500000920E-02 0. -1.
</event>
<event>
 5   0  0.4120440E-07  0.3605377E+04  0.7818609E-02  0.8089261E-01
        2   -1    0    0  501    0  0.00000000000E+00  0.00000000000E+00  0.12603729223E+04  0.12603729223E+04  0.25500000920E-02 0.  1.
       -2   -1    0    0    0  501  0.00000000000E+00  0.00000000000E+00 -0.25783520502E+04  0.25783520502E+04  0.25500000920E-02 0. -1.
    10030    2    1    2    0    0  0.00000000000E+00  0.00000000000E+00 -0.13179791280E+04  0.38387249725E+04  0.36053766007E+04 0.  0.
        2    1    3    3  502    0  0.63798205419E+01 -0.17463667698E+04 -0.11349663089E+04  0.20827832626E+04  0.25500000920E-02 0. -1.
       -2    1    3    3    0  502 -0.63798205419E+01  0.17463667698E+04 -0.18301281905E+03  0.17559417099E+04  0.25500000920E-02 0.  1.
</event>
<event>
 5   0  0.4120440E-07  0.3648167E+04  0.7818609E-02  0.8079547E-01
       -2   -1    0    0    0  501  0.00000000000E+00  0.00000000000E+00  0.10616816707E+04  0.10616816708E+04  0.25500000920E-02 0. -1.
        2   -1    0    0  501    0  0.00000000000E+00  0.00000000000E+00 -0.31339724386E+04  0.31339724386E+04  0.25500000920E-02 0.  1.
    10030    2    1    2    0    0  0.00000000000E+00  0.00000000000E+00 -0.20722907679E+04  0.41956541093E+04  0.36481672630E+04 0.  0.
        2    1    3    3  502    0 -0.18146275229E+04  0.17728471168E+03 -0.10989078969E+04  0.21288263155E+04  0.25500000920E-02 0. -1.
       -2    1    3    3    0  502  0.18146275229E+04 -0.17728471168E+03 -0.97338287097E+03  0.20668277938E+04  0.25500000920E-02 0.  1.
</event>
<event>
 5   0  0.4115358E-07  0.3538286E+04  0.7818609E-02  0.8104776E-01
       -2   -1    0    0    0  501  0.00000000000E+00  0.00000000000E+00  0.12741746530E+04  0.12741746530E+04  0.25500000920E-02 0.  1.
        2   -1    0    0  501    0  0.00000000000E+00  0.00000000000E+00 -0.24563879820E+04  0.24563879820E+04  0.25500000920E-02 0. -1.
    10030    2    1    2    0    0  0.00000000000E+00  0.00000000000E+00 -0.11822133290E+04  0.37305626350E+04  0.35382861979E+04 0.  0.
        3    1    3    3  502    0 -0.13609195499E+04 -0.22432019687E+03  0.57700006542E+03  0.14951089116E+04  0.10100000352E+00 0.  1.
       -3    1    3    3    0  502  0.13609195499E+04  0.22432019687E+03 -0.17592133944E+04  0.22354537233E+04  0.10100000352E+00 0. -1.
</event>
<event>
 5   0  0.4200635E-07  0.3590928E+04  0.7818609E-02  0.8092573E-01
       -2   -1    0    0    0  501  0.00000000000E+00  0.00000000000E+00  0.22251893615E+04  0.22251893615E+04  0.25500000920E-02 0. -1.
        2   -1    0    0  501    0  0.00000000000E+00  0.00000000000E+00 -0.14487265367E+04  0.14487265367E+04  0.25500000920E-02 0.  1.
    10030    2    1    2    0    0  0.00000000000E+00  0.00000000000E+00  0.77646282478E+03  0.36739158982E+04  0.35909279454E+04 0.  0.
        4    1    3    3  502    0  0.16960673043E+04 -0.40711313084E+03 -0.47406880713E+02  0.17448880844E+04  0.12699999809E+01 0.  1.
       -4    1    3    3    0  502 -0.16960673043E+04  0.40711313084E+03  0.82386970549E+03  0.19290278138E+04  0.12699999809E+01 0. -1.
</event>
<event>
 5   0  0.3993751E-07  0.3564026E+04  0.7818609E-02  0.8098782E-01
        2   -1    0    0  501    0  0.00000000000E+00  0.00000000000E+00  0.17990829818E+04  0.17990829818E+04  0.25500000920E-02 0. -1.
       -2   -1    0    0    0  501  0.00000000000E+00  0.00000000000E+00 -0.17651051575E+04  0.17651051576E+04  0.25500000920E-02 0.  1.
    10030    2    1    2    0    0  0.00000000000E+00  0.00000000000E+00  0.33977824290E+02  0.35641881394E+04  0.35640261784E+04 0.  0.
        1    1    3    3  502    0  0.85900808135E+03 -0.13201134084E+04  0.85067921479E+03  0.17900417373E+04  0.50400001928E-02 0. -1.
       -1    1    3    3    0  502 -0.85900808135E+03  0.13201134084E+04 -0.81670139050E+03  0.17741464021E+04  0.50400001928E-02 0.  1.
</event>
<event>
 5   0  0.1298250E-07  0.3493077E+04  0.7818609E-02  0.8115432E-01
       -1   -1    0    0    0  501  0.00000000000E+00  0.00000000000E+00  0.15222404144E+04  0.15222404144E+04  0.50400001928E-02 0.  1.
        1   -1    0    0  501    0  0.00000000000E+00  0.00000000000E+00 -0.20038866931E+04  0.20038866931E+04  0.50400001928E-02 0. -1.
    10030    2    1    2    0    0  0.00000000000E+00  0.00000000000E+00 -0.48164627867E+03  0.35261271075E+04  0.34930773310E+04 0.  0.
        1    1    3    3  502    0  0.29492883227E+03  0.43767364269E+03 -0.19214647091E+04  0.19926283803E+04  0.50400001928E-02 0. -1.
       -1    1    3    3    0  502 -0.29492883227E+03 -0.43767364269E+03  0.14398184304E+04  0.15334987272E+04  0.50400001928E-02 0.  1.
</event>
<event>
 5   0  0.1370997E-07  0.3609124E+04  0.7818609E-02  0.8088405E-01
        1   -1    0    0  501    0  0.00000000000E+00  0.00000000000E+00  0.24205576416E+04  0.24205576416E+04  0.50400001928E-02 0. -1.
       -1   -1    0    0    0  501  0.00000000000E+00  0.00000000000E+00 -0.13453283164E+04  0.13453283164E+04  0.50400001928E-02 0.  1.
    10030    2    1    2    0    0  0.00000000000E+00  0.00000000000E+00  0.10752293252E+04  0.37658859580E+04  0.36091244017E+04 0.  0.
        3    1    3    3  502    0  0.16681664574E+03  0.17656964909E+04  0.19008220689E+03  0.17837161060E+04  0.10100000352E+00 0. -1.
       -3    1    3    3    0  502 -0.16681664574E+03 -0.17656964909E+04  0.88514711828E+03  0.19821698520E+04  0.10100000352E+00 0.  1.
</event>
<event>
 5   0  0.1298250E-07  0.3466970E+04  0.7818609E-02  0.8121663E-01
       -1   -1    0    0    0  501  0.00000000000E+00  0.00000000000E+00  0.15093714607E+04  0.15093714607E+04  0.50400001928E-02 0.  1.
        1   -1    0    0  501    0  0.00000000000E+00  0.00000000000E+00 -0.19908749383E+04  0.19908749383E+04  0.50400001928E-02 0. -1.
    10030    2    1    2    0    0  0.00000000000E+00  0.00000000000E+00 -0.48150347760E+03  0.35002463989E+04  0.34669697510E+04 0.  0.
        1    1    3    3  502    0 -0.56143201679E+03 -0.16149358185E+04 -0.52940892148E+03  0.17898316718E+04  0.50400001928E-02 0. -1.
       -1    1    3    3    0  502  0.56143201679E+03  0.16149358185E+04  0.47905443879E+02  0.17104147271E+04  0.50400001928E-02 0.  1.
</event>
<event>
 5   0  0.4200635E-07  0.3593115E+04  0.7818609E-02  0.8092070E-01
       -2   -1    0    0    0  501  0.00000000000E+00  0.00000000000E+00  0.21560944526E+04  0.21560944526E+04  0.25500000920E-02 0. -1.
        2   -1    0    0  501    0  0.00000000000E+00  0.00000000000E+00 -0.14969751156E+04  0.14969751156E+04  0.25500000920E-02 0.  1.
    10030    2    1    2    0    0  0.00000000000E+00  0.00000000000E+00  0.65911933707E+03  0.36530695682E+04  0.35931154963E+04 0.  0.
        4    1    3    3  502    0  0.13710088740E+04 -0.87555831901E+02 -0.84746518005E+03  0.16141654811E+04  0.12699999809E+01 0.  1.
       -4    1    3    3    0  502 -0.13710088740E+04  0.87555831901E+02  0.15065845171E+04  0.20389040871E+04  0.12699999809E+01 0. -1.
</event>
<event>
 5   0  0.4120440E-07  0.3612668E+04  0.7818609E-02  0.8087596E-01
       -2   -1    0    0    0  501  0.00000000000E+00  0.00000000000E+00  0.23051801959E+04  0.23051801959E+04  0.25500000920E-02 0. -1.
        2   -1    0    0  501    0  0.00000000000E+00  0.00000000000E+00 -0.14154389359E+04  0.14154389359E+04  0.25500000920E-02 0.  1.
    10030    2    1    2    0    0  0.00000000000E+00  0.00000000000E+00  0.88974126005E+03  0.37206191318E+04  0.36126676036E+04 0.  0.
        2    1    3    3  502    0  0.50464988602E+03 -0.17323382672E+04  0.53210361492E+03  0.18811702837E+04  0.25500000920E-02 0.  1.
       -2    1    3    3    0  502 -0.50464988602E+03  0.17323382672E+04  0.35763764513E+03  0.18394488480E+04  0.25500000920E-02 0. -1.
</event>
<event>
 5   0  0.4120440E-07  0.3626949E+04  0.7818609E-02  0.8084346E-01
       -2   -1    0    0    0  501  0.00000000000E+00  0.00000000000E+00  0.19863729609E+04  0.19863729609E+04  0.25500000920E-02 0.  1.
        2   -1    0    0  501    0  0.00000000000E+00  0.00000000000E+00 -0.16556256683E+04  0.16556256683E+04  0.25500000920E-02 0. -1.
    10030    2    1    2    0    0  0.00000000000E+00  0.00000000000E+00  0.33074729256E+03  0.36419986292E+04  0.36269491648E+04 0.  0.
        2    1    3    3  502    0 -0.70202817438E+03 -0.40813482731E+03  0.17936049729E+04  0.19688667791E+04  0.25500000920E-02 0.  1.
       -2    1    3    3    0  502  0.70202817438E+03  0.40813482731E+03 -0.14628576804E+04  0.16731318501E+04  0.25500000920E-02 0. -1.
</event>
<event>
 5   0  0.3993751E-07  0.3601198E+04  0.7818609E-02  0.8090217E-01
       -2   -1    0    0    0  501  0.00000000000E+00  0.00000000000E+00  0.32586767219E+04  0.32586767219E+04  0.25500000920E-02 0.  1.
        2   -1    0    0  501    0  0.00000000000E+00  0.00000000000E+00 -0.99493022945E+03  0.99493022946E+03  0.25500000920E-02 0. -1.
    10030    2    1    2    0    0  0.00000000000E+00  0.00000000000E+00  0.22637464924E+04  0.42536069514E+04  0.36011975667E+04 0.  0.
        1    1    3    3  502    0 -0.63954495247E+03  0.14811436403E+04  0.20763262189E+04  0.26294362127E+04  0.50400001928E-02 0.  1.
       -1    1    3    3    0  502  0.63954495247E+03 -0.14811436403E+04  0.18742027358E+03  0.16241707387E+04  0.50400001928E-02 0. -1.
</event>
<event>
 5   0  0.3880259E-07  0.3607225E+04  0.7818609E-02  0.8088839E-01
        2   -1    0    0  501    0  0.00000000000E+00  0.00000000000E+00  0.25377794710E+04  0.25377794710E+04  0.25500000920E-02 0. -1.
       -2   -1    0    0    0  501  0.00000000000E+00  0.00000000000E+00 -0.12818361188E+04  0.12818361188E+04  0.25500000920E-02 0.  1.
    10030    2    1    2    0    0  0.00000000000E+00  0.00000000000E+00  0.12559433522E+04  0.38196155898E+04  0.36072246325E+04 0.  0.
        5    1    3    3  502    0 -0.21637220297E+03 -0.13048639935E+03  0.25189391384E+04  0.25315845045E+04  0.46999998093E+01 0. -1.
       -5    1    3    3    0  502  0.21637220297E+03  0.13048639935E+03 -0.12629957862E+04  0.12880310852E+04  0.46999998093E+01 0.  1.
</event>
<event>
 5   0  0.1298250E-07  0.3611739E+04  0.7818609E-02  0.8087808E-01
       -1   -1    0    0    0  501  0.00000000000E+00  0.00000000000E+00  0.20232377160E+04  0.20232377160E+04  0.50400001928E-02 0. -1.
        1   -1    0    0  501    0  0.00000000000E+00  0.00000000000E+00 -0.16118547667E+04  0.16118547667E+04  0.50400001928E-02 0.  1.
    10030    2    1    2    0    0  0.00000000000E+00  0.00000000000E+00  0.41138294935E+03  0.36350924827E+04  0.36117393908E+04 0.  0.
        2    1    3    3  502    0  0.14677376243E+04  0.78598082388E+03  0.90960321500E+03  0.18972078426E+04  0.25500000920E-02 0. -1.
       -2    1    3    3    0  502 -0.14677376243E+04 -0.78598082388E+03 -0.49822026565E+03  0.17378846401E+04  0.25500000920E-02 0.  1.
</event>
<event>
 5   0  0.1370997E-07  0.3598850E+04  0.7818609E-02  0.8090755E-01
        1   -1    0    0  501    0  0.00000000000E+00  0.00000000000E+00  0.95031278726E+03  0.95031278727E+03  0.50400001928E-02 0. -1.
       -1   -1    0    0    0  501  0.00000000000E+00  0.00000000000E+00 -0.34072258507E+04  0.34072258507E+04  0.50400001928E-02 0.  1.
    10030    2    1    2    0    0  0.00000000000E+00  0.00000000000E+00 -0.24569130634E+04  0.43575386379E+04  0.35988499802E+04 0.  0.
        3    1    3    3  502    0 -0.93573081421E+03  0.97472779591E+03 -0.26673622874E+04  0.29900682292E+04  0.10100000352E+00 0.  1.
       -3    1    3    3    0  502  0.93573081421E+03 -0.97472779591E+03  0.21044922397E+03  0.13674704088E+04  0.10100000352E+00 0. -1.
</event>
<event>
 5   0  0.1298250E-07  0.3653130E+04  0.7818609E-02  0.8078429E-01
       -1   -1    0    0    0  501  0.00000000000E+00  0.00000000000E+00  0.22204382687E+04  0.22204382688E+04  0.50400001928E-02 0. -1.
        1   -1    0    0  501    0  0.00000000000E+00  0.00000000000E+00 -0.15025592162E+04  0.15025592162E+04  0.50400001928E-02 0.  1.
    10030    2    1    2    0    0  0.00000000000E+00  0.00000000000E+00  0.71787905258E+03  0.37229974849E+04  0.36531301563E+04 0.  0.
        1    1    3    3  502    0  0.72707831284E+03 -0.56952230868E+03  0.19649405430E+04  0.21711724645E+04  0.50400001928E-02 0. -1.
       -1    1    3    3    0  502 -0.72707831284E+03  0.56952230868E+03 -0.12470614904E+04  0.15518250204E+04  0.50400001928E-02 0.  1.
</event>
<event>
 5   0  0.1298250E-07  0.3607446E+04  0.7818609E-02  0.8088788E-01
       -1   -1    0    0    0  501  0.00000000000E+00  0.00000000000E+00  0.20824444798E+04  0.20824444798E+04  0.50400001928E-02 0. -1.
        1   -1    0    0  501    0  0.00000000000E+00  0.00000000000E+00 -0.15623062669E+04  0.15623062669E+04  0.50400001928E-02 0.  1.
    10030    2    1    2    0    0  0.00000000000E+00  0.00000000000E+00  0.52013821299E+03  0.36447507467E+04  0.36074456677E+04 0.  0.
        2    1    3    3  502    0  0.45029718674E+03 -0.35672913860E+01 -0.15045997231E+04  0.15705415018E+04  0.25500000920E-02 0.  1.
       -2    1    3    3    0  502 -0.45029718674E+03  0.35672913860E+01  0.20247379361E+04  0.20742092450E+04  0.25500000920E-02 0. -1.
</event>
<event>
 5   0  0.4115358E-07  0.3608371E+04  0.7818609E-02  0.8088577E-01
       -2   -1    0    0    0  501  0.00000000000E+00  0.00000000000E+00  0.27326769911E+04  0.27326769911E+04  0.25500000920E-02 0. -1.
        2   -1    0    0  501    0  0.00000000000E+00  0.00000000000E+00 -0.11911708730E+04  0.11911708730E+04  0.25500000920E-02 0.  1.
    10030    2    1    2    0    0  0.00000000000E+00  0.00000000000E+00  0.15415061181E+04  0.39238478642E+04  0.36083709550E+04 0.  0.
        3    1    3    3  502    0 -0.77148106021E+03 -0.13909663438E+04 -0.15523284631E+03  0.15981450630E+04  0.10100000352E+00 0.  1.
       -3    1    3    3    0  502  0.77148106021E+03  0.13909663438E+04  0.16967389644E+04  0.23257028011E+04  0.10100000352E+00 0. -1.
</event>
<event>
 5   0  0.1298250E-07  0.3677374E+04  0.7818609E-02  0.8072995E-01
        1   -1    0    0  501    0  0.00000000000E+00  0.00000000000E+00  0.29942805893E+04  0.29942805893E+04  0.50400001928E-02 0.  1.
       -1   -1    0    0    0  501  0.00000000000E+00  0.00000000000E+00 -0.11290760754E+04  0.11290760755E+04  0.50400001928E-02 0. -1.
    10030    2    1    2    0    0  0.00000000000E+00  0.00000000000E+00  0.18652045138E+04  0.41233566647E+04  0.36773743767E+04 0.  0.
        2    1    3    3  502    0  0.27998160342E+03  0.26047748128E+03 -0.10839933040E+04  0.11494693122E+04  0.25500000920E-02 0. -1.
       -2    1    3    3    0  502 -0.27998160342E+03 -0.26047748128E+03  0.29491978179E+04  0.29738873525E+04  0.25500000920E-02 0.  1.
</event>
<event>
 5   0  0.3880259E-07  0.3603510E+04  0.7818609E-02  0.8089688E-01
        2   -1    0    0  501    0  0.00000000000E+00  0.00000000000E+00  0.17140526948E+04  0.17140526948E+04  0.25500000920E-02 0. -1.
       -2   -1    0    0    0  501  0.00000000000E+00  0.00000000000E+00 -0.18939449622E+04  0.18939449622E+04  0.25500000920E-02 0.  1.
    10030    2    1    2    0    0  0.00000000000E+00  0.00000000000E+00 -0.17989226733E+03  0.36079976570E+04  0.36035102144E+04 0.  0.
        5    1    3    3  502    0  0.64775501990E+03  0.16642400944E+04  0.14913505581E+03  0.17920784058E+04  0.46999998093E+01 0.  1.
       -5    1    3    3    0  502 -0.64775501990E+03 -0.16642400944E+04 -0.32902732313E+03  0.18159192512E+04  0.46999998093E+01 0. -1.
</event>
<event>
 5   0  0.3993751E-07  0.3593893E+04  0.7818609E-02  0.8091892E-01
       -2   -1    0    0    0  501  0.00000000000E+00  0.00000000000E+00  0.18510165153E+04  0.18510165153E+04  0.25500000920E-02 0. -1.
        2   -1    0    0  501    0  0.00000000000E+00  0.00000000000E+00 -0.17444561998E+04  0.17444561998E+04  0.25500000920E-02 0.  1.
    10030    2    1    2    0    0  0.00000000000E+00  0.00000000000E+00  0.10656031548E+03  0.35954727150E+04  0.35938932850E+04 0.  0.
        1    1    3    3  502    0  0.11367865922E+04 -0.10294575364E+03  0.14417429785E+04  0.18388867285E+04  0.50400001928E-02 0. -1.
       -1    1    3    3    0  502 -0.11367865922E+04  0.10294575364E+03 -0.13351826630E+04  0.17565859865E+04  0.50400001928E-02 0.  1.
</event>
<event>
 5   0  0.1361743E-07  0.3581157E+04  0.7818609E-02  0.8094822E-01
       -1   -1    0    0    0  501  0.00000000000E+00  0.00000000000E+00  0.10764367798E+04  0.10764367798E+04  0.50400001928E-02 0.  1.
        1   -1    0    0  501    0  0.00000000000E+00  0.00000000000E+00 -0.29785038503E+04  0.29785038504E+04  0.50400001928E-02 0. -1.
    10030    2    1    2    0    0  0.00000000000E+00  0.00000000000E+00 -0.19020670706E+04  0.40549406301E+04  0.35811568484E+04 0.  0.
        5    1    3    3  502    0 -0.80731653759E+03 -0.13487717148E+04  0.19845336670E+02  0.15720563151E+04  0.46999998093E+01 0.  1.
       -5    1    3    3    0  502  0.80731653759E+03  0.13487717148E+04 -0.19219124072E+04  0.24828843150E+04  0.46999998093E+01 0. -1.
</event>
<event>
 5   0  0.1370997E-07  0.3477015E+04  0.7818609E-02  0.8119259E-01
       -1   -1    0    0    0  501  0.00000000000E+00  0.00000000000E+00  0.14711376863E+04  0.14711376863E+04  0.50400001928E-02 0. -1.
        1   -1    0    0  501    0  0.00000000000E+00  0.00000000000E+00 -0.20544705680E+04  0.20544705680E+04  0.50400001928E-02 0.  1.
    10030    2    1    2    0    0  0.00000000000E+00  0.00000000000E+00 -0.58333288166E+03  0.35256082543E+04  0.34770154317E+04 0.  0.
        3    1    3    3  502    0  0.70575437704E+03 -0.39112100973E+03  0.12697715171E+04  0.15044549182E+04  0.10100000352E+00 0. -1.
       -3    1    3    3    0  502 -0.70575437704E+03  0.39112100973E+03 -0.18531043988E+04  0.20211533361E+04  0.10100000352E+00 0.  1.
</event>
<event>
 5   0  0.1298250E-07  0.3586413E+04  0.7818609E-02  0.8093611E-01
        1   -1    0    0  501    0  0.00000000000E+00  0.00000000000E+00  0.24954845896E+04  0.24954845896E+04  0.50400001928E-02 0.  1.
       -1   -1    0    0    0  501  0.00000000000E+00  0.00000000000E+00 -0.12885629823E+04  0.12885629823E+04  0.50400001928E-02 0. -1.
    10030    2    1    2    0    0  0.00000000000E+00  0.00000000000E+00  0.12069216073E+04  0.37840475719E+04  0.35864127286E+04 0.  0.
        1    1    3    3  502    0  0.52516685594E+03 -0.16883475369E+04  0.28821263397E+03  0.17914754127E+04  0.50400001928E-02 0. -1.
       -1    1    3    3    0  502 -0.52516685594E+03  0.16883475369E+04  0.91870897337E+03  0.19925721592E+04  0.50400001928E-02 0.  1.
</event>
<event>
 5   0  0.1361743E-07  0.3699943E+04  0.7818609E-02  0.8067974E-01
        1   -1    0    0  501    0  0.00000000000E+00  0.00000000000E+00  0.29349234074E+04  0.29349234074E+04  0.50400001928E-02 0.  1.
       -1   -1    0    0    0  501  0.00000000000E+00  0.00000000000E+00 -0.11660932380E+04  0.11660932380E+04  0.50400001928E-02 0. -1.
    10030    2    1    2    0    0  0.00000000000E+00  0.00000000000E+00  0.17688301694E+04  0.41010166454E+04  0.36999428857E+04 0.  0.
        5    1    3    3  502    0 -0.99461841522E+03 -0.94275778165E+03 -0.49299845435E+03  0.14564091433E+04  0.46999998093E+01 0.  1.
       -5    1    3    3    0  502  0.99461841522E+03  0.94275778165E+03  0.22618286237E+04  0.26446075020E+04  0.46999998093E+01 0. -1.
</event>
<event>
 5   0  0.4120440E-07  0.3589430E+04  0.7818609E-02  0.8092917E-01
        2   -1    0    0  501    0  0.00000000000E+00  0.00000000000E+00  0.27103451281E+04  0.27103451281E+04  0.25500000920E-02 0.  1.
       -2   -1    0    0    0  501  0.00000000000E+00  0.00000000000E+00 -0.11884101116E+04  0.11884101116E+04  0.25500000920E-02 0. -1.
    10030    2    1    2    0    0  0.00000000000E+00  0.00000000000E+00  0.15219350165E+04  0.38987552397E+04  0.35894297910E+04 0.  0.
        2    1    3    3  502    0 -0.10830846199E+04  0.98788729907E+03  0.18855712155E+04  0.23883828039E+04  0.25500000920E-02 0.  1.
       -2    1    3    3    0  502  0.10830846199E+04 -0.98788729907E+03 -0.36363619893E+03  0.15103724357E+04  0.25500000920E-02 0. -1.
</event>
<event>
 5   0  0.1298250E-07  0.3595963E+04  0.7818609E-02  0.8091417E-01
       -1   -1    0    0    0  501  0.00000000000E+00  0.00000000000E+00  0.13025426141E+04  0.13025426141E+04  0.50400001928E-02 0. -1.
        1   -1    0    0  501    0  0.00000000000E+00  0.00000000000E+00 -0.24818663573E+04  0.24818663573E+04  0.50400001928E-02 0.  1.
    10030    2    1    2    0    0  0.00000000000E+00  0.00000000000E+00 -0.11793237432E+04  0.37844089714E+04  0.35959625654E+04 0.  0.
        2    1    3    3  502    0  0.12760120453E+04 -0.24951970740E+03 -0.18966242558E+04  0.22994891589E+04  0.25500000920E-02 0.  1.
       -2    1    3    3    0  502 -0.12760120453E+04  0.24951970740E+03  0.71730051263E+03  0.14849198125E+04  0.25500000920E-02 0. -1.
</event>
<event>
 5   0  0.3880259E-07  0.3543898E+04  0.7818609E-02  0.8103465E-01
        2   -1    0    0  501    0  0.00000000000E+00  0.00000000000E+00  0.24709102678E+04  0.24709102678E+04  0.25500000920E-02 0.  1.
       -2   -1    0    0    0  501  0.00000000000E+00  0.00000000000E+00 -0.12707073698E+04  0.12707073698E+04  0.25500000920E-02 0. -1.
    10030    2    1    2    0    0  0.00000000000E+00  0.00000000000E+00  0.12002028980E+04  0.37416176376E+04  0.35438983549E+04 0.  0.
        5    1    3    3  502    0 -0.15630393426E+04 -0.72136937761E+03  0.10434283127E+04  0.20130152755E+04  0.46999998093E+01 0.  1.
       -5    1    3    3    0  502  0.15630393426E+04  0.72136937761E+03  0.15677458523E+03  0.17286023621E+04  0.46999998093E+01 0. -1.
</event>
<event>
 5   0  0.1298250E-07  0.3577550E+04  0.7818609E-02  0.8095654E-01
        1   -1    0    0  501    0  0.00000000000E+00  0.00000000000E+00  0.12610052032E+04  0.12610052032E+04  0.50400001928E-02 0.  1.
       -1   -1    0    0    0  501  0.00000000000E+00  0.00000000000E+00 -0.25374327018E+04  0.25374327018E+04  0.50400001928E-02 0. -1.
    10030    2    1    2    0    0  0.00000000000E+00  0.00000000000E+00 -0.12764274986E+04  0.37984379050E+04  0.35775499100E+04 0.  0.
        1    1    3    3  502    0 -0.12530142594E+04 -0.62855935131E+03 -0.18179357958E+04  0.22956528810E+04  0.50400001928E-02 0. -1.
       -1    1    3    3    0  502  0.12530142594E+04  0.62855935131E+03  0.54150829714E+03  0.15027850240E+04  0.50400001928E-02 0.  1.
</event>
<event>
 5   0  0.4115358E-07  0.3677407E+04  0.7818609E-02  0.8072987E-01
        2   -1    0    0  501    0  0.00000000000E+00  0.00000000000E+00  0.24386110674E+04  0.24386110674E+04  0.25500000920E-02 0. -1.
       -2   -1    0    0    0  501  0.00000000000E+00  0.00000000000E+00 -0.13863751910E+04  0.13863751910E+04  0.25500000920E-02 0.  1.
    10030    2    1    2    0    0  0.00000000000E+00  0.00000000000E+00  0.10522358764E+04  0.38249862584E+04  0.36774066320E+04 0.  0.
        3    1    3    3  502    0 -0.11322790167E+04  0.80181337915E+03 -0.72889855815E+03  0.15672439456E+04  0.10100000352E+00 0.  1.
       -3    1    3    3    0  502  0.11322790167E+04 -0.80181337915E+03  0.17811344346E+04  0.22577423128E+04  0.10100000352E+00 0. -1.
</event>
<event>
 5   0  0.3880259E-07  0.3601529E+04  0.7818609E-02  0.8090142E-01
        2   -1    0    0  501    0  0.00000000000E+00  0.00000000000E+00  0.24564783783E+04  0.24564783783E+04  0.25500000920E-02 0. -1.
       -2   -1    0    0    0  501  0.00000000000E+00  0.00000000000E+00 -0.13200820898E+04  0.13200820898E+04  0.25500000920E-02 0.  1.
    10030    2    1    2    0    0  0.00000000000E+00  0.00000000000E+00  0.11363962885E+04  0.37765604680E+04  0.36015291813E+04 0.  0.
        5    1    3    3  502    0 -0.47222227664E+03 -0.15264440795E+04  0.14390441926E+04  0.21503245533E+04  0.46999998093E+01 0. -1.
       -5    1    3    3    0  502  0.47222227664E+03  0.15264440795E+04 -0.30264790408E+03  0.16262359147E+04  0.46999998093E+01 0.  1.
</event>
<event>
 5   0  0.3880259E-07  0.3574605E+04  0.7818609E-02  0.8096334E-01
       -2   -1    0    0    0  501  0.00000000000E+00  0.00000000000E+00  0.16329203024E+04  0.16329203024E+04  0.25500000920E-02 0. -1.
        2   -1    0    0  501    0  0.00000000000E+00  0.00000000000E+00 -0.19562808118E+04  0.19562808118E+04  0.25500000920E-02 0.  1.
    10030    2    1    2    0    0  0.00000000000E+00  0.00000000000E+00 -0.32336050946E+03  0.35892011142E+04  0.35746052396E+04 0.  0.
        5    1    3    3  502    0  0.70123544912E+03 -0.90903735708E+03  0.12137116305E+04  0.16706879073E+04  0.46999998093E+01 0. -1.
       -5    1    3    3    0  502 -0.70123544912E+03  0.90903735708E+03 -0.15370721399E+04  0.19185132069E+04  0.46999998093E+01 0.  1.
</event>
<event>
 5   0  0.4115358E-07  0.3582624E+04  0.7818609E-02  0.8094484E-01
        2   -1    0    0  501    0  0.00000000000E+00  0.00000000000E+00  0.19048496805E+04  0.19048496805E+04  0.25500000920E-02 0. -1.
       -2   -1    0    0    0  501  0.00000000000E+00  0.00000000000E+00 -0.16845413261E+04  0.16845413261E+04  0.25500000920E-02 0.  1.
    10030    2    1    2    0    0  0.00000000000E+00  0.00000000000E+00  0.22030835441E+03  0.35893910066E+04  0.35826236234E+04 0.  0.
        3    1    3    3  502    0  0.12907946742E+04  0.12716272526E+03  0.13479946590E+04  0.18706712326E+04  0.10100000352E+00 0. -1.
       -3    1    3    3    0  502 -0.12907946742E+04 -0.12716272526E+03 -0.11276863046E+04  0.17187197740E+04  0.10100000352E+00 0.  1.
</event>
<event>
 5   0  0.1298250E-07  0.3608901E+04  0.7818609E-02  0.8088456E-01
        1   -1    0    0  501    0  0.00000000000E+00  0.00000000000E+00  0.15944361061E+04  0.15944361061E+04  0.50400001928E-02 0.  1.
       -1   -1    0    0    0  501  0.00000000000E+00  0.00000000000E+00 -0.20421272999E+04  0.20421272999E+04  0.50400001928E-02 0. -1.
    10030    2    1    2    0    0  0.00000000000E+00  0.00000000000E+00 -0.44769119378E+03  0.36365634059E+04  0.36089009408E+04 0.  0.
        1    1    3    3  502    0  0.12242820536E+03  0.11109295096E+04  0.12036600027E+04  0.16425438938E+04  0.50400001928E-02 0.  1.
       -1    1    3    3    0  502 -0.12242820536E+03 -0.11109295096E+04 -0.16513511965E+04  0.19940195122E+04  0.50400001928E-02 0. -1.
</event>
<event>
 5   0  0.1348226E-07  0.3569735E+04  0.7818609E-02  0.8097460E-01
        1   -1    0    0  501    0  0.00000000000E+00  0.00000000000E+00  0.19667621458E+04  0.19667621458E+04  0.50400001928E-02 0.  1.
       -1   -1    0    0    0  501  0.00000000000E+00  0.00000000000E+00 -0.16197949062E+04  0.16197949062E+04  0.50400001928E-02 0. -1.
    10030    2    1    2    0    0  0.00000000000E+00  0.00000000000E+00  0.34696723958E+03  0.35865570521E+04  0.35697346151E+04 0.  0.
        4    1    3    3  502    0 -0.69351868760E+03  0.16444161465E+04  0.19962661333E+03  0.17958076263E+04  0.12699999809E+01 0.  1.
       -4    1    3    3    0  502  0.69351868760E+03 -0.16444161465E+04  0.14734062625E+03  0.17907494258E+04  0.12699999809E+01 0. -1.
</event>
<event>
 5   0  0.1361743E-07  0.3585827E+04  0.7818609E-02  0.8093746E-01
       -1   -1    0    0    0  501  0.00000000000E+00  0.00000000000E+00  0.13373321954E+04  0.13373321954E+04  0.50400001928E-02 0. -1.
        1   -1    0    0  501    0  0.00000000000E+00  0.00000000000E+00 -0.24036953826E+04  0.24036953826E+04  0.50400001928E-02 0.  1.
    10030    2    1    2    0    0  0.00000000000E+00  0.00000000000E+00 -0.10663631872E+04  0.37410275779E+04  0.35858272256E+04 0.  0.
        5    1    3    3  502    0 -0.45685018826E+03 -0.13280332902E+04 -0.16959294103E+04  0.22019498562E+04  0.46999998093E+01 0.  1.
       -5    1    3    3    0  502  0.45685018826E+03  0.13280332902E+04  0.62956622314E+03  0.15390777218E+04  0.46999998093E+01 0. -1.
</event>
<event>
 5   0  0.4120440E-07  0.3620907E+04  0.7818609E-02  0.8085719E-01
       -2   -1    0    0    0  501  0.00000000000E+00  0.00000000000E+00  0.18165723554E+04  0.18165723554E+04  0.25500000920E-02 0.  1.
        2   -1    0    0  501    0  0.00000000000E+00  0.00000000000E+00 -0.18043553647E+04  0.18043553647E+04  0.25500000920E-02 0. -1.
    10030    2    1    2    0    0  0.00000000000E+00  0.00000000000E+00  0.12216990694E+02  0.36209277200E+04  0.36209071099E+04 0.  0.
        2    1    3    3  502    0 -0.11690474692E+04  0.10994579572E+04  0.84412417805E+03  0.18132913204E+04  0.25500000920E-02 0.  1.
       -2    1    3    3    0  502  0.11690474692E+04 -0.10994579572E+04 -0.83190718736E+03  0.18076363996E+04  0.25500000920E-02 0. -1.
</event>
<event>
 5   0  0.1370997E-07  0.3621493E+04  0.7818609E-02  0.8085586E-01
       -1   -1    0    0    0  501  0.00000000000E+00  0.00000000000E+00  0.13116334590E+04  0.13116334590E+04  0.50400001928E-02 0.  1.
        1   -1    0    0  501    0  0.00000000000E+00  0.00000000000E+00 -0.24997857254E+04  0.24997857254E+04  0.50400001928E-02 0. -1.
    10030    2    1    2    0    0  0.00000000000E+00  0.00000000000E+00 -0.11881522664E+04  0.38114191845E+04  0.36214928402E+04 0.  0.
        3    1    3    3  502    0  0.11979258811E+04 -0.12970980481E+04 -0.10167773836E+04  0.20374803118E+04  0.10100000352E+00 0. -1.
       -3    1    3    3    0  502 -0.11979258811E+04  0.12970980481E+04 -0.17137488281E+03  0.17739388726E+04  0.10100000352E+00 0.  1.
</event>
<event>
 5   0  0.1348226E-07  0.3590168E+04  0.7818609E-02  0.8092748E-01
        1   -1    0    0  501    0  0.00000000000E+00  0.00000000000E+00  0.17446790412E+04  0.17446790413E+04  0.50400001928E-02 0. -1.
       -1   -1    0    0    0  501  0.00000000000E+00  0.00000000000E+00 -0.18469451073E+04  0.18469451073E+04  0.50400001928E-02 0.  1.
    10030    2    1    2    0    0  0.00000000000E+00  0.00000000000E+00 -0.10226606603E+03  0.35916241485E+04  0.35901679175E+04 0.  0.
        4    1    3    3  502    0 -0.60606543827E+03  0.16831449519E+04 -0.19962693408E+03  0.18000402135E+04  0.12699999809E+01 0. -1.
       -4    1    3    3    0  502  0.60606543827E+03 -0.16831449519E+04  0.97360868051E+02  0.17915839350E+04  0.12699999809E+01 0.  1.
</event>
<event>
 5   0  0.4200635E-07  0.3556008E+04  0.7818609E-02  0.8100644E-01
       -2   -1    0    0    0  501  0.00000000000E+00  0.00000000000E+00  0.14044391669E+04  0.14044391669E+04  0.25500000920E-02 0.  1.
        2   -1    0    0  501    0  0.00000000000E+00  0.00000000000E+00 -0.22509328751E+04  0.22509328751E+04  0.25500000920E-02 0. -1.
    10030    2    1    2    0    0  0.00000000000E+00  0.00000000000E+00 -0.84649370814E+03  0.36553720420E+04  0.35560080382E+04 0.  0.
        4    1    3    3  502    0 -0.93128887936E+03 -0.11645170865E+04  0.57226532463E+03  0.15971500356E+04  0.12699999809E+01 0.  1.
       -4    1    3    3    0  502  0.93128887936E+03  0.11645170865E+04 -0.14187590328E+04  0.20582220064E+04  0.12699999809E+01 0. -1.
</event>
<event>
 5   0  0.1348226E-07  0.3604532E+04  0.7818609E-02  0.8089454E-01
        1   -1    0    0  501    0  0.00000000000E+00  0.00000000000E+00  0.30492871819E+04  0.30492871819E+04  0.50400001928E-02 0.  1.
       -1   -1    0    0    0  501  0.00000000000E+00  0.00000000000E+00 -0.10652202555E+04  0.10652202555E+04  0.50400001928E-02 0. -1.
    10030    2    1    2    0    0  0.00000000000E+00  0.00000000000E+00  0.19840669264E+04  0.41145074375E+04  0.36045318537E+04 0.  0.
        4    1    3    3  502    0  0.10365588029E+04  0.11614808683E+04  0.20286277048E+04  0.25571124217E+04  0.12699999809E+01 0.  1.
       -4    1    3    3    0  502 -0.10365588029E+04 -0.11614808683E+04 -0.44560778409E+02  0.15573950158E+04  0.12699999809E+01 0. -1.
</event>
<event>
 5   0  0.1348226E-07  0.3576873E+04  0.7818609E-02  0.8095810E-01
       -1   -1    0    0    0  501  0.00000000000E+00  0.00000000000E+00  0.16870703925E+04  0.16870703925E+04  0.50400001928E-02 0.  1.
        1   -1    0    0  501    0  0.00000000000E+00  0.00000000000E+00 -0.18958929620E+04  0.18958929620E+04  0.50400001928E-02 0. -1.
    10030    2    1    2    0    0  0.00000000000E+00  0.00000000000E+00 -0.20882256949E+03  0.35829633545E+04  0.35768728708E+04 0.  0.
        4    1    3    3  502    0 -0.15727893415E+03  0.58979377449E+03 -0.17883179575E+04  0.18896232666E+04  0.12699999809E+01 0. -1.
       -4    1    3    3    0  502  0.15727893415E+03 -0.58979377449E+03  0.15794953880E+04  0.16933400879E+04  0.12699999809E+01 0.  1.
</event>
<event>
 5   0  0.1298250E-07  0.3596525E+04  0.7818609E-02  0.8091288E-01
       -1   -1    0    0    0  501  0.00000000000E+00  0.00000000000E+00  0.21750370140E+04  0.21750370140E+04  0.50400001928E-02 0. -1.
        1   -1    0    0  501    0  0.00000000000E+00  0.00000000000E+00 -0.14867555796E+04  0.14867555797E+04  0.50400001928E-02 0.  1.
    10030    2    1    2    0    0  0.00000000000E+00  0.00000000000E+00  0.68828143438E+03  0.36617925937E+04  0.35965252211E+04 0.  0.
        1    1    3    3  502    0 -0.56560854631E+03  0.60542886458E+03 -0.12808464517E+04  0.15254588722E+04  0.50400001928E-02 0.  1.
       -1    1    3    3    0  502  0.56560854631E+03 -0.60542886458E+03  0.19691278861E+04  0.21363337215E+04  0.50400001928E-02 0. -1.
</event>
<event>
 5   0  0.3993751E-07  0.3794313E+04  0.7818609E-02  0.8047376E-01
       -2   -1    0    0    0  501  0.00000000000E+00  0.00000000000E+00  0.16141912073E+04  0.16141912073E+04  0.25500000920E-02 0. -1.
        2   -1    0    0  501    0  0.00000000000E+00  0.00000000000E+00 -0.22297251605E+04  0.22297251605E+04  0.25500000920E-02 0.  1.
    10030    2    1    2    0    0  0.00000000000E+00  0.00000000000E+00 -0.61553395324E+03  0.38439163678E+04  0.37943129806E+04 0.  0.
        1    1    3    3  502    0  0.16447801535E+04 -0.16392234802E+03  0.63555066358E+03  0.17709028589E+04  0.50400001928E-02 0. -1.
       -1    1    3    3    0  502 -0.16447801535E+04  0.16392234802E+03 -0.12510846168E+04  0.20730135089E+04  0.50400001928E-02 0.  1.
</event>
<event>
 5   0  0.1370997E-07  0.3353419E+04  0.7818609E-02  0.8149434E-01
       -1   -1    0    0    0  501  0.00000000000E+00  0.00000000000E+00  0.16046651208E+04  0.16046651208E+04  0.50400001928E-02 0.  1.
        1   -1    0    0  501    0  0.00000000000E+00  0.00000000000E+00 -0.17519880709E+04  0.17519880709E+04  0.50400001928E-02 0. -1.
    10030    2    1    2    0    0  0.00000000000E+00  0.00000000000E+00 -0.14732295007E+03  0.33566531917E+04  0.33534186434E+04 0.  0.
        3    1    3    3  502    0 -0.58230359315E+03  0.12460741791E+04 -0.10335315801E+04  0.17204551351E+04  0.10100000352E+00 0. -1.
       -3    1    3    3    0  502  0.58230359315E+03 -0.12460741791E+04  0.88620863007E+03  0.16361980567E+04  0.10100000352E+00 0.  1.
</event>
<event>
 5   0  0.4120440E-07  0.3393741E+04  0.7818609E-02  0.8139444E-01
        2   -1    0    0  501    0  0.00000000000E+00  0.00000000000E+00  0.98319406804E+03  0.98319406805E+03  0.25500000920E-02 0.  1.
       -2   -1    0    0    0  501  0.00000000000E+00  0.00000000000E+00 -0.29285865043E+04  0.29285865043E+04  0.25500000920E-02 0. -1.
    10030    2    1    2    0    0  0.00000000000E+00  0.00000000000E+00 -0.19453924363E+04  0.39117805724E+04  0.33937406376E+04 0.  0.
        2    1    3    3  502    0  0.65575352464E+03  0.38099053564E+03 -0.27223662344E+04  0.28260297924E+04  0.25500000920E-02 0. -1.
       -2    1    3    3    0  502 -0.65575352464E+03 -0.38099053564E+03  0.77697379810E+03  0.10857507800E+04  0.25500000920E-02 0.  1.
</event>
<event>
 5   0  0.4115358E-07  0.3617040E+04  0.7818609E-02  0.8086600E-01
       -2   -1    0    0    0  501  0.00000000000E+00  0.00000000000E+00  0.13691984122E+04  0.13691984122E+04  0.25500000920E-02 0.  1.
        2   -1    0    0  501    0  0.00000000000E+00  0.00000000000E+00 -0.23888025007E+04  0.23888025007E+04  0.25500000920E-02 0. -1.
    10030    2    1    2    0    0  0.00000000000E+00  0.00000000000E+00 -0.10196040886E+04  0.37580009129E+04  0.36170400003E+04 0.  0.
        3    1    3    3  502    0  0.66965646833E+03  0.16691904497E+04 -0.70722857509E+03  0.19325653445E+04  0.10100000352E+00 0. -1.
       -3    1    3    3    0  502 -0.66965646833E+03 -0.16691904497E+04 -0.31237551347E+03  0.18254355685E+04  0.10100000352E+00 0.  1.
</event>
<event>
 5   0  0.1361743E-07  0.3608689E+04  0.7818609E-02  0.8088504E-01
        1   -1    0    0  501    0  0.00000000000E+00  0.00000000000E+00  0.25813133082E+04  0.25813133082E+04  0.50400001928E-02 0. -1.
       -1   -1    0    0    0  501  0.00000000000E+00  0.00000000000E+00 -0.12612411755E+04  0.12612411755E+04  0.50400001928E-02 0.  1.
    10030    2    1    2    0    0  0.00000000000E+00  0.00000000000E+00  0.13200721327E+04  0.38425544837E+04  0.36086887542E+04 0.  0.
        5    1    3    3  502    0  0.16338609200E+04  0.56102909730E+03  0.10533291018E+03  0.17307143802E+04  0.46999998093E+01 0. -1.
       -5    1    3    3    0  502 -0.16338609200E+04 -0.56102909730E+03  0.12147392226E+04  0.21118401035E+04  0.46999998093E+01 0.  1.
</event>
<event>
 5   0  0.4200635E-07  0.3573375E+04  0.7818609E-02  0.8096618E-01
        2   -1    0    0  501    0  0.00000000000E+00  0.00000000000E+00  0.22215929718E+04  0.22215929718E+04  0.25500000920E-02 0. -1.
       -2   -1    0    0    0  501  0.00000000000E+00  0.00000000000E+00 -0.14369204785E+04  0.14369204785E+04  0.25500000920E-02 0.  1.
    10030    2    1    2    0    0  0.00000000000E+00  0.00000000000E+00  0.78467249336E+03  0.36585134503E+04  0.35733751194E+04 0.  0.
        4    1    3    3  502    0 -0.13545404989E+04 -0.11549815813E+04  0.23542544956E+03  0.17956027321E+04  0.12699999809E+01 0.  1.
       -4    1    3    3    0  502  0.13545404989E+04  0.11549815813E+04  0.54924704380E+03  0.18629107182E+04  0.12699999809E+01 0. -1.
</event>
<event>
 5   0  0.4200635E-07  0.3662435E+04  0.7818609E-02  0.8076338E-01
        2   -1    0    0  501    0  0.00000000000E+00  0.00000000000E+00  0.16046709976E+04  0.16046709976E+04  0.25500000920E-02 0.  1.
       -2   -1    0    0    0  501  0.00000000000E+00  0.00000000000E+00 -0.20897478798E+04  0.20897478798E+04  0.25500000920E-02 0. -1.
    10030    2    1    2    0    0  0.00000000000E+00  0.00000000000E+00 -0.48507688218E+03  0.36944188773E+04  0.36624351543E+04 0.  0.
        4    1    3    3  502    0  0.16337806638E+04 -0.60806020216E+03  0.32305382534E+03  0.17729472225E+04  0.12699999809E+01 0.  1.
       -4    1    3    3    0  502 -0.16337806638E+04  0.60806020216E+03 -0.80813070752E+03  0.19214716548E+04  0.12699999809E+01 0. -1.
</event>
<event>
 5   0  0.4120440E-07  0.3704190E+04  0.7818609E-02  0.8067034E-01
       -2   -1    0    0    0  501  0.00000000000E+00  0.00000000000E+00  0.20223927655E+04  0.20223927655E+04  0.25500000920E-02 0.  1.
        2   -1    0    0  501    0  0.00000000000E+00  0.00000000000E+00 -0.16961371955E+04  0.16961371955E+04  0.25500000920E-02 0. -1.
    10030    2    1    2    0    0  0.00000000000E+00  0.00000000000E+00  0.32625557001E+03  0.37185299610E+04  0.37041898405E+04 0.  0.
        2    1    3    3  502    0  0.14513197812E+04  0.10863686395E+04 -0.21745685435E+03  0.18258733285E+04  0.25500000920E-02 0.  1.
       -2    1    3    3    0  502 -0.14513197812E+04 -0.10863686395E+04  0.54371242436E+03  0.18926566325E+04  0.25500000920E-02 0. -1.
</event>
<event>
 5   0  0.1361743E-07  0.3562599E+04  0.7818609E-02  0.8099113E-01
        1   -1    0    0  501    0  0.00000000000E+00  0.00000000000E+00  0.12616907372E+04  0.12616907372E+04  0.50400001928E-02 0.  1.
       -1   -1    0    0    0  501  0.00000000000E+00  0.00000000000E+00 -0.25149019741E+04  0.25149019741E+04  0.50400001928E-02 0. -1.
    10030    2    1    2    0    0  0.00000000000E+00  0.00000000000E+00 -0.12532112369E+04  0.37765927113E+04  0.35625993464E+04 0.  0.
        5    1    3    3  502    0  0.17524329640E+04  0.22849918209E+03 -0.86310566825E+03  0.19667757000E+04  0.46999998093E+01 0.  1.
       -5    1    3    3    0  502 -0.17524329640E+04 -0.22849918209E+03 -0.39010556860E+03  0.18098170113E+04  0.46999998093E+01 0. -1.
</event>
<event>
 5   0  0.4115358E-07  0.3601619E+04  0.7818609E-02  0.8090121E-01
        2   -1    0    0  501    0  0.00000000000E+00  0.00000000000E+00  0.21851986264E+04  0.21851986264E+04  0.25500000920E-02 0. -1.
       -2   -1    0    0    0  501  0.00000000000E+00  0.00000000000E+00 -0.14840362747E+04  0.14840362747E+04  0.25500000920E-02 0.  1.
    10030    2    1    2    0    0  0.00000000000E+00  0.00000000000E+00  0.70116235175E+03  0.36692349011E+04  0.36016185411E+04 0.  0.
        3    1    3    3  502    0  0.23983957150E+02  0.16967096030E+04 -0.26366032606E+03  0.17172406601E+04  0.10100000352E+00 0.  1.
       -3    1    3    3    0  502 -0.23983957150E+02 -0.16967096030E+04  0.96482267781E+03  0.19519942410E+04  0.10100000352E+00 0. -1.
</event>
<event>
 5   0  0.1370997E-07  0.3601081E+04  0.7818609E-02  0.8090244E-01
       -1   -1    0    0    0  501  0.00000000000E+00  0.00000000000E+00  0.15888024745E+04  0.15888024745E+04  0.50400001928E-02 0. -1.
        1   -1    0    0  501    0  0.00000000000E+00  0.00000000000E+00 -0.20404969911E+04  0.20404969911E+04  0.50400001928E-02 0.  1.
    10030    2    1    2    0    0  0.00000000000E+00  0.00000000000E+00 -0.45169451664E+03  0.36292994656E+04  0.36010813202E+04 0.  0.
        3    1    3    3  502    0  0.12201677441E+04 -0.78438915971E+03 -0.13009163767E+04  0.19484504374E+04  0.10100000352E+00 0.  1.
       -3    1    3    3    0  502 -0.12201677441E+04  0.78438915971E+03  0.84922186007E+03  0.16808490282E+04  0.10100000352E+00 0. -1.
</event>
<event>
 5   0  0.4200635E-07  0.3596258E+04  0.7818609E-02  0.8091349E-01
        2   -1    0    0  501    0  0.00000000000E+00  0.00000000000E+00  0.18730928508E+04  0.18730928508E+04  0.25500000920E-02 0.  1.
       -2   -1    0    0    0  501  0.00000000000E+00  0.00000000000E+00 -0.17261648768E+04  0.17261648768E+04  0.25500000920E-02 0. -1.
    10030    2    1    2    0    0  0.00000000000E+00  0.00000000000E+00  0.14692797398E+03  0.35992577275E+04  0.35962575491E+04 0.  0.
        4    1    3    3  502    0  0.11758558822E+04 -0.11606634345E+04  0.78362540160E+03  0.18286188905E+04  0.12699999809E+01 0.  1.
       -4    1    3    3    0  502 -0.11758558822E+04  0.11606634345E+04 -0.63669742762E+03  0.17706388370E+04  0.12699999809E+01 0. -1.
</event>
<event>
 5   0  0.1348226E-07  0.3596975E+04  0.7818609E-02  0.8091185E-01
       -1   -1    0    0    0  501  0.00000000000E+00  0.00000000000E+00  0.23799433035E+04  0.23799433035E+04  0.50400001928E-02 0.  1.
        1   -1    0    0  501    0  0.00000000000E+00  0.00000000000E+00 -0.13590903739E+04  0.13590903739E+04  0.50400001928E-02 0. -1.
    10030    2    1    2    0    0  0.00000000000E+00  0.00000000000E+00  0.10208529296E+04  0.37390336775E+04  0.35969754152E+04 0.  0.
        4    1    3    3  502    0  0.13895474681E+04 -0.42221841662E+03  0.16131946090E+04  0.21706010727E+04  0.12699999809E+01 0.  1.
       -4    1    3    3    0  502 -0.13895474681E+04  0.42221841662E+03 -0.59234167938E+03  0.15684326047E+04  0.12699999809E+01 0. -1.
</event>
<event>
 5   0  0.1370997E-07  0.3332582E+04  0.7818609E-02  0.8154654E-01
        1   -1    0    0  501    0  0.00000000000E+00  0.00000000000E+00  0.20322787976E+04  0.20322787976E+04  0.50400001928E-02 0. -1.
       -1   -1    0    0    0  501  0.00000000000E+00  0.00000000000E+00 -0.13662130845E+04  0.13662130845E+04  0.50400001928E-02 0.  1.
    10030    2    1    2    0    0  0.00000000000E+00  0.00000000000E+00  0.66606571310E+03  0.33984918822E+04  0.33325821129E+04 0.  0.
        3    1    3    3  502    0 -0.75158870944E+03 -0.99020062337E+03  0.14645460705E+04  0.19210096474E+04  0.10100000352E+00 0. -1.
       -3    1    3    3    0  502  0.75158870944E+03  0.99020062337E+03 -0.79848035738E+03  0.14774822348E+04  0.10100000352E+00 0.  1.
</event>
<event>
 5   0  0.4120440E-07  0.3637955E+04  0.7818609E-02  0.8081853E-01
       -2   -1    0    0    0  501  0.00000000000E+00  0.00000000000E+00  0.11318833878E+04  0.11318833878E+04  0.25500000920E-02 0.  1.
        2   -1    0    0  501    0  0.00000000000E+00  0.00000000000E+00 -0.29231619801E+04  0.29231619801E+04  0.25500000920E-02 0. -1.
    10030    2    1    2    0    0  0.00000000000E+00  0.00000000000E+00 -0.17912785922E+04  0.40550453679E+04  0.36379546370E+04 0.  0.
        2    1    3    3  502    0  0.51794418206E+03  0.37297512833E+02  0.10475061239E+04  0.11691562598E+04  0.25500000920E-02 0.  1.
       -2    1    3    3    0  502 -0.51794418206E+03 -0.37297512833E+02 -0.28387847161E+04  0.28858891081E+04  0.25500000920E-02 0. -1.
</event>
<event>
 5   0  0.1370997E-07  0.3592862E+04  0.7818609E-02  0.8092129E-01
       -1   -1    0    0    0  501  0.00000000000E+00  0.00000000000E+00  0.14110758282E+04  0.14110758282E+04  0.50400001928E-02 0.  1.
        1   -1    0    0  501    0  0.00000000000E+00  0.00000000000E+00 -0.22870240419E+04  0.22870240419E+04  0.50400001928E-02 0. -1.
    10030    2    1    2    0    0  0.00000000000E+00  0.00000000000E+00 -0.87594821374E+03  0.36980998701E+04  0.35928620035E+04 0.  0.
        3    1    3    3  502    0 -0.86303770989E+03 -0.15061871252E+04  0.37877390169E+02  0.17363376548E+04  0.10100000352E+00 0.  1.
       -3    1    3    3    0  502  0.86303770989E+03  0.15061871252E+04 -0.91382560391E+03  0.19617622153E+04  0.10100000352E+00 0. -1.
</event>
<event>
 5   0  0.3993751E-07  0.3568675E+04  0.7818609E-02  0.8097705E-01
        2   -1    0    0  501    0  0.00000000000E+00  0.00000000000E+00  0.17100530059E+04  0.17100530059E+04  0.25500000920E-02 0.  1.
       -2   -1    0    0    0  501  0.00000000000E+00  0.00000000000E+00 -0.18618492076E+04  0.18618492076E+04  0.25500000920E-02 0. -1.
    10030    2    1    2    0    0  0.00000000000E+00  0.00000000000E+00 -0.15179620173E+03  0.35719022134E+04  0.35686752914E+04 0.  0.
        1    1    3    3  502    0 -0.16501249917E+04 -0.11991573150E+03  0.59296401813E+03  0.17575262723E+04  0.50400001928E-02 0.  1.
       -1    1    3    3    0  502  0.16501249917E+04  0.11991573150E+03 -0.74476021985E+03  0.18143759412E+04  0.50400001928E-02 0. -1.
</event>
<event>
 5   0  0.3993751E-07  0.3621210E+04  0.7818609E-02  0.8085650E-01
        2   -1    0    0  501    0  0.00000000000E+00  0.00000000000E+00  0.11733115770E+04  0.11733115770E+04  0.25500000920E-02 0. -1.
       -2   -1    0    0    0  501  0.00000000000E+00  0.00000000000E+00 -0.27940495358E+04  0.27940495358E+04  0.25500000920E-02 0.  1.
    10030    2    1    2    0    0  0.00000000000E+00  0.00000000000E+00 -0.16207379588E+04  0.39673611129E+04  0.36212101111E+04 0.  0.
        1    1    3    3  502    0 -0.12304928580E+03 -0.85132758504E+03 -0.25558987389E+04  0.26967606767E+04  0.50400001928E-02 0.  1.
       -1    1    3    3    0  502  0.12304928580E+03  0.85132758504E+03  0.93516078007E+03  0.12706004362E+04  0.50400001928E-02 0. -1.
</event>
<event>
 5   0  0.4115358E-07  0.3646196E+04  0.7818609E-02  0.8079991E-01
        2   -1    0    0  501    0  0.00000000000E+00  0.00000000000E+00  0.16699224394E+04  0.16699224394E+04  0.25500000920E-02 0. -1.
       -2   -1    0    0    0  501  0.00000000000E+00  0.00000000000E+00 -0.19903238502E+04  0.19903238502E+04  0.25500000920E-02 0.  1.
    10030    2    1    2    0    0  0.00000000000E+00  0.00000000000E+00 -0.32040141079E+03  0.36602462897E+04  0.36461960777E+04 0.  0.
        3    1    3    3  502    0 -0.33285571189E+02 -0.79364195368E+03  0.14870706985E+04  0.16859284541E+04  0.10100000352E+00 0. -1.
       -3    1    3    3    0  502  0.33285571189E+02  0.79364195368E+03 -0.18074721093E+04  0.19743178356E+04  0.10100000352E+00 0.  1.
</event>
<event>
 5   0  0.4115358E-07  0.3589372E+04  0.7818609E-02  0.8092930E-01
        2   -1    0    0  501    0  0.00000000000E+00  0.00000000000E+00  0.23428076201E+04  0.23428076201E+04  0.25500000920E-02 0.  1.
       -2   -1    0    0    0  501  0.00000000000E+00  0.00000000000E+00 -0.13748028204E+04  0.13748028204E+04  0.25500000920E-02 0. -1.
    10030    2    1    2    0    0  0.00000000000E+00  0.00000000000E+00  0.96800479972E+03  0.37176104405E+04  0.35893723818E+04 0.  0.
        3    1    3    3  502    0 -0.14540464569E+04  0.95173055699E+03  0.19820546605E+02  0.17379398770E+04  0.10100000352E+00 0. -1.
       -3    1    3    3    0  502  0.14540464569E+04 -0.95173055699E+03  0.94818425312E+03  0.19796705635E+04  0.10100000352E+00 0.  1.
</event>
<event>
 5   0  0.3880259E-07  0.3650773E+04  0.7818609E-02  0.8078960E-01
       -2   -1    0    0    0  501  0.00000000000E+00  0.00000000000E+00  0.19218506658E+04  0.19218506658E+04  0.25500000920E-02 0. -1.
        2   -1    0    0  501    0  0.00000000000E+00  0.00000000000E+00 -0.17337638741E+04  0.17337638741E+04  0.25500000920E-02 0.  1.
    10030    2    1    2    0    0  0.00000000000E+00  0.00000000000E+00  0.18808679165E+03  0.36556145399E+04  0.36507726611E+04 0.  0.
        5    1    3    3  502    0  0.66663337276E+03 -0.82843564352E+03 -0.13916047411E+04  0.17513684691E+04  0.46999998093E+01 0.  1.
       -5    1    3    3    0  502 -0.66663337276E+03  0.82843564352E+03  0.15796915328E+04  0.19042460707E+04  0.46999998093E+01 0. -1.
</event>
<event>
 5   0  0.1370997E-07  0.3632111E+04  0.7818609E-02  0.8083176E-01
       -1   -1    0    0    0  501  0.00000000000E+00  0.00000000000E+00  0.30906375837E+04  0.30906375837E+04  0.50400001928E-02 0. -1.
        1   -1    0    0  501    0  0.00000000000E+00  0.00000000000E+00 -0.10671123651E+04  0.10671123651E+04  0.50400001928E-02 0.  1.
    10030    2    1    2    0    0  0.00000000000E+00  0.00000000000E+00  0.20235252186E+04  0.41577499488E+04  0.36321110014E+04 0.  0.
        3    1    3    3  502    0  0.95123554712E+03  0.62448220484E+03 -0.60842279039E+03  0.12903508795E+04  0.10100000352E+00 0.  1.
       -3    1    3    3    0  502 -0.95123554712E+03 -0.62448220484E+03  0.26319480090E+04  0.28673990693E+04  0.10100000352E+00 0. -1.
</event>
<event>
 5   0  0.1348226E-07  0.3612578E+04  0.7818609E-02  0.8087617E-01
       -1   -1    0    0    0  501  0.00000000000E+00  0.00000000000E+00  0.22062340059E+04  0.22062340059E+04  0.50400001928E-02 0.  1.
        1   -1    0    0  501    0  0.00000000000E+00  0.00000000000E+00 -0.14788458692E+04  0.14788458692E+04  0.50400001928E-02 0. -1.
    10030    2    1    2    0    0  0.00000000000E+00  0.00000000000E+00  0.72738813668E+03  0.36850798751E+04  0.36125780524E+04 0.  0.
        4    1    3    3  502    0  0.11834585732E+04  0.13499185442E+04  0.16012912229E+03  0.18023587931E+04  0.12699999809E+01 0.  1.
       -4    1    3    3    0  502 -0.11834585732E+04 -0.13499185442E+04  0.56725901439E+03  0.18827210820E+04  0.12699999809E+01 0. -1.
</event>
<event>
 5   0  0.4200635E-07  0.3583685E+04  0.7818609E-02  0.8094239E-01
        2   -1    0    0  501    0  0.00000000000E+00  0.00000000000E+00  0.26550657823E+04  0.26550657823E+04  0.25500000920E-02 0. -1.
       -2   -1    0    0    0  501  0.00000000000E+00  0.00000000000E+00 -0.12092729677E+04  0.12092729677E+04  0.25500000920E-02 0.  1.
    10030    2    1    2    0    0  0.00000000000E+00  0.00000000000E+00  0.14457928146E+04  0.38643387500E+04  0.35836848510E+04 0.  0.
        4    1    3    3  502    0  0.15157413930E+04 -0.44241477501E+03  0.16362833031E+04  0.22739013753E+04  0.12699999809E+01 0. -1.
       -4    1    3    3    0  502 -0.15157413930E+04  0.44241477501E+03 -0.19049048846E+03  0.15904373747E+04  0.12699999809E+01 0.  1.
</event>
<event>
 5   0  0.1370997E-07  0.3602715E+04  0.7818609E-02  0.8089870E-01
       -1   -1    0    0    0  501  0.00000000000E+00  0.00000000000E+00  0.16475750992E+04  0.16475750992E+04  0.50400001928E-02 0. -1.
        1   -1    0    0  501    0  0.00000000000E+00  0.00000000000E+00 -0.19694933855E+04  0.19694933855E+04  0.50400001928E-02 0.  1.
    10030    2    1    2    0    0  0.00000000000E+00  0.00000000000E+00 -0.32191828626E+03  0.36170684847E+04  0.36027146765E+04 0.  0.
        3    1    3    3  502    0 -0.32064304468E+03  0.17032358173E+03 -0.19323770827E+04  0.19661900428E+04  0.10100000352E+00 0.  1.
       -3    1    3    3    0  502  0.32064304468E+03 -0.17032358173E+03  0.16104587964E+04  0.16508784419E+04  0.10100000352E+00 0. -1.
</event>
<event>
 5   0  0.1298250E-07  0.3592650E+04  0.7818609E-02  0.8092177E-01
       -1   -1    0    0    0  501  0.00000000000E+00  0.00000000000E+00  0.14605983734E+04  0.14605983734E+04  0.50400001928E-02 0. -1.
        1   -1    0    0  501    0  0.00000000000E+00  0.00000000000E+00 -0.22092202151E+04  0.22092202151E+04  0.50400001928E-02 0.  1.
    10030    2    1    2    0    0  0.00000000000E+00  0.00000000000E+00 -0.74862184169E+03  0.36698185885E+04  0.35926499705E+04 0.  0.
        2    1    3    3  502    0  0.74532400625E+03  0.10987485384E+04  0.86164865531E+03  0.15827806640E+04  0.25500000920E-02 0. -1.
       -2    1    3    3    0  502 -0.74532400625E+03 -0.10987485384E+04 -0.16102704970E+04  0.20870379245E+04  0.25500000920E-02 0.  1.
</event>
<event>
 5   0  0.1361743E-07  0.3574054E+04  0.7818609E-02  0.8096461E-01
        1   -1    0    0  501    0  0.00000000000E+00  0.00000000000E+00  0.26487880296E+04  0.26487880296E+04  0.50400001928E-02 0.  1.
       -1   -1    0    0    0  501  0.00000000000E+00  0.00000000000E+00 -0.12056323929E+04  0.12056323929E+04  0.50400001928E-02 0. -1.
    10030    2    1    2    0    0  0.00000000000E+00  0.00000000000E+00  0.14431556367E+04  0.38544204225E+04  0.35740535254E+04 0.  0.
        5    1    3    3  502    0  0.55213134745E+03  0.15537718076E+04  0.14643648047E+04  0.22053213431E+04  0.46999998093E+01 0.  1.
       -5    1    3    3    0  502 -0.55213134745E+03 -0.15537718076E+04 -0.21209168050E+02  0.16490990795E+04  0.46999998093E+01 0. -1.
</event>
<event>
 5   0  0.1370997E-07  0.3552279E+04  0.7818609E-02  0.8101511E-01
       -1   -1    0    0    0  501  0.00000000000E+00  0.00000000000E+00  0.20201032776E+04  0.20201032776E+04  0.50400001928E-02 0.  1.
        1   -1    0    0  501    0  0.00000000000E+00  0.00000000000E+00 -0.15616389940E+04  0.15616389940E+04  0.50400001928E-02 0. -1.
    10030    2    1    2    0    0  0.00000000000E+00  0.00000000000E+00  0.45846428362E+03  0.35817422716E+04  0.35522792965E+04 0.  0.
        3    1    3    3  502    0 -0.34653524859E+03 -0.16625757029E+04 -0.29510735030E+03  0.17237554944E+04  0.10100000352E+00 0. -1.
       -3    1    3    3    0  502  0.34653524859E+03  0.16625757029E+04  0.75357163392E+03  0.18579867771E+04  0.10100000352E+00 0.  1.
</event>
<event>
 5   0  0.1361743E-07  0.3559920E+04  0.7818609E-02  0.8099735E-01
       -1   -1    0    0    0  501  0.00000000000E+00  0.00000000000E+00  0.13111513806E+04  0.13111513806E+04  0.50400001928E-02 0. -1.
        1   -1    0    0  501    0  0.00000000000E+00  0.00000000000E+00 -0.24163933869E+04  0.24163933869E+04  0.50400001928E-02 0.  1.
    10030    2    1    2    0    0  0.00000000000E+00  0.00000000000E+00 -0.11052420063E+04  0.37275447675E+04  0.35599199572E+04 0.  0.
        5    1    3    3  502    0 -0.93009859675E+03 -0.91180420994E+03 -0.18229081028E+04  0.22404210225E+04  0.46999998093E+01 0.  1.
       -5    1    3    3    0  502  0.93009859675E+03  0.91180420994E+03  0.71766609647E+03  0.14871237450E+04  0.46999998093E+01 0. -1.
</event>
<event>
 5   0  0.1298250E-07  0.3772461E+04  0.7818609E-02  0.8052091E-01
        1   -1    0    0  501    0  0.00000000000E+00  0.00000000000E+00  0.29377739220E+04  0.29377739220E+04  0.50400001928E-02 0.  1.
       -1   -1    0    0    0  501  0.00000000000E+00  0.00000000000E+00 -0.12110754217E+04  0.12110754217E+04  0.50400001928E-02 0. -1.
    10030    2    1    2    0    0  0.00000000000E+00  0.00000000000E+00  0.17266985003E+04  0.41488493437E+04  0.37724611550E+04 0.  0.
        2    1    3    3  502    0  0.22225922446E+03  0.18728305460E+04  0.82905512710E+03  0.20601518926E+04  0.25500000920E-02 0.  1.
       -2    1    3    3    0  502 -0.22225922446E+03 -0.18728305460E+04  0.89764337316E+03  0.20886974511E+04  0.25500000920E-02 0. -1.
</event>
<event>
 5   0  0.1298250E-07  0.3616446E+04  0.7818609E-02  0.8086735E-01
       -1   -1    0    0    0  501  0.00000000000E+00  0.00000000000E+00  0.10983011535E+04  0.10983011536E+04  0.50400001928E-02 0. -1.
        1   -1    0    0  501    0  0.00000000000E+00  0.00000000000E+00 -0.29770252714E+04  0.29770252714E+04  0.50400001928E-02 0.  1.
    10030    2    1    2    0    0  0.00000000000E+00  0.00000000000E+00 -0.18787241178E+04  0.40753264249E+04  0.36164459292E+04 0.  0.
        2    1    3    3  502    0  0.68164340628E+03 -0.16720416568E+04 -0.83063494218E+03  0.19875400480E+04  0.25500000920E-02 0. -1.
       -2    1    3    3    0  502 -0.68164340628E+03  0.16720416568E+04 -0.10480891757E+04  0.20877863769E+04  0.25500000920E-02 0.  1.
</event>
<event>
 5   0  0.3880259E-07  0.3604002E+04  0.7818609E-02  0.8089576E-01
        2   -1    0    0  501    0  0.00000000000E+00  0.00000000000E+00  0.14967213468E+04  0.14967213468E+04  0.25500000920E-02 0. -1.
       -2   -1    0    0    0  501  0.00000000000E+00  0.00000000000E+00 -0.21695472245E+04  0.21695472245E+04  0.25500000920E-02 0.  1.
    10030    2    1    2    0    0  0.00000000000E+00  0.00000000000E+00 -0.67282587769E+03  0.36662685714E+04  0.36040020222E+04 0.  0.
        5    1    3    3  502    0  0.25110747478E+03 -0.12868795605E+04  0.92109605579E+03  0.16023588865E+04  0.46999998093E+01 0. -1.
       -5    1    3    3    0  502 -0.25110747478E+03  0.12868795605E+04 -0.15939219335E+04  0.20639096849E+04  0.46999998093E+01 0.  1.
</event>
<event>
 5   0  0.1370997E-07  0.3583616E+04  0.7818609E-02  0.8094255E-01
       -1   -1    0    0    0  501  0.00000000000E+00  0.00000000000E+00  0.21393189071E+04  0.21393189071E+04  0.50400001928E-02 0. -1.
        1   -1    0    0  501    0  0.00000000000E+00  0.00000000000E+00 -0.15007467304E+04  0.15007467304E+04  0.50400001928E-02 0.  1.
    10030    2    1    2    0    0  0.00000000000E+00  0.00000000000E+00  0.63857217666E+03  0.36400656375E+04  0.35836159700E+04 0.  0.
        3    1    3    3  502    0 -0.18939727154E+03 -0.11040331496E+04  0.17398202220E+04  0.20692353508E+04  0.10100000352E+00 0. -1.
       -3    1    3    3    0  502  0.18939727154E+03  0.11040331496E+04 -0.11012480454E+04  0.15708302867E+04  0.10100000352E+00 0.  1.
</event>
<event>
 5   0  0.3880259E-07  0.3573945E+04  0.7818609E-02  0.8096486E-01
       -2   -1    0    0    0  501  0.00000000000E+00  0.00000000000E+00  0.94698828019E+03  0.94698828019E+03  0.25500000920E-02 0.  1.
        2   -1    0    0  501    0  0.00000000000E+00  0.00000000000E+00 -0.33720281903E+04  0.33720281903E+04  0.25500000920E-02 0. -1.
    10030    2    1    2    0    0  0.00000000000E+00  0.00000000000E+00 -0.24250399101E+04  0.43190164705E+04  0.35739452580E+04 0.  0.
        5    1    3    3  502    0 -0.45919718683E+03  0.15002212175E+04 -0.22462577972E+04  0.27399310100E+04  0.46999998093E+01 0. -1.
       -5    1    3    3    0  502  0.45919718683E+03 -0.15002212175E+04 -0.17878211293E+03  0.15790854606E+04  0.46999998093E+01 0.  1.
</event>
<event>
 5   0  0.1370997E-07  0.3592792E+04  0.7818609E-02  0.8092145E-01
        1   -1    0    0  501    0  0.00000000000E+00  0.00000000000E+00  0.24662409565E+04  0.24662409565E+04  0.50400001928E-02 0. -1.
       -1   -1    0    0    0  501  0.00000000000E+00  0.00000000000E+00 -0.13084843518E+04  0.13084843519E+04  0.50400001928E-02 0.  1.
    10030    2    1    2    0    0  0.00000000000E+00  0.00000000000E+00  0.11577566046E+04  0.37747253083E+04  0.35927915049E+04 0.  0.
        3    1    3    3  502    0  0.11957477958E+04 -0.12582663129E+04  0.10648946447E+04  0.20364300920E+04  0.10100000352E+00 0. -1.
       -3    1    3    3    0  502 -0.11957477958E+04  0.12582663129E+04  0.92861959953E+02  0.17382952163E+04  0.10100000352E+00 0.  1.
</event>
<event>
 5   0  0.4200635E-07  0.3613667E+04  0.7818609E-02  0.8087368E-01
       -2   -1    0    0    0  501  0.00000000000E+00  0.00000000000E+00  0.18962208518E+04  0.18962208518E+04  0.25500000920E-02 0.  1.
        2   -1    0    0  501    0  0.00000000000E+00  0.00000000000E+00 -0.17216601655E+04  0.17216601655E+04  0.25500000920E-02 0. -1.
    10030    2    1    2    0    0  0.00000000000E+00  0.00000000000E+00  0.17456068631E+03  0.36178810173E+04  0.36136673370E+04 0.  0.
        4    1    3    3  502    0 -0.11798579471E+04 -0.70037828907E+03 -0.10896974407E+04  0.17521520049E+04  0.12699999809E+01 0. -1.
       -4    1    3    3    0  502  0.11798579471E+04  0.70037828907E+03  0.12642581270E+04  0.18657290124E+04  0.12699999809E+01 0.  1.
</event>
<event>
 5   0  0.1348226E-07  0.3605702E+04  0.7818609E-02  0.8089187E-01
        1   -1    0    0  501    0  0.00000000000E+00  0.00000000000E+00  0.15431704145E+04  0.15431704145E+04  0.50400001928E-02 0. -1.
       -1   -1    0    0    0  501  0.00000000000E+00  0.00000000000E+00 -0.21062302980E+04  0.21062302980E+04  0.50400001928E-02 0.  1.
    10030    2    1    2    0    0  0.00000000000E+00  0.00000000000E+00 -0.56305988350E+03  0.36494007125E+04  0.36057023072E+04 0.  0.
        4    1    3    3  502    0  0.13090860878E+04 -0.10167452527E+04 -0.99920269438E+03  0.19354288753E+04  0.12699999809E+01 0. -1.
       -4    1    3    3    0  502 -0.13090860878E+04  0.10167452527E+04  0.43614281088E+03  0.17139718371E+04  0.12699999809E+01 0.  1.
</event>
<event>
 5   0  0.4200635E-07  0.3638768E+04  0.7818609E-02  0.8081669E-01
        2   -1    0    0  501    0  0.00000000000E+00  0.00000000000E+00  0.21629297170E+04  0.21629297170E+04  0.25500000920E-02 0.  1.
       -2   -1    0    0    0  501  0.00000000000E+00  0.00000000000E+00 -0.15304052007E+04  0.15304052007E+04  0.25500000920E-02 0. -1.
    10030    2    1    2    0    0  0.00000000000E+00  0.00000000000E+00  0.63252451627E+03  0.36933349176E+04  0.36387684112E+04 0.  0.
        4    1    3    3  502    0  0.25536983450E+03 -0.49614801899E+03 -0.14414048559E+04  0.15456474956E+04  0.12699999809E+01 0. -1.
       -4    1    3    3    0  502 -0.25536983450E+03  0.49614801899E+03  0.20739293722E+04  0.21476874220E+04  0.12699999809E+01 0.  1.
</event>
<event>
 5   0  0.4120440E-07  0.3574602E+04  0.7818609E-02  0.8096334E-01
        2   -1    0    0  501    0  0.00000000000E+00  0.00000000000E+00  0.17114806839E+04  0.17114806839E+04  0.25500000920E-02 0.  1.
       -2   -1    0    0    0  501  0.00000000000E+00  0.00000000000E+00 -0.18664804021E+04  0.18664804021E+04  0.25500000920E-02 0. -1.
    10030    2    1    2    0    0  0.00000000000E+00  0.00000000000E+00 -0.15499971824E+03  0.35779610860E+04  0.35746021625E+04 0.  0.
        2    1    3    3  502    0 -0.15784695967E+04 -0.10424381787E+03 -0.91015419432E+03  0.18250516975E+04  0.25500000920E-02 0. -1.
       -2    1    3    3    0  502  0.15784695967E+04  0.10424381787E+03  0.75515447607E+03  0.17529093884E+04  0.25500000920E-02 0.  1.
</event>
<event>
 5   0  0.1298250E-07  0.3637847E+04  0.7818609E-02  0.8081877E-01
       -1   -1    0    0    0  501  0.00000000000E+00  0.00000000000E+00  0.17722711497E+04  0.17722711497E+04  0.50400001928E-02 0.  1.
        1   -1    0    0  501    0  0.00000000000E+00  0.00000000000E+00 -0.18668038228E+04  0.18668038228E+04  0.50400001928E-02 0. -1.
    10030    2    1    2    0    0  0.00000000000E+00  0.00000000000E+00 -0.94532673110E+02  0.36390749725E+04  0.36378469222E+04 0.  0.
        1    1    3    3  502    0  0.14388078789E+04 -0.83131436600E+03  0.69273393128E+03  0.18003144134E+04  0.50400001928E-02 0.  1.
       -1    1    3    3    0  502 -0.14388078789E+04  0.83131436600E+03 -0.78726660439E+03  0.18387605591E+04  0.50400001928E-02 0. -1.
</event>
<event>
 5   0  0.1298250E-07  0.3488817E+04  0.7818609E-02  0.8116445E-01
        1   -1    0    0  501    0  0.00000000000E+00  0.00000000000E+00  0.21259637055E+04  0.21259637055E+04  0.50400001928E-02 0.  1.
       -1   -1    0    0    0  501  0.00000000000E+00  0.00000000000E+00 -0.14313328850E+04  0.14313328850E+04  0.50400001928E-02 0. -1.
    10030    2    1    2    0    0  0.00000000000E+00  0.00000000000E+00  0.69463082044E+03  0.35572965905E+04  0.34888174294E+04 0.  0.
        1    1    3    3  502    0  0.25560205244E+03  0.55843863457E+03  0.20120830709E+04  0.21037263135E+04  0.50400001928E-02 0.  1.
       -1    1    3    3    0  502 -0.25560205244E+03 -0.55843863457E+03 -0.13174522505E+04  0.14535702770E+04  0.50400001928E-02 0. -1.
</event>
<event>
 5   0  0.3880259E-07  0.3577265E+04  0.7818609E-02  0.8095719E-01
        2   -1    0    0  501    0  0.00000000000E+00  0.00000000000E+00  0.29062439165E+04  0.29062439165E+04  0.25500000920E-02 0.  1.
       -2   -1    0    0    0  501  0.00000000000E+00  0.00000000000E+00 -0.11008041603E+04  0.11008041603E+04  0.25500000920E-02 0. -1.
    10030    2    1    2    0    0  0.00000000000E+00  0.00000000000E+00  0.18054397562E+04  0.40070480768E+04  0.35772645382E+04 0.  0.
        5    1    3    3  502    0 -0.41164518815E+02  0.17675817039E+04  0.59977614147E+03  0.18670278807E+04  0.46999998093E+01 0.  1.
       -5    1    3    3    0  502  0.41164518815E+02 -0.17675817039E+04  0.12056636147E+04  0.21400201960E+04  0.46999998093E+01 0. -1.
</event>
<event>
 5   0  0.4115358E-07  0.3574518E+04  0.7818609E-02  0.8096354E-01
       -2   -1    0    0    0  501  0.00000000000E+00  0.00000000000E+00  0.16119517635E+04  0.16119517635E+04  0.25500000920E-02 0. -1.
        2   -1    0    0  501    0  0.00000000000E+00  0.00000000000E+00 -0.19816318859E+04  0.19816318859E+04  0.25500000920E-02 0.  1.
    10030    2    1    2    0    0  0.00000000000E+00  0.00000000000E+00 -0.36968012240E+03  0.35935836494E+04  0.35745181567E+04 0.  0.
        3    1    3    3  502    0 -0.11749142536E+04 -0.10697983623E+04 -0.10073744546E+04  0.18814078083E+04  0.10100000352E+00 0.  1.
       -3    1    3    3    0  502  0.11749142536E+04  0.10697983623E+04  0.63769433221E+03  0.17121758411E+04  0.10100000352E+00 0. -1.
</event>
<event>
 5   0  0.3880259E-07  0.3607912E+04  0.7818609E-02  0.8088682E-01
        2   -1    0    0  501    0  0.00000000000E+00  0.00000000000E+00  0.23547035556E+04  0.23547035556E+04  0.25500000920E-02 0.  1.
       -2   -1    0    0    0  501  0.00000000000E+00  0.00000000000E+00 -0.13820240364E+04  0.13820240364E+04  0.25500000920E-02 0. -1.
    10030    2    1    2    0    0  0.00000000000E+00  0.00000000000E+00  0.97267951922E+03  0.37367275920E+04  0.36079118129E+04 0.  0.
        5    1    3    3  502    0 -0.14476882595E+04  0.77610299627E+03 -0.28600474516E+03  0.16673205936E+04  0.46999998093E+01 0. -1.
       -5    1    3    3    0  502  0.14476882595E+04 -0.77610299627E+03  0.12586842644E+04  0.20694069984E+04  0.46999998093E+01 0.  1.
</event>
<event>
 5   0  0.1298250E-07  0.3600533E+04  0.7818609E-02  0.8090370E-01
        1   -1    0    0  501    0  0.00000000000E+00  0.00000000000E+00  0.22279332783E+04  0.22279332783E+04  0.50400001928E-02 0.  1.
       -1   -1    0    0    0  501  0.00000000000E+00  0.00000000000E+00 -0.14546932490E+04  0.14546932490E+04  0.50400001928E-02 0. -1.
    10030    2    1    2    0    0  0.00000000000E+00  0.00000000000E+00  0.77324002927E+03  0.36826265273E+04  0.36005330156E+04 0.  0.
        2    1    3    3  502    0 -0.14706113913E+03 -0.13687351902E+04  0.15731991607E+04  0.20904589445E+04  0.25500000920E-02 0.  1.
       -2    1    3    3    0  502  0.14706113913E+03  0.13687351902E+04 -0.79995913144E+03  0.15921675827E+04  0.25500000920E-02 0. -1.
</event>
<event>
 5   0  0.4200635E-07  0.3643265E+04  0.7818609E-02  0.8080653E-01
        2   -1    0    0  501    0  0.00000000000E+00  0.00000000000E+00  0.29420677223E+04  0.29420677223E+04  0.25500000920E-02 0. -1.
       -2   -1    0    0    0  501  0.00000000000E+00  0.00000000000E+00 -0.11278955916E+04  0.11278955916E+04  0.25500000920E-02 0.  1.
    10030    2    1    2    0    0  0.00000000000E+00  0.00000000000E+00  0.18141721307E+04  0.40699633139E+04  0.36432651368E+04 0.  0.
        4    1    3    3  502    0  0.71290166431E+03  0.11927284990E+04 -0.40880013487E+03  0.14484299150E+04  0.12699999809E+01 0.  1.
       -4    1    3    3    0  502 -0.71290166431E+03 -0.11927284990E+04  0.22229722656E+04  0.26215333990E+04  0.12699999809E+01 0. -1.
</event>
<event>
 5   0  0.1298250E-07  0.3465179E+04  0.7818609E-02  0.8122092E-01
        1   -1    0    0  501    0  0.00000000000E+00  0.00000000000E+00  0.18943237600E+04  0.18943237600E+04  0.50400001928E-02 0.  1.
       -1   -1    0    0    0  501  0.00000000000E+00  0.00000000000E+00 -0.15846636169E+04  0.15846636169E+04  0.50400001928E-02 0. -1.
    10030    2    1    2    0    0  0.00000000000E+00  0.00000000000E+00  0.30966014312E+03  0.34789873769E+04  0.34651787492E+04 0.  0.
        1    1    3    3  502    0 -0.94529137761E+03  0.96640532729E+03 -0.93316305653E+03  0.16426528347E+04  0.50400001928E-02 0. -1.
       -1    1    3    3    0  502  0.94529137761E+03 -0.96640532729E+03  0.12428231996E+04  0.18363345422E+04  0.50400001928E-02 0.  1.
</event>
<event>
 5   0  0.4115358E-07  0.3599521E+04  0.7818609E-02  0.8090601E-01
        2   -1    0    0  501    0  0.00000000000E+00  0.00000000000E+00  0.13013669175E+04  0.13013669176E+04  0.25500000920E-02 0.  1.
       -2   -1    0    0    0  501  0.00000000000E+00  0.00000000000E+00 -0.24890270137E+04  0.24890270137E+04  0.25500000920E-02 0. -1.
    10030    2    1    2    0    0  0.00000000000E+00  0.00000000000E+00 -0.11876600962E+04  0.37903939313E+04  0.35995207529E+04 0.  0.
        3    1    3    3  502    0  0.79682148549E+03 -0.89289663029E+03  0.82167869861E+03  0.14516696477E+04  0.10100000352E+00 0.  1.
       -3    1    3    3    0  502 -0.79682148549E+03  0.89289663029E+03 -0.20093387948E+04  0.23387242836E+04  0.10100000352E+00 0. -1.
</event>
<event>
 5   0  0.1298250E-07  0.3562616E+04  0.7818609E-02  0.8099109E-01
       -1   -1    0    0    0  501  0.00000000000E+00  0.00000000000E+00  0.18907833652E+04  0.18907833652E+04  0.50400001928E-02 0. -1.
        1   -1    0    0  501    0  0.00000000000E+00  0.00000000000E+00 -0.16781713107E+04  0.16781713107E+04  0.50400001928E-02 0.  1.
    10030    2    1    2    0    0  0.00000000000E+00  0.00000000000E+00  0.21261205456E+03  0.35689546759E+04  0.35626161164E+04 0.  0.
        1    1    3    3  502    0  0.15664493580E+04 -0.78836421405E+03 -0.20694292895E+03  0.17658162704E+04  0.50400001928E-02 0.  1.
       -1    1    3    3    0  502 -0.15664493580E+04  0.78836421405E+03  0.41955498351E+03  0.18031384055E+04  0.50400001928E-02 0. -1.
</event>
<event>
 5   0  0.3880259E-07  0.3606307E+04  0.7818609E-02  0.8089049E-01
        2   -1    0    0  501    0  0.00000000000E+00  0.00000000000E+00  0.24309792243E+04  0.24309792243E+04  0.25500000920E-02 0. -1.
       -2   -1    0    0    0  501  0.00000000000E+00  0.00000000000E+00 -0.13374702223E+04  0.13374702223E+04  0.25500000920E-02 0.  1.
    10030    2    1    2    0    0  0.00000000000E+00  0.00000000000E+00  0.10935090020E+04  0.37684494467E+04  0.36063068775E+04 0.  0.
        5    1    3    3  502    0 -0.11263463944E+04 -0.13953710575E+04  0.34952621811E+03  0.18269940491E+04  0.46999998093E+01 0. -1.
       -5    1    3    3    0  502  0.11263463944E+04  0.13953710575E+04  0.74398278388E+03  0.19414553976E+04  0.46999998093E+01 0.  1.
</event>
<event>
 5   0  0.1348226E-07  0.3609581E+04  0.7818609E-02  0.8088301E-01
        1   -1    0    0  501    0  0.00000000000E+00  0.00000000000E+00  0.20473255510E+04  0.20473255510E+04  0.50400001928E-02 0.  1.
       -1   -1    0    0    0  501  0.00000000000E+00  0.00000000000E+00 -0.15909868221E+04  0.15909868221E+04  0.50400001928E-02 0. -1.
    10030    2    1    2    0    0  0.00000000000E+00  0.00000000000E+00  0.45633872893E+03  0.36383123731E+04  0.36095805697E+04 0.  0.
        4    1    3    3  502    0  0.62690392496E+03 -0.12436107548E+04  0.13852133996E+04  0.19642795158E+04  0.12699999809E+01 0.  1.
       -4    1    3    3    0  502 -0.62690392496E+03  0.12436107548E+04 -0.92887467072E+03  0.16740328573E+04  0.12699999809E+01 0. -1.
</event>
<event>
 5   0  0.4120440E-07  0.3640938E+04  0.7818609E-02  0.8081178E-01
        2   -1    0    0  501    0  0.00000000000E+00  0.00000000000E+00  0.24977753512E+04  0.24977753512E+04  0.25500000920E-02 0. -1.
       -2   -1    0    0    0  501  0.00000000000E+00  0.00000000000E+00 -0.13268236105E+04  0.13268236105E+04  0.25500000920E-02 0.  1.
    10030    2    1    2    0    0  0.00000000000E+00  0.00000000000E+00  0.11709517407E+04  0.38245989617E+04  0.36409379614E+04 0.  0.
        2    1    3    3  502    0  0.32588967763E+03  0.16396367833E+04  0.13425930111E+04  0.21441009436E+04  0.25500000920E-02 0. -1.
       -2    1    3    3    0  502 -0.32588967763E+03 -0.16396367833E+04 -0.17164127036E+03  0.16804980181E+04  0.25500000920E-02 0.  1.
</event>
<event>
 5   0  0.4115358E-07  0.3406155E+04  0.7818609E-02  0.8136397E-01
       -2   -1    0    0    0  501  0.00000000000E+00  0.00000000000E+00  0.11290053253E+04  0.11290053253E+04  0.25500000920E-02 0. -1.
        2   -1    0    0  501    0  0.00000000000E+00  0.00000000000E+00 -0.25690520392E+04  0.25690520393E+04  0.25500000920E-02 0.  1.
    10030    2    1    2    0    0  0.00000000000E+00  0.00000000000E+00 -0.14400467140E+04  0.36980573645E+04  0.34061552714E+04 0.  0.
        3    1    3    3  502    0 -0.55044617733E+03 -0.12744288632E+04 -0.17911370615E+04  0.22661270716E+04  0.10100000352E+00 0.  1.
       -3    1    3    3    0  502  0.55044617733E+03  0.12744288632E+04  0.35109034751E+03  0.14319302929E+04  0.10100000352E+00 0. -1.
</event>
<event>
 5   0  0.1361743E-07  0.3593303E+04  0.7818609E-02  0.8092028E-01
        1   -1    0    0  501    0  0.00000000000E+00  0.00000000000E+00  0.21455694307E+04  0.21455694307E+04  0.50400001928E-02 0.  1.
       -1   -1    0    0    0  501  0.00000000000E+00  0.00000000000E+00 -0.15044752641E+04  0.15044752641E+04  0.50400001928E-02 0. -1.
    10030    2    1    2    0    0  0.00000000000E+00  0.00000000000E+00  0.64109416658E+03  0.36500446948E+04  0.35933027347E+04 0.  0.
        5    1    3    3  502    0  0.33975706662E+03 -0.34565996736E+03  0.20779003198E+04  0.21336840222E+04  0.46999998093E+01 0.  1.
       -5    1    3    3    0  502 -0.33975706662E+03  0.34565996736E+03 -0.14368061532E+04  0.15163606726E+04  0.46999998093E+01 0. -1.
</event>
<event>
 5   0  0.3880259E-07  0.3599898E+04  0.7818609E-02  0.8090515E-01
       -2   -1    0    0    0  501  0.00000000000E+00  0.00000000000E+00  0.13980873398E+04  0.13980873398E+04  0.25500000920E-02 0. -1.
        2   -1    0    0  501    0  0.00000000000E+00  0.00000000000E+00 -0.23173205208E+04  0.23173205208E+04  0.25500000920E-02 0.  1.
    10030    2    1    2    0    0  0.00000000000E+00  0.00000000000E+00 -0.91923318096E+03  0.37154078607E+04  0.35998980444E+04 0.  0.
        5    1    3    3  502    0 -0.32323468081E+03 -0.13872379244E+04 -0.15953272082E+04  0.21386913543E+04  0.46999998093E+01 0.  1.
       -5    1    3    3    0  502  0.32323468081E+03  0.13872379244E+04  0.67609402720E+03  0.15767165064E+04  0.46999998093E+01 0. -1.
</event>
<event>
 5   0  0.3993751E-07  0.3593991E+04  0.7818609E-02  0.8091869E-01
       -2   -1    0    0    0  501  0.00000000000E+00  0.00000000000E+00  0.13988227969E+04  0.13988227969E+04  0.25500000920E-02 0. -1.
        2   -1    0    0  501    0  0.00000000000E+00  0.00000000000E+00 -0.23085076237E+04  0.23085076237E+04  0.25500000920E-02 0.  1.
    10030    2    1    2    0    0  0.00000000000E+00  0.00000000000E+00 -0.90968482684E+03  0.37073304206E+04  0.35939911468E+04 0.  0.
        1    1    3    3  502    0 -0.35045003363E+03  0.12448277652E+04  0.83221568235E+03  0.15378538075E+04  0.50400001928E-02 0. -1.
       -1    1    3    3    0  502  0.35045003363E+03 -0.12448277652E+04 -0.17419005092E+04  0.21694766132E+04  0.50400001928E-02 0.  1.
</event>
<event>
 5   0  0.4120440E-07  0.3595879E+04  0.7818609E-02  0.8091436E-01
       -2   -1    0    0    0  501  0.00000000000E+00  0.00000000000E+00  0.25448467991E+04  0.25448467991E+04  0.25500000920E-02 0.  1.
        2   -1    0    0  501    0  0.00000000000E+00  0.00000000000E+00 -0.12702479064E+04  0.12702479064E+04  0.25500000920E-02 0. -1.
    10030    2    1    2    0    0  0.00000000000E+00  0.00000000000E+00  0.12745988927E+04  0.38150947055E+04  0.35958789294E+04 0.  0.
        2    1    3    3  502    0  0.67088579032E+03  0.83846145537E+02 -0.11302371146E+04  0.13170246220E+04  0.25500000920E-02 0. -1.
       -2    1    3    3    0  502 -0.67088579032E+03 -0.83846145537E+02  0.24048360073E+04  0.24980700835E+04  0.25500000920E-02 0.  1.
</event>
<event>
 5   0  0.1298250E-07  0.3571204E+04  0.7818609E-02  0.8097120E-01
       -1   -1    0    0    0  501  0.00000000000E+00  0.00000000000E+00  0.29762014965E+04  0.29762014965E+04  0.50400001928E-02 0.  1.
        1   -1    0    0  501    0  0.00000000000E+00  0.00000000000E+00 -0.10712898463E+04  0.10712898463E+04  0.50400001928E-02 0. -1.
    10030    2    1    2    0    0  0.00000000000E+00  0.00000000000E+00  0.19049116502E+04  0.40474913428E+04  0.35712039671E+04 0.  0.
        2    1    3    3  502    0 -0.15447363167E+04 -0.84695526026E+03  0.12825580257E+04  0.21791049976E+04  0.25500000920E-02 0.  1.
       -2    1    3    3    0  502  0.15447363167E+04  0.84695526026E+03  0.62235362447E+03  0.18683863452E+04  0.25500000920E-02 0. -1.
</event>
<event>
 5   0  0.4200635E-07  0.3607736E+04  0.7818609E-02  0.8088722E-01
        2   -1    0    0  501    0  0.00000000000E+00  0.00000000000E+00  0.14976036118E+04  0.14976036118E+04  0.25500000920E-02 0.  1.
       -2   -1    0    0    0  501  0.00000000000E+00  0.00000000000E+00 -0.21727638081E+04  0.21727638081E+04  0.25500000920E-02 0. -1.
    10030    2    1    2    0    0  0.00000000000E+00  0.00000000000E+00 -0.67516019629E+03  0.36703674199E+04  0.36077355372E+04 0.  0.
        4    1    3    3  502    0 -0.21472752014E+03 -0.18639769357E+03 -0.21498201350E+04  0.21685433438E+04  0.12699999809E+01 0. -1.
       -4    1    3    3    0  502  0.21472752014E+03  0.18639769357E+03  0.14746599387E+04  0.15018240762E+04  0.12699999809E+01 0.  1.
</event>
<event>
 5   0  0.3880259E-07  0.3594297E+04  0.7818609E-02  0.8091799E-01
        2   -1    0    0  501    0  0.00000000000E+00  0.00000000000E+00  0.22471473730E+04  0.22471473730E+04  0.25500000920E-02 0.  1.
       -2   -1    0    0    0  501  0.00000000000E+00  0.00000000000E+00 -0.14372634499E+04  0.14372634499E+04  0.25500000920E-02 0. -1.
    10030    2    1    2    0    0  0.00000000000E+00  0.00000000000E+00  0.80988392311E+03  0.36844108229E+04  0.35942970305E+04 0.  0.
        5    1    3    3  502    0 -0.85615659312E+03 -0.83169446401E+02 -0.12125281587E+04  0.14866633426E+04  0.46999998093E+01 0. -1.
       -5    1    3    3    0  502  0.85615659312E+03  0.83169446401E+02  0.20224120818E+04  0.21977474803E+04  0.46999998093E+01 0.  1.
</event>
<event>
 5   0  0.4200635E-07  0.3614250E+04  0.7818609E-02  0.8087235E-01
       -2   -1    0    0    0  501  0.00000000000E+00  0.00000000000E+00  0.19331454946E+04  0.19331454946E+04  0.25500000920E-02 0.  1.
        2   -1    0    0  501    0  0.00000000000E+00  0.00000000000E+00 -0.16893193984E+04  0.16893193984E+04  0.25500000920E-02 0. -1.
    10030    2    1    2    0    0  0.00000000000E+00  0.00000000000E+00  0.24382609621E+03  0.36224648929E+04  0.36142496781E+04 0.  0.
        4    1    3    3  502    0 -0.12508649235E+04 -0.45825592427E+03 -0.11019427444E+04  0.17288553941E+04  0.12699999809E+01 0. -1.
       -4    1    3    3    0  502  0.12508649235E+04  0.45825592427E+03  0.13457688406E+04  0.18936094988E+04  0.12699999809E+01 0.  1.
</event>
<event>
 5   0  0.4120440E-07  0.3583480E+04  0.7818609E-02  0.8094286E-01
       -2   -1    0    0    0  501  0.00000000000E+00  0.00000000000E+00  0.17080048853E+04  0.17080048853E+04  0.25500000920E-02 0. -1.
        2   -1    0    0  501    0  0.00000000000E+00  0.00000000000E+00 -0.18795801292E+04  0.18795801292E+04  0.25500000920E-02 0.  1.
    10030    2    1    2    0    0  0.00000000000E+00  0.00000000000E+00 -0.17157524387E+03  0.35875850144E+04  0.35834798969E+04 0.  0.
        2    1    3    3  502    0 -0.10694119751E+04 -0.65547673599E+03 -0.13667221039E+04  0.18550528384E+04  0.25500000920E-02 0.  1.
       -2    1    3    3    0  502  0.10694119751E+04  0.65547673599E+03  0.11951468600E+04  0.17325321760E+04  0.25500000920E-02 0. -1.
</event>
<event>
 5   0  0.3880259E-07  0.3632866E+04  0.7818609E-02  0.8083005E-01
        2   -1    0    0  501    0  0.00000000000E+00  0.00000000000E+00  0.13802845715E+04  0.13802845715E+04  0.25500000920E-02 0. -1.
       -2   -1    0    0    0  501  0.00000000000E+00  0.00000000000E+00 -0.23903972858E+04  0.23903972858E+04  0.25500000920E-02 0.  1.
    10030    2    1    2    0    0  0.00000000000E+00  0.00000000000E+00 -0.10101127143E+04  0.37706818573E+04  0.36328658072E+04 0.  0.
        5    1    3    3  502    0  0.19067030556E+03 -0.17752566094E+04 -0.15844915219E+03  0.17924897262E+04  0.46999998093E+01 0.  1.
       -5    1    3    3    0  502 -0.19067030556E+03  0.17752566094E+04 -0.85166356213E+03  0.19781921311E+04  0.46999998093E+01 0. -1.
</event>
<event>
 5   0  0.1298250E-07  0.3574785E+04  0.7818609E-02  0.8096292E-01
       -1   -1    0    0    0  501  0.00000000000E+00  0.00000000000E+00  0.23211503605E+04  0.23211503606E+04  0.50400001928E-02 0.  1.
        1   -1    0    0  501    0  0.00000000000E+00  0.00000000000E+00 -0.13763746506E+04  0.13763746506E+04  0.50400001928E-02 0. -1.
    10030    2    1    2    0    0  0.00000000000E+00  0.00000000000E+00  0.94477570994E+03  0.36975250112E+04  0.35747853175E+04 0.  0.
        1    1    3    3  502    0 -0.50810716954E+03  0.48267263357E+03  0.21731145251E+04  0.22833248797E+04  0.50400001928E-02 0.  1.
       -1    1    3    3    0  502  0.50810716954E+03 -0.48267263357E+03 -0.12283388152E+04  0.14142001315E+04  0.50400001928E-02 0. -1.
</event>
<event>
 5   0  0.4115358E-07  0.3644547E+04  0.7818609E-02  0.8080363E-01
        2   -1    0    0  501    0  0.00000000000E+00  0.00000000000E+00  0.17991300613E+04  0.17991300613E+04  0.25500000920E-02 0. -1.
       -2   -1    0    0    0  501  0.00000000000E+00  0.00000000000E+00 -0.18457146975E+04  0.18457146975E+04  0.25500000920E-02 0.  1.
    10030    2    1    2    0    0  0.00000000000E+00  0.00000000000E+00 -0.46584636133E+02  0.36448447588E+04  0.36445470483E+04 0.  0.
        3    1    3    3  502    0 -0.10500618829E+04 -0.96205072639E+03 -0.11602709452E+04  0.18369540643E+04  0.10100000352E+00 0.  1.
       -3    1    3    3    0  502  0.10500618829E+04  0.96205072639E+03  0.11136863090E+04  0.18078906945E+04  0.10100000352E+00 0. -1.
</event>
<event>
 5   0  0.1298250E-07  0.3507090E+04  0.7818609E-02  0.8112112E-01
        1   -1    0    0  501    0  0.00000000000E+00  0.00000000000E+00  0.15885393858E+04  0.15885393858E+04  0.50400001928E-02 0. -1.
       -1   -1    0    0    0  501  0.00000000000E+00  0.00000000000E+00 -0.19356902829E+04  0.19356902829E+04  0.50400001928E-02 0.  1.
    10030    2    1    2    0    0  0.00000000000E+00  0.00000000000E+00 -0.34715089712E+03  0.35242296687E+04  0.35070901061E+04 0.  0.
        1    1    3    3  502    0 -0.44527328725E+03 -0.52842365394E+03 -0.17931032286E+04  0.19216448805E+04  0.50400001928E-02 0.  1.
       -1    1    3    3    0  502  0.44527328725E+03  0.52842365394E+03  0.14459523315E+04  0.16025847882E+04  0.50400001928E-02 0. -1.
</event>
<event>
 5   0  0.4120440E-07  0.3604793E+04  0.7818609E-02  0.8089395E-01
        2   -1    0    0  501    0  0.00000000000E+00  0.00000000000E+00  0.11463825325E+04  0.11463825325E+04  0.25500000920E-02 0. -1.
       -2   -1    0    0    0  501  0.00000000000E+00  0.00000000000E+00 -0.28338124883E+04  0.28338124883E+04  0.25500000920E-02 0.  1.
    10030    2    1    2    0    0  0.00000000000E+00  0.00000000000E+00 -0.16874299557E+04  0.39801950208E+04  0.36047929966E+04 0.  0.
        2    1    3    3  502    0  0.56299825759E+03  0.88644839444E+03 -0.24611478534E+04  0.26758188561E+04  0.25500000920E-02 0.  1.
       -2    1    3    3    0  502 -0.56299825759E+03 -0.88644839444E+03  0.77371789767E+03  0.13043761648E+04  0.25500000920E-02 0. -1.
</event>
<event>
 5   0  0.3880259E-07  0.3576666E+04  0.7818609E-02  0.8095858E-01
        2   -1    0    0  501    0  0.00000000000E+00  0.00000000000E+00  0.16853465250E+04  0.16853465250E+04  0.25500000920E-02 0. -1.
       -2   -1    0    0    0  501  0.00000000000E+00  0.00000000000E+00 -0.18976125548E+04  0.18976125548E+04  0.25500000920E-02 0.  1.
    10030    2    1    2    0    0  0.00000000000E+00  0.00000000000E+00 -0.21226602980E+03  0.35829590798E+04  0.35766658916E+04 0.  0.
        5    1    3    3  502    0 -0.71853375460E+03 -0.16142277748E+04 -0.38246355901E+03  0.18078502509E+04  0.46999998093E+01 0. -1.
       -5    1    3    3    0  502  0.71853375460E+03  0.16142277748E+04  0.17019752922E+03  0.17751088289E+04  0.46999998093E+01 0.  1.
</event>
<event>
 5   0  0.1370997E-07  0.3604506E+04  0.7818609E-02  0.8089460E-01
        1   -1    0    0  501    0  0.00000000000E+00  0.00000000000E+00  0.22457846021E+04  0.22457846021E+04  0.50400001928E-02 0. -1.
       -1   -1    0    0    0  501  0.00000000000E+00  0.00000000000E+00 -0.14463170582E+04  0.14463170582E+04  0.50400001928E-02 0.  1.
    10030    2    1    2    0    0  0.00000000000E+00  0.00000000000E+00  0.79946754390E+03  0.36921016603E+04  0.36045063901E+04 0.  0.
        3    1    3    3  502    0 -0.73037830814E+02 -0.14922981365E+04 -0.63264248539E+03  0.16225057096E+04  0.10100000352E+00 0.  1.
       -3    1    3    3    0  502  0.73037830814E+02  0.14922981365E+04  0.14321100293E+04  0.20695959507E+04  0.10100000352E+00 0. -1.
</event>
<event>
 5   0  0.1298250E-07  0.3611620E+04  0.7818609E-02  0.8087835E-01
       -1   -1    0    0    0  501  0.00000000000E+00  0.00000000000E+00  0.30952513448E+04  0.30952513448E+04  0.50400001928E-02 0.  1.
        1   -1    0    0  501    0  0.00000000000E+00  0.00000000000E+00 -0.10535331002E+04  0.10535331002E+04  0.50400001928E-02 0. -1.
    10030    2    1    2    0    0  0.00000000000E+00  0.00000000000E+00  0.20417182445E+04  0.41487844450E+04  0.36116199940E+04 0.  0.
        1    1    3    3  502    0  0.72672664858E+03  0.86596726008E+03 -0.59674144569E+03  0.12783314399E+04  0.50400001928E-02 0. -1.
       -1    1    3    3    0  502 -0.72672664858E+03 -0.86596726008E+03  0.26384596902E+04  0.28704530051E+04  0.50400001928E-02 0.  1.
</event>
<event>
 5   0  0.1361743E-07  0.3571738E+04  0.7818609E-02  0.8096996E-01
        1   -1    0    0  501    0  0.00000000000E+00  0.00000000000E+00  0.26984598430E+04  0.26984598430E+04  0.50400001928E-02 0. -1.
       -1   -1    0    0    0  501  0.00000000000E+00  0.00000000000E+00 -0.11819067980E+04  0.11819067980E+04  0.50400001928E-02 0.  1.
    10030    2    1    2    0    0  0.00000000000E+00  0.00000000000E+00  0.15165530450E+04  0.38803666410E+04  0.35717379705E+04 0.  0.
        5    1    3    3  502    0  0.54004478467E+03 -0.14631354759E+04  0.17034470541E+04  0.23095817254E+04  0.46999998093E+01 0. -1.
       -5    1    3    3    0  502 -0.54004478467E+03  0.14631354759E+04 -0.18689400908E+03  0.15707849156E+04  0.46999998093E+01 0.  1.
</event>
<event>
 5   0  0.1370997E-07  0.3593470E+04  0.7818609E-02  0.8091989E-01
        1   -1    0    0  501    0  0.00000000000E+00  0.00000000000E+00  0.14678720037E+04  0.14678720037E+04  0.50400001928E-02 0.  1.
       -1   -1    0    0    0  501  0.00000000000E+00  0.00000000000E+00 -0.21992764468E+04  0.21992764468E+04  0.50400001928E-02 0. -1.
    10030    2    1    2    0    0  0.00000000000E+00  0.00000000000E+00 -0.73140444308E+03  0.36671484505E+04  0.35934698132E+04 0.  0.
        3    1    3    3  502    0 -0.16879440680E+04  0.43762895855E+03  0.76285402274E+02  0.17454207959E+04  0.10100000352E+00 0. -1.
       -3    1    3    3    0  502  0.16879440680E+04 -0.43762895855E+03 -0.80768984535E+03  0.19217276546E+04  0.10100000352E+00 0.  1.
</event>
<event>
 5   0  0.3880259E-07  0.3597196E+04  0.7818609E-02  0.8091134E-01
       -2   -1    0    0    0  501  0.00000000000E+00  0.00000000000E+00  0.11256238956E+04  0.11256238956E+04  0.25500000920E-02 0.  1.
        2   -1    0    0  501    0  0.00000000000E+00  0.00000000000E+00 -0.28739217710E+04  0.28739217710E+04  0.25500000920E-02 0. -1.
    10030    2    1    2    0    0  0.00000000000E+00  0.00000000000E+00 -0.17482978755E+04  0.39995456666E+04  0.35971961411E+04 0.  0.
        5    1    3    3  502    0  0.87956306409E+03 -0.92144028882E+03  0.53761691093E+03  0.13826559306E+04  0.46999998093E+01 0.  1.
       -5    1    3    3    0  502 -0.87956306409E+03  0.92144028882E+03 -0.22859147864E+04  0.26168897360E+04  0.46999998093E+01 0. -1.
</event>
<event>
 5   0  0.3880259E-07  0.3382882E+04  0.7818609E-02  0.8142121E-01
       -2   -1    0    0    0  501  0.00000000000E+00  0.00000000000E+00  0.26290766105E+04  0.26290766105E+04  0.25500000920E-02 0. -1.
        2   -1    0    0  501    0  0.00000000000E+00  0.00000000000E+00 -0.10882041152E+04  0.10882041152E+04  0.25500000920E-02 0.  1.
    10030    2    1    2    0    0  0.00000000000E+00  0.00000000000E+00  0.15408724953E+04  0.37172807257E+04  0.33828816040E+04 0.  0.
        5    1    3    3  502    0  0.74722935067E+03  0.61066748581E+03 -0.75601027444E+03  0.12259037914E+04  0.46999998093E+01 0.  1.
       -5    1    3    3    0  502 -0.74722935067E+03 -0.61066748581E+03  0.22968827698E+04  0.24913769343E+04  0.46999998093E+01 0. -1.
</event>
<event>
 5   0  0.1298250E-07  0.3611743E+04  0.7818609E-02  0.8087807E-01
       -1   -1    0    0    0  501  0.00000000000E+00  0.00000000000E+00  0.18436067739E+04  0.18436067739E+04  0.50400001928E-02 0.  1.
        1   -1    0    0  501    0  0.00000000000E+00  0.00000000000E+00 -0.17689088984E+04  0.17689088984E+04  0.50400001928E-02 0. -1.
    10030    2    1    2    0    0  0.00000000000E+00  0.00000000000E+00  0.74697875439E+02  0.36125156723E+04  0.36117433063E+04 0.  0.
        1    1    3    3  502    0 -0.49520237919E+03  0.14851079955E+04 -0.86306647545E+03  0.17876394759E+04  0.50400001928E-02 0. -1.
       -1    1    3    3    0  502  0.49520237919E+03 -0.14851079955E+04  0.93776435089E+03  0.18248761965E+04  0.50400001928E-02 0.  1.
</event>
<event>
 5   0  0.1298250E-07  0.3603665E+04  0.7818609E-02  0.8089653E-01
       -3   -1    0    0    0  501  0.00000000000E+00  0.00000000000E+00  0.18777726857E+04  0.18777726884E+04  0.10100000352E+00 0. -1.
        3   -1    0    0  501    0  0.00000000000E+00  0.00000000000E+00 -0.17289630073E+04  0.17289630102E+04  0.10100000352E+00 0.  1.
    10030    2    1    2    0    0  0.00000000000E+00  0.00000000000E+00  0.14880967843E+03  0.36067356986E+04  0.36036645348E+04 0.  0.
        2    1    3    3  502    0 -0.10783765292E+04 -0.11874451506E+04  0.89588298620E+03  0.18372610727E+04  0.25500000920E-02 0. -1.
       -2    1    3    3    0  502  0.10783765292E+04  0.11874451506E+04 -0.74707330777E+03  0.17694746259E+04  0.25500000920E-02 0.  1.
</event>
<event>
 5   0  0.4115358E-07  0.3622525E+04  0.7818609E-02  0.8085351E-01
       -2   -1    0    0    0  501  0.00000000000E+00  0.00000000000E+00  0.13692804142E+04  0.13692804142E+04  0.25500000920E-02 0.  1.
        2   -1    0    0  501    0  0.00000000000E+00  0.00000000000E+00 -0.23959095939E+04  0.23959095939E+04  0.25500000920E-02 0. -1.
    10030    2    1    2    0    0  0.00000000000E+00  0.00000000000E+00 -0.10266291797E+04  0.37651900081E+04  0.36225251310E+04 0.  0.
        3    1    3    3  502    0 -0.12723568738E+04 -0.18175792972E+03  0.81316911662E+03  0.15209115627E+04  0.10100000352E+00 0.  1.
       -3    1    3    3    0  502  0.12723568738E+04  0.18175792972E+03 -0.18397982963E+04  0.22442784454E+04  0.10100000352E+00 0. -1.
</event>
<event>
 5   0  0.3880259E-07  0.3594933E+04  0.7818609E-02  0.8091653E-01
       -2   -1    0    0    0  501  0.00000000000E+00  0.00000000000E+00  0.14314625117E+04  0.14314625117E+04  0.25500000920E-02 0. -1.
        2   -1    0    0  501    0  0.00000000000E+00  0.00000000000E+00 -0.22570517217E+04  0.22570517217E+04  0.25500000920E-02 0.  1.
    10030    2    1    2    0    0  0.00000000000E+00  0.00000000000E+00 -0.82558920993E+03  0.36885142334E+04  0.35949325038E+04 0.  0.
        5    1    3    3  502    0 -0.60579646098E+03 -0.15478155398E+04 -0.11148135761E+04  0.20013879426E+04  0.46999998093E+01 0. -1.
       -5    1    3    3    0  502  0.60579646098E+03  0.15478155398E+04  0.28922436616E+03  0.16871262908E+04  0.46999998093E+01 0.  1.
</event>
<event>
 5   0  0.4200635E-07  0.3624293E+04  0.7818609E-02  0.8084950E-01
        2   -1    0    0  501    0  0.00000000000E+00  0.00000000000E+00  0.12446149788E+04  0.12446149788E+04  0.25500000920E-02 0. -1.
       -2   -1    0    0    0  501  0.00000000000E+00  0.00000000000E+00 -0.26384668991E+04  0.26384668991E+04  0.25500000920E-02 0.  1.
    10030    2    1    2    0    0  0.00000000000E+00  0.00000000000E+00 -0.13938519203E+04  0.38830818780E+04  0.36242932684E+04 0.  0.
        4    1    3    3  502    0  0.86939757339E+03  0.84763380547E+03 -0.21381687305E+04  0.24588823359E+04  0.12699999809E+01 0.  1.
       -4    1    3    3    0  502 -0.86939757339E+03 -0.84763380547E+03  0.74431681020E+03  0.14241995421E+04  0.12699999809E+01 0. -1.
</event>
<event>
 5   0  0.1370997E-07  0.3517906E+04  0.7818609E-02  0.8109559E-01
        1   -1    0    0  501    0  0.00000000000E+00  0.00000000000E+00  0.26374368494E+04  0.26374368494E+04  0.50400001928E-02 0. -1.
       -1   -1    0    0    0  501  0.00000000000E+00  0.00000000000E+00 -0.11730768478E+04  0.11730768478E+04  0.50400001928E-02 0.  1.
    10030    2    1    2    0    0  0.00000000000E+00  0.00000000000E+00  0.14643600016E+04  0.38105136972E+04  0.35179062554E+04 0.  0.
        3    1    3    3  502    0  0.54548454541E+03 -0.15533383003E+04  0.61394677510E+02  0.16474776421E+04  0.10100000352E+00 0.  1.
       -3    1    3    3    0  502 -0.54548454541E+03  0.15533383003E+04  0.14029653241E+04  0.21630360551E+04  0.10100000352E+00 0. -1.
</event>
<event>
 5   0  0.1348226E-07  0.3591802E+04  0.7818609E-02  0.8092372E-01
       -1   -1    0    0    0  501  0.00000000000E+00  0.00000000000E+00  0.18211103101E+04  0.18211103101E+04  0.50400001928E-02 0. -1.
        1   -1    0    0  501    0  0.00000000000E+00  0.00000000000E+00 -0.17710403432E+04  0.17710403432E+04  0.50400001928E-02 0.  1.
    10030    2    1    2    0    0  0.00000000000E+00  0.00000000000E+00  0.50069966840E+02  0.35921506533E+04  0.35918016808E+04 0.  0.
        4    1    3    3  502    0 -0.67853993099E+03 -0.92403942618E+02  0.16854081069E+04  0.18192187956E+04  0.12699999809E+01 0. -1.
       -4    1    3    3    0  502  0.67853993099E+03  0.92403942618E+02 -0.16353381401E+04  0.17729318577E+04  0.12699999809E+01 0.  1.
</event>
<event>
 5   0  0.1348226E-07  0.3614892E+04  0.7818609E-02  0.8087089E-01
        1   -1    0    0  501    0  0.00000000000E+00  0.00000000000E+00  0.16390427170E+04  0.16390427170E+04  0.50400001928E-02 0.  1.
       -1   -1    0    0    0  501  0.00000000000E+00  0.00000000000E+00 -0.19931522683E+04  0.19931522683E+04  0.50400001928E-02 0. -1.
    10030    2    1    2    0    0  0.00000000000E+00  0.00000000000E+00 -0.35410955134E+03  0.36321949853E+04  0.36148923686E+04 0.  0.
        4    1    3    3  502    0 -0.14665228679E+03  0.13037385575E+04 -0.14262347234E+04  0.19378824058E+04  0.12699999809E+01 0. -1.
       -4    1    3    3    0  502  0.14665228679E+03 -0.13037385575E+04  0.10721251720E+04  0.16943125795E+04  0.12699999809E+01 0.  1.
</event>
<event>
 5   0  0.1348226E-07  0.3589619E+04  0.7818609E-02  0.8092874E-01
        1   -1    0    0  501    0  0.00000000000E+00  0.00000000000E+00  0.11716063862E+04  0.11716063862E+04  0.50400001928E-02 0.  1.
       -1   -1    0    0    0  501  0.00000000000E+00  0.00000000000E+00 -0.27495084463E+04  0.27495084463E+04  0.50400001928E-02 0. -1.
    10030    2    1    2    0    0  0.00000000000E+00  0.00000000000E+00 -0.15779020602E+04  0.39211148325E+04  0.35896192860E+04 0.  0.
        4    1    3    3  502    0  0.15236982797E+03 -0.39404759236E+03 -0.26944180714E+04  0.27273394409E+04  0.12699999809E+01 0. -1.
       -4    1    3    3    0  502 -0.15236982797E+03  0.39404759236E+03  0.11165160112E+04  0.11937753916E+04  0.12699999809E+01 0.  1.
</event>
<event>
 5   0  0.1298250E-07  0.3637711E+04  0.7818609E-02  0.8081908E-01
        1   -1    0    0  501    0  0.00000000000E+00  0.00000000000E+00  0.15874253452E+04  0.15874253452E+04  0.50400001928E-02 0.  1.
       -1   -1    0    0    0  501  0.00000000000E+00  0.00000000000E+00 -0.20840256577E+04  0.20840256577E+04  0.50400001928E-02 0. -1.
    10030    2    1    2    0    0  0.00000000000E+00  0.00000000000E+00 -0.49660031245E+03  0.36714510029E+04  0.36377109006E+04 0.  0.
        1    1    3    3  502    0 -0.14460959219E+03 -0.17649794499E+04 -0.66708335415E+03  0.18923700997E+04  0.50400001928E-02 0. -1.
       -1    1    3    3    0  502  0.14460959219E+03  0.17649794499E+04  0.17048304170E+03  0.17790809032E+04  0.50400001928E-02 0.  1.
</event>
<event>
 5   0  0.1361743E-07  0.3628106E+04  0.7818609E-02  0.8084084E-01
       -1   -1    0    0    0  501  0.00000000000E+00  0.00000000000E+00  0.15730289686E+04  0.15730289686E+04  0.50400001928E-02 0. -1.
        1   -1    0    0  501    0  0.00000000000E+00  0.00000000000E+00 -0.20920072762E+04  0.20920072762E+04  0.50400001928E-02 0.  1.
    10030    2    1    2    0    0  0.00000000000E+00  0.00000000000E+00 -0.51897830761E+03  0.36650362448E+04  0.36281058683E+04 0.  0.
        5    1    3    3  502    0  0.36666674828E+03  0.98038179273E+03  0.12372037452E+04  0.16205826610E+04  0.46999998093E+01 0. -1.
       -5    1    3    3    0  502 -0.36666674828E+03 -0.98038179273E+03 -0.17561820528E+04  0.20444535838E+04  0.46999998093E+01 0.  1.
</event>
<event>
 5   0  0.4200635E-07  0.3668817E+04  0.7818609E-02  0.8074908E-01
        2   -1    0    0  501    0  0.00000000000E+00  0.00000000000E+00  0.13321536456E+04  0.13321536456E+04  0.25500000920E-02 0.  1.
       -2   -1    0    0    0  501  0.00000000000E+00  0.00000000000E+00 -0.25260254547E+04  0.25260254547E+04  0.25500000920E-02 0. -1.
    10030    2    1    2    0    0  0.00000000000E+00  0.00000000000E+00 -0.11938718090E+04  0.38581791003E+04  0.36688167130E+04 0.  0.
        4    1    3    3  502    0 -0.53864456117E+03  0.39283261784E+03  0.12002466078E+04  0.13729708523E+04  0.12699999809E+01 0.  1.
       -4    1    3    3    0  502  0.53864456117E+03 -0.39283261784E+03 -0.23941184168E+04  0.24852082480E+04  0.12699999809E+01 0. -1.
</event>
<event>
 5   0  0.1298250E-07  0.3582613E+04  0.7818609E-02  0.8094486E-01
        3   -1    0    0  501    0  0.00000000000E+00  0.00000000000E+00  0.29771223587E+04  0.29771223605E+04  0.10100000352E+00 0. -1.
       -3   -1    0    0    0  501  0.00000000000E+00  0.00000000000E+00 -0.10778122257E+04  0.10778122304E+04  0.10100000352E+00 0.  1.
    10030    2    1    2    0    0  0.00000000000E+00  0.00000000000E+00  0.18993101331E+04  0.40549345908E+04  0.35826129507E+04 0.  0.
        2    1    3    3  502    0  0.94200468883E+03  0.12378854082E+04 -0.55736087701E+02  0.15565473424E+04  0.25500000920E-02 0.  1.
       -2    1    3    3    0  502 -0.94200468883E+03 -0.12378854082E+04  0.19550462208E+04  0.24983872484E+04  0.25500000920E-02 0. -1.
</event>
<event>
 5   0  0.4200635E-07  0.3595626E+04  0.7818609E-02  0.8091494E-01
       -2   -1    0    0    0  501  0.00000000000E+00  0.00000000000E+00  0.12394132996E+04  0.12394132996E+04  0.25500000920E-02 0.  1.
        2   -1    0    0  501    0  0.00000000000E+00  0.00000000000E+00 -0.26077920964E+04  0.26077920964E+04  0.25500000920E-02 0. -1.
    10030    2    1    2    0    0  0.00000000000E+00  0.00000000000E+00 -0.13683787968E+04  0.38472053960E+04  0.35956263470E+04 0.  0.
        4    1    3    3  502    0 -0.15850291788E+04 -0.45267378688E+03 -0.14519610465E+04  0.21966846720E+04  0.12699999809E+01 0.  1.
       -4    1    3    3    0  502  0.15850291788E+04  0.45267378688E+03  0.83582249692E+02  0.16505207240E+04  0.12699999809E+01 0. -1.
</event>
<event>
 5   0  0.1298250E-07  0.3535411E+04  0.7818609E-02  0.8105449E-01
        1   -1    0    0  501    0  0.00000000000E+00  0.00000000000E+00  0.23150538486E+04  0.23150538487E+04  0.50400001928E-02 0.  1.
       -1   -1    0    0    0  501  0.00000000000E+00  0.00000000000E+00 -0.13497669675E+04  0.13497669675E+04  0.50400001928E-02 0. -1.
    10030    2    1    2    0    0  0.00000000000E+00  0.00000000000E+00  0.96528688114E+03  0.36648208162E+04  0.35354112705E+04 0.  0.
        1    1    3    3  502    0 -0.39086316281E+02 -0.17663772000E+04  0.54098001816E+03  0.18477758341E+04  0.50400001928E-02 0.  1.
       -1    1    3    3    0  502  0.39086316281E+02  0.17663772000E+04  0.42430686297E+03  0.18170449821E+04  0.50400001928E-02 0. -1.
</event>
<event>
 5   0  0.3993751E-07  0.3608931E+04  0.7818609E-02  0.8088449E-01
        2   -1    0    0  501    0  0.00000000000E+00  0.00000000000E+00  0.26584616847E+04  0.26584616847E+04  0.25500000920E-02 0.  1.
       -2   -1    0    0    0  501  0.00000000000E+00  0.00000000000E+00 -0.12248046769E+04  0.12248046769E+04  0.25500000920E-02 0. -1.
    10030    2    1    2    0    0  0.00000000000E+00  0.00000000000E+00  0.14336570078E+04  0.38832663616E+04  0.36089313126E+04 0.  0.
        1    1    3    3  502    0  0.90982024312E+03  0.67322632654E+03 -0.79538106283E+03  0.13833429064E+04  0.50400001928E-02 0. -1.
       -1    1    3    3    0  502 -0.90982024312E+03 -0.67322632654E+03  0.22290380706E+04  0.24999234552E+04  0.50400001928E-02 0.  1.
</event>
<event>
 5   0  0.1370997E-07  0.3598626E+04  0.7818609E-02  0.8090806E-01
        1   -1    0    0  501    0  0.00000000000E+00  0.00000000000E+00  0.19061344722E+04  0.19061344722E+04  0.50400001928E-02 0.  1.
       -1   -1    0    0    0  501  0.00000000000E+00  0.00000000000E+00 -0.16984783203E+04  0.16984783203E+04  0.50400001928E-02 0. -1.
    10030    2    1    2    0    0  0.00000000000E+00  0.00000000000E+00  0.20765615189E+03  0.36046127924E+04  0.35986264471E+04 0.  0.
        3    1    3    3  502    0  0.80999453963E+03  0.11407677401E+04 -0.10294628332E+04  0.17370192648E+04  0.10100000352E+00 0. -1.
       -3    1    3    3    0  502 -0.80999453963E+03 -0.11407677401E+04  0.12371189851E+04  0.18675935277E+04  0.10100000352E+00 0.  1.
</event>
<event>
 5   0  0.4120440E-07  0.3558374E+04  0.7818609E-02  0.8100094E-01
       -2   -1    0    0    0  501  0.00000000000E+00  0.00000000000E+00  0.22578031219E+04  0.22578031219E+04  0.25500000920E-02 0.  1.
        2   -1    0    0  501    0  0.00000000000E+00  0.00000000000E+00 -0.14020294052E+04  0.14020294052E+04  0.25500000920E-02 0. -1.
    10030    2    1    2    0    0  0.00000000000E+00  0.00000000000E+00  0.85577371670E+03  0.36598325271E+04  0.35583739927E+04 0.  0.
        2    1    3    3  502    0  0.90805610052E+03  0.10274635377E+04 -0.73813039313E+03  0.15572680181E+04  0.25500000920E-02 0. -1.
       -2    1    3    3    0  502 -0.90805610052E+03 -0.10274635377E+04  0.15939041098E+04  0.21025645090E+04  0.25500000920E-02 0.  1.
</event>
<event>
 5   0  0.1298250E-07  0.3573995E+04  0.7818609E-02  0.8096475E-01
       -1   -1    0    0    0  501  0.00000000000E+00  0.00000000000E+00  0.19126129534E+04  0.19126129534E+04  0.50400001928E-02 0.  1.
        1   -1    0    0  501    0  0.00000000000E+00  0.00000000000E+00 -0.16696318858E+04  0.16696318859E+04  0.50400001928E-02 0. -1.
    10030    2    1    2    0    0  0.00000000000E+00  0.00000000000E+00  0.24298106752E+03  0.35822448392E+04  0.35739947243E+04 0.  0.
        1    1    3    3  502    0  0.35353073075E+03 -0.18975786914E+03 -0.16238986430E+04  0.16727339385E+04  0.50400001928E-02 0. -1.
       -1    1    3    3    0  502 -0.35353073075E+03  0.18975786914E+03  0.18668797105E+04  0.19095109007E+04  0.50400001928E-02 0.  1.
</event>
<event>
 5   0  0.1370997E-07  0.3596903E+04  0.7818609E-02  0.8091201E-01
       -1   -1    0    0    0  501  0.00000000000E+00  0.00000000000E+00  0.28260767076E+04  0.28260767076E+04  0.50400001928E-02 0.  1.
        1   -1    0    0  501    0  0.00000000000E+00  0.00000000000E+00 -0.11444940469E+04  0.11444940469E+04  0.50400001928E-02 0. -1.
    10030    2    1    2    0    0  0.00000000000E+00  0.00000000000E+00  0.16815826607E+04  0.39705707545E+04  0.35969030946E+04 0.  0.
        3    1    3    3  502    0  0.13627388610E+04  0.11184313725E+04  0.12333807557E+04  0.21515515418E+04  0.10100000352E+00 0. -1.
       -3    1    3    3    0  502 -0.13627388610E+04 -0.11184313725E+04  0.44820190502E+03  0.18190192127E+04  0.10100000352E+00 0.  1.
</event>
<event>
 5   0  0.1298250E-07  0.3482964E+04  0.7818609E-02  0.8117839E-01
        1   -1    0    0  501    0  0.00000000000E+00  0.00000000000E+00  0.21105763826E+04  0.21105763826E+04  0.50400001928E-02 0. -1.
       -1   -1    0    0    0  501  0.00000000000E+00  0.00000000000E+00 -0.14369346512E+04  0.14369346512E+04  0.50400001928E-02 0.  1.
    10030    2    1    2    0    0  0.00000000000E+00  0.00000000000E+00  0.67364173140E+03  0.35475110338E+04  0.34829644490E+04 0.  0.
        1    1    3    3  502    0 -0.15761166890E+04  0.56629456642E+03  0.82308538933E+03  0.18660929536E+04  0.50400001928E-02 0. -1.
       -1    1    3    3    0  502  0.15761166890E+04 -0.56629456642E+03 -0.14944365793E+03  0.16814180802E+04  0.50400001928E-02 0.  1.
</event>
<event>
 5   0  0.3880259E-07  0.3445536E+04  0.7818609E-02  0.8126820E-01
        2   -1    0    0  501    0  0.00000000000E+00  0.00000000000E+00  0.20785957700E+04  0.20785957700E+04  0.25500000920E-02 0.  1.
       -2   -1    0    0    0  501  0.00000000000E+00  0.00000000000E+00 -0.14278531985E+04  0.14278531985E+04  0.25500000920E-02 0. -1.
    10030    2    1    2    0    0  0.00000000000E+00  0.00000000000E+00  0.65074257153E+03  0.35064489685E+04  0.34455360213E+04 0.  0.
        5    1    3    3  502    0 -0.16253029291E+04  0.13294501360E+03 -0.23998894117E+03  0.16483023903E+04  0.46999998093E+01 0. -1.
       -5    1    3    3    0  502  0.16253029291E+04 -0.13294501360E+03  0.89073151270E+03  0.18581465781E+04  0.46999998093E+01 0.  1.
</event>
<event>
 5   0  0.4115358E-07  0.3612132E+04  0.7818609E-02  0.8087718E-01
        2   -1    0    0  501    0  0.00000000000E+00  0.00000000000E+00  0.31605067652E+04  0.31605067652E+04  0.25500000920E-02 0. -1.
       -2   -1    0    0    0  501  0.00000000000E+00  0.00000000000E+00 -0.10320733463E+04  0.10320733463E+04  0.25500000920E-02 0.  1.
    10030    2    1    2    0    0  0.00000000000E+00  0.00000000000E+00  0.21284334189E+04  0.41925801115E+04  0.36121322198E+04 0.  0.
        3    1    3    3  502    0  0.49712292397E+03 -0.43959001373E+03 -0.88543969848E+03  0.11065143702E+04  0.10100000352E+00 0.  1.
       -3    1    3    3    0  502 -0.49712292397E+03  0.43959001373E+03  0.30138731174E+04  0.30860657413E+04  0.10100000352E+00 0. -1.
</event>
<event>
 5   0  0.3993751E-07  0.3556139E+04  0.7818609E-02  0.8100613E-01
       -2   -1    0    0    0  501  0.00000000000E+00  0.00000000000E+00  0.24045746992E+04  0.24045746992E+04  0.25500000920E-02 0.  1.
        2   -1    0    0  501    0  0.00000000000E+00  0.00000000000E+00 -0.13147983823E+04  0.13147983823E+04  0.25500000920E-02 0. -1.
    10030    2    1    2    0    0  0.00000000000E+00  0.00000000000E+00  0.10897763169E+04  0.37193730815E+04  0.35561388751E+04 0.  0.
        1    1    3    3  502    0 -0.74579687806E+03 -0.11981598621E+04 -0.58629781038E+03  0.15282490507E+04  0.50400001928E-02 0. -1.
       -1    1    3    3    0  502  0.74579687806E+03  0.11981598621E+04  0.16760741272E+04  0.21911240308E+04  0.50400001928E-02 0.  1.
</event>
<event>
 5   0  0.1298250E-07  0.3605715E+04  0.7818609E-02  0.8089184E-01
       -1   -1    0    0    0  501  0.00000000000E+00  0.00000000000E+00  0.13619991292E+04  0.13619991292E+04  0.50400001928E-02 0.  1.
        1   -1    0    0  501    0  0.00000000000E+00  0.00000000000E+00 -0.23864150261E+04  0.23864150261E+04  0.50400001928E-02 0. -1.
    10030    2    1    2    0    0  0.00000000000E+00  0.00000000000E+00 -0.10244158969E+04  0.37484141553E+04  0.36057150123E+04 0.  0.
        2    1    3    3  502    0  0.11400128574E+04 -0.13019403949E+04  0.13386907792E+02  0.17305656059E+04  0.25500000920E-02 0.  1.
       -2    1    3    3    0  502 -0.11400128574E+04  0.13019403949E+04 -0.10378028047E+04  0.20178485494E+04  0.25500000920E-02 0. -1.
</event>
<event>
 5   0  0.1298250E-07  0.3676984E+04  0.7818609E-02  0.8073082E-01
       -1   -1    0    0    0  501  0.00000000000E+00  0.00000000000E+00  0.15630330623E+04  0.15630330623E+04  0.50400001928E-02 0. -1.
        1   -1    0    0  501    0  0.00000000000E+00  0.00000000000E+00 -0.21624956719E+04  0.21624956719E+04  0.50400001928E-02 0.  1.
    10030    2    1    2    0    0  0.00000000000E+00  0.00000000000E+00 -0.59946260962E+03  0.37255287342E+04  0.36769836727E+04 0.  0.
        1    1    3    3  502    0  0.44866387574E+03  0.22492648739E+03 -0.20917426998E+04  0.21511110432E+04  0.50400001928E-02 0.  1.
       -1    1    3    3    0  502 -0.44866387574E+03 -0.22492648739E+03  0.14922800902E+04  0.15744176910E+04  0.50400001928E-02 0. -1.
</event>
<event>
 5   0  0.3880259E-07  0.3522392E+04  0.7818609E-02  0.8108504E-01
       -2   -1    0    0    0  501  0.00000000000E+00  0.00000000000E+00  0.14878458006E+04  0.14878458006E+04  0.25500000920E-02 0. -1.
        2   -1    0    0  501    0  0.00000000000E+00  0.00000000000E+00 -0.20847666002E+04  0.20847666002E+04  0.25500000920E-02 0.  1.
    10030    2    1    2    0    0  0.00000000000E+00  0.00000000000E+00 -0.59692079956E+03  0.35726124008E+04  0.35223919324E+04 0.  0.
        5    1    3    3  502    0  0.74001906067E+03 -0.95621068058E+02 -0.19165166438E+04  0.20566549868E+04  0.46999998093E+01 0.  1.
       -5    1    3    3    0  502 -0.74001906067E+03  0.95621068058E+02  0.13195958443E+04  0.15159574140E+04  0.46999998093E+01 0. -1.
</event>
<event>
 5   0  0.1361743E-07  0.3574785E+04  0.7818609E-02  0.8096292E-01
       -1   -1    0    0    0  501  0.00000000000E+00  0.00000000000E+00  0.12497267274E+04  0.12497267274E+04  0.50400001928E-02 0. -1.
        1   -1    0    0  501    0  0.00000000000E+00  0.00000000000E+00 -0.25563770156E+04  0.25563770156E+04  0.50400001928E-02 0.  1.
    10030    2    1    2    0    0  0.00000000000E+00  0.00000000000E+00 -0.13066502882E+04  0.38061037429E+04  0.35747854098E+04 0.  0.
        5    1    3    3  502    0  0.50594687635E+02  0.10393910950E+04 -0.22005836917E+04  0.24342317771E+04  0.46999998093E+01 0.  1.
       -5    1    3    3    0  502 -0.50594687635E+02 -0.10393910950E+04  0.89393340349E+03  0.13718719658E+04  0.46999998093E+01 0. -1.
</event>
<event>
 5   0  0.1348226E-07  0.3546026E+04  0.7818609E-02  0.8102968E-01
        1   -1    0    0  501    0  0.00000000000E+00  0.00000000000E+00  0.11560903144E+04  0.11560903144E+04  0.50400001928E-02 0. -1.
       -1   -1    0    0    0  501  0.00000000000E+00  0.00000000000E+00 -0.27191429597E+04  0.27191429597E+04  0.50400001928E-02 0.  1.
    10030    2    1    2    0    0  0.00000000000E+00  0.00000000000E+00 -0.15630526452E+04  0.38752332741E+04  0.35460258540E+04 0.  0.
        4    1    3    3  502    0  0.24358528447E+03 -0.38512474897E+03 -0.26540526842E+04  0.26928891783E+04  0.12699999809E+01 0.  1.
       -4    1    3    3    0  502 -0.24358528447E+03  0.38512474897E+03  0.10910000390E+04  0.11823440958E+04  0.12699999809E+01 0. -1.
</event>
<event>
 5   0  0.3880259E-07  0.3585552E+04  0.7818609E-02  0.8093809E-01
       -2   -1    0    0    0  501  0.00000000000E+00  0.00000000000E+00  0.22975255570E+04  0.22975255570E+04  0.25500000920E-02 0. -1.
        2   -1    0    0  501    0  0.00000000000E+00  0.00000000000E+00 -0.13989164124E+04  0.13989164124E+04  0.25500000920E-02 0.  1.
    10030    2    1    2    0    0  0.00000000000E+00  0.00000000000E+00  0.89860914460E+03  0.36964419694E+04  0.35855522362E+04 0.  0.
        5    1    3    3  502    0  0.35684085038E+03 -0.28901804853E+01 -0.13619257031E+04  0.14079088949E+04  0.46999998093E+01 0.  1.
       -5    1    3    3    0  502 -0.35684085038E+03  0.28901804853E+01  0.22605348477E+04  0.22885330745E+04  0.46999998093E+01 0. -1.
</event>
<event>
 5   0  0.1298250E-07  0.3610310E+04  0.7818609E-02  0.8088134E-01
        3   -1    0    0  501    0  0.00000000000E+00  0.00000000000E+00  0.23214805831E+04  0.23214805853E+04  0.10100000352E+00 0. -1.
       -3   -1    0    0    0  501  0.00000000000E+00  0.00000000000E+00 -0.14036665629E+04  0.14036665666E+04  0.10100000352E+00 0.  1.
    10030    2    1    2    0    0  0.00000000000E+00  0.00000000000E+00  0.91781402020E+03  0.37251471519E+04  0.36103100597E+04 0.  0.
        5    1    3    3  502    0  0.85646401397E+03  0.51522926532E+03 -0.10920933813E+04  0.14804329929E+04  0.46999998093E+01 0.  1.
       -5    1    3    3    0  502 -0.85646401397E+03 -0.51522926532E+03  0.20099074015E+04  0.22447141590E+04  0.46999998093E+01 0. -1.
</event>
<event>
 5   0  0.3880259E-07  0.3604226E+04  0.7818609E-02  0.8089524E-01
        2   -1    0    0  501    0  0.00000000000E+00  0.00000000000E+00  0.96252530051E+03  0.96252530052E+03  0.25500000920E-02 0.  1.
       -2   -1    0    0    0  501  0.00000000000E+00  0.00000000000E+00 -0.33740525761E+04  0.33740525761E+04  0.25500000920E-02 0. -1.
    10030    2    1    2    0    0  0.00000000000E+00  0.00000000000E+00 -0.24115272756E+04  0.43365778766E+04  0.36042258363E+04 0.  0.
        5    1    3    3  502    0  0.50567991352E+03 -0.13632415764E+03  0.86892996045E+03  0.10145727264E+04  0.46999998093E+01 0.  1.
       -5    1    3    3    0  502 -0.50567991352E+03  0.13632415764E+03 -0.32804572360E+04  0.33220051503E+04  0.46999998093E+01 0. -1.
</event>
<event>
 5   0  0.4200635E-07  0.3586226E+04  0.7818609E-02  0.8093654E-01
        2   -1    0    0  501    0  0.00000000000E+00  0.00000000000E+00  0.28126602641E+04  0.28126602641E+04  0.25500000920E-02 0.  1.
       -2   -1    0    0    0  501  0.00000000000E+00  0.00000000000E+00 -0.11431366758E+04  0.11431366758E+04  0.25500000920E-02 0. -1.
    10030    2    1    2    0    0  0.00000000000E+00  0.00000000000E+00  0.16695235883E+04  0.39557969399E+04  0.35862264873E+04 0.  0.
        4    1    3    3  502    0 -0.15845482085E+04  0.23063513365E+03  0.17249382703E+04  0.23535928363E+04  0.12699999809E+01 0.  1.
       -4    1    3    3    0  502  0.15845482085E+04 -0.23063513365E+03 -0.55414682028E+02  0.16022041036E+04  0.12699999809E+01 0. -1.
</event>
<event>
 5   0  0.3993751E-07  0.3587553E+04  0.7818609E-02  0.8093349E-01
       -2   -1    0    0    0  501  0.00000000000E+00  0.00000000000E+00  0.16967980660E+04  0.16967980660E+04  0.25500000920E-02 0. -1.
        2   -1    0    0  501    0  0.00000000000E+00  0.00000000000E+00 -0.18962976405E+04  0.18962976405E+04  0.25500000920E-02 0.  1.
    10030    2    1    2    0    0  0.00000000000E+00  0.00000000000E+00 -0.19949957446E+03  0.35930957066E+04  0.35875530207E+04 0.  0.
        1    1    3    3  502    0 -0.41547635734E+03 -0.52957175957E+03  0.15655178490E+04  0.17040871420E+04  0.50400001928E-02 0. -1.
       -1    1    3    3    0  502  0.41547635734E+03  0.52957175957E+03 -0.17650174234E+04  0.18890085646E+04  0.50400001928E-02 0.  1.
</event>
<event>
 5   0  0.3993751E-07  0.3503380E+04  0.7818609E-02  0.8112989E-01
       -2   -1    0    0    0  501  0.00000000000E+00  0.00000000000E+00  0.15141747546E+04  0.15141747546E+04  0.25500000920E-02 0. -1.
        2   -1    0    0  501    0  0.00000000000E+00  0.00000000000E+00 -0.20264618932E+04  0.20264618932E+04  0.25500000920E-02 0.  1.
    10030    2    1    2    0    0  0.00000000000E+00  0.00000000000E+00 -0.51228713852E+03  0.35406366478E+04  0.35033797624E+04 0.  0.
        1    1    3    3  502    0 -0.11001601142E+04 -0.13246480749E+04 -0.58107890977E+03  0.18173325229E+04  0.50400001928E-02 0. -1.
       -1    1    3    3    0  502  0.11001601142E+04  0.13246480749E+04  0.68791771244E+02  0.17233041249E+04  0.50400001928E-02 0.  1.
</event>
<event>
 5   0  0.1298250E-07  0.3612490E+04  0.7818609E-02  0.8087637E-01
       -1   -1    0    0    0  501  0.00000000000E+00  0.00000000000E+00  0.16973060719E+04  0.16973060720E+04  0.50400001928E-02 0. -1.
        1   -1    0    0  501    0  0.00000000000E+00  0.00000000000E+00 -0.19221763132E+04  0.19221763132E+04  0.50400001928E-02 0.  1.
    10030    2    1    2    0    0  0.00000000000E+00  0.00000000000E+00 -0.22487024123E+03  0.36194823851E+04  0.36124902922E+04 0.  0.
        2    1    3    3  502    0  0.40005432993E+03  0.10747588149E+04 -0.15106186739E+04  0.18966071694E+04  0.25500000920E-02 0.  1.
       -2    1    3    3    0  502 -0.40005432993E+03 -0.10747588149E+04  0.12857484326E+04  0.17228752158E+04  0.25500000920E-02 0. -1.
</event>
<event>
 5   0  0.3993751E-07  0.3608468E+04  0.7818609E-02  0.8088555E-01
        2   -1    0    0  501    0  0.00000000000E+00  0.00000000000E+00  0.24596782915E+04  0.24596782915E+04  0.25500000920E-02 0.  1.
       -2   -1    0    0    0  501  0.00000000000E+00  0.00000000000E+00 -0.13234493709E+04  0.13234493709E+04  0.25500000920E-02 0. -1.
    10030    2    1    2    0    0  0.00000000000E+00  0.00000000000E+00  0.11362289206E+04  0.37831276625E+04  0.36084676458E+04 0.  0.
        1    1    3    3  502    0 -0.10992951110E+04 -0.64338240524E+03 -0.77157412446E+03  0.14892002183E+04  0.50400001928E-02 0. -1.
       -1    1    3    3    0  502  0.10992951110E+04  0.64338240524E+03  0.19078030451E+04  0.22939274442E+04  0.50400001928E-02 0.  1.
</event>
<event>
 5   0  0.1361743E-07  0.3561592E+04  0.7818609E-02  0.8099347E-01
       -1   -1    0    0    0  501  0.00000000000E+00  0.00000000000E+00  0.12538035656E+04  0.12538035656E+04  0.50400001928E-02 0.  1.
        1   -1    0    0  501    0  0.00000000000E+00  0.00000000000E+00 -0.25292910857E+04  0.25292910857E+04  0.50400001928E-02 0. -1.
    10030    2    1    2    0    0  0.00000000000E+00  0.00000000000E+00 -0.12754875201E+04  0.37830946512E+04  0.35615918809E+04 0.  0.
        5    1    3    3  502    0 -0.52430655412E+03  0.19695572709E+03  0.11578080247E+04  0.12861688976E+04  0.46999998093E+01 0.  1.
       -5    1    3    3    0  502  0.52430655412E+03 -0.19695572709E+03 -0.24332955448E+04  0.24969257537E+04  0.46999998093E+01 0. -1.
</event>
<event>
 5   0  0.1370997E-07  0.3597278E+04  0.7818609E-02  0.8091116E-01
       -1   -1    0    0    0  501  0.00000000000E+00  0.00000000000E+00  0.11518066563E+04  0.11518066563E+04  0.50400001928E-02 0. -1.
        1   -1    0    0  501    0  0.00000000000E+00  0.00000000000E+00 -0.28087193271E+04  0.28087193271E+04  0.50400001928E-02 0.  1.
    10030    2    1    2    0    0  0.00000000000E+00  0.00000000000E+00 -0.16569126708E+04  0.39605259834E+04  0.35972776465E+04 0.  0.
        3    1    3    3  502    0 -0.15242843676E+04 -0.90804179675E+03 -0.11534201626E+04  0.21162137934E+04  0.10100000352E+00 0. -1.
       -3    1    3    3    0  502  0.15242843676E+04  0.90804179675E+03 -0.50349250824E+03  0.18443121899E+04  0.10100000352E+00 0.  1.
</event>
<event>
 5   0  0.4200635E-07  0.3608249E+04  0.7818609E-02  0.8088605E-01
       -2   -1    0    0    0  501  0.00000000000E+00  0.00000000000E+00  0.14114150826E+04  0.14114150826E+04  0.25500000920E-02 0. -1.
        2   -1    0    0  501    0  0.00000000000E+00  0.00000000000E+00 -0.23061004587E+04  0.23061004587E+04  0.25500000920E-02 0.  1.
    10030    2    1    2    0    0  0.00000000000E+00  0.00000000000E+00 -0.89468537613E+03  0.37175155413E+04  0.36082488658E+04 0.  0.
        4    1    3    3  502    0  0.13278741012E+04  0.12053773072E+04 -0.24471654805E+03  0.18099922329E+04  0.12699999809E+01 0. -1.
       -4    1    3    3    0  502 -0.13278741012E+04 -0.12053773072E+04 -0.64996882808E+03  0.19075233083E+04  0.12699999809E+01 0.  1.
</event>
<event>
 5   0  0.1298250E-07  0.3581449E+04  0.7818609E-02  0.8094754E-01
       -1   -1    0    0    0  501  0.00000000000E+00  0.00000000000E+00  0.19620455367E+04  0.19620455367E+04  0.50400001928E-02 0.  1.
        1   -1    0    0  501    0  0.00000000000E+00  0.00000000000E+00 -0.16343627997E+04  0.16343627997E+04  0.50400001928E-02 0. -1.
    10030    2    1    2    0    0  0.00000000000E+00  0.00000000000E+00  0.32768273704E+03  0.35964083364E+04  0.35814490009E+04 0.  0.
        1    1    3    3  502    0 -0.12644095588E+04 -0.83922915769E+03  0.11184207795E+04  0.18851796073E+04  0.50400001928E-02 0.  1.
       -1    1    3    3    0  502  0.12644095588E+04  0.83922915769E+03 -0.79073804249E+03  0.17112287292E+04  0.50400001928E-02 0. -1.
</event>
<event>
 5   0  0.4115358E-07  0.3616227E+04  0.7818609E-02  0.8086785E-01
        2   -1    0    0  501    0  0.00000000000E+00  0.00000000000E+00  0.15052773306E+04  0.15052773306E+04  0.25500000920E-02 0.  1.
       -2   -1    0    0    0  501  0.00000000000E+00  0.00000000000E+00 -0.21718757452E+04  0.21718757452E+04  0.25500000920E-02 0. -1.
    10030    2    1    2    0    0  0.00000000000E+00  0.00000000000E+00 -0.66659841459E+03  0.36771530758E+04  0.36162274951E+04 0.  0.
        3    1    3    3  502    0 -0.77393922863E+03  0.15624526271E+04 -0.81993836979E+03  0.19267950285E+04  0.10100000352E+00 0. -1.
       -3    1    3    3    0  502  0.77393922863E+03 -0.15624526271E+04  0.15333995520E+03  0.17503580473E+04  0.10100000352E+00 0.  1.
</event>
<event>
 5   0  0.4115358E-07  0.3702124E+04  0.7818609E-02  0.8067491E-01
        2   -1    0    0  501    0  0.00000000000E+00  0.00000000000E+00  0.24693747202E+04  0.24693747202E+04  0.25500000920E-02 0.  1.
       -2   -1    0    0    0  501  0.00000000000E+00  0.00000000000E+00 -0.13875702985E+04  0.13875702985E+04  0.25500000920E-02 0. -1.
    10030    2    1    2    0    0  0.00000000000E+00  0.00000000000E+00  0.10818044218E+04  0.38569450187E+04  0.37021242646E+04 0.  0.
        3    1    3    3  502    0  0.10984502774E+04  0.14267793899E+04  0.93843216596E+02  0.18030804194E+04  0.10100000352E+00 0.  1.
       -3    1    3    3    0  502 -0.10984502774E+04 -0.14267793899E+04  0.98796120518E+03  0.20538645993E+04  0.10100000352E+00 0. -1.
</event>
<event>
 5   0  0.4115358E-07  0.3604948E+04  0.7818609E-02  0.8089359E-01
       -2   -1    0    0    0  501  0.00000000000E+00  0.00000000000E+00  0.16667303984E+04  0.16667303984E+04  0.25500000920E-02 0.  1.
        2   -1    0    0  501    0  0.00000000000E+00  0.00000000000E+00 -0.19492733264E+04  0.19492733264E+04  0.25500000920E-02 0. -1.
    10030    2    1    2    0    0  0.00000000000E+00  0.00000000000E+00 -0.28254292793E+03  0.36160037248E+04  0.36049483258E+04 0.  0.
        3    1    3    3  502    0 -0.33849306778E+03 -0.17358279740E+04  0.20798707423E+03  0.17807119209E+04  0.10100000352E+00 0. -1.
       -3    1    3    3    0  502  0.33849306778E+03  0.17358279740E+04 -0.49053000216E+03  0.18352918039E+04  0.10100000352E+00 0.  1.
</event>
<event>
 5   0  0.1298250E-07  0.3573705E+04  0.7818609E-02  0.8096542E-01
        1   -1    0    0  501    0  0.00000000000E+00  0.00000000000E+00  0.24173583623E+04  0.24173583623E+04  0.50400001928E-02 0.  1.
       -1   -1    0    0    0  501  0.00000000000E+00  0.00000000000E+00 -0.13207975690E+04  0.13207975690E+04  0.50400001928E-02 0. -1.
    10030    2    1    2    0    0  0.00000000000E+00  0.00000000000E+00  0.10965607932E+04  0.37381559313E+04  0.35737045476E+04 0.  0.
        2    1    3    3  502    0  0.35322110398E+03  0.16080659888E+04 -0.17808011440E+03  0.16560054045E+04  0.25500000920E-02 0.  1.
       -2    1    3    3    0  502 -0.35322110398E+03 -0.16080659888E+04  0.12746409076E+04  0.20821505268E+04  0.25500000920E-02 0. -1.
</event>
<event>
 5   0  0.3880259E-07  0.3588856E+04  0.7818609E-02  0.8093049E-01
        2   -1    0    0  501    0  0.00000000000E+00  0.00000000000E+00  0.12012044662E+04  0.12012044662E+04  0.25500000920E-02 0. -1.
       -2   -1    0    0    0  501  0.00000000000E+00  0.00000000000E+00 -0.26806186889E+04  0.26806186889E+04  0.25500000920E-02 0.  1.
    10030    2    1    2    0    0  0.00000000000E+00  0.00000000000E+00 -0.14794142227E+04  0.38818231551E+04  0.35888556066E+04 0.  0.
        5    1    3    3  502    0 -0.14220120179E+03 -0.16449723252E+04 -0.14997754282E+04  0.22305836809E+04  0.46999998093E+01 0.  1.
       -5    1    3    3    0  502  0.14220120179E+03  0.16449723252E+04  0.20361205502E+02  0.16512394742E+04  0.46999998093E+01 0. -1.
</event>
<event>
 5   0  0.3880259E-07  0.3599266E+04  0.7818609E-02  0.8090660E-01
        2   -1    0    0  501    0  0.00000000000E+00  0.00000000000E+00  0.20014817726E+04  0.20014817726E+04  0.25500000920E-02 0.  1.
       -2   -1    0    0    0  501  0.00000000000E+00  0.00000000000E+00 -0.16181403827E+04  0.16181403827E+04  0.25500000920E-02 0. -1.
    10030    2    1    2    0    0  0.00000000000E+00  0.00000000000E+00  0.38334138994E+03  0.36196221553E+04  0.35992657482E+04 0.  0.
        5    1    3    3  502    0  0.16566877178E+04  0.67625732068E+03  0.38437446574E+03  0.18302196530E+04  0.46999998093E+01 0. -1.
       -5    1    3    3    0  502 -0.16566877178E+04 -0.67625732068E+03 -0.10330758025E+01  0.17894025023E+04  0.46999998093E+01 0.  1.
</event>
<event>
 5   0  0.4200635E-07  0.3637552E+04  0.7818609E-02  0.8081944E-01
        2   -1    0    0  501    0  0.00000000000E+00  0.00000000000E+00  0.14758969354E+04  0.14758969354E+04  0.25500000920E-02 0.  1.
       -2   -1    0    0    0  501  0.00000000000E+00  0.00000000000E+00 -0.22413119188E+04  0.22413119188E+04  0.25500000920E-02 0. -1.
    10030    2    1    2    0    0  0.00000000000E+00  0.00000000000E+00 -0.76541498344E+03  0.37172088541E+04  0.36375515898E+04 0.  0.
        4    1    3    3  502    0 -0.11166948963E+04  0.91559259576E+03 -0.15126457185E+04  0.20912713777E+04  0.12699999809E+01 0.  1.
       -4    1    3    3    0  502  0.11166948963E+04 -0.91559259576E+03  0.74723073503E+03  0.16259374764E+04  0.12699999809E+01 0. -1.
</event>
<event>
 5   0  0.4200635E-07  0.3609390E+04  0.7818609E-02  0.8088344E-01
        2   -1    0    0  501    0  0.00000000000E+00  0.00000000000E+00  0.17377967178E+04  0.17377967178E+04  0.25500000920E-02 0. -1.
       -2   -1    0    0    0  501  0.00000000000E+00  0.00000000000E+00 -0.18741682543E+04  0.18741682543E+04  0.25500000920E-02 0.  1.
    10030    2    1    2    0    0  0.00000000000E+00  0.00000000000E+00 -0.13637153654E+03  0.36119649721E+04  0.36093896663E+04 0.  0.
        4    1    3    3  502    0  0.48951322868E+03  0.45092013409E+02 -0.18058766689E+04  0.18715898715E+04  0.12699999809E+01 0.  1.
       -4    1    3    3    0  502 -0.48951322868E+03 -0.45092013409E+02  0.16695051324E+04  0.17403751006E+04  0.12699999809E+01 0. -1.
</event>
<event>
 5   0  0.1298250E-07  0.3598604E+04  0.7818609E-02  0.8090812E-01
       -1   -1    0    0    0  501  0.00000000000E+00  0.00000000000E+00  0.19891512216E+04  0.19891512216E+04  0.50400001928E-02 0. -1.
        1   -1    0    0  501    0  0.00000000000E+00  0.00000000000E+00 -0.16275724523E+04  0.16275724524E+04  0.50400001928E-02 0.  1.
    10030    2    1    2    0    0  0.00000000000E+00  0.00000000000E+00  0.36157876926E+03  0.36167236740E+04  0.35986040248E+04 0.  0.
        2    1    3    3  502    0  0.13169858191E+04  0.47982948269E+03 -0.95307550776E+03  0.16950046913E+04  0.25500000920E-02 0.  1.
       -2    1    3    3    0  502 -0.13169858191E+04 -0.47982948269E+03  0.13146542770E+04  0.19217189826E+04  0.25500000920E-02 0. -1.
</event>
<event>
 5   0  0.4115358E-07  0.3580358E+04  0.7818609E-02  0.8095006E-01
       -2   -1    0    0    0  501  0.00000000000E+00  0.00000000000E+00  0.20420143023E+04  0.20420143023E+04  0.25500000920E-02 0.  1.
        2   -1    0    0  501    0  0.00000000000E+00  0.00000000000E+00 -0.15694021446E+04  0.15694021446E+04  0.25500000920E-02 0. -1.
    10030    2    1    2    0    0  0.00000000000E+00  0.00000000000E+00  0.47261215775E+03  0.36114164469E+04  0.35803584320E+04 0.  0.
        3    1    3    3  502    0  0.36435712490E+03  0.16552463144E+04  0.81762574546E+03  0.18817832887E+04  0.10100000352E+00 0.  1.
       -3    1    3    3    0  502 -0.36435712490E+03 -0.16552463144E+04 -0.34501358771E+03  0.17296331582E+04  0.10100000352E+00 0. -1.
</event>
<event>
 5   0  0.1348226E-07  0.3177718E+04  0.7818609E-02  0.8194727E-01
        1   -1    0    0  501    0  0.00000000000E+00  0.00000000000E+00  0.21711550375E+04  0.21711550375E+04  0.50400001928E-02 0.  1.
       -1   -1    0    0    0  501  0.00000000000E+00  0.00000000000E+00 -0.11627323349E+04  0.11627323349E+04  0.50400001928E-02 0. -1.
    10030    2    1    2    0    0  0.00000000000E+00  0.00000000000E+00  0.10084227026E+04  0.33338873724E+04  0.31777175244E+04 0.  0.
        4    1    3    3  502    0  0.13481667628E+04 -0.14710260023E+03  0.13727096123E+04  0.19296440314E+04  0.12699999809E+01 0. -1.
       -4    1    3    3    0  502 -0.13481667628E+04  0.14710260023E+03 -0.36428690972E+03  0.14042433410E+04  0.12699999809E+01 0.  1.
</event>
<event>
 5   0  0.3993751E-07  0.3603700E+04  0.7818609E-02  0.8089645E-01
        2   -1    0    0  501    0  0.00000000000E+00  0.00000000000E+00  0.98850760626E+03  0.98850760627E+03  0.25500000920E-02 0. -1.
       -2   -1    0    0    0  501  0.00000000000E+00  0.00000000000E+00 -0.32844087739E+04  0.32844087739E+04  0.25500000920E-02 0.  1.
    10030    2    1    2    0    0  0.00000000000E+00  0.00000000000E+00 -0.22959011677E+04  0.42729163802E+04  0.36036997961E+04 0.  0.
        1    1    3    3  502    0  0.15298462084E+04 -0.94340997376E+02 -0.24761929994E+02  0.15329523144E+04  0.50400001928E-02 0. -1.
       -1    1    3    3    0  502 -0.15298462084E+04  0.94340997376E+02 -0.22711392377E+04  0.27399640658E+04  0.50400001928E-02 0.  1.
</event>
<event>
 5   0  0.4120440E-07  0.3602264E+04  0.7818609E-02  0.8089973E-01
        2   -1    0    0  501    0  0.00000000000E+00  0.00000000000E+00  0.16416833320E+04  0.16416833320E+04  0.25500000920E-02 0. -1.
       -2   -1    0    0    0  501  0.00000000000E+00  0.00000000000E+00 -0.19760670785E+04  0.19760670785E+04  0.25500000920E-02 0.  1.
    10030    2    1    2    0    0  0.00000000000E+00  0.00000000000E+00 -0.33438374645E+03  0.36177504105E+04  0.36022639469E+04 0.  0.
        2    1    3    3  502    0 -0.11837932897E+04  0.47013528761E+03  0.11117358581E+04  0.16906656558E+04  0.25500000920E-02 0. -1.
       -2    1    3    3    0  502  0.11837932897E+04 -0.47013528761E+03 -0.14461196045E+04  0.19270847548E+04  0.25500000920E-02 0.  1.
</event>
<event>
 5   0  0.1348226E-07  0.3580421E+04  0.7818609E-02  0.8094991E-01
        1   -1    0    0  501    0  0.00000000000E+00  0.00000000000E+00  0.28765489999E+04  0.28765489999E+04  0.50400001928E-02 0. -1.
       -1   -1    0    0    0  501  0.00000000000E+00  0.00000000000E+00 -0.11141312742E+04  0.11141312742E+04  0.50400001928E-02 0.  1.
    10030    2    1    2    0    0  0.00000000000E+00  0.00000000000E+00  0.17624177257E+04  0.39906802741E+04  0.35804207589E+04 0.  0.
        4    1    3    3  502    0 -0.13767190406E+03  0.16338917736E+03  0.28622868239E+04  0.28702503465E+04  0.12699999809E+01 0. -1.
       -4    1    3    3    0  502  0.13767190406E+03 -0.16338917736E+03 -0.10998690983E+04  0.11204299276E+04  0.12699999809E+01 0.  1.
</event>
<event>
 5   0  0.1298250E-07  0.3544782E+04  0.7818609E-02  0.8103259E-01
       -1   -1    0    0    0  501  0.00000000000E+00  0.00000000000E+00  0.13092981303E+04  0.13092981303E+04  0.50400001928E-02 0.  1.
        1   -1    0    0  501    0  0.00000000000E+00  0.00000000000E+00 -0.23992771990E+04  0.23992771990E+04  0.50400001928E-02 0. -1.
    10030    2    1    2    0    0  0.00000000000E+00  0.00000000000E+00 -0.10899790686E+04  0.37085753293E+04  0.35447816016E+04 0.  0.
        2    1    3    3  502    0  0.24670524500E+02 -0.47260607008E+03 -0.23319539749E+04  0.23794903810E+04  0.25500000920E-02 0. -1.
       -2    1    3    3    0  502 -0.24670524500E+02  0.47260607008E+03  0.12419749062E+04  0.13290849483E+04  0.25500000920E-02 0.  1.
</event>
<event>
 5   0  0.4200635E-07  0.3162176E+04  0.7818609E-02  0.8198878E-01
        2   -1    0    0  501    0  0.00000000000E+00  0.00000000000E+00  0.22419982716E+04  0.22419982716E+04  0.25500000920E-02 0. -1.
       -2   -1    0    0    0  501  0.00000000000E+00  0.00000000000E+00 -0.11150049533E+04  0.11150049533E+04  0.25500000920E-02 0.  1.
    10030    2    1    2    0    0  0.00000000000E+00  0.00000000000E+00  0.11269933183E+04  0.33570032249E+04  0.31621759458E+04 0.  0.
        4    1    3    3  502    0  0.24876469128E+03 -0.43941230536E+03  0.21540981165E+04  0.22124889501E+04  0.12699999809E+01 0. -1.
       -4    1    3    3    0  502 -0.24876469128E+03  0.43941230536E+03 -0.10271047982E+04  0.11445142748E+04  0.12699999809E+01 0.  1.
</event>
<event>
 5   0  0.4200635E-07  0.3583654E+04  0.7818609E-02  0.8094246E-01
       -2   -1    0    0    0  501  0.00000000000E+00  0.00000000000E+00  0.17676823988E+04  0.17676823988E+04  0.25500000920E-02 0.  1.
        2   -1    0    0  501    0  0.00000000000E+00  0.00000000000E+00 -0.18163011570E+04  0.18163011570E+04  0.25500000920E-02 0. -1.
    10030    2    1    2    0    0  0.00000000000E+00  0.00000000000E+00 -0.48618758224E+02  0.35839835559E+04  0.35836537702E+04 0.  0.
        4    1    3    3  502    0  0.14171930406E+04  0.62478724266E+03  0.87679893157E+03  0.17797677355E+04  0.12699999809E+01 0.  1.
       -4    1    3    3    0  502 -0.14171930406E+04 -0.62478724266E+03 -0.92541768979E+03  0.18042158204E+04  0.12699999809E+01 0. -1.
</event>
<event>
 5   0  0.1348226E-07  0.3605747E+04  0.7818609E-02  0.8089177E-01
        1   -1    0    0  501    0  0.00000000000E+00  0.00000000000E+00  0.14889267943E+04  0.14889267944E+04  0.50400001928E-02 0.  1.
       -1   -1    0    0    0  501  0.00000000000E+00  0.00000000000E+00 -0.21830168695E+04  0.21830168695E+04  0.50400001928E-02 0. -1.
    10030    2    1    2    0    0  0.00000000000E+00  0.00000000000E+00 -0.69409007515E+03  0.36719436638E+04  0.36057466963E+04 0.  0.
        4    1    3    3  502    0 -0.10244977045E+02 -0.18027409007E+04 -0.36665953897E+03  0.18396794680E+04  0.12699999809E+01 0. -1.
       -4    1    3    3    0  502  0.10244977045E+02  0.18027409007E+04 -0.32743053618E+03  0.18322641959E+04  0.12699999809E+01 0.  1.
</event>
<event>
 5   0  0.1298250E-07  0.3624809E+04  0.7818609E-02  0.8084832E-01
        1   -1    0    0  501    0  0.00000000000E+00  0.00000000000E+00  0.24415946146E+04  0.24415946146E+04  0.50400001928E-02 0. -1.
       -1   -1    0    0    0  501  0.00000000000E+00  0.00000000000E+00 -0.13453545379E+04  0.13453545379E+04  0.50400001928E-02 0.  1.
    10030    2    1    2    0    0  0.00000000000E+00  0.00000000000E+00  0.10962400767E+04  0.37869491525E+04  0.36248091782E+04 0.  0.
        2    1    3    3  502    0  0.17883036061E+04 -0.18442759602E+03  0.30813409180E+03  0.18240038224E+04  0.25500000920E-02 0. -1.
       -2    1    3    3    0  502 -0.17883036061E+04  0.18442759602E+03  0.78810598492E+03  0.19629453301E+04  0.25500000920E-02 0.  1.
</event>
<event>
 5   0  0.3880259E-07  0.3608514E+04  0.7818609E-02  0.8088544E-01
       -2   -1    0    0    0  501  0.00000000000E+00  0.00000000000E+00  0.17250094117E+04  0.17250094117E+04  0.25500000920E-02 0.  1.
        2   -1    0    0  501    0  0.00000000000E+00  0.00000000000E+00 -0.18871454644E+04  0.18871454644E+04  0.25500000920E-02 0. -1.
    10030    2    1    2    0    0  0.00000000000E+00  0.00000000000E+00 -0.16213605271E+03  0.36121548762E+04  0.36085142025E+04 0.  0.
        5    1    3    3  502    0 -0.26909972212E+03  0.51862534338E+03 -0.17898153641E+04  0.18827766821E+04  0.46999998093E+01 0. -1.
       -5    1    3    3    0  502  0.26909972212E+03 -0.51862534338E+03  0.16276793114E+04  0.17293781940E+04  0.46999998093E+01 0.  1.
</event>
<event>
 5   0  0.3880259E-07  0.3586166E+04  0.7818609E-02  0.8093668E-01
        2   -1    0    0  501    0  0.00000000000E+00  0.00000000000E+00  0.26202204462E+04  0.26202204462E+04  0.25500000920E-02 0. -1.
       -2   -1    0    0    0  501  0.00000000000E+00  0.00000000000E+00 -0.12270522535E+04  0.12270522535E+04  0.25500000920E-02 0.  1.
    10030    2    1    2    0    0  0.00000000000E+00  0.00000000000E+00  0.13931681927E+04  0.38472726996E+04  0.35861664228E+04 0.  0.
        5    1    3    3  502    0  0.13720484301E+04  0.89366792249E+03 -0.87349647233E+02  0.16397595254E+04  0.46999998093E+01 0.  1.
       -5    1    3    3    0  502 -0.13720484301E+04 -0.89366792249E+03  0.14805178400E+04  0.22075131743E+04  0.46999998093E+01 0. -1.
</event>
<event>
 5   0  0.1361743E-07  0.3615410E+04  0.7818609E-02  0.8086971E-01
        1   -1    0    0  501    0  0.00000000000E+00  0.00000000000E+00  0.19575346456E+04  0.19575346457E+04  0.50400001928E-02 0.  1.
       -1   -1    0    0    0  501  0.00000000000E+00  0.00000000000E+00 -0.16693428719E+04  0.16693428719E+04  0.50400001928E-02 0. -1.
    10030    2    1    2    0    0  0.00000000000E+00  0.00000000000E+00  0.28819177371E+03  0.36268775176E+04  0.36154095244E+04 0.  0.
        5    1    3    3  502    0 -0.89302514061E+03  0.14759060981E+04 -0.39797141611E+03  0.17703660780E+04  0.46999998093E+01 0.  1.
       -5    1    3    3    0  502  0.89302514061E+03 -0.14759060981E+04  0.68616318982E+03  0.18565114396E+04  0.46999998093E+01 0. -1.
</event>
<event>
 5   0  0.4120440E-07  0.3601743E+04  0.7818609E-02  0.8090093E-01
       -2   -1    0    0    0  501  0.00000000000E+00  0.00000000000E+00  0.18780205470E+04  0.18780205470E+04  0.25500000920E-02 0.  1.
        2   -1    0    0  501    0  0.00000000000E+00  0.00000000000E+00 -0.17268913617E+04  0.17268913617E+04  0.25500000920E-02 0. -1.
    10030    2    1    2    0    0  0.00000000000E+00  0.00000000000E+00  0.15112918527E+03  0.36049119086E+04  0.36017426114E+04 0.  0.
        2    1    3    3  502    0  0.11926806153E+04  0.76068795435E+03  0.11909976797E+04  0.18492183990E+04  0.25500000920E-02 0.  1.
       -2    1    3    3    0  502 -0.11926806153E+04 -0.76068795435E+03 -0.10398684945E+04  0.17556935097E+04  0.25500000920E-02 0. -1.
</event>
<event>
 5   0  0.1348226E-07  0.3603461E+04  0.7818609E-02  0.8089699E-01
        1   -1    0    0  501    0  0.00000000000E+00  0.00000000000E+00  0.20170575964E+04  0.20170575964E+04  0.50400001928E-02 0. -1.
       -1   -1    0    0    0  501  0.00000000000E+00  0.00000000000E+00 -0.16093900223E+04  0.16093900223E+04  0.50400001928E-02 0.  1.
    10030    2    1    2    0    0  0.00000000000E+00  0.00000000000E+00  0.40766757412E+03  0.36264476187E+04  0.36034607644E+04 0.  0.
        4    1    3    3  502    0  0.10310071555E+04 -0.14762641917E+04  0.14099317579E+03  0.18061595740E+04  0.12699999809E+01 0. -1.
       -4    1    3    3    0  502 -0.10310071555E+04  0.14762641917E+04  0.26667439833E+03  0.18202880447E+04  0.12699999809E+01 0.  1.
</event>
<event>
 5   0  0.4115358E-07  0.3618835E+04  0.7818609E-02  0.8086191E-01
        2   -1    0    0  501    0  0.00000000000E+00  0.00000000000E+00  0.16607688675E+04  0.16607688675E+04  0.25500000920E-02 0. -1.
       -2   -1    0    0    0  501  0.00000000000E+00  0.00000000000E+00 -0.19713712481E+04  0.19713712481E+04  0.25500000920E-02 0.  1.
    10030    2    1    2    0    0  0.00000000000E+00  0.00000000000E+00 -0.31060238066E+03  0.36321401156E+04  0.36188351690E+04 0.  0.
        3    1    3    3  502    0 -0.85633289455E+03 -0.99939539324E+03  0.10909947040E+04  0.17094930923E+04  0.10100000352E+00 0. -1.
       -3    1    3    3    0  502  0.85633289455E+03  0.99939539324E+03 -0.14015970846E+04  0.19226470233E+04  0.10100000352E+00 0.  1.
</event>
<event>
 5   0  0.3880259E-07  0.3598361E+04  0.7818609E-02  0.8090867E-01
        2   -1    0    0  501    0  0.00000000000E+00  0.00000000000E+00  0.31478803882E+04  0.31478803882E+04  0.25500000920E-02 0. -1.
       -2   -1    0    0    0  501  0.00000000000E+00  0.00000000000E+00 -0.10283269682E+04  0.10283269682E+04  0.25500000920E-02 0.  1.
    10030    2    1    2    0    0  0.00000000000E+00  0.00000000000E+00  0.21195534200E+04  0.41762073564E+04  0.35983609023E+04 0.  0.
        5    1    3    3  502    0  0.52666501551E+03 -0.16346083368E+04  0.43725698487E+03  0.17721558098E+04  0.46999998093E+01 0.  1.
       -5    1    3    3    0  502 -0.52666501551E+03  0.16346083368E+04  0.16822964352E+04  0.24040515467E+04  0.46999998093E+01 0. -1.
</event>
<event>
 5   0  0.4120440E-07  0.3550084E+04  0.7818609E-02  0.8102022E-01
        2   -1    0    0  501    0  0.00000000000E+00  0.00000000000E+00  0.17453189116E+04  0.17453189116E+04  0.25500000920E-02 0.  1.
       -2   -1    0    0    0  501  0.00000000000E+00  0.00000000000E+00 -0.18052709283E+04  0.18052709283E+04  0.25500000920E-02 0. -1.
    10030    2    1    2    0    0  0.00000000000E+00  0.00000000000E+00 -0.59952016698E+02  0.35505898400E+04  0.35500836564E+04 0.  0.
        2    1    3    3  502    0 -0.95793879040E+03 -0.15560817846E+03 -0.15164291071E+04  0.18003938092E+04  0.25500000920E-02 0. -1.
       -2    1    3    3    0  502  0.95793879040E+03  0.15560817846E+03  0.14564770904E+04  0.17501960308E+04  0.25500000920E-02 0.  1.
</event>
<event>
 5   0  0.1370997E-07  0.3559640E+04  0.7818609E-02  0.8099800E-01
        1   -1    0    0  501    0  0.00000000000E+00  0.00000000000E+00  0.29535362079E+04  0.29535362079E+04  0.50400001928E-02 0. -1.
       -1   -1    0    0    0  501  0.00000000000E+00  0.00000000000E+00 -0.10725308908E+04  0.10725308908E+04  0.50400001928E-02 0.  1.
    10030    2    1    2    0    0  0.00000000000E+00  0.00000000000E+00  0.18810053171E+04  0.40260670987E+04  0.35596397684E+04 0.  0.
        3    1    3    3  502    0  0.93062639781E+03  0.12211442985E+04  0.19587456900E+04  0.24887634638E+04  0.10100000352E+00 0. -1.
       -3    1    3    3    0  502 -0.93062639781E+03 -0.12211442985E+04 -0.77740372987E+02  0.15373036349E+04  0.10100000352E+00 0.  1.
</event>
<event>
 5   0  0.4120440E-07  0.3613634E+04  0.7818609E-02  0.8087376E-01
       -2   -1    0    0    0  501  0.00000000000E+00  0.00000000000E+00  0.23173455302E+04  0.23173455302E+04  0.25500000920E-02 0. -1.
        2   -1    0    0  501    0  0.00000000000E+00  0.00000000000E+00 -0.14087613740E+04  0.14087613740E+04  0.25500000920E-02 0.  1.
    10030    2    1    2    0    0  0.00000000000E+00  0.00000000000E+00  0.90858415613E+03  0.37261069042E+04  0.36136335582E+04 0.  0.
        2    1    3    3  502    0  0.50147081011E+03  0.15541517004E+04  0.12514831317E+04  0.20574427113E+04  0.25500000920E-02 0. -1.
       -2    1    3    3    0  502 -0.50147081011E+03 -0.15541517004E+04 -0.34289897560E+03  0.16686641929E+04  0.25500000920E-02 0.  1.
</event>
<event>
 5   0  0.1361743E-07  0.3605100E+04  0.7818609E-02  0.8089325E-01
        1   -1    0    0  501    0  0.00000000000E+00  0.00000000000E+00  0.19470308530E+04  0.19470308530E+04  0.50400001928E-02 0.  1.
       -1   -1    0    0    0  501  0.00000000000E+00  0.00000000000E+00 -0.16687899929E+04  0.16687899929E+04  0.50400001928E-02 0. -1.
    10030    2    1    2    0    0  0.00000000000E+00  0.00000000000E+00  0.27824086009E+03  0.36158208460E+04  0.36050995012E+04 0.  0.
        5    1    3    3  502    0  0.16573260603E+04 -0.20627052710E+03  0.81928638614E+03  0.18602498415E+04  0.46999998093E+01 0.  1.
       -5    1    3    3    0  502 -0.16573260603E+04  0.20627052710E+03 -0.54104552605E+03  0.17555710044E+04  0.46999998093E+01 0. -1.
</event>
<event>
 5   0  0.1348226E-07  0.3598232E+04  0.7818609E-02  0.8090897E-01
       -1   -1    0    0    0  501  0.00000000000E+00  0.00000000000E+00  0.22825403025E+04  0.22825403025E+04  0.50400001928E-02 0.  1.
        1   -1    0    0  501    0  0.00000000000E+00  0.00000000000E+00 -0.14180774475E+04  0.14180774475E+04  0.50400001928E-02 0. -1.
    10030    2    1    2    0    0  0.00000000000E+00  0.00000000000E+00  0.86446285495E+03  0.37006177500E+04  0.35982323026E+04 0.  0.
        4    1    3    3  502    0 -0.44684674654E+03  0.13204707576E+04 -0.73745278511E+03  0.15770711017E+04  0.12699999809E+01 0. -1.
       -4    1    3    3    0  502  0.44684674654E+03 -0.13204707576E+04  0.16019156401E+04  0.21235466483E+04  0.12699999809E+01 0.  1.
</event>
<event>
 5   0  0.4115358E-07  0.3547839E+04  0.7818609E-02  0.8102545E-01
        2   -1    0    0  501    0  0.00000000000E+00  0.00000000000E+00  0.10240048602E+04  0.10240048602E+04  0.25500000920E-02 0. -1.
       -2   -1    0    0    0  501  0.00000000000E+00  0.00000000000E+00 -0.30730232331E+04  0.30730232331E+04  0.25500000920E-02 0.  1.
    10030    2    1    2    0    0  0.00000000000E+00  0.00000000000E+00 -0.20490183729E+04  0.40970280933E+04  0.35478391882E+04 0.  0.
        3    1    3    3  502    0  0.51667806663E+03  0.16775227775E+04 -0.72839520562E+03  0.19004206059E+04  0.10100000352E+00 0.  1.
       -3    1    3    3    0  502 -0.51667806663E+03 -0.16775227775E+04 -0.13206231672E+04  0.21966074874E+04  0.10100000352E+00 0. -1.
</event>
<event>
 5   0  0.1370997E-07  0.3557063E+04  0.7818609E-02  0.8100398E-01
       -1   -1    0    0    0  501  0.00000000000E+00  0.00000000000E+00  0.15627911286E+04  0.15627911286E+04  0.50400001928E-02 0.  1.
        1   -1    0    0  501    0  0.00000000000E+00  0.00000000000E+00 -0.20240543441E+04  0.20240543441E+04  0.50400001928E-02 0. -1.
    10030    2    1    2    0    0  0.00000000000E+00  0.00000000000E+00 -0.46126321548E+03  0.35868454726E+04  0.35570629304E+04 0.  0.
        3    1    3    3  502    0  0.31802683351E+03 -0.16445990965E+04  0.37214165313E+03  0.17159069541E+04  0.10100000352E+00 0.  1.
       -3    1    3    3    0  502 -0.31802683351E+03  0.16445990965E+04 -0.83340486860E+03  0.18709385185E+04  0.10100000352E+00 0. -1.
</event>
<event>
 5   0  0.1298250E-07  0.3567427E+04  0.7818609E-02  0.8097994E-01
       -1   -1    0    0    0  501  0.00000000000E+00  0.00000000000E+00  0.16535066833E+04  0.16535066833E+04  0.50400001928E-02 0. -1.
        1   -1    0    0  501    0  0.00000000000E+00  0.00000000000E+00 -0.19241737517E+04  0.19241737517E+04  0.50400001928E-02 0.  1.
    10030    2    1    2    0    0  0.00000000000E+00  0.00000000000E+00 -0.27066706842E+03  0.35776804350E+04  0.35674271728E+04 0.  0.
        2    1    3    3  502    0  0.80097866946E+03  0.15937548226E+04 -0.13893479966E+03  0.17891126689E+04  0.25500000920E-02 0.  1.
       -2    1    3    3    0  502 -0.80097866946E+03 -0.15937548226E+04 -0.13173226876E+03  0.17885677661E+04  0.25500000920E-02 0. -1.
</event>
<event>
 5   0  0.1298250E-07  0.3715294E+04  0.7818609E-02  0.8064581E-01
        1   -1    0    0  501    0  0.00000000000E+00  0.00000000000E+00  0.30411717286E+04  0.30411717286E+04  0.50400001928E-02 0.  1.
       -1   -1    0    0    0  501  0.00000000000E+00  0.00000000000E+00 -0.11347115388E+04  0.11347115388E+04  0.50400001928E-02 0. -1.
    10030    2    1    2    0    0  0.00000000000E+00  0.00000000000E+00  0.19064601898E+04  0.41758832674E+04  0.37152941482E+04 0.  0.
        2    1    3    3  502    0  0.13402999885E+04 -0.38998548089E+03 -0.42443019539E+03  0.14589837988E+04  0.25500000920E-02 0. -1.
       -2    1    3    3    0  502 -0.13402999885E+04  0.38998548089E+03  0.23308903852E+04  0.27168994686E+04  0.25500000920E-02 0.  1.
</event>
<event>
 5   0  0.4200635E-07  0.3672507E+04  0.7818609E-02  0.8074082E-01
        2   -1    0    0  501    0  0.00000000000E+00  0.00000000000E+00  0.23804627373E+04  0.23804627373E+04  0.25500000920E-02 0.  1.
       -2   -1    0    0    0  501  0.00000000000E+00  0.00000000000E+00 -0.14164588881E+04  0.14164588881E+04  0.25500000920E-02 0. -1.
    10030    2    1    2    0    0  0.00000000000E+00  0.00000000000E+00  0.96400384924E+03  0.37969216254E+04  0.36725073735E+04 0.  0.
        4    1    3    3  502    0  0.10993256276E+04  0.11589318767E+04  0.14183237522E+04  0.21361844043E+04  0.12699999809E+01 0. -1.
       -4    1    3    3    0  502 -0.10993256276E+04 -0.11589318767E+04 -0.45431990295E+03  0.16607372211E+04  0.12699999809E+01 0.  1.
</event>
<event>
 5   0  0.1298250E-07  0.3662485E+04  0.7818609E-02  0.8076327E-01
        1   -1    0    0  501    0  0.00000000000E+00  0.00000000000E+00  0.17361380105E+04  0.17361380105E+04  0.50400001928E-02 0. -1.
       -1   -1    0    0    0  501  0.00000000000E+00  0.00000000000E+00 -0.19315569463E+04  0.19315569463E+04  0.50400001928E-02 0.  1.
    10030    2    1    2    0    0  0.00000000000E+00  0.00000000000E+00 -0.19541893572E+03  0.36676949568E+04  0.36624851857E+04 0.  0.
        1    1    3    3  502    0 -0.12489233682E+04  0.11358147057E+04  0.61292295317E+03  0.17959841792E+04  0.50400001928E-02 0. -1.
       -1    1    3    3    0  502  0.12489233682E+04 -0.11358147057E+04 -0.80834188889E+03  0.18717107776E+04  0.50400001928E-02 0.  1.
</event>
<event>
 5   0  0.1298250E-07  0.3621753E+04  0.7818609E-02  0.8085527E-01
       -1   -1    0    0    0  501  0.00000000000E+00  0.00000000000E+00  0.24291294456E+04  0.24291294456E+04  0.50400001928E-02 0. -1.
        1   -1    0    0  501    0  0.00000000000E+00  0.00000000000E+00 -0.13499787155E+04  0.13499787155E+04  0.50400001928E-02 0.  1.
    10030    2    1    2    0    0  0.00000000000E+00  0.00000000000E+00  0.10791507301E+04  0.37791081611E+04  0.36217526413E+04 0.  0.
        1    1    3    3  502    0  0.55334406495E+03  0.16863040260E+04  0.16413418634E+03  0.17823442298E+04  0.50400001928E-02 0. -1.
       -1    1    3    3    0  502 -0.55334406495E+03 -0.16863040260E+04  0.91501654374E+03  0.19967639314E+04  0.50400001928E-02 0.  1.
</event>
<event>
 5   0  0.3880259E-07  0.3570206E+04  0.7818609E-02  0.8097351E-01
        2   -1    0    0  501    0  0.00000000000E+00  0.00000000000E+00  0.26321662295E+04  0.26321662295E+04  0.25500000920E-02 0. -1.
       -2   -1    0    0    0  501  0.00000000000E+00  0.00000000000E+00 -0.12106352662E+04  0.12106352662E+04  0.25500000920E-02 0.  1.
    10030    2    1    2    0    0  0.00000000000E+00  0.00000000000E+00  0.14215309632E+04  0.38428014957E+04  0.35702063044E+04 0.  0.
        5    1    3    3  502    0 -0.17582345211E+04 -0.30194846097E+03  0.64260872127E+03  0.18961881665E+04  0.46999998093E+01 0. -1.
       -5    1    3    3    0  502  0.17582345211E+04  0.30194846097E+03  0.77892224196E+03  0.19466133292E+04  0.46999998093E+01 0.  1.
</event>
<event>
 5   0  0.3993751E-07  0.3531354E+04  0.7818609E-02  0.8106399E-01
        2   -1    0    0  501    0  0.00000000000E+00  0.00000000000E+00  0.12995039766E+04  0.12995039766E+04  0.25500000920E-02 0. -1.
       -2   -1    0    0    0  501  0.00000000000E+00  0.00000000000E+00 -0.23990814973E+04  0.23990814973E+04  0.25500000920E-02 0.  1.
    10030    2    1    2    0    0  0.00000000000E+00  0.00000000000E+00 -0.10995775208E+04  0.36985854739E+04  0.35313543837E+04 0.  0.
        1    1    3    3  502    0 -0.23648182866E+03  0.70402634921E+03 -0.22275339388E+04  0.23480809620E+04  0.50400001928E-02 0.  1.
       -1    1    3    3    0  502  0.23648182866E+03 -0.70402634921E+03  0.11279564180E+04  0.13505045119E+04  0.50400001928E-02 0. -1.
</event>
<event>
 5   0  0.3993751E-07  0.3613115E+04  0.7818609E-02  0.8087494E-01
       -2   -1    0    0    0  501  0.00000000000E+00  0.00000000000E+00  0.15490361395E+04  0.15490361395E+04  0.25500000920E-02 0. -1.
        2   -1    0    0  501    0  0.00000000000E+00  0.00000000000E+00 -0.21068906863E+04  0.21068906863E+04  0.25500000920E-02 0.  1.
    10030    2    1    2    0    0  0.00000000000E+00  0.00000000000E+00 -0.55785454682E+03  0.36559268258E+04  0.36131148972E+04 0.  0.
        1    1    3    3  502    0  0.10600267063E+04 -0.80565475726E+03 -0.15144250318E+04  0.20164868913E+04  0.50400001928E-02 0.  1.
       -1    1    3    3    0  502 -0.10600267063E+04  0.80565475726E+03  0.95657048503E+03  0.16394399345E+04  0.50400001928E-02 0. -1.
</event>
<event>
 5   0  0.1370997E-07  0.3493118E+04  0.7818609E-02  0.8115423E-01
        1   -1    0    0  501    0  0.00000000000E+00  0.00000000000E+00  0.24369968049E+04  0.24369968049E+04  0.50400001928E-02 0.  1.
       -1   -1    0    0    0  501  0.00000000000E+00  0.00000000000E+00 -0.12517328669E+04  0.12517328669E+04  0.50400001928E-02 0. -1.
    10030    2    1    2    0    0  0.00000000000E+00  0.00000000000E+00  0.11852639380E+04  0.36887296719E+04  0.34931183761E+04 0.  0.
        3    1    3    3  502    0  0.85379261257E+03  0.86666620196E+03  0.19159622013E+04  0.22695777797E+04  0.10100000352E+00 0.  1.
       -3    1    3    3    0  502 -0.85379261257E+03 -0.86666620196E+03 -0.73069826330E+03  0.14191518922E+04  0.10100000352E+00 0. -1.
</event>
<event>
 5   0  0.3880259E-07  0.3758015E+04  0.7818609E-02  0.8055225E-01
        2   -1    0    0  501    0  0.00000000000E+00  0.00000000000E+00  0.13626878928E+04  0.13626878928E+04  0.25500000920E-02 0. -1.
       -2   -1    0    0    0  501  0.00000000000E+00  0.00000000000E+00 -0.25909595622E+04  0.25909595622E+04  0.25500000920E-02 0.  1.
    10030    2    1    2    0    0  0.00000000000E+00  0.00000000000E+00 -0.12282716694E+04  0.39536474550E+04  0.37580150219E+04 0.  0.
        5    1    3    3  502    0  0.14273272667E+04 -0.70689737406E+03 -0.16628635079E+04  0.23026298356E+04  0.46999998093E+01 0.  1.
       -5    1    3    3    0  502 -0.14273272667E+04  0.70689737406E+03  0.43459183846E+03  0.16510176195E+04  0.46999998093E+01 0. -1.
</event>
<event>
 5   0  0.4120440E-07  0.3587774E+04  0.7818609E-02  0.8093298E-01
       -2   -1    0    0    0  501  0.00000000000E+00  0.00000000000E+00  0.22230616799E+04  0.22230616799E+04  0.25500000920E-02 0.  1.
        2   -1    0    0  501    0  0.00000000000E+00  0.00000000000E+00 -0.14475665710E+04  0.14475665710E+04  0.25500000920E-02 0. -1.
    10030    2    1    2    0    0  0.00000000000E+00  0.00000000000E+00  0.77549510896E+03  0.36706282509E+04  0.35877735564E+04 0.  0.
        2    1    3    3  502    0 -0.11074814381E+04 -0.76466741234E+03  0.16012238830E+04  0.20916857581E+04  0.25500000920E-02 0.  1.
       -2    1    3    3    0  502  0.11074814381E+04  0.76466741234E+03 -0.82572877404E+03  0.15789424928E+04  0.25500000920E-02 0. -1.
</event>
<event>
 5   0  0.1361743E-07  0.3582474E+04  0.7818609E-02  0.8094518E-01
        1   -1    0    0  501    0  0.00000000000E+00  0.00000000000E+00  0.19210144193E+04  0.19210144193E+04  0.50400001928E-02 0.  1.
       -1   -1    0    0    0  501  0.00000000000E+00  0.00000000000E+00 -0.16702269086E+04  0.16702269086E+04  0.50400001928E-02 0. -1.
    10030    2    1    2    0    0  0.00000000000E+00  0.00000000000E+00  0.25078751076E+03  0.35912413279E+04  0.35824739915E+04 0.  0.
        5    1    3    3  502    0 -0.10922009567E+04 -0.23787157434E+03 -0.12776822848E+04  0.16976395161E+04  0.46999998093E+01 0. -1.
       -5    1    3    3    0  502  0.10922009567E+04  0.23787157434E+03  0.15284697955E+04  0.18936018118E+04  0.46999998093E+01 0.  1.
</event>
<event>
 5   0  0.3993751E-07  0.3622254E+04  0.7818609E-02  0.8085413E-01
       -2   -1    0    0    0  501  0.00000000000E+00  0.00000000000E+00  0.15738685524E+04  0.15738685524E+04  0.25500000920E-02 0.  1.
        2   -1    0    0  501    0  0.00000000000E+00  0.00000000000E+00 -0.20841523590E+04  0.20841523590E+04  0.25500000920E-02 0. -1.
    10030    2    1    2    0    0  0.00000000000E+00  0.00000000000E+00 -0.51028380666E+03  0.36580209114E+04  0.36222544672E+04 0.  0.
        1    1    3    3  502    0  0.14934756161E+04  0.97993623771E+03  0.46871929531E+02  0.17868803608E+04  0.50400001928E-02 0.  1.
       -1    1    3    3    0  502 -0.14934756161E+04 -0.97993623771E+03 -0.55715573619E+03  0.18711405507E+04  0.50400001928E-02 0. -1.
</event>
<event>
 5   0  0.4200635E-07  0.3598885E+04  0.7818609E-02  0.8090747E-01
       -2   -1    0    0    0  501  0.00000000000E+00  0.00000000000E+00  0.17316285979E+04  0.17316285979E+04  0.25500000920E-02 0. -1.
        2   -1    0    0  501    0  0.00000000000E+00  0.00000000000E+00 -0.18699123778E+04  0.18699123778E+04  0.25500000920E-02 0.  1.
    10030    2    1    2    0    0  0.00000000000E+00  0.00000000000E+00 -0.13828377988E+03  0.36015409757E+04  0.35988852435E+04 0.  0.
        4    1    3    3  502    0 -0.20938658510E+03 -0.10813424464E+04 -0.14931634523E+04  0.18554468293E+04  0.12699999809E+01 0.  1.
       -4    1    3    3    0  502  0.20938658510E+03  0.10813424464E+04  0.13548796724E+04  0.17460941463E+04  0.12699999809E+01 0. -1.
</event>
<event>
 5   0  0.3993751E-07  0.3609301E+04  0.7818609E-02  0.8088364E-01
       -2   -1    0    0    0  501  0.00000000000E+00  0.00000000000E+00  0.27696183669E+04  0.27696183669E+04  0.25500000920E-02 0.  1.
        2   -1    0    0  501    0  0.00000000000E+00  0.00000000000E+00 -0.11758891810E+04  0.11758891810E+04  0.25500000920E-02 0. -1.
    10030    2    1    2    0    0  0.00000000000E+00  0.00000000000E+00  0.15937291859E+04  0.39455075478E+04  0.36093014687E+04 0.  0.
        1    1    3    3  502    0 -0.12039983263E+04 -0.23569511906E+03  0.22436269575E+04  0.25571519477E+04  0.50400001928E-02 0.  1.
       -1    1    3    3    0  502  0.12039983263E+04  0.23569511906E+03 -0.64989777167E+03  0.13883556002E+04  0.50400001928E-02 0. -1.
</event>
<event>
 5   0  0.4120440E-07  0.3595011E+04  0.7818609E-02  0.8091635E-01
        2   -1    0    0  501    0  0.00000000000E+00  0.00000000000E+00  0.18132249386E+04  0.18132249386E+04  0.25500000920E-02 0. -1.
       -2   -1    0    0    0  501  0.00000000000E+00  0.00000000000E+00 -0.17819223829E+04  0.17819223829E+04  0.25500000920E-02 0.  1.
    10030    2    1    2    0    0  0.00000000000E+00  0.00000000000E+00  0.31302555682E+02  0.35951473215E+04  0.35950110450E+04 0.  0.
        2    1    3    3  502    0 -0.14280901020E+04 -0.10315614980E+04 -0.34138556036E+03  0.17944649799E+04  0.25500000920E-02 0.  1.
       -2    1    3    3    0  502  0.14280901020E+04  0.10315614980E+04  0.37268811604E+03  0.18006823416E+04  0.25500000920E-02 0. -1.
</event>
<event>
 5   0  0.1298250E-07  0.3584574E+04  0.7818609E-02  0.8094034E-01
        1   -1    0    0  501    0  0.00000000000E+00  0.00000000000E+00  0.25685110540E+04  0.25685110540E+04  0.50400001928E-02 0. -1.
       -1   -1    0    0    0  501  0.00000000000E+00  0.00000000000E+00 -0.12506436470E+04  0.12506436470E+04  0.50400001928E-02 0.  1.
    10030    2    1    2    0    0  0.00000000000E+00  0.00000000000E+00  0.13178674070E+04  0.38191547011E+04  0.35845736327E+04 0.  0.
        2    1    3    3  502    0  0.31603236235E+03  0.13493849886E+04  0.18697818534E+04  0.23274020883E+04  0.25500000920E-02 0. -1.
       -2    1    3    3    0  502 -0.31603236235E+03 -0.13493849886E+04 -0.55191444644E+03  0.14917526127E+04  0.25500000920E-02 0.  1.
</event>
<event>
 5   0  0.1298250E-07  0.3579819E+04  0.7818609E-02  0.8095130E-01
       -1   -1    0    0    0  501  0.00000000000E+00  0.00000000000E+00  0.21288650186E+04  0.21288650186E+04  0.50400001928E-02 0.  1.
        1   -1    0    0  501    0  0.00000000000E+00  0.00000000000E+00 -0.15049221160E+04  0.15049221160E+04  0.50400001928E-02 0. -1.
    10030    2    1    2    0    0  0.00000000000E+00  0.00000000000E+00  0.62394290258E+03  0.36337871347E+04  0.35798190170E+04 0.  0.
        2    1    3    3  502    0  0.36626054428E+03  0.11907521319E+04  0.16165465187E+04  0.20408968796E+04  0.25500000920E-02 0.  1.
       -2    1    3    3    0  502 -0.36626054428E+03 -0.11907521319E+04 -0.99260361615E+03  0.15928902551E+04  0.25500000920E-02 0. -1.
</event>
<event>
 5   0  0.3993751E-07  0.3583231E+04  0.7818609E-02  0.8094344E-01
       -2   -1    0    0    0  501  0.00000000000E+00  0.00000000000E+00  0.24427331047E+04  0.24427331047E+04  0.25500000920E-02 0.  1.
        2   -1    0    0  501    0  0.00000000000E+00  0.00000000000E+00 -0.13140554796E+04  0.13140554796E+04  0.25500000920E-02 0. -1.
    10030    2    1    2    0    0  0.00000000000E+00  0.00000000000E+00  0.11286776251E+04  0.37567885844E+04  0.35832314028E+04 0.  0.
        1    1    3    3  502    0  0.11140472015E+04 -0.14023569671E+04  0.51538020879E+03  0.18636853248E+04  0.50400001928E-02 0.  1.
       -1    1    3    3    0  502 -0.11140472015E+04  0.14023569671E+04  0.61329741631E+03  0.18931032595E+04  0.50400001928E-02 0. -1.
</event>
<event>
 5   0  0.1298250E-07  0.3603745E+04  0.7818609E-02  0.8089634E-01
        1   -1    0    0  501    0  0.00000000000E+00  0.00000000000E+00  0.14471393389E+04  0.14471393390E+04  0.50400001928E-02 0.  1.
       -1   -1    0    0    0  501  0.00000000000E+00  0.00000000000E+00 -0.22435605322E+04  0.22435605322E+04  0.50400001928E-02 0. -1.
    10030    2    1    2    0    0  0.00000000000E+00  0.00000000000E+00 -0.79642119327E+03  0.36906998712E+04  0.36037451106E+04 0.  0.
        1    1    3    3  502    0  0.17031348378E+04  0.33931997513E+03  0.93945336380E+02  0.17391469310E+04  0.50400001928E-02 0. -1.
       -1    1    3    3    0  502 -0.17031348378E+04 -0.33931997513E+03 -0.89036652965E+03  0.19515529402E+04  0.50400001928E-02 0.  1.
</event>
<event>
 5   0  0.1361743E-07  0.3605897E+04  0.7818609E-02  0.8089142E-01
        1   -1    0    0  501    0  0.00000000000E+00  0.00000000000E+00  0.25435620295E+04  0.25435620295E+04  0.50400001928E-02 0.  1.
       -1   -1    0    0    0  501  0.00000000000E+00  0.00000000000E+00 -0.12779810633E+04  0.12779810634E+04  0.50400001928E-02 0. -1.
    10030    2    1    2    0    0  0.00000000000E+00  0.00000000000E+00  0.12655809661E+04  0.38215430928E+04  0.36058974512E+04 0.  0.
        5    1    3    3  502    0 -0.17580804016E+02 -0.45271626058E+03 -0.12166627279E+04  0.12982878652E+04  0.46999998093E+01 0. -1.
       -5    1    3    3    0  502  0.17580804016E+02  0.45271626058E+03  0.24822436940E+04  0.25232552277E+04  0.46999998093E+01 0.  1.
</event>
<event>
 5   0  0.3993751E-07  0.3589929E+04  0.7818609E-02  0.8092802E-01
        2   -1    0    0  501    0  0.00000000000E+00  0.00000000000E+00  0.25260716179E+04  0.25260716179E+04  0.25500000920E-02 0. -1.
       -2   -1    0    0    0  501  0.00000000000E+00  0.00000000000E+00 -0.12754577884E+04  0.12754577884E+04  0.25500000920E-02 0.  1.
    10030    2    1    2    0    0  0.00000000000E+00  0.00000000000E+00  0.12506138295E+04  0.38015294063E+04  0.35899290907E+04 0.  0.
        1    1    3    3  502    0  0.41780255224E+03  0.42358702853E+03 -0.11680034279E+04  0.13108077475E+04  0.50400001928E-02 0.  1.
       -1    1    3    3    0  502 -0.41780255224E+03 -0.42358702853E+03  0.24186172574E+04  0.24907216588E+04  0.50400001928E-02 0. -1.
</event>
<event>
 5   0  0.1348226E-07  0.3602342E+04  0.7818609E-02  0.8089956E-01
       -1   -1    0    0    0  501  0.00000000000E+00  0.00000000000E+00  0.27134442844E+04  0.27134442844E+04  0.50400001928E-02 0.  1.
        1   -1    0    0  501    0  0.00000000000E+00  0.00000000000E+00 -0.11956082049E+04  0.11956082049E+04  0.50400001928E-02 0. -1.
    10030    2    1    2    0    0  0.00000000000E+00  0.00000000000E+00  0.15178360796E+04  0.39090524893E+04  0.36023415996E+04 0.  0.
        4    1    3    3  502    0  0.16247954826E+04 -0.19604849820E+03  0.15751723228E+04  0.22714675506E+04  0.12699999809E+01 0.  1.
       -4    1    3    3    0  502 -0.16247954826E+04  0.19604849820E+03 -0.57336243223E+02  0.16375849388E+04  0.12699999809E+01 0. -1.
</event>
<event>
 5   0  0.4120440E-07  0.3621227E+04  0.7818609E-02  0.8085647E-01
        2   -1    0    0  501    0  0.00000000000E+00  0.00000000000E+00  0.23790960680E+04  0.23790960680E+04  0.25500000920E-02 0. -1.
       -2   -1    0    0    0  501  0.00000000000E+00  0.00000000000E+00 -0.13779695180E+04  0.13779695180E+04  0.25500000920E-02 0.  1.
    10030    2    1    2    0    0  0.00000000000E+00  0.00000000000E+00  0.10011265500E+04  0.37570655860E+04  0.36212273401E+04 0.  0.
        2    1    3    3  502    0  0.38440942254E+03 -0.18706568340E+03 -0.13248551794E+04  0.13921226312E+04  0.25500000920E-02 0.  1.
       -2    1    3    3    0  502 -0.38440942254E+03  0.18706568340E+03  0.23259817294E+04  0.23649429548E+04  0.25500000920E-02 0. -1.
</event>
<event>
 5   0  0.1348226E-07  0.3579229E+04  0.7818609E-02  0.8095266E-01
        1   -1    0    0  501    0  0.00000000000E+00  0.00000000000E+00  0.15710134750E+04  0.15710134750E+04  0.50400001928E-02 0. -1.
       -1   -1    0    0    0  501  0.00000000000E+00  0.00000000000E+00 -0.20386330065E+04  0.20386330065E+04  0.50400001928E-02 0.  1.
    10030    2    1    2    0    0  0.00000000000E+00  0.00000000000E+00 -0.46761953146E+03  0.36096464815E+04  0.35792289247E+04 0.  0.
        4    1    3    3  502    0 -0.59891054568E+03  0.65116345029E+03 -0.18026684673E+04  0.20080644653E+04  0.12699999809E+01 0.  1.
       -4    1    3    3    0  502  0.59891054568E+03 -0.65116345029E+03  0.13350489359E+04  0.16015820162E+04  0.12699999809E+01 0. -1.
</event>
<event>
 5   0  0.1298250E-07  0.3479757E+04  0.7818609E-02  0.8118604E-01
        1   -1    0    0  501    0  0.00000000000E+00  0.00000000000E+00  0.24881120592E+04  0.24881120592E+04  0.50400001928E-02 0.  1.
       -1   -1    0    0    0  501  0.00000000000E+00  0.00000000000E+00 -0.12166564280E+04  0.12166564280E+04  0.50400001928E-02 0. -1.
    10030    2    1    2    0    0  0.00000000000E+00  0.00000000000E+00  0.12714556312E+04  0.37047684872E+04  0.34797571929E+04 0.  0.
        1    1    3    3  502    0 -0.72337367753E+03  0.12072474134E+04 -0.45338735904E+03  0.14786060638E+04  0.50400001928E-02 0. -1.
       -1    1    3    3    0  502  0.72337367753E+03 -0.12072474134E+04  0.17248429902E+04  0.22261624234E+04  0.50400001928E-02 0.  1.
</event>
<event>
 5   0  0.3880259E-07  0.3570860E+04  0.7818609E-02  0.8097199E-01
       -2   -1    0    0    0  501  0.00000000000E+00  0.00000000000E+00  0.17592040566E+04  0.17592040566E+04  0.25500000920E-02 0. -1.
        2   -1    0    0  501    0  0.00000000000E+00  0.00000000000E+00 -0.18120472888E+04  0.18120472888E+04  0.25500000920E-02 0.  1.
    10030    2    1    2    0    0  0.00000000000E+00  0.00000000000E+00 -0.52843232142E+02  0.35712513454E+04  0.35708603676E+04 0.  0.
        5    1    3    3  502    0  0.63169749847E+03  0.84606134154E+03 -0.14663283063E+04  0.18069317405E+04  0.46999998093E+01 0.  1.
       -5    1    3    3    0  502 -0.63169749847E+03 -0.84606134154E+03  0.14134850741E+04  0.17643196048E+04  0.46999998093E+01 0. -1.
</event>
<event>
 5   0  0.1370997E-07  0.3581550E+04  0.7818609E-02  0.8094731E-01
       -1   -1    0    0    0  501  0.00000000000E+00  0.00000000000E+00  0.21899258407E+04  0.21899258407E+04  0.50400001928E-02 0.  1.
        1   -1    0    0  501    0  0.00000000000E+00  0.00000000000E+00 -0.14643761598E+04  0.14643761598E+04  0.50400001928E-02 0. -1.
    10030    2    1    2    0    0  0.00000000000E+00  0.00000000000E+00  0.72554968096E+03  0.36543020005E+04  0.35815500515E+04 0.  0.
        3    1    3    3  502    0 -0.17708340399E+04  0.26305027042E+03  0.40638102908E+03  0.18358088660E+04  0.10100000352E+00 0. -1.
       -3    1    3    3    0  502  0.17708340399E+04 -0.26305027042E+03  0.31916865188E+03  0.18184931345E+04  0.10100000352E+00 0.  1.
</event>
<event>
 5   0  0.1361743E-07  0.3630206E+04  0.7818609E-02  0.8083607E-01
       -1   -1    0    0    0  501  0.00000000000E+00  0.00000000000E+00  0.14102886770E+04  0.14102886770E+04  0.50400001928E-02 0.  1.
        1   -1    0    0  501    0  0.00000000000E+00  0.00000000000E+00 -0.23361168676E+04  0.23361168676E+04  0.50400001928E-02 0. -1.
    10030    2    1    2    0    0  0.00000000000E+00  0.00000000000E+00 -0.92582819060E+03  0.37464055446E+04  0.36302061465E+04 0.  0.
        5    1    3    3  502    0  0.15797425181E+03 -0.13637587043E+04 -0.16882628038E+04  0.21760163263E+04  0.46999998093E+01 0. -1.
       -5    1    3    3    0  502 -0.15797425181E+03  0.13637587043E+04  0.76243461319E+03  0.15703892183E+04  0.46999998093E+01 0.  1.
</event>
<event>
 5   0  0.4120440E-07  0.3602282E+04  0.7818609E-02  0.8089969E-01
       -2   -1    0    0    0  501  0.00000000000E+00  0.00000000000E+00  0.23197376463E+04  0.23197376463E+04  0.25500000920E-02 0.  1.
        2   -1    0    0  501    0  0.00000000000E+00  0.00000000000E+00 -0.13984810540E+04  0.13984810540E+04  0.25500000920E-02 0. -1.
    10030    2    1    2    0    0  0.00000000000E+00  0.00000000000E+00  0.92125659228E+03  0.37182187003E+04  0.36022821370E+04 0.  0.
        2    1    3    3  502    0 -0.16573127473E+04 -0.41578248906E+03 -0.12739837954E+03  0.17134150016E+04  0.25500000920E-02 0.  1.
       -2    1    3    3    0  502  0.16573127473E+04  0.41578248906E+03  0.10486549718E+04  0.20048036987E+04  0.25500000920E-02 0. -1.
</event>
<event>
 5   0  0.4200635E-07  0.3597601E+04  0.7818609E-02  0.8091042E-01
       -2   -1    0    0    0  501  0.00000000000E+00  0.00000000000E+00  0.16408527089E+04  0.16408527089E+04  0.25500000920E-02 0. -1.
        2   -1    0    0  501    0  0.00000000000E+00  0.00000000000E+00 -0.19719517353E+04  0.19719517353E+04  0.25500000920E-02 0.  1.
    10030    2    1    2    0    0  0.00000000000E+00  0.00000000000E+00 -0.33109902642E+03  0.36128044442E+04  0.35976005040E+04 0.  0.
        4    1    3    3  502    0 -0.17239654381E+04  0.51311404169E+03 -0.14709025532E+03  0.18047105052E+04  0.12699999809E+01 0.  1.
       -4    1    3    3    0  502  0.17239654381E+04 -0.51311404169E+03 -0.18400877111E+03  0.18080939390E+04  0.12699999809E+01 0. -1.
</event>
<event>
 5   0  0.1370997E-07  0.3528082E+04  0.7818609E-02  0.8107167E-01
       -1   -1    0    0    0  501  0.00000000000E+00  0.00000000000E+00  0.16105405250E+04  0.16105405250E+04  0.50400001928E-02 0.  1.
        1   -1    0    0  501    0  0.00000000000E+00  0.00000000000E+00 -0.19321712207E+04  0.19321712207E+04  0.50400001928E-02 0. -1.
    10030    2    1    2    0    0  0.00000000000E+00  0.00000000000E+00 -0.32163069563E+03  0.35427117457E+04  0.35280816613E+04 0.  0.
        3    1    3    3  502    0  0.24847761267E+03 -0.25257126580E+03  0.15744439928E+04  0.16138176059E+04  0.10100000352E+00 0.  1.
       -3    1    3    3    0  502 -0.24847761267E+03  0.25257126580E+03 -0.18960746884E+04  0.19288941398E+04  0.10100000352E+00 0. -1.
</event>
<event>
 5   0  0.4120440E-07  0.3616092E+04  0.7818609E-02  0.8086816E-01
        2   -1    0    0  501    0  0.00000000000E+00  0.00000000000E+00  0.25100168386E+04  0.25100168386E+04  0.25500000920E-02 0. -1.
       -2   -1    0    0    0  501  0.00000000000E+00  0.00000000000E+00 -0.13023937292E+04  0.13023937292E+04  0.25500000920E-02 0.  1.
    10030    2    1    2    0    0  0.00000000000E+00  0.00000000000E+00  0.12076231094E+04  0.38124105678E+04  0.36160919185E+04 0.  0.
        2    1    3    3  502    0  0.17107827415E+03 -0.75056776194E+03 -0.11209797804E+04  0.13598585990E+04  0.25500000920E-02 0.  1.
       -2    1    3    3    0  502 -0.17107827415E+03  0.75056776194E+03  0.23286028898E+04  0.24525519688E+04  0.25500000920E-02 0. -1.
</event>
<event>
 5   0  0.4200635E-07  0.3596752E+04  0.7818609E-02  0.8091236E-01
        2   -1    0    0  501    0  0.00000000000E+00  0.00000000000E+00  0.29757567380E+04  0.29757567380E+04  0.25500000920E-02 0.  1.
       -2   -1    0    0    0  501  0.00000000000E+00  0.00000000000E+00 -0.10868351410E+04  0.10868351410E+04  0.25500000920E-02 0. -1.
    10030    2    1    2    0    0  0.00000000000E+00  0.00000000000E+00  0.18889215970E+04  0.40625918789E+04  0.35967524206E+04 0.  0.
        4    1    3    3  502    0  0.11608334319E+04  0.13700680888E+04  0.10547525160E+04  0.20825766030E+04  0.12699999809E+01 0. -1.
       -4    1    3    3    0  502 -0.11608334319E+04 -0.13700680888E+04  0.83416908097E+03  0.19800152759E+04  0.12699999809E+01 0.  1.
</event>
<event>
 5   0  0.4115358E-07  0.3612361E+04  0.7818609E-02  0.8087666E-01
        2   -1    0    0  501    0  0.00000000000E+00  0.00000000000E+00  0.23689403813E+04  0.23689403813E+04  0.25500000920E-02 0.  1.
       -2   -1    0    0    0  501  0.00000000000E+00  0.00000000000E+00 -0.13771084360E+04  0.13771084360E+04  0.25500000920E-02 0. -1.
    10030    2    1    2    0    0  0.00000000000E+00  0.00000000000E+00  0.99183194528E+03  0.37460488173E+04  0.36123608809E+04 0.  0.
        3    1    3    3  502    0 -0.77727933237E+03  0.14333520340E+04 -0.30977124263E+03  0.16597046264E+04  0.10100000352E+00 0. -1.
       -3    1    3    3    0  502  0.77727933237E+03 -0.14333520340E+04  0.13016031879E+04  0.20863441909E+04  0.10100000352E+00 0.  1.
</event>
<event>
 5   0  0.1361743E-07  0.3597084E+04  0.7818609E-02  0.8091160E-01
        1   -1    0    0  501    0  0.00000000000E+00  0.00000000000E+00  0.22616837315E+04  0.22616837316E+04  0.50400001928E-02 0.  1.
       -1   -1    0    0    0  501  0.00000000000E+00  0.00000000000E+00 -0.14302410559E+04  0.14302410559E+04  0.50400001928E-02 0. -1.
    10030    2    1    2    0    0  0.00000000000E+00  0.00000000000E+00  0.83144267567E+03  0.36919247874E+04  0.35970837790E+04 0.  0.
        5    1    3    3  502    0  0.13877476371E+04 -0.88704699241E+03 -0.32584855415E+03  0.16789565930E+04  0.46999998093E+01 0. -1.
       -5    1    3    3    0  502 -0.13877476371E+04  0.88704699241E+03  0.11572912298E+04  0.20129681944E+04  0.46999998093E+01 0.  1.
</event>
<event>
 5   0  0.4120440E-07  0.3571706E+04  0.7818609E-02  0.8097004E-01
        2   -1    0    0  501    0  0.00000000000E+00  0.00000000000E+00  0.22612548542E+04  0.22612548542E+04  0.25500000920E-02 0. -1.
       -2   -1    0    0    0  501  0.00000000000E+00  0.00000000000E+00 -0.14103987931E+04  0.14103987931E+04  0.25500000920E-02 0.  1.
    10030    2    1    2    0    0  0.00000000000E+00  0.00000000000E+00  0.85085606103E+03  0.36716536473E+04  0.35717061006E+04 0.  0.
        2    1    3    3  502    0  0.23144537768E+03  0.60704126632E+03 -0.12846135178E+04  0.14395478290E+04  0.25500000920E-02 0.  1.
       -2    1    3    3    0  502 -0.23144537768E+03 -0.60704126632E+03  0.21354695788E+04  0.22321058183E+04  0.25500000920E-02 0. -1.
</event>
<event>
 5   0  0.1348226E-07  0.3479789E+04  0.7818609E-02  0.8118596E-01
        1   -1    0    0  501    0  0.00000000000E+00  0.00000000000E+00  0.28753835743E+04  0.28753835743E+04  0.50400001928E-02 0.  1.
       -1   -1    0    0    0  501  0.00000000000E+00  0.00000000000E+00 -0.10528100575E+04  0.10528100576E+04  0.50400001928E-02 0. -1.
    10030    2    1    2    0    0  0.00000000000E+00  0.00000000000E+00  0.18225735167E+04  0.39281936318E+04  0.34797889283E+04 0.  0.
        4    1    3    3  502    0 -0.14903953202E+04  0.43639754471E+03  0.17969274843E+04  0.23750096893E+04  0.12699999809E+01 0.  1.
       -4    1    3    3    0  502  0.14903953202E+04 -0.43639754471E+03  0.25646032374E+02  0.15531839425E+04  0.12699999809E+01 0. -1.
</event>
<event>
 5   0  0.4120440E-07  0.3604398E+04  0.7818609E-02  0.8089485E-01
        2   -1    0    0  501    0  0.00000000000E+00  0.00000000000E+00  0.21584639514E+04  0.21584639514E+04  0.25500000920E-02 0. -1.
       -2   -1    0    0    0  501  0.00000000000E+00  0.00000000000E+00 -0.15047371669E+04  0.15047371669E+04  0.25500000920E-02 0.  1.
    10030    2    1    2    0    0  0.00000000000E+00  0.00000000000E+00  0.65372678450E+03  0.36632011183E+04  0.36043978311E+04 0.  0.
        2    1    3    3  502    0 -0.38437957921E+03  0.91845783268E+03 -0.11998452054E+04  0.15591475133E+04  0.25500000920E-02 0.  1.
       -2    1    3    3    0  502  0.38437957921E+03 -0.91845783268E+03  0.18535719899E+04  0.21040536050E+04  0.25500000920E-02 0. -1.
</event>
<event>
 5   0  0.1361743E-07  0.3604469E+04  0.7818609E-02  0.8089469E-01
       -1   -1    0    0    0  501  0.00000000000E+00  0.00000000000E+00  0.24318160398E+04  0.24318160398E+04  0.50400001928E-02 0.  1.
        1   -1    0    0  501    0  0.00000000000E+00  0.00000000000E+00 -0.13356476227E+04  0.13356476227E+04  0.50400001928E-02 0. -1.
    10030    2    1    2    0    0  0.00000000000E+00  0.00000000000E+00  0.10961684171E+04  0.37674636625E+04  0.36044690662E+04 0.  0.
        5    1    3    3  502    0 -0.98118016319E+03 -0.14307748735E+04  0.37961126173E+02  0.17353081537E+04  0.46999998093E+01 0. -1.
       -5    1    3    3    0  502  0.98118016319E+03  0.14307748735E+04  0.10582072909E+04  0.20321555087E+04  0.46999998093E+01 0.  1.
</event>
<event>
 5   0  0.1361743E-07  0.3604534E+04  0.7818609E-02  0.8089454E-01
       -1   -1    0    0    0  501  0.00000000000E+00  0.00000000000E+00  0.14347568889E+04  0.14347568889E+04  0.50400001928E-02 0.  1.
        1   -1    0    0  501    0  0.00000000000E+00  0.00000000000E+00 -0.22639144251E+04  0.22639144251E+04  0.50400001928E-02 0. -1.
    10030    2    1    2    0    0  0.00000000000E+00  0.00000000000E+00 -0.82915753620E+03  0.36986713140E+04  0.36045342652E+04 0.  0.
        5    1    3    3  502    0  0.32849527884E+03 -0.44381511368E+03  0.13458204604E+04  0.14546944026E+04  0.46999998093E+01 0.  1.
       -5    1    3    3    0  502 -0.32849527884E+03  0.44381511368E+03 -0.21749779966E+04  0.22439769114E+04  0.46999998093E+01 0. -1.
</event>
<event>
 5   0  0.1370997E-07  0.3570693E+04  0.7818609E-02  0.8097238E-01
       -1   -1    0    0    0  501  0.00000000000E+00  0.00000000000E+00  0.14773692291E+04  0.14773692291E+04  0.50400001928E-02 0.  1.
        1   -1    0    0  501    0  0.00000000000E+00  0.00000000000E+00 -0.21575252327E+04  0.21575252327E+04  0.50400001928E-02 0. -1.
    10030    2    1    2    0    0  0.00000000000E+00  0.00000000000E+00 -0.68015600367E+03  0.36348944618E+04  0.35706925882E+04 0.  0.
        3    1    3    3  502    0  0.11136990990E+03 -0.17437733525E+04 -0.71315437891E+03  0.18872567234E+04  0.10100000352E+00 0. -1.
       -3    1    3    3    0  502 -0.11136990990E+03  0.17437733525E+04  0.32998375237E+02  0.17476377384E+04  0.10100000352E+00 0.  1.
</event>
<event>
 5   0  0.1298250E-07  0.3624147E+04  0.7818609E-02  0.8084983E-01
        1   -1    0    0  501    0  0.00000000000E+00  0.00000000000E+00  0.21413829011E+04  0.21413829011E+04  0.50400001928E-02 0. -1.
       -1   -1    0    0    0  501  0.00000000000E+00  0.00000000000E+00 -0.15334063853E+04  0.15334063853E+04  0.50400001928E-02 0.  1.
    10030    2    1    2    0    0  0.00000000000E+00  0.00000000000E+00  0.60797651582E+03  0.36747892864E+04  0.36241469142E+04 0.  0.
        2    1    3    3  502    0  0.13644719483E+04 -0.30437372397E+02  0.15126601334E+04  0.20373636913E+04  0.25500000920E-02 0. -1.
       -2    1    3    3    0  502 -0.13644719483E+04  0.30437372397E+02 -0.90468361760E+03  0.16374255951E+04  0.25500000920E-02 0.  1.
</event>
<event>
 5   0  0.3880259E-07  0.3608812E+04  0.7818609E-02  0.8088476E-01
        2   -1    0    0  501    0  0.00000000000E+00  0.00000000000E+00  0.21643570257E+04  0.21643570257E+04  0.25500000920E-02 0.  1.
       -2   -1    0    0    0  501  0.00000000000E+00  0.00000000000E+00 -0.15043179763E+04  0.15043179763E+04  0.25500000920E-02 0. -1.
    10030    2    1    2    0    0  0.00000000000E+00  0.00000000000E+00  0.66003904937E+03  0.36686750020E+04  0.36088120931E+04 0.  0.
        5    1    3    3  502    0  0.12414035897E+04 -0.11480108884E+04 -0.31038831718E+03  0.17191203768E+04  0.46999998093E+01 0. -1.
       -5    1    3    3    0  502 -0.12414035897E+04  0.11480108884E+04  0.97042736655E+03  0.19495546251E+04  0.46999998093E+01 0.  1.
</event>
<event>
 5   0  0.1348226E-07  0.3582059E+04  0.7818609E-02  0.8094614E-01
       -1   -1    0    0    0  501  0.00000000000E+00  0.00000000000E+00  0.11965570342E+04  0.11965570342E+04  0.50400001928E-02 0.  1.
        1   -1    0    0  501    0  0.00000000000E+00  0.00000000000E+00 -0.26808476428E+04  0.26808476428E+04  0.50400001928E-02 0. -1.
    10030    2    1    2    0    0  0.00000000000E+00  0.00000000000E+00 -0.14842906085E+04  0.38774046770E+04  0.35820592428E+04 0.  0.
        4    1    3    3  502    0  0.47234258135E+03  0.13551530283E+04 -0.19020555109E+04  0.23827219779E+04  0.12699999809E+01 0. -1.
       -4    1    3    3    0  502 -0.47234258135E+03 -0.13551530283E+04  0.41776490241E+03  0.14946826991E+04  0.12699999809E+01 0.  1.
</event>
<event>
 5   0  0.1361743E-07  0.3592152E+04  0.7818609E-02  0.8092292E-01
       -1   -1    0    0    0  501  0.00000000000E+00  0.00000000000E+00  0.17056388223E+04  0.17056388223E+04  0.50400001928E-02 0.  1.
        1   -1    0    0  501    0  0.00000000000E+00  0.00000000000E+00 -0.18913083374E+04  0.18913083374E+04  0.50400001928E-02 0. -1.
    10030    2    1    2    0    0  0.00000000000E+00  0.00000000000E+00 -0.18566951510E+03  0.35969471597E+04  0.35921519596E+04 0.  0.
        5    1    3    3  502    0 -0.14603591615E+04 -0.44773590482E+02 -0.11388407653E+04  0.18524669858E+04  0.46999998093E+01 0. -1.
       -5    1    3    3    0  502  0.14603591615E+04  0.44773590482E+02  0.95317125019E+03  0.17444801739E+04  0.46999998093E+01 0.  1.
</event>
<event>
 5   0  0.4120440E-07  0.3587284E+04  0.7818609E-02  0.8093411E-01
        2   -1    0    0  501    0  0.00000000000E+00  0.00000000000E+00  0.14149211400E+04  0.14149211400E+04  0.25500000920E-02 0.  1.
       -2   -1    0    0    0  501  0.00000000000E+00  0.00000000000E+00 -0.22737320904E+04  0.22737320904E+04  0.25500000920E-02 0. -1.
    10030    2    1    2    0    0  0.00000000000E+00  0.00000000000E+00 -0.85881095038E+03  0.36886532304E+04  0.35872839874E+04 0.  0.
        2    1    3    3  502    0 -0.81241680869E+03  0.11760546099E+04 -0.15435484942E+04  0.21037270428E+04  0.25500000920E-02 0. -1.
       -2    1    3    3    0  502  0.81241680869E+03 -0.11760546099E+04  0.68473754386E+03  0.15849261877E+04  0.25500000920E-02 0.  1.
</event>
<event>
 5   0  0.1298250E-07  0.3589362E+04  0.7818609E-02  0.8092933E-01
        1   -1    0    0  501    0  0.00000000000E+00  0.00000000000E+00  0.12308005501E+04  0.12308005501E+04  0.50400001928E-02 0. -1.
       -1   -1    0    0    0  501  0.00000000000E+00  0.00000000000E+00 -0.26168986208E+04  0.26168986208E+04  0.50400001928E-02 0.  1.
    10030    2    1    2    0    0  0.00000000000E+00  0.00000000000E+00 -0.13860980707E+04  0.38476991708E+04  0.35893622063E+04 0.  0.
        2    1    3    3  502    0  0.12206601507E+04 -0.10979766260E+04  0.83903160475E+02  0.16439597365E+04  0.25500000920E-02 0. -1.
       -2    1    3    3    0  502 -0.12206601507E+04  0.10979766260E+04 -0.14700012312E+04  0.22037394344E+04  0.25500000920E-02 0.  1.
</event>
<event>
 5   0  0.3880259E-07  0.3629490E+04  0.7818609E-02  0.8083770E-01
        2   -1    0    0  501    0  0.00000000000E+00  0.00000000000E+00  0.23796385651E+04  0.23796385651E+04  0.25500000920E-02 0.  1.
       -2   -1    0    0    0  501  0.00000000000E+00  0.00000000000E+00 -0.13839491515E+04  0.13839491515E+04  0.25500000920E-02 0. -1.
    10030    2    1    2    0    0  0.00000000000E+00  0.00000000000E+00  0.99568941358E+03  0.37635877166E+04  0.36294896462E+04 0.  0.
        5    1    3    3  502    0  0.10900588831E+04 -0.27940059909E+03 -0.97847902190E+03  0.14912197523E+04  0.46999998093E+01 0. -1.
       -5    1    3    3    0  502 -0.10900588831E+04  0.27940059909E+03  0.19741684355E+04  0.22723679643E+04  0.46999998093E+01 0.  1.
</event>
<event>
 5   0  0.1298250E-07  0.3598107E+04  0.7818609E-02  0.8090925E-01
       -1   -1    0    0    0  501  0.00000000000E+00  0.00000000000E+00  0.16008579636E+04  0.16008579636E+04  0.50400001928E-02 0.  1.
        1   -1    0    0  501    0  0.00000000000E+00  0.00000000000E+00 -0.20217865719E+04  0.20217865719E+04  0.50400001928E-02 0. -1.
    10030    2    1    2    0    0  0.00000000000E+00  0.00000000000E+00 -0.42092860833E+03  0.36226445356E+04  0.35981067991E+04 0.  0.
        1    1    3    3  502    0  0.58420037969E+03  0.12334676046E+04 -0.13905757572E+04  0.19484438282E+04  0.50400001928E-02 0. -1.
       -1    1    3    3    0  502 -0.58420037969E+03 -0.12334676046E+04  0.96964714888E+03  0.16742007074E+04  0.50400001928E-02 0.  1.
</event>
<event>
 5   0  0.4115358E-07  0.3574970E+04  0.7818609E-02  0.8096249E-01
       -2   -1    0    0    0  501  0.00000000000E+00  0.00000000000E+00  0.12163490878E+04  0.12163490878E+04  0.25500000920E-02 0. -1.
        2   -1    0    0  501    0  0.00000000000E+00  0.00000000000E+00 -0.26267980934E+04  0.26267980934E+04  0.25500000920E-02 0.  1.
    10030    2    1    2    0    0  0.00000000000E+00  0.00000000000E+00 -0.14104490056E+04  0.38431471811E+04  0.35749704696E+04 0.  0.
        3    1    3    3  502    0  0.39797040462E+03  0.16672238993E+04 -0.12502979455E+04  0.21216175283E+04  0.10100000352E+00 0. -1.
       -3    1    3    3    0  502 -0.39797040462E+03 -0.16672238993E+04 -0.16015106010E+03  0.17215296529E+04  0.10100000352E+00 0.  1.
</event>
<event>
 5   0  0.3880259E-07  0.3626180E+04  0.7818609E-02  0.8084521E-01
       -2   -1    0    0    0  501  0.00000000000E+00  0.00000000000E+00  0.17142513991E+04  0.17142513991E+04  0.25500000920E-02 0. -1.
        2   -1    0    0  501    0  0.00000000000E+00  0.00000000000E+00 -0.19176275603E+04  0.19176275603E+04  0.25500000920E-02 0.  1.
    10030    2    1    2    0    0  0.00000000000E+00  0.00000000000E+00 -0.20337616128E+03  0.36318789594E+04  0.36261802096E+04 0.  0.
        5    1    3    3  502    0  0.41472764812E+02 -0.40366857277E+02 -0.19166960765E+04  0.19175753996E+04  0.46999998093E+01 0.  1.
       -5    1    3    3    0  502 -0.41472764812E+02  0.40366857277E+02  0.17133199152E+04  0.17143035598E+04  0.46999998093E+01 0. -1.
</event>
<event>
 5   0  0.1298250E-07  0.3600213E+04  0.7818609E-02  0.8090443E-01
        1   -1    0    0  501    0  0.00000000000E+00  0.00000000000E+00  0.11674592964E+04  0.11674592964E+04  0.50400001928E-02 0. -1.
       -1   -1    0    0    0  501  0.00000000000E+00  0.00000000000E+00 -0.27755858384E+04  0.27755858384E+04  0.50400001928E-02 0.  1.
    10030    2    1    2    0    0  0.00000000000E+00  0.00000000000E+00 -0.16081265420E+04  0.39430451348E+04  0.36002130437E+04 0.  0.
        1    1    3    3  502    0 -0.11006628043E+04  0.11280059334E+04  0.14854841670E+03  0.15830106212E+04  0.50400001928E-02 0. -1.
       -1    1    3    3    0  502  0.11006628043E+04 -0.11280059334E+04 -0.17566749587E+04  0.23600345136E+04  0.50400001928E-02 0.  1.
</event>
<event>
 5   0  0.4120440E-07  0.3610576E+04  0.7818609E-02  0.8088073E-01
       -2   -1    0    0    0  501  0.00000000000E+00  0.00000000000E+00  0.11770166312E+04  0.11770166312E+04  0.25500000920E-02 0. -1.
        2   -1    0    0  501    0  0.00000000000E+00  0.00000000000E+00 -0.27689194810E+04  0.27689194810E+04  0.25500000920E-02 0.  1.
    10030    2    1    2    0    0  0.00000000000E+00  0.00000000000E+00 -0.15919028498E+04  0.39459361122E+04  0.36105757323E+04 0.  0.
        2    1    3    3  502    0 -0.10592738195E+04  0.14607418688E+04 -0.85812529354E+03  0.19980507629E+04  0.25500000920E-02 0. -1.
       -2    1    3    3    0  502  0.10592738195E+04 -0.14607418688E+04 -0.73377755624E+03  0.19478853493E+04  0.25500000920E-02 0.  1.
</event>
<event>
 5   0  0.3880259E-07  0.3604669E+04  0.7818609E-02  0.8089423E-01
       -2   -1    0    0    0  501  0.00000000000E+00  0.00000000000E+00  0.14282096033E+04  0.14282096033E+04  0.25500000920E-02 0. -1.
        2   -1    0    0  501    0  0.00000000000E+00  0.00000000000E+00 -0.22744625661E+04  0.22744625661E+04  0.25500000920E-02 0.  1.
    10030    2    1    2    0    0  0.00000000000E+00  0.00000000000E+00 -0.84625296288E+03  0.37026721694E+04  0.36046687944E+04 0.  0.
        5    1    3    3  502    0 -0.75444077532E+03 -0.12642519006E+04 -0.14910430315E+04  0.20954104999E+04  0.46999998093E+01 0.  1.
       -5    1    3    3    0  502  0.75444077532E+03  0.12642519006E+04  0.64479006858E+03  0.16072616695E+04  0.46999998093E+01 0. -1.
</event>
<event>
 5   0  0.1298250E-07  0.3625997E+04  0.7818609E-02  0.8084563E-01
        1   -1    0    0  501    0  0.00000000000E+00  0.00000000000E+00  0.15117405019E+04  0.15117405019E+04  0.50400001928E-02 0.  1.
       -1   -1    0    0    0  501  0.00000000000E+00  0.00000000000E+00 -0.21742908447E+04  0.21742908447E+04  0.50400001928E-02 0. -1.
    10030    2    1    2    0    0  0.00000000000E+00  0.00000000000E+00 -0.66255034271E+03  0.36860313466E+04  0.36259969845E+04 0.  0.
        2    1    3    3  502    0 -0.15018901803E+04  0.89476900054E+03  0.15696615620E+03  0.17552561215E+04  0.25500000920E-02 0.  1.
       -2    1    3    3    0  502  0.15018901803E+04 -0.89476900054E+03 -0.81951649891E+03  0.19307752251E+04  0.25500000920E-02 0. -1.
</event>
<event>
 5   0  0.3880259E-07  0.3604567E+04  0.7818609E-02  0.8089446E-01
       -2   -1    0    0    0  501  0.00000000000E+00  0.00000000000E+00  0.16909806541E+04  0.16909806541E+04  0.25500000920E-02 0. -1.
        2   -1    0    0  501    0  0.00000000000E+00  0.00000000000E+00 -0.19209128446E+04  0.19209128446E+04  0.25500000920E-02 0.  1.
    10030    2    1    2    0    0  0.00000000000E+00  0.00000000000E+00 -0.22993219043E+03  0.36118934987E+04  0.36045673573E+04 0.  0.
        5    1    3    3  502    0  0.13865355739E+04  0.11485475945E+04 -0.33795936488E+02  0.18007794784E+04  0.46999998093E+01 0. -1.
       -5    1    3    3    0  502 -0.13865355739E+04 -0.11485475945E+04 -0.19613625394E+03  0.18111140203E+04  0.46999998093E+01 0.  1.
</event>
<event>
 5   0  0.1348226E-07  0.3192632E+04  0.7818609E-02  0.8190766E-01
        1   -1    0    0  501    0  0.00000000000E+00  0.00000000000E+00  0.23898631641E+04  0.23898631641E+04  0.50400001928E-02 0. -1.
       -1   -1    0    0    0  501  0.00000000000E+00  0.00000000000E+00 -0.10662641375E+04  0.10662641376E+04  0.50400001928E-02 0.  1.
    10030    2    1    2    0    0  0.00000000000E+00  0.00000000000E+00  0.13235990265E+04  0.34561273017E+04  0.31926323845E+04 0.  0.
        4    1    3    3  502    0  0.42051876267E+03  0.94566512625E+03  0.19774681786E+04  0.22319275461E+04  0.12699999809E+01 0. -1.
       -4    1    3    3    0  502 -0.42051876267E+03 -0.94566512625E+03 -0.65386915201E+03  0.12241997556E+04  0.12699999809E+01 0.  1.
</event>
<event>
 5   0  0.1361743E-07  0.3615650E+04  0.7818609E-02  0.8086916E-01
       -1   -1    0    0    0  501  0.00000000000E+00  0.00000000000E+00  0.13659218223E+04  0.13659218223E+04  0.50400001928E-02 0.  1.
        1   -1    0    0  501    0  0.00000000000E+00  0.00000000000E+00 -0.23926921295E+04  0.23926921295E+04  0.50400001928E-02 0. -1.
    10030    2    1    2    0    0  0.00000000000E+00  0.00000000000E+00 -0.10267703072E+04  0.37586139517E+04  0.36156495370E+04 0.  0.
        5    1    3    3  502    0 -0.18820693534E+03 -0.73369240044E+03  0.11930077254E+04  0.14131581340E+04  0.46999998093E+01 0.  1.
       -5    1    3    3    0  502  0.18820693534E+03  0.73369240044E+03 -0.22197780326E+04  0.23454558177E+04  0.46999998093E+01 0. -1.
</event>
<event>
 5   0  0.1361743E-07  0.3578487E+04  0.7818609E-02  0.8095437E-01
       -1   -1    0    0    0  501  0.00000000000E+00  0.00000000000E+00  0.17481338141E+04  0.17481338141E+04  0.50400001928E-02 0. -1.
        1   -1    0    0  501    0  0.00000000000E+00  0.00000000000E+00 -0.18313200792E+04  0.18313200792E+04  0.50400001928E-02 0.  1.
    10030    2    1    2    0    0  0.00000000000E+00  0.00000000000E+00 -0.83186265099E+02  0.35794538934E+04  0.35784871412E+04 0.  0.
        5    1    3    3  502    0 -0.59023239106E+03  0.15497810218E+04  0.63028392684E+03  0.17741125695E+04  0.46999998093E+01 0. -1.
       -5    1    3    3    0  502  0.59023239106E+03 -0.15497810218E+04 -0.71347019194E+03  0.18053413239E+04  0.46999998093E+01 0.  1.
</event>
<event>
 5   0  0.4115358E-07  0.3595449E+04  0.7818609E-02  0.8091535E-01
       -2   -1    0    0    0  501  0.00000000000E+00  0.00000000000E+00  0.14389712015E+04  0.14389712015E+04  0.25500000920E-02 0. -1.
        2   -1    0    0  501    0  0.00000000000E+00  0.00000000000E+00 -0.22459194460E+04  0.22459194460E+04  0.25500000920E-02 0.  1.
    10030    2    1    2    0    0  0.00000000000E+00  0.00000000000E+00 -0.80694824454E+03  0.36848906476E+04  0.35954490144E+04 0.  0.
        3    1    3    3  502    0  0.78144699984E+03 -0.11277629994E+04 -0.15939660906E+04  0.21031492349E+04  0.10100000352E+00 0.  1.
       -3    1    3    3    0  502 -0.78144699984E+03  0.11277629994E+04  0.78701784601E+03  0.15817414126E+04  0.10100000352E+00 0. -1.
</event>
<event>
 5   0  0.1361743E-07  0.3557924E+04  0.7818609E-02  0.8100198E-01
        1   -1    0    0  501    0  0.00000000000E+00  0.00000000000E+00  0.22223723471E+04  0.22223723471E+04  0.50400001928E-02 0. -1.
       -1   -1    0    0    0  501  0.00000000000E+00  0.00000000000E+00 -0.14240213144E+04  0.14240213144E+04  0.50400001928E-02 0.  1.
    10030    2    1    2    0    0  0.00000000000E+00  0.00000000000E+00  0.79835103265E+03  0.36463936615E+04  0.35579238839E+04 0.  0.
        5    1    3    3  502    0  0.11175804022E+04  0.13779487315E+04  0.53262402860E+03  0.18524143995E+04  0.46999998093E+01 0.  1.
       -5    1    3    3    0  502 -0.11175804022E+04 -0.13779487315E+04  0.26572700405E+03  0.17939792620E+04  0.46999998093E+01 0. -1.
</event>
<event>
 5   0  0.1361743E-07  0.3618762E+04  0.7818609E-02  0.8086208E-01
        1   -1    0    0  501    0  0.00000000000E+00  0.00000000000E+00  0.13430571738E+04  0.13430571738E+04  0.50400001928E-02 0.  1.
       -1   -1    0    0    0  501  0.00000000000E+00  0.00000000000E+00 -0.24376173264E+04  0.24376173264E+04  0.50400001928E-02 0. -1.
    10030    2    1    2    0    0  0.00000000000E+00  0.00000000000E+00 -0.10945601526E+04  0.37806745002E+04  0.36187619082E+04 0.  0.
        5    1    3    3  502    0 -0.14593600876E+04 -0.85327668805E+03 -0.12211385074E+04  0.20854290484E+04  0.46999998093E+01 0.  1.
       -5    1    3    3    0  502  0.14593600876E+04  0.85327668805E+03  0.12657835484E+03  0.16952454517E+04  0.46999998093E+01 0. -1.
</event>
<event>
 5   0  0.4115358E-07  0.3621212E+04  0.7818609E-02  0.8085650E-01
        2   -1    0    0  501    0  0.00000000000E+00  0.00000000000E+00  0.24145184869E+04  0.24145184869E+04  0.25500000920E-02 0. -1.
       -2   -1    0    0    0  501  0.00000000000E+00  0.00000000000E+00 -0.13577422653E+04  0.13577422653E+04  0.25500000920E-02 0.  1.
    10030    2    1    2    0    0  0.00000000000E+00  0.00000000000E+00  0.10567762216E+04  0.37722607521E+04  0.36212118413E+04 0.  0.
        3    1    3    3  502    0  0.76606495661E+03  0.26291003889E+03  0.22152919785E+04  0.23587063756E+04  0.10100000352E+00 0. -1.
       -3    1    3    3    0  502 -0.76606495661E+03 -0.26291003889E+03 -0.11585157569E+04  0.14135543765E+04  0.10100000352E+00 0.  1.
</event>
<event>
 5   0  0.3993751E-07  0.3594417E+04  0.7818609E-02  0.8091772E-01
       -2   -1    0    0    0  501  0.00000000000E+00  0.00000000000E+00  0.18134865613E+04  0.18134865613E+04  0.25500000920E-02 0. -1.
        2   -1    0    0  501    0  0.00000000000E+00  0.00000000000E+00 -0.17810764782E+04  0.17810764782E+04  0.25500000920E-02 0.  1.
    10030    2    1    2    0    0  0.00000000000E+00  0.00000000000E+00  0.32410083105E+02  0.35945630395E+04  0.35944169251E+04 0.  0.
        1    1    3    3  502    0 -0.14082464826E+04 -0.11093235068E+04  0.14349516857E+03  0.17984292207E+04  0.50400001928E-02 0. -1.
       -1    1    3    3    0  502  0.14082464826E+04  0.11093235068E+04 -0.11108508547E+03  0.17961338187E+04  0.50400001928E-02 0.  1.
</event>
<event>
 5   0  0.4200635E-07  0.3600603E+04  0.7818609E-02  0.8090354E-01
        2   -1    0    0  501    0  0.00000000000E+00  0.00000000000E+00  0.26219221322E+04  0.26219221322E+04  0.25500000920E-02 0. -1.
       -2   -1    0    0    0  501  0.00000000000E+00  0.00000000000E+00 -0.12361483490E+04  0.12361483490E+04  0.25500000920E-02 0.  1.
    10030    2    1    2    0    0  0.00000000000E+00  0.00000000000E+00  0.13857737832E+04  0.38580704812E+04  0.36006025689E+04 0.  0.
        4    1    3    3  502    0 -0.45567145630E+03 -0.11713769503E+04 -0.68820306004E+03  0.14329638867E+04  0.12699999809E+01 0.  1.
       -4    1    3    3    0  502  0.45567145630E+03  0.11713769503E+04  0.20739768432E+04  0.24251065945E+04  0.12699999809E+01 0. -1.
</event>
<event>
 5   0  0.1298250E-07  0.3624826E+04  0.7818609E-02  0.8084829E-01
        1   -1    0    0  501    0  0.00000000000E+00  0.00000000000E+00  0.16835753892E+04  0.16835753892E+04  0.50400001928E-02 0. -1.
       -1   -1    0    0    0  501  0.00000000000E+00  0.00000000000E+00 -0.19511103291E+04  0.19511103291E+04  0.50400001928E-02 0.  1.
    10030    2    1    2    0    0  0.00000000000E+00  0.00000000000E+00 -0.26753493996E+03  0.36346857183E+04  0.36248262478E+04 0.  0.
        2    1    3    3  502    0 -0.10761523660E+04 -0.67372825139E+03  0.11631288891E+04  0.17218834119E+04  0.25500000920E-02 0. -1.
       -2    1    3    3    0  502  0.10761523660E+04  0.67372825139E+03 -0.14306638290E+04  0.19128023064E+04  0.25500000920E-02 0.  1.
</event>
<event>
 5   0  0.3880259E-07  0.3612085E+04  0.7818609E-02  0.8087729E-01
        2   -1    0    0  501    0  0.00000000000E+00  0.00000000000E+00  0.21480933917E+04  0.21480933917E+04  0.25500000920E-02 0. -1.
       -2   -1    0    0    0  501  0.00000000000E+00  0.00000000000E+00 -0.15184579522E+04  0.15184579522E+04  0.25500000920E-02 0.  1.
    10030    2    1    2    0    0  0.00000000000E+00  0.00000000000E+00  0.62963543951E+03  0.36665513438E+04  0.36120849894E+04 0.  0.
        5    1    3    3  502    0  0.52063452095E+03  0.13461168499E+04 -0.78722169516E+03  0.16440288821E+04  0.46999998093E+01 0.  1.
       -5    1    3    3    0  502 -0.52063452095E+03 -0.13461168499E+04  0.14168571347E+04  0.20225224617E+04  0.46999998093E+01 0. -1.
</event>
<event>
 5   0  0.1348226E-07  0.3544274E+04  0.7818609E-02  0.8103377E-01
        1   -1    0    0  501    0  0.00000000000E+00  0.00000000000E+00  0.15307037812E+04  0.15307037812E+04  0.50400001928E-02 0.  1.
       -1   -1    0    0    0  501  0.00000000000E+00  0.00000000000E+00 -0.20516512071E+04  0.20516512071E+04  0.50400001928E-02 0. -1.
    10030    2    1    2    0    0  0.00000000000E+00  0.00000000000E+00 -0.52094742589E+03  0.35823549883E+04  0.35442744027E+04 0.  0.
        4    1    3    3  502    0  0.13860174477E+04  0.10409191313E+03 -0.13716440207E+04  0.19527643032E+04  0.12699999809E+01 0. -1.
       -4    1    3    3    0  502 -0.13860174477E+04 -0.10409191313E+03  0.85069659476E+03  0.16295906851E+04  0.12699999809E+01 0.  1.
</event>
<event>
 5   0  0.3993751E-07  0.3589763E+04  0.7818609E-02  0.8092841E-01
       -2   -1    0    0    0  501  0.00000000000E+00  0.00000000000E+00  0.17149679835E+04  0.17149679835E+04  0.25500000920E-02 0.  1.
        2   -1    0    0  501    0  0.00000000000E+00  0.00000000000E+00 -0.18785185496E+04  0.18785185496E+04  0.25500000920E-02 0. -1.
    10030    2    1    2    0    0  0.00000000000E+00  0.00000000000E+00 -0.16355056614E+03  0.35934865331E+04  0.35897627603E+04 0.  0.
        1    1    3    3  502    0 -0.31737706700E+03  0.92965415486E+03  0.14219860873E+04  0.17283024859E+04  0.50400001928E-02 0.  1.
       -1    1    3    3    0  502  0.31737706700E+03 -0.92965415486E+03 -0.15855366534E+04  0.18651840471E+04  0.50400001928E-02 0. -1.
</event>
<event>
 5   0  0.3880259E-07  0.3721210E+04  0.7818609E-02  0.8063278E-01
        2   -1    0    0  501    0  0.00000000000E+00  0.00000000000E+00  0.11254476264E+04  0.11254476264E+04  0.25500000920E-02 0. -1.
       -2   -1    0    0    0  501  0.00000000000E+00  0.00000000000E+00 -0.30759772318E+04  0.30759772318E+04  0.25500000920E-02 0.  1.
    10030    2    1    2    0    0  0.00000000000E+00  0.00000000000E+00 -0.19505296054E+04  0.42014248583E+04  0.37212101658E+04 0.  0.
        5    1    3    3  502    0  0.58156171737E+03  0.17174291502E+03  0.10107429756E+04  0.11786997551E+04  0.46999998093E+01 0. -1.
       -5    1    3    3    0  502 -0.58156171737E+03 -0.17174291502E+03 -0.29612725810E+04  0.30227251031E+04  0.46999998093E+01 0.  1.
</event>
<event>
 5   0  0.4120440E-07  0.3602973E+04  0.7818609E-02  0.8089811E-01
        2   -1    0    0  501    0  0.00000000000E+00  0.00000000000E+00  0.20114025428E+04  0.20114025428E+04  0.25500000920E-02 0. -1.
       -2   -1    0    0    0  501  0.00000000000E+00  0.00000000000E+00 -0.16134782027E+04  0.16134782027E+04  0.25500000920E-02 0.  1.
    10030    2    1    2    0    0  0.00000000000E+00  0.00000000000E+00  0.39792434009E+03  0.36248807455E+04  0.36029733053E+04 0.  0.
        2    1    3    3  502    0  0.15237419905E+04  0.94031874115E+03  0.39857513704E+03  0.18343530545E+04  0.25500000920E-02 0. -1.
       -2    1    3    3    0  502 -0.15237419905E+04 -0.94031874115E+03 -0.65079694689E+00  0.17905276910E+04  0.25500000920E-02 0.  1.
</event>
<event>
 5   0  0.1298250E-07  0.3580322E+04  0.7818609E-02  0.8095014E-01
       -1   -1    0    0    0  501  0.00000000000E+00  0.00000000000E+00  0.15833024455E+04  0.15833024455E+04  0.50400001928E-02 0.  1.
        1   -1    0    0  501    0  0.00000000000E+00  0.00000000000E+00 -0.20240459731E+04  0.20240459731E+04  0.50400001928E-02 0. -1.
    10030    2    1    2    0    0  0.00000000000E+00  0.00000000000E+00 -0.44074352766E+03  0.36073484186E+04  0.35803222978E+04 0.  0.
        1    1    3    3  502    0  0.63140095771E+03 -0.81591249669E+03  0.12536467734E+04  0.16235795651E+04  0.50400001928E-02 0.  1.
       -1    1    3    3    0  502 -0.63140095771E+03  0.81591249669E+03 -0.16943903011E+04  0.19837688535E+04  0.50400001928E-02 0. -1.
</event>
<event>
 5   0  0.1348226E-07  0.3571441E+04  0.7818609E-02  0.8097065E-01
       -1   -1    0    0    0  501  0.00000000000E+00  0.00000000000E+00  0.11434395978E+04  0.11434395978E+04  0.50400001928E-02 0. -1.
        1   -1    0    0  501    0  0.00000000000E+00  0.00000000000E+00 -0.27887763311E+04  0.27887763311E+04  0.50400001928E-02 0.  1.
    10030    2    1    2    0    0  0.00000000000E+00  0.00000000000E+00 -0.16453367333E+04  0.39322159289E+04  0.35714407661E+04 0.  0.
        4    1    3    3  502    0  0.77249714640E+03 -0.84169934650E+03 -0.23337455167E+04  0.25983801455E+04  0.12699999809E+01 0.  1.
       -4    1    3    3    0  502 -0.77249714640E+03  0.84169934650E+03  0.68840878341E+03  0.13338357834E+04  0.12699999809E+01 0. -1.
</event>
<event>
 5   0  0.4120440E-07  0.3579698E+04  0.7818609E-02  0.8095158E-01
        2   -1    0    0  501    0  0.00000000000E+00  0.00000000000E+00  0.25785398401E+04  0.25785398401E+04  0.25500000920E-02 0. -1.
       -2   -1    0    0    0  501  0.00000000000E+00  0.00000000000E+00 -0.12423928334E+04  0.12423928335E+04  0.25500000920E-02 0.  1.
    10030    2    1    2    0    0  0.00000000000E+00  0.00000000000E+00  0.13361470067E+04  0.38209326736E+04  0.35796979862E+04 0.  0.
        2    1    3    3  502    0  0.14166534158E+02  0.22105566886E+03 -0.12277058542E+04  0.12475287427E+04  0.25500000920E-02 0.  1.
       -2    1    3    3    0  502 -0.14166534158E+02 -0.22105566886E+03  0.25638528609E+04  0.25734039309E+04  0.25500000920E-02 0. -1.
</event>
<event>
 5   0  0.3880259E-07  0.3603649E+04  0.7818609E-02  0.8089656E-01
       -2   -1    0    0    0  501  0.00000000000E+00  0.00000000000E+00  0.11546343560E+04  0.11546343560E+04  0.25500000920E-02 0.  1.
        2   -1    0    0  501    0  0.00000000000E+00  0.00000000000E+00 -0.28117746860E+04  0.28117746860E+04  0.25500000920E-02 0. -1.
    10030    2    1    2    0    0  0.00000000000E+00  0.00000000000E+00 -0.16571403300E+04  0.39664090420E+04  0.36036490694E+04 0.  0.
        5    1    3    3  502    0  0.15191855261E+03 -0.14620905016E+04 -0.19754614773E+04  0.24623683762E+04  0.46999998093E+01 0. -1.
       -5    1    3    3    0  502 -0.15191855261E+03  0.14620905016E+04  0.31832114730E+03  0.15040406658E+04  0.46999998093E+01 0.  1.
</event>
<event>
 5   0  0.1348226E-07  0.3622037E+04  0.7818609E-02  0.8085462E-01
       -1   -1    0    0    0  501  0.00000000000E+00  0.00000000000E+00  0.30479726873E+04  0.30479726873E+04  0.50400001928E-02 0. -1.
        1   -1    0    0  501    0  0.00000000000E+00  0.00000000000E+00 -0.10760557624E+04  0.10760557625E+04  0.50400001928E-02 0.  1.
    10030    2    1    2    0    0  0.00000000000E+00  0.00000000000E+00  0.19719169249E+04  0.41240284498E+04  0.36220373129E+04 0.  0.
        4    1    3    3  502    0 -0.71112120954E+03 -0.89432404466E+03  0.25857849966E+04  0.28269762172E+04  0.12699999809E+01 0. -1.
       -4    1    3    3    0  502  0.71112120954E+03  0.89432404466E+03 -0.61386807170E+03  0.12970522325E+04  0.12699999809E+01 0.  1.
</event>
<event>
 5   0  0.1298250E-07  0.3633364E+04  0.7818609E-02  0.8082892E-01
       -1   -1    0    0    0  501  0.00000000000E+00  0.00000000000E+00  0.13999696679E+04  0.13999696679E+04  0.50400001928E-02 0.  1.
        1   -1    0    0  501    0  0.00000000000E+00  0.00000000000E+00 -0.23574321352E+04  0.23574321352E+04  0.50400001928E-02 0. -1.
    10030    2    1    2    0    0  0.00000000000E+00  0.00000000000E+00 -0.95746246733E+03  0.37574018031E+04  0.36333639969E+04 0.  0.
        2    1    3    3  502    0 -0.55727856016E+03  0.17749738689E+03  0.12999476337E+04  0.14254573183E+04  0.25500000920E-02 0.  1.
       -2    1    3    3    0  502  0.55727856016E+03 -0.17749738689E+03 -0.22574101010E+04  0.23319444848E+04  0.25500000920E-02 0. -1.
</event>
<event>
 5   0  0.4200635E-07  0.3681763E+04  0.7818609E-02  0.8072015E-01
        2   -1    0    0  501    0  0.00000000000E+00  0.00000000000E+00  0.18984820771E+04  0.18984820771E+04  0.25500000920E-02 0. -1.
       -2   -1    0    0    0  501  0.00000000000E+00  0.00000000000E+00 -0.17850289152E+04  0.17850289152E+04  0.25500000920E-02 0.  1.
    10030    2    1    2    0    0  0.00000000000E+00  0.00000000000E+00  0.11345316186E+03  0.36835109923E+04  0.36817633833E+04 0.  0.
        4    1    3    3  502    0  0.95443144550E+03  0.80587803704E+03 -0.12961227190E+04  0.18000873619E+04  0.12699999809E+01 0.  1.
       -4    1    3    3    0  502 -0.95443144550E+03 -0.80587803704E+03  0.14095758809E+04  0.18834236304E+04  0.12699999809E+01 0. -1.
</event>
<event>
 5   0  0.1298250E-07  0.3569358E+04  0.7818609E-02  0.8097547E-01
        3   -1    0    0  501    0  0.00000000000E+00  0.00000000000E+00  0.20058771543E+04  0.20058771568E+04  0.10100000352E+00 0.  1.
       -3   -1    0    0    0  501  0.00000000000E+00  0.00000000000E+00 -0.15878735138E+04  0.15878735171E+04  0.10100000352E+00 0. -1.
    10030    2    1    2    0    0  0.00000000000E+00  0.00000000000E+00  0.41800364041E+03  0.35937506739E+04  0.35693580463E+04 0.  0.
        5    1    3    3  502    0  0.12716210094E+04 -0.57016741443E+03 -0.91349211596E+03  0.16663135383E+04  0.46999998093E+01 0. -1.
       -5    1    3    3    0  502 -0.12716210094E+04  0.57016741443E+03  0.13314957564E+04  0.19274371355E+04  0.46999998093E+01 0.  1.
</event>
<event>
 5   0  0.4200635E-07  0.3574245E+04  0.7818609E-02  0.8096417E-01
        2   -1    0    0  501    0  0.00000000000E+00  0.00000000000E+00  0.12781774489E+04  0.12781774489E+04  0.25500000920E-02 0. -1.
       -2   -1    0    0    0  501  0.00000000000E+00  0.00000000000E+00 -0.24987188060E+04  0.24987188060E+04  0.25500000920E-02 0.  1.
    10030    2    1    2    0    0  0.00000000000E+00  0.00000000000E+00 -0.12205413571E+04  0.37768962549E+04  0.35742445518E+04 0.  0.
        4    1    3    3  502    0 -0.16939898305E+04  0.15714866313E+03 -0.31969067646E+02  0.17015642457E+04  0.12699999809E+01 0.  1.
       -4    1    3    3    0  502  0.16939898305E+04 -0.15714866313E+03 -0.11885722894E+04  0.20753320092E+04  0.12699999809E+01 0. -1.
</event>
<event>
 5   0  0.4200635E-07  0.3596533E+04  0.7818609E-02  0.8091286E-01
        2   -1    0    0  501    0  0.00000000000E+00  0.00000000000E+00  0.18445997252E+04  0.18445997252E+04  0.25500000920E-02 0. -1.
       -2   -1    0    0    0  501  0.00000000000E+00  0.00000000000E+00 -0.17530966698E+04  0.17530966698E+04  0.25500000920E-02 0.  1.
    10030    2    1    2    0    0  0.00000000000E+00  0.00000000000E+00  0.91503055375E+02  0.35976963950E+04  0.35965325720E+04 0.  0.
        4    1    3    3  502    0 -0.15823165423E+04 -0.54606719520E+03  0.70311332486E+03  0.18155673995E+04  0.12699999809E+01 0.  1.
       -4    1    3    3    0  502  0.15823165423E+04  0.54606719520E+03 -0.61161026948E+03  0.17821289955E+04  0.12699999809E+01 0. -1.
</event>
<event>
 5   0  0.4115358E-07  0.3582139E+04  0.7818609E-02  0.8094595E-01
        2   -1    0    0  501    0  0.00000000000E+00  0.00000000000E+00  0.16975704158E+04  0.16975704158E+04  0.25500000920E-02 0. -1.
       -2   -1    0    0    0  501  0.00000000000E+00  0.00000000000E+00 -0.18897178631E+04  0.18897178631E+04  0.25500000920E-02 0.  1.
    10030    2    1    2    0    0  0.00000000000E+00  0.00000000000E+00 -0.19214744733E+03  0.35872882788E+04  0.35821385448E+04 0.  0.
        3    1    3    3  502    0 -0.17317262266E+04 -0.34047216814E+03  0.20954053595E+03  0.17772743929E+04  0.10100000352E+00 0.  1.
       -3    1    3    3    0  502  0.17317262266E+04  0.34047216814E+03 -0.40168798328E+03  0.18100138859E+04  0.10100000352E+00 0. -1.
</event>
<event>
 5   0  0.1298250E-07  0.3612813E+04  0.7818609E-02  0.8087563E-01
       -1   -1    0    0    0  501  0.00000000000E+00  0.00000000000E+00  0.15472716351E+04  0.15472716351E+04  0.50400001928E-02 0. -1.
        1   -1    0    0  501    0  0.00000000000E+00  0.00000000000E+00 -0.21089403450E+04  0.21089403450E+04  0.50400001928E-02 0.  1.
    10030    2    1    2    0    0  0.00000000000E+00  0.00000000000E+00 -0.56166870986E+03  0.36562119801E+04  0.36128125198E+04 0.  0.
        2    1    3    3  502    0 -0.19961035360E+03  0.17769178213E+03 -0.20888240360E+04  0.21058500697E+04  0.25500000920E-02 0.  1.
       -2    1    3    3    0  502  0.19961035360E+03 -0.17769178213E+03  0.15271553262E+04  0.15503619103E+04  0.25500000920E-02 0. -1.
</event>
<event>
 5   0  0.1298250E-07  0.3587175E+04  0.7818609E-02  0.8093436E-01
        1   -1    0    0  501    0  0.00000000000E+00  0.00000000000E+00  0.16050065635E+04  0.16050065635E+04  0.50400001928E-02 0. -1.
       -1   -1    0    0    0  501  0.00000000000E+00  0.00000000000E+00 -0.20043263352E+04  0.20043263352E+04  0.50400001928E-02 0.  1.
    10030    2    1    2    0    0  0.00000000000E+00  0.00000000000E+00 -0.39931977168E+03  0.36093328987E+04  0.35871754479E+04 0.  0.
        1    1    3    3  502    0  0.16396537051E+04 -0.69585979020E+03 -0.41136820659E+03  0.18280888714E+04  0.50400001928E-02 0.  1.
       -1    1    3    3    0  502 -0.16396537051E+04  0.69585979020E+03  0.12048434918E+02  0.17812440274E+04  0.50400001928E-02 0. -1.
</event>
<event>
 5   0  0.1298250E-07  0.3592305E+04  0.7818609E-02  0.8092257E-01
        3   -1    0    0  501    0  0.00000000000E+00  0.00000000000E+00  0.13198718842E+04  0.13198718881E+04  0.10100000352E+00 0. -1.
       -3   -1    0    0    0  501  0.00000000000E+00  0.00000000000E+00 -0.24443012944E+04  0.24443012965E+04  0.10100000352E+00 0.  1.
    10030    2    1    2    0    0  0.00000000000E+00  0.00000000000E+00 -0.11244294102E+04  0.37641731846E+04  0.35923054248E+04 0.  0.
        4    1    3    3  502    0 -0.38503231712E+02 -0.11762183782E+03  0.13153981526E+04  0.13212082759E+04  0.12699999809E+01 0. -1.
       -4    1    3    3    0  502  0.38503231712E+02  0.11762183782E+03 -0.24398275628E+04  0.24429649086E+04  0.12699999809E+01 0.  1.
</event>
<event>
 5   0  0.3993751E-07  0.3574286E+04  0.7818609E-02  0.8096407E-01
       -2   -1    0    0    0  501  0.00000000000E+00  0.00000000000E+00  0.11648053663E+04  0.11648053663E+04  0.25500000920E-02 0. -1.
        2   -1    0    0  501    0  0.00000000000E+00  0.00000000000E+00 -0.27419855436E+04  0.27419855436E+04  0.25500000920E-02 0.  1.
    10030    2    1    2    0    0  0.00000000000E+00  0.00000000000E+00 -0.15771801773E+04  0.39067909099E+04  0.35742856492E+04 0.  0.
        1    1    3    3  502    0 -0.14023401011E+04 -0.11076553819E+04 -0.76615582401E+03  0.19443386924E+04  0.50400001928E-02 0. -1.
       -1    1    3    3    0  502  0.14023401011E+04  0.11076553819E+04 -0.81102435329E+03  0.19624522175E+04  0.50400001928E-02 0.  1.
</event>
<event>
 5   0  0.3880259E-07  0.3569249E+04  0.7818609E-02  0.8097572E-01
       -2   -1    0    0    0  501  0.00000000000E+00  0.00000000000E+00  0.17381720285E+04  0.17381720285E+04  0.25500000920E-02 0.  1.
        2   -1    0    0  501    0  0.00000000000E+00  0.00000000000E+00 -0.18323182847E+04  0.18323182847E+04  0.25500000920E-02 0. -1.
    10030    2    1    2    0    0  0.00000000000E+00  0.00000000000E+00 -0.94146256181E+02  0.35704903132E+04  0.35692488789E+04 0.  0.
        5    1    3    3  502    0  0.27524462038E+03 -0.81332656009E+03  0.15179525976E+04  0.17439787478E+04  0.46999998093E+01 0.  1.
       -5    1    3    3    0  502 -0.27524462038E+03  0.81332656009E+03 -0.16120988537E+04  0.18265115654E+04  0.46999998093E+01 0. -1.
</event>
<event>
 5   0  0.4200635E-07  0.3694710E+04  0.7818609E-02  0.8069135E-01
        2   -1    0    0  501    0  0.00000000000E+00  0.00000000000E+00  0.12857304567E+04  0.12857304567E+04  0.25500000920E-02 0. -1.
       -2   -1    0    0    0  501  0.00000000000E+00  0.00000000000E+00 -0.26543043114E+04  0.26543043114E+04  0.25500000920E-02 0.  1.
    10030    2    1    2    0    0  0.00000000000E+00  0.00000000000E+00 -0.13685738547E+04  0.39400347681E+04  0.36947096744E+04 0.  0.
        4    1    3    3  502    0  0.94793505414E+02 -0.57929115107E+03 -0.25522071773E+04  0.26188407999E+04  0.12699999809E+01 0.  1.
       -4    1    3    3    0  502 -0.94793505414E+02  0.57929115107E+03  0.11836333226E+04  0.13211939682E+04  0.12699999809E+01 0. -1.
</event>
<event>
 5   0  0.1361743E-07  0.3580123E+04  0.7818609E-02  0.8095060E-01
        1   -1    0    0  501    0  0.00000000000E+00  0.00000000000E+00  0.21327798243E+04  0.21327798243E+04  0.50400001928E-02 0.  1.
       -1   -1    0    0    0  501  0.00000000000E+00  0.00000000000E+00 -0.15024145838E+04  0.15024145838E+04  0.50400001928E-02 0. -1.
    10030    2    1    2    0    0  0.00000000000E+00  0.00000000000E+00  0.63036524045E+03  0.36351944081E+04  0.35801226304E+04 0.  0.
        5    1    3    3  502    0 -0.81177696387E+03  0.39623756625E+03  0.18843714656E+04  0.20897042753E+04  0.46999998093E+01 0.  1.
       -5    1    3    3    0  502  0.81177696387E+03 -0.39623756625E+03 -0.12540062251E+04  0.15454901328E+04  0.46999998093E+01 0. -1.
</event>
<event>
 5   0  0.1298250E-07  0.3591647E+04  0.7818609E-02  0.8092408E-01
        1   -1    0    0  501    0  0.00000000000E+00  0.00000000000E+00  0.26361725470E+04  0.26361725470E+04  0.50400001928E-02 0. -1.
       -1   -1    0    0    0  501  0.00000000000E+00  0.00000000000E+00 -0.12233575648E+04  0.12233575648E+04  0.50400001928E-02 0.  1.
    10030    2    1    2    0    0  0.00000000000E+00  0.00000000000E+00  0.14128149822E+04  0.38595301118E+04  0.35916467686E+04 0.  0.
        1    1    3    3  502    0 -0.45928978880E+03  0.14124131945E+04  0.17912188412E+04  0.23268698029E+04  0.50400001928E-02 0. -1.
       -1    1    3    3    0  502  0.45928978880E+03 -0.14124131945E+04 -0.37840385902E+03  0.15326603090E+04  0.50400001928E-02 0.  1.
</event>
<event>
 5   0  0.1298250E-07  0.3536441E+04  0.7818609E-02  0.8105208E-01
        1   -1    0    0  501    0  0.00000000000E+00  0.00000000000E+00  0.20153967870E+04  0.20153967870E+04  0.50400001928E-02 0.  1.
       -1   -1    0    0    0  501  0.00000000000E+00  0.00000000000E+00 -0.15513592358E+04  0.15513592358E+04  0.50400001928E-02 0. -1.
    10030    2    1    2    0    0  0.00000000000E+00  0.00000000000E+00  0.46403755126E+03  0.35667560228E+04  0.35364413861E+04 0.  0.
        2    1    3    3  502    0 -0.57272740798E+03  0.50211808427E+03  0.18414625476E+04  0.19927678161E+04  0.25500000920E-02 0.  1.
       -2    1    3    3    0  502  0.57272740798E+03 -0.50211808427E+03 -0.13774249964E+04  0.15739882068E+04  0.25500000920E-02 0. -1.
</event>
<event>
 5   0  0.1298250E-07  0.3431951E+04  0.7818609E-02  0.8130109E-01
       -1   -1    0    0    0  501  0.00000000000E+00  0.00000000000E+00  0.33360402140E+04  0.33360402140E+04  0.50400001928E-02 0.  1.
        1   -1    0    0  501    0  0.00000000000E+00  0.00000000000E+00 -0.88265467938E+03  0.88265467939E+03  0.50400001928E-02 0. -1.
    10030    2    1    2    0    0  0.00000000000E+00  0.00000000000E+00  0.24533855346E+04  0.42186948934E+04  0.34319507604E+04 0.  0.
        2    1    3    3  502    0  0.66700225471E+03  0.80645917508E+03  0.28983264656E+04  0.30814874185E+04  0.25500000920E-02 0.  1.
       -2    1    3    3    0  502 -0.66700225471E+03 -0.80645917508E+03 -0.44494093103E+03  0.11372074749E+04  0.25500000920E-02 0. -1.
</event>
<event>
 5   0  0.1361743E-07  0.3604507E+04  0.7818609E-02  0.8089460E-01
       -1   -1    0    0    0  501  0.00000000000E+00  0.00000000000E+00  0.22930501643E+04  0.22930501643E+04  0.50400001928E-02 0.  1.
        1   -1    0    0  501    0  0.00000000000E+00  0.00000000000E+00 -0.14165050564E+04  0.14165050564E+04  0.50400001928E-02 0. -1.
    10030    2    1    2    0    0  0.00000000000E+00  0.00000000000E+00  0.87654510791E+03  0.37095552207E+04  0.36045067082E+04 0.  0.
        5    1    3    3  502    0  0.99260591069E+03  0.13053512391E+04  0.12076472415E+04  0.20365761222E+04  0.46999998093E+01 0.  1.
       -5    1    3    3    0  502 -0.99260591069E+03 -0.13053512391E+04 -0.33110213363E+03  0.16729790986E+04  0.46999998093E+01 0. -1.
</event>
<event>
 5   0  0.3993751E-07  0.3585724E+04  0.7818609E-02  0.8093770E-01
       -2   -1    0    0    0  501  0.00000000000E+00  0.00000000000E+00  0.13513007443E+04  0.13513007443E+04  0.25500000920E-02 0.  1.
        2   -1    0    0  501    0  0.00000000000E+00  0.00000000000E+00 -0.23787114947E+04  0.23787114947E+04  0.25500000920E-02 0. -1.
    10030    2    1    2    0    0  0.00000000000E+00  0.00000000000E+00 -0.10274107504E+04  0.37300122390E+04  0.35857242578E+04 0.  0.
        1    1    3    3  502    0 -0.13174560148E+04  0.66653386516E+03 -0.15716841774E+04  0.21564203898E+04  0.50400001928E-02 0. -1.
       -1    1    3    3    0  502  0.13174560148E+04 -0.66653386516E+03  0.54427342699E+03  0.15735918492E+04  0.50400001928E-02 0.  1.
</event>
<event>
 5   0  0.1298250E-07  0.3426972E+04  0.7818609E-02  0.8131318E-01
        1   -1    0    0  501    0  0.00000000000E+00  0.00000000000E+00  0.11929241826E+04  0.11929241826E+04  0.50400001928E-02 0.  1.
       -1   -1    0    0    0  501  0.00000000000E+00  0.00000000000E+00 -0.24612078775E+04  0.24612078775E+04  0.50400001928E-02 0. -1.
    10030    2    1    2    0    0  0.00000000000E+00  0.00000000000E+00 -0.12682836949E+04  0.36541320601E+04  0.34269720719E+04 0.  0.
        2    1    3    3  502    0 -0.17278119099E+03 -0.17020132267E+04 -0.73714767076E+03  0.18628175037E+04  0.25500000920E-02 0.  1.
       -2    1    3    3    0  502  0.17278119099E+03  0.17020132267E+04 -0.53113602409E+03  0.17913145563E+04  0.25500000920E-02 0. -1.
</event>
<event>
 5   0  0.1298250E-07  0.3594789E+04  0.7818609E-02  0.8091686E-01
       -1   -1    0    0    0  501  0.00000000000E+00  0.00000000000E+00  0.20212944423E+04  0.20212944423E+04  0.50400001928E-02 0. -1.
        1   -1    0    0  501    0  0.00000000000E+00  0.00000000000E+00 -0.15982963498E+04  0.15982963499E+04  0.50400001928E-02 0.  1.
    10030    2    1    2    0    0  0.00000000000E+00  0.00000000000E+00  0.42299809243E+03  0.36195907921E+04  0.35947893007E+04 0.  0.
        1    1    3    3  502    0  0.17868637304E+04  0.17739946018E+03  0.29126027588E+03  0.18191165735E+04  0.50400001928E-02 0. -1.
       -1    1    3    3    0  502 -0.17868637304E+04 -0.17739946018E+03  0.13173781655E+03  0.18004742186E+04  0.50400001928E-02 0.  1.
</event>
<event>
 5   0  0.4200635E-07  0.3617676E+04  0.7818609E-02  0.8086455E-01
        2   -1    0    0  501    0  0.00000000000E+00  0.00000000000E+00  0.20946939017E+04  0.20946939017E+04  0.25500000920E-02 0.  1.
       -2   -1    0    0    0  501  0.00000000000E+00  0.00000000000E+00 -0.15619921079E+04  0.15619921079E+04  0.25500000920E-02 0. -1.
    10030    2    1    2    0    0  0.00000000000E+00  0.00000000000E+00  0.53270179387E+03  0.36566860096E+04  0.36176762392E+04 0.  0.
        4    1    3    3  502    0  0.90676314839E+03  0.11246439118E+04 -0.83389493356E+03  0.16680604632E+04  0.12699999809E+01 0. -1.
       -4    1    3    3    0  502 -0.90676314839E+03 -0.11246439118E+04  0.13665967274E+04  0.19886255464E+04  0.12699999809E+01 0.  1.
</event>
<event>
 5   0  0.1361743E-07  0.3590239E+04  0.7818609E-02  0.8092731E-01
       -1   -1    0    0    0  501  0.00000000000E+00  0.00000000000E+00  0.11353888126E+04  0.11353888126E+04  0.50400001928E-02 0.  1.
        1   -1    0    0  501    0  0.00000000000E+00  0.00000000000E+00 -0.28381942237E+04  0.28381942237E+04  0.50400001928E-02 0. -1.
    10030    2    1    2    0    0  0.00000000000E+00  0.00000000000E+00 -0.17028054111E+04  0.39735830363E+04  0.35902389724E+04 0.  0.
        5    1    3    3  502    0 -0.10038168585E+04 -0.51592348047E+03  0.69357072741E+03  0.13247217696E+04  0.46999998093E+01 0.  1.
       -5    1    3    3    0  502  0.10038168585E+04  0.51592348047E+03 -0.23963761385E+04  0.26488612667E+04  0.46999998093E+01 0. -1.
</event>
<event>
 5   0  0.1298250E-07  0.3644413E+04  0.7818609E-02  0.8080394E-01
       -3   -1    0    0    0  501  0.00000000000E+00  0.00000000000E+00  0.14487398369E+04  0.14487398404E+04  0.10100000352E+00 0. -1.
        3   -1    0    0  501    0  0.00000000000E+00  0.00000000000E+00 -0.22919475598E+04  0.22919475620E+04  0.10100000352E+00 0.  1.
    10030    2    1    2    0    0  0.00000000000E+00  0.00000000000E+00 -0.84320772294E+03  0.37406874024E+04  0.36444125698E+04 0.  0.
        4    1    3    3  502    0 -0.54984071945E+03  0.16187088331E+04 -0.10690534433E+04  0.20162886650E+04  0.12699999809E+01 0. -1.
       -4    1    3    3    0  502  0.54984071945E+03 -0.16187088331E+04  0.22584572041E+03  0.17243987374E+04  0.12699999809E+01 0.  1.
</event>
<event>
 5   0  0.1298250E-07  0.3599686E+04  0.7818609E-02  0.8090564E-01
       -1   -1    0    0    0  501  0.00000000000E+00  0.00000000000E+00  0.11389626695E+04  0.11389626695E+04  0.50400001928E-02 0. -1.
        1   -1    0    0  501    0  0.00000000000E+00  0.00000000000E+00 -0.28441978332E+04  0.28441978332E+04  0.50400001928E-02 0.  1.
    10030    2    1    2    0    0  0.00000000000E+00  0.00000000000E+00 -0.17052351637E+04  0.39831605028E+04  0.35996861845E+04 0.  0.
        2    1    3    3  502    0 -0.91456580773E+03  0.99412476029E+03 -0.21687466742E+04  0.25550297048E+04  0.25500000920E-02 0.  1.
       -2    1    3    3    0  502  0.91456580773E+03 -0.99412476029E+03  0.46351151046E+03  0.14281307979E+04  0.25500000920E-02 0. -1.
</event>
<event>
 5   0  0.3993751E-07  0.3586414E+04  0.7818609E-02  0.8093611E-01
        2   -1    0    0  501    0  0.00000000000E+00  0.00000000000E+00  0.29065555313E+04  0.29065555313E+04  0.25500000920E-02 0.  1.
       -2   -1    0    0    0  501  0.00000000000E+00  0.00000000000E+00 -0.11063240060E+04  0.11063240060E+04  0.25500000920E-02 0. -1.
    10030    2    1    2    0    0  0.00000000000E+00  0.00000000000E+00  0.18002315253E+04  0.40128795373E+04  0.35864144540E+04 0.  0.
        1    1    3    3  502    0  0.16288106468E+04  0.72200671412E+03  0.67279677170E+03  0.19044614237E+04  0.50400001928E-02 0.  1.
       -1    1    3    3    0  502 -0.16288106468E+04 -0.72200671412E+03  0.11274347536E+04  0.21084181136E+04  0.50400001928E-02 0. -1.
</event>
<event>
 5   0  0.1348226E-07  0.3676114E+04  0.7818609E-02  0.8073276E-01
       -1   -1    0    0    0  501  0.00000000000E+00  0.00000000000E+00  0.14326306901E+04  0.14326306901E+04  0.50400001928E-02 0. -1.
        1   -1    0    0  501    0  0.00000000000E+00  0.00000000000E+00 -0.23582166696E+04  0.23582166696E+04  0.50400001928E-02 0.  1.
    10030    2    1    2    0    0  0.00000000000E+00  0.00000000000E+00 -0.92558597947E+03  0.37908473597E+04  0.36761140215E+04 0.  0.
        4    1    3    3  502    0  0.15609553642E+04 -0.59899014910E+03  0.32463674745E+03  0.17031621996E+04  0.12699999809E+01 0. -1.
       -4    1    3    3    0  502 -0.15609553642E+04  0.59899014910E+03 -0.12502227269E+04  0.20876851600E+04  0.12699999809E+01 0.  1.
</event>
<event>
 5   0  0.3993751E-07  0.3609700E+04  0.7818609E-02  0.8088273E-01
       -2   -1    0    0    0  501  0.00000000000E+00  0.00000000000E+00  0.14146295778E+04  0.14146295778E+04  0.25500000920E-02 0.  1.
        2   -1    0    0  501    0  0.00000000000E+00  0.00000000000E+00 -0.23027111632E+04  0.23027111632E+04  0.25500000920E-02 0. -1.
    10030    2    1    2    0    0  0.00000000000E+00  0.00000000000E+00 -0.88808158539E+03  0.37173407409E+04  0.36096998881E+04 0.  0.
        1    1    3    3  502    0 -0.17390855835E+03 -0.65362923776E+03  0.12791799273E+04  0.14469888229E+04  0.50400001928E-02 0.  1.
       -1    1    3    3    0  502  0.17390855835E+03  0.65362923776E+03 -0.21672615127E+04  0.22703519180E+04  0.50400001928E-02 0. -1.
</event>
<event>
 5   0  0.4115358E-07  0.3630279E+04  0.7818609E-02  0.8083591E-01
       -2   -1    0    0    0  501  0.00000000000E+00  0.00000000000E+00  0.12948308796E+04  0.12948308796E+04  0.25500000920E-02 0. -1.
        2   -1    0    0  501    0  0.00000000000E+00  0.00000000000E+00 -0.25445264508E+04  0.25445264508E+04  0.25500000920E-02 0.  1.
    10030    2    1    2    0    0  0.00000000000E+00  0.00000000000E+00 -0.12496955712E+04  0.38393573304E+04  0.36302790099E+04 0.  0.
        3    1    3    3  502    0  0.15472263349E+04 -0.93035499686E+03 -0.42625205373E+03  0.18550365428E+04  0.10100000352E+00 0. -1.
       -3    1    3    3    0  502 -0.15472263349E+04  0.93035499686E+03 -0.82344351747E+03  0.19843207876E+04  0.10100000352E+00 0.  1.
</event>
<event>
 5   0  0.4115358E-07  0.3585362E+04  0.7818609E-02  0.8093853E-01
       -2   -1    0    0    0  501  0.00000000000E+00  0.00000000000E+00  0.16519067098E+04  0.16519067098E+04  0.25500000920E-02 0. -1.
        2   -1    0    0  501    0  0.00000000000E+00  0.00000000000E+00 -0.19454516389E+04  0.19454516389E+04  0.25500000920E-02 0.  1.
    10030    2    1    2    0    0  0.00000000000E+00  0.00000000000E+00 -0.29354492911E+03  0.35973583486E+04  0.35853616921E+04 0.  0.
        3    1    3    3  502    0  0.60608129737E+03 -0.44389314436E+03  0.14863496886E+04  0.16654161851E+04  0.10100000352E+00 0. -1.
       -3    1    3    3    0  502 -0.60608129737E+03  0.44389314436E+03 -0.17798946177E+04  0.19319421635E+04  0.10100000352E+00 0.  1.
</event>
<event>
 5   0  0.1298250E-07  0.3185928E+04  0.7818609E-02  0.8192543E-01
        1   -1    0    0  501    0  0.00000000000E+00  0.00000000000E+00  0.14432067348E+04  0.14432067348E+04  0.50400001928E-02 0.  1.
       -1   -1    0    0    0  501  0.00000000000E+00  0.00000000000E+00 -0.17582615268E+04  0.17582615268E+04  0.50400001928E-02 0. -1.
    10030    2    1    2    0    0  0.00000000000E+00  0.00000000000E+00 -0.31505479194E+03  0.32014682616E+04  0.31859283589E+04 0.  0.
        1    1    3    3  502    0  0.15591796312E+04  0.95117464138E+02 -0.47121412488E+03  0.16316038753E+04  0.50400001928E-02 0.  1.
       -1    1    3    3    0  502 -0.15591796312E+04 -0.95117464138E+02  0.15615933295E+03  0.15698643864E+04  0.50400001928E-02 0. -1.
</event>
<event>
 5   0  0.1361743E-07  0.3583778E+04  0.7818609E-02  0.8094218E-01
       -1   -1    0    0    0  501  0.00000000000E+00  0.00000000000E+00  0.18933612817E+04  0.18933612817E+04  0.50400001928E-02 0. -1.
        1   -1    0    0  501    0  0.00000000000E+00  0.00000000000E+00 -0.16958548491E+04  0.16958548491E+04  0.50400001928E-02 0.  1.
    10030    2    1    2    0    0  0.00000000000E+00  0.00000000000E+00  0.19750643261E+03  0.35892161308E+04  0.35837778451E+04 0.  0.
        5    1    3    3  502    0 -0.69033289912E+02  0.10436586753E+04  0.15559025597E+04  0.18747916927E+04  0.46999998093E+01 0. -1.
       -5    1    3    3    0  502  0.69033289912E+02 -0.10436586753E+04 -0.13583961271E+04  0.17144244381E+04  0.46999998093E+01 0.  1.
</event>
<event>
 5   0  0.4115358E-07  0.3637714E+04  0.7818609E-02  0.8081907E-01
       -2   -1    0    0    0  501  0.00000000000E+00  0.00000000000E+00  0.17217064212E+04  0.17217064212E+04  0.25500000920E-02 0.  1.
        2   -1    0    0  501    0  0.00000000000E+00  0.00000000000E+00 -0.19214891921E+04  0.19214891921E+04  0.25500000920E-02 0. -1.
    10030    2    1    2    0    0  0.00000000000E+00  0.00000000000E+00 -0.19978277094E+03  0.36431956133E+04  0.36377137217E+04 0.  0.
        3    1    3    3  502    0  0.21176314475E+03  0.43597320669E+03 -0.18556230677E+04  0.19178772760E+04  0.10100000352E+00 0. -1.
       -3    1    3    3    0  502 -0.21176314475E+03 -0.43597320669E+03  0.16558402967E+04  0.17253183373E+04  0.10100000352E+00 0.  1.
</event>
<event>
 5   0  0.1361743E-07  0.3495639E+04  0.7818609E-02  0.8114824E-01
        1   -1    0    0  501    0  0.00000000000E+00  0.00000000000E+00  0.24475116399E+04  0.24475116399E+04  0.50400001928E-02 0.  1.
       -1   -1    0    0    0  501  0.00000000000E+00  0.00000000000E+00 -0.12481548562E+04  0.12481548562E+04  0.50400001928E-02 0. -1.
    10030    2    1    2    0    0  0.00000000000E+00  0.00000000000E+00  0.11993567837E+04  0.36956664961E+04  0.34956393058E+04 0.  0.
        5    1    3    3  502    0  0.99369864028E+03  0.12624205501E+04  0.13273273174E+04  0.20839775744E+04  0.46999998093E+01 0. -1.
       -5    1    3    3    0  502 -0.99369864028E+03 -0.12624205501E+04 -0.12797053375E+03  0.16116889217E+04  0.46999998093E+01 0.  1.
</event>
<event>
 5   0  0.4120440E-07  0.3596347E+04  0.7818609E-02  0.8091329E-01
       -2   -1    0    0    0  501  0.00000000000E+00  0.00000000000E+00  0.13490168352E+04  0.13490168352E+04  0.25500000920E-02 0. -1.
        2   -1    0    0  501    0  0.00000000000E+00  0.00000000000E+00 -0.23968772882E+04  0.23968772882E+04  0.25500000920E-02 0.  1.
    10030    2    1    2    0    0  0.00000000000E+00  0.00000000000E+00 -0.10478604531E+04  0.37458941234E+04  0.35963469319E+04 0.  0.
        2    1    3    3  502    0  0.46895199941E+03 -0.18106789772E+03 -0.23222004941E+04  0.23759875202E+04  0.25500000920E-02 0.  1.
       -2    1    3    3    0  502 -0.46895199941E+03  0.18106789772E+03  0.12743400410E+04  0.13699066032E+04  0.25500000920E-02 0. -1.
</event>
<event>
 5   0  0.1370997E-07  0.3595740E+04  0.7818609E-02  0.8091468E-01
        1   -1    0    0  501    0  0.00000000000E+00  0.00000000000E+00  0.18992919050E+04  0.18992919050E+04  0.50400001928E-02 0. -1.
       -1   -1    0    0    0  501  0.00000000000E+00  0.00000000000E+00 -0.17018642768E+04  0.17018642768E+04  0.50400001928E-02 0.  1.
    10030    2    1    2    0    0  0.00000000000E+00  0.00000000000E+00  0.19742762820E+03  0.36011561819E+04  0.35957402823E+04 0.  0.
        3    1    3    3  502    0  0.10837671075E+04 -0.41022535157E+03  0.14753754525E+04  0.18760513635E+04  0.10100000352E+00 0. -1.
       -3    1    3    3    0  502 -0.10837671075E+04  0.41022535157E+03 -0.12779478243E+04  0.17251048184E+04  0.10100000352E+00 0.  1.
</event>
<event>
 5   0  0.1298250E-07  0.3378403E+04  0.7818609E-02  0.8143227E-01
       -1   -1    0    0    0  501  0.00000000000E+00  0.00000000000E+00  0.15698319500E+04  0.15698319501E+04  0.50400001928E-02 0.  1.
        1   -1    0    0  501    0  0.00000000000E+00  0.00000000000E+00 -0.18176483863E+04  0.18176483863E+04  0.50400001928E-02 0. -1.
    10030    2    1    2    0    0  0.00000000000E+00  0.00000000000E+00 -0.24781643621E+03  0.33874803363E+04  0.33784034754E+04 0.  0.
        1    1    3    3  502    0 -0.66780338541E+03 -0.14949861769E+04 -0.54030396564E+03  0.17242022521E+04  0.50400001928E-02 0. -1.
       -1    1    3    3    0  502  0.66780338541E+03  0.14949861769E+04  0.29248752943E+03  0.16632780843E+04  0.50400001928E-02 0.  1.
</event>
<event>
 5   0  0.1348226E-07  0.3600852E+04  0.7818609E-02  0.8090297E-01
        1   -1    0    0  501    0  0.00000000000E+00  0.00000000000E+00  0.21884896783E+04  0.21884896783E+04  0.50400001928E-02 0. -1.
       -1   -1    0    0    0  501  0.00000000000E+00  0.00000000000E+00 -0.14811740283E+04  0.14811740283E+04  0.50400001928E-02 0.  1.
    10030    2    1    2    0    0  0.00000000000E+00  0.00000000000E+00  0.70731565003E+03  0.36696637066E+04  0.36008521617E+04 0.  0.
        4    1    3    3  502    0 -0.50879825474E+03 -0.12403491707E+04  0.15783677916E+04  0.20708906847E+04  0.12699999809E+01 0. -1.
       -4    1    3    3    0  502  0.50879825474E+03  0.12403491707E+04 -0.87105214161E+03  0.15987730219E+04  0.12699999809E+01 0.  1.
</event>
<event>
 5   0  0.4200635E-07  0.3714597E+04  0.7818609E-02  0.8064735E-01
        2   -1    0    0  501    0  0.00000000000E+00  0.00000000000E+00  0.24251012257E+04  0.24251012257E+04  0.25500000920E-02 0.  1.
       -2   -1    0    0    0  501  0.00000000000E+00  0.00000000000E+00 -0.14224383752E+04  0.14224383752E+04  0.25500000920E-02 0. -1.
    10030    2    1    2    0    0  0.00000000000E+00  0.00000000000E+00  0.10026628504E+04  0.38475396009E+04  0.37145966388E+04 0.  0.
        4    1    3    3  502    0  0.58527421202E+03  0.15855438095E+03 -0.13170232500E+04  0.14499093933E+04  0.12699999809E+01 0. -1.
       -4    1    3    3    0  502 -0.58527421202E+03 -0.15855438095E+03  0.23196861004E+04  0.23976302076E+04  0.12699999809E+01 0.  1.
</event>
<event>
 5   0  0.1370997E-07  0.3598939E+04  0.7818609E-02  0.8090735E-01
        1   -1    0    0  501    0  0.00000000000E+00  0.00000000000E+00  0.18601091117E+04  0.18601091117E+04  0.50400001928E-02 0. -1.
       -1   -1    0    0    0  501  0.00000000000E+00  0.00000000000E+00 -0.17408068006E+04  0.17408068006E+04  0.50400001928E-02 0.  1.
    10030    2    1    2    0    0  0.00000000000E+00  0.00000000000E+00  0.11930231113E+03  0.36009159122E+04  0.35989390611E+04 0.  0.
        3    1    3    3  502    0  0.10684534835E+04 -0.76750933236E+03  0.12880988082E+04  0.18411577802E+04  0.10100000352E+00 0. -1.
       -3    1    3    3    0  502 -0.10684534835E+04  0.76750933236E+03 -0.11687964971E+04  0.17597581321E+04  0.10100000352E+00 0.  1.
</event>
<event>
 5   0  0.1361743E-07  0.3525759E+04  0.7818609E-02  0.8107712E-01
       -1   -1    0    0    0  501  0.00000000000E+00  0.00000000000E+00  0.15089597950E+04  0.15089597950E+04  0.50400001928E-02 0. -1.
        1   -1    0    0  501    0  0.00000000000E+00  0.00000000000E+00 -0.20595276419E+04  0.20595276419E+04  0.50400001928E-02 0.  1.
    10030    2    1    2    0    0  0.00000000000E+00  0.00000000000E+00 -0.55056784697E+03  0.35684874369E+04  0.35257591570E+04 0.  0.
        5    1    3    3  502    0 -0.16377788329E+04  0.21545845024E+03 -0.89835837525E+03  0.18803754172E+04  0.46999998093E+01 0.  1.
       -5    1    3    3    0  502  0.16377788329E+04 -0.21545845024E+03  0.34779052827E+03  0.16881120197E+04  0.46999998093E+01 0. -1.
</event>
<event>
 5   0  0.1348226E-07  0.3634796E+04  0.7818609E-02  0.8082567E-01
       -1   -1    0    0    0  501  0.00000000000E+00  0.00000000000E+00  0.17837685436E+04  0.17837685437E+04  0.50400001928E-02 0. -1.
        1   -1    0    0  501    0  0.00000000000E+00  0.00000000000E+00 -0.18516612340E+04  0.18516612340E+04  0.50400001928E-02 0.  1.
    10030    2    1    2    0    0  0.00000000000E+00  0.00000000000E+00 -0.67892690315E+02  0.36354297776E+04  0.36347957646E+04 0.  0.
        4    1    3    3  502    0  0.14777606566E+04 -0.10488357325E+04 -0.17217500172E+03  0.18202963485E+04  0.12699999809E+01 0.  1.
       -4    1    3    3    0  502 -0.14777606566E+04  0.10488357325E+04  0.10428231141E+03  0.18151334291E+04  0.12699999809E+01 0. -1.
</event>
<event>
 5   0  0.4120440E-07  0.3440861E+04  0.7818609E-02  0.8127950E-01
        2   -1    0    0  501    0  0.00000000000E+00  0.00000000000E+00  0.21357636941E+04  0.21357636941E+04  0.25500000920E-02 0. -1.
       -2   -1    0    0    0  501  0.00000000000E+00  0.00000000000E+00 -0.13858651313E+04  0.13858651313E+04  0.25500000920E-02 0.  1.
    10030    2    1    2    0    0  0.00000000000E+00  0.00000000000E+00  0.74989856280E+03  0.35216288254E+04  0.34408606088E+04 0.  0.
        2    1    3    3  502    0 -0.88962522801E+03  0.12120748272E+04 -0.48093508934E+03  0.15785616849E+04  0.25500000920E-02 0.  1.
       -2    1    3    3    0  502  0.88962522801E+03 -0.12120748272E+04  0.12308336521E+04  0.19430671404E+04  0.25500000920E-02 0. -1.
</event>
<event>
 5   0  0.4200635E-07  0.3575353E+04  0.7818609E-02  0.8096161E-01
        2   -1    0    0  501    0  0.00000000000E+00  0.00000000000E+00  0.22974208170E+04  0.22974208170E+04  0.25500000920E-02 0. -1.
       -2   -1    0    0    0  501  0.00000000000E+00  0.00000000000E+00 -0.13910326177E+04  0.13910326178E+04  0.25500000920E-02 0.  1.
    10030    2    1    2    0    0  0.00000000000E+00  0.00000000000E+00  0.90638819923E+03  0.36884534347E+04  0.35753530137E+04 0.  0.
        4    1    3    3  502    0  0.76842738974E+03 -0.15140397716E+04 -0.12395714178E+03  0.17023995034E+04  0.12699999809E+01 0.  1.
       -4    1    3    3    0  502 -0.76842738974E+03  0.15140397716E+04  0.10303453410E+04  0.19860539313E+04  0.12699999809E+01 0. -1.
</event>
<event>
 5   0  0.4200635E-07  0.3489515E+04  0.7818609E-02  0.8116279E-01
        2   -1    0    0  501    0  0.00000000000E+00  0.00000000000E+00  0.13874076356E+04  0.13874076356E+04  0.25500000920E-02 0.  1.
       -2   -1    0    0    0  501  0.00000000000E+00  0.00000000000E+00 -0.21941487113E+04  0.21941487113E+04  0.25500000920E-02 0. -1.
    10030    2    1    2    0    0  0.00000000000E+00  0.00000000000E+00 -0.80674107576E+03  0.35815563469E+04  0.34895149667E+04 0.  0.
        4    1    3    3  502    0  0.41696225845E+03  0.11057733209E+04  0.91406879172E+03  0.14940266166E+04  0.12699999809E+01 0.  1.
       -4    1    3    3    0  502 -0.41696225845E+03 -0.11057733209E+04 -0.17208098675E+04  0.20875297303E+04  0.12699999809E+01 0. -1.
</event>
<event>
 5   0  0.1348226E-07  0.3556564E+04  0.7818609E-02  0.8100514E-01
        1   -1    0    0  501    0  0.00000000000E+00  0.00000000000E+00  0.18816047118E+04  0.18816047118E+04  0.50400001928E-02 0.  1.
       -1   -1    0    0    0  501  0.00000000000E+00  0.00000000000E+00 -0.16806328051E+04  0.16806328051E+04  0.50400001928E-02 0. -1.
    10030    2    1    2    0    0  0.00000000000E+00  0.00000000000E+00  0.20097190673E+03  0.35622375169E+04  0.35565638500E+04 0.  0.
        4    1    3    3  502    0 -0.14114337776E+03  0.83600639397E+03 -0.14651637506E+04  0.16927889924E+04  0.12699999809E+01 0. -1.
       -4    1    3    3    0  502  0.14114337776E+03 -0.83600639397E+03  0.16661356574E+04  0.18694485244E+04  0.12699999809E+01 0.  1.
</event>
<event>
 5   0  0.4120440E-07  0.3388794E+04  0.7818609E-02  0.8140662E-01
        2   -1    0    0  501    0  0.00000000000E+00  0.00000000000E+00  0.15389921620E+04  0.15389921620E+04  0.25500000920E-02 0. -1.
       -2   -1    0    0    0  501  0.00000000000E+00  0.00000000000E+00 -0.18654945967E+04  0.18654945967E+04  0.25500000920E-02 0.  1.
    10030    2    1    2    0    0  0.00000000000E+00  0.00000000000E+00 -0.32650243475E+03  0.34044867587E+04  0.33887942178E+04 0.  0.
        2    1    3    3  502    0  0.16036161305E+04  0.53631225640E+03 -0.27222486030E+03  0.17126943408E+04  0.25500000920E-02 0. -1.
       -2    1    3    3    0  502 -0.16036161305E+04 -0.53631225640E+03 -0.54277574449E+02  0.16917924180E+04  0.25500000920E-02 0.  1.
</event>
<event>
 5   0  0.4200635E-07  0.3605996E+04  0.7818609E-02  0.8089120E-01
        2   -1    0    0  501    0  0.00000000000E+00  0.00000000000E+00  0.28002553582E+04  0.28002553582E+04  0.25500000920E-02 0. -1.
       -2   -1    0    0    0  501  0.00000000000E+00  0.00000000000E+00 -0.11608950337E+04  0.11608950337E+04  0.25500000920E-02 0.  1.
    10030    2    1    2    0    0  0.00000000000E+00  0.00000000000E+00  0.16393603245E+04  0.39611503920E+04  0.36059964163E+04 0.  0.
        4    1    3    3  502    0  0.17625742962E+04 -0.30518828367E+03  0.10677367944E+04  0.20832358275E+04  0.12699999809E+01 0. -1.
       -4    1    3    3    0  502 -0.17625742962E+04  0.30518828367E+03  0.57162353013E+03  0.18779145644E+04  0.12699999809E+01 0.  1.
</event>
<event>
 5   0  0.3880259E-07  0.3601523E+04  0.7818609E-02  0.8090143E-01
       -2   -1    0    0    0  501  0.00000000000E+00  0.00000000000E+00  0.18868841799E+04  0.18868841799E+04  0.25500000920E-02 0. -1.
        2   -1    0    0  501    0  0.00000000000E+00  0.00000000000E+00 -0.17185692657E+04  0.17185692657E+04  0.25500000920E-02 0.  1.
    10030    2    1    2    0    0  0.00000000000E+00  0.00000000000E+00  0.16831491418E+03  0.36054534456E+04  0.36015225444E+04 0.  0.
        5    1    3    3  502    0 -0.12020986524E+04 -0.41974311924E+03  0.13589261109E+04  0.18622372892E+04  0.46999998093E+01 0. -1.
       -5    1    3    3    0  502  0.12020986524E+04  0.41974311924E+03 -0.11906111967E+04  0.17432161564E+04  0.46999998093E+01 0.  1.
</event>
<event>
 5   0  0.1298250E-07  0.3590481E+04  0.7818609E-02  0.8092676E-01
        1   -1    0    0  501    0  0.00000000000E+00  0.00000000000E+00  0.13381113443E+04  0.13381113443E+04  0.50400001928E-02 0. -1.
       -1   -1    0    0    0  501  0.00000000000E+00  0.00000000000E+00 -0.24085347435E+04  0.24085347435E+04  0.50400001928E-02 0.  1.
    10030    2    1    2    0    0  0.00000000000E+00  0.00000000000E+00 -0.10704233993E+04  0.37466460878E+04  0.35904805603E+04 0.  0.
        2    1    3    3  502    0  0.98508096067E+03  0.12986337527E+03  0.10250264681E+04  0.14275602459E+04  0.25500000920E-02 0. -1.
       -2    1    3    3    0  502 -0.98508096067E+03 -0.12986337527E+03 -0.20954498674E+04  0.23190858419E+04  0.25500000920E-02 0.  1.
</event>
<event>
 5   0  0.3880259E-07  0.3593639E+04  0.7818609E-02  0.8091950E-01
       -2   -1    0    0    0  501  0.00000000000E+00  0.00000000000E+00  0.15976916155E+04  0.15976916155E+04  0.25500000920E-02 0. -1.
        2   -1    0    0  501    0  0.00000000000E+00  0.00000000000E+00 -0.20207661282E+04  0.20207661282E+04  0.25500000920E-02 0.  1.
    10030    2    1    2    0    0  0.00000000000E+00  0.00000000000E+00 -0.42307451267E+03  0.36184577437E+04  0.35936394365E+04 0.  0.
        5    1    3    3  502    0  0.35139570111E+02 -0.95304603497E+03 -0.17448829545E+04  0.19885095295E+04  0.46999998093E+01 0.  1.
       -5    1    3    3    0  502 -0.35139570111E+02  0.95304603497E+03  0.13218084418E+04  0.16299482142E+04  0.46999998093E+01 0. -1.
</event>
<event>
 5   0  0.1298250E-07  0.3597101E+04  0.7818609E-02  0.8091156E-01
        3   -1    0    0  501    0  0.00000000000E+00  0.00000000000E+00  0.17989245670E+04  0.17989245698E+04  0.10100000352E+00 0.  1.
       -3   -1    0    0    0  501  0.00000000000E+00  0.00000000000E+00 -0.17981766169E+04  0.17981766197E+04  0.10100000352E+00 0. -1.
    10030    2    1    2    0    0  0.00000000000E+00  0.00000000000E+00  0.74795009055E+00  0.35971011895E+04  0.35971011117E+04 0.  0.
        1    1    3    3  502    0 -0.15036513251E+04 -0.88829974147E+03  0.43018832084E+03  0.17986399666E+04  0.50400001928E-02 0.  1.
       -1    1    3    3    0  502  0.15036513251E+04  0.88829974147E+03 -0.42944037075E+03  0.17984612229E+04  0.50400001928E-02 0. -1.
</event>
<event>
 5   0  0.1298250E-07  0.3598748E+04  0.7818609E-02  0.8090779E-01
       -1   -1    0    0    0  501  0.00000000000E+00  0.00000000000E+00  0.24449194112E+04  0.24449194113E+04  0.50400001928E-02 0. -1.
        1   -1    0    0  501    0  0.00000000000E+00  0.00000000000E+00 -0.13242754195E+04  0.13242754195E+04  0.50400001928E-02 0.  1.
    10030    2    1    2    0    0  0.00000000000E+00  0.00000000000E+00  0.11206439917E+04  0.37691948308E+04  0.35987479373E+04 0.  0.
        2    1    3    3  502    0  0.38281905650E+03 -0.36406518732E+03 -0.12412190387E+04  0.13489694558E+04  0.25500000920E-02 0.  1.
       -2    1    3    3    0  502 -0.38281905650E+03  0.36406518732E+03  0.23618630305E+04  0.24202253749E+04  0.25500000920E-02 0. -1.
</event>
<event>
 5   0  0.3993751E-07  0.3603787E+04  0.7818609E-02  0.8089625E-01
       -2   -1    0    0    0  501  0.00000000000E+00  0.00000000000E+00  0.24919731433E+04  0.24919731433E+04  0.25500000920E-02 0. -1.
        2   -1    0    0  501    0  0.00000000000E+00  0.00000000000E+00 -0.13029115187E+04  0.13029115187E+04  0.25500000920E-02 0.  1.
    10030    2    1    2    0    0  0.00000000000E+00  0.00000000000E+00  0.11890616246E+04  0.37948846620E+04  0.36037871817E+04 0.  0.
        1    1    3    3  502    0 -0.11452192081E+04 -0.11621797537E+04 -0.21062628223E+03  0.16451602492E+04  0.50400001928E-02 0. -1.
       -1    1    3    3    0  502  0.11452192081E+04  0.11621797537E+04  0.13996879069E+04  0.21497244129E+04  0.50400001928E-02 0.  1.
</event>
<event>
 5   0  0.1348226E-07  0.3577459E+04  0.7818609E-02  0.8095675E-01
        1   -1    0    0  501    0  0.00000000000E+00  0.00000000000E+00  0.16209442678E+04  0.16209442678E+04  0.50400001928E-02 0. -1.
       -1   -1    0    0    0  501  0.00000000000E+00  0.00000000000E+00 -0.19738823556E+04  0.19738823556E+04  0.50400001928E-02 0.  1.
    10030    2    1    2    0    0  0.00000000000E+00  0.00000000000E+00 -0.35293808777E+03  0.35948266234E+04  0.35774590366E+04 0.  0.
        4    1    3    3  502    0  0.59077450684E+03  0.78810597261E+03 -0.16768440600E+04  0.19447193002E+04  0.12699999809E+01 0.  1.
       -4    1    3    3    0  502 -0.59077450684E+03 -0.78810597261E+03  0.13239059722E+04  0.16501073232E+04  0.12699999809E+01 0. -1.
</event>
<event>
 5   0  0.4115358E-07  0.3606750E+04  0.7818609E-02  0.8088947E-01
       -2   -1    0    0    0  501  0.00000000000E+00  0.00000000000E+00  0.17128911643E+04  0.17128911643E+04  0.25500000920E-02 0.  1.
        2   -1    0    0  501    0  0.00000000000E+00  0.00000000000E+00 -0.18986381983E+04  0.18986381983E+04  0.25500000920E-02 0. -1.
    10030    2    1    2    0    0  0.00000000000E+00  0.00000000000E+00 -0.18574703402E+03  0.36115293626E+04  0.36067495583E+04 0.  0.
        3    1    3    3  502    0 -0.14524545854E+04 -0.17499949951E+03  0.96299602301E+03  0.17514595336E+04  0.10100000352E+00 0.  1.
       -3    1    3    3    0  502  0.14524545854E+04  0.17499949951E+03 -0.11487430570E+04  0.18600698290E+04  0.10100000352E+00 0. -1.
</event>
<event>
 5   0  0.1361743E-07  0.3616572E+04  0.7818609E-02  0.8086706E-01
        1   -1    0    0  501    0  0.00000000000E+00  0.00000000000E+00  0.12340898736E+04  0.12340898736E+04  0.50400001928E-02 0.  1.
       -1   -1    0    0    0  501  0.00000000000E+00  0.00000000000E+00 -0.26496434521E+04  0.26496434521E+04  0.50400001928E-02 0. -1.
    10030    2    1    2    0    0  0.00000000000E+00  0.00000000000E+00 -0.14155535785E+04  0.38837333257E+04  0.36165719420E+04 0.  0.
        5    1    3    3  502    0  0.57926403204E+03  0.48703585444E+03  0.10558344430E+04  0.12990608929E+04  0.46999998093E+01 0.  1.
       -5    1    3    3    0  502 -0.57926403204E+03 -0.48703585444E+03 -0.24713880215E+04  0.25846724328E+04  0.46999998093E+01 0. -1.
</event>
<event>
 5   0  0.1370997E-07  0.3242525E+04  0.7818609E-02  0.8177676E-01
       -1   -1    0    0    0  501  0.00000000000E+00  0.00000000000E+00  0.16041355257E+04  0.16041355257E+04  0.50400001928E-02 0.  1.
        1   -1    0    0  501    0  0.00000000000E+00  0.00000000000E+00 -0.16385725327E+04  0.16385725327E+04  0.50400001928E-02 0. -1.
    10030    2    1    2    0    0  0.00000000000E+00  0.00000000000E+00 -0.34437007031E+02  0.32427080584E+04  0.32425251957E+04 0.  0.
        3    1    3    3  502    0 -0.95158613862E+03 -0.91222092590E+03 -0.96110921956E+03  0.16313779878E+04  0.10100000352E+00 0. -1.
       -3    1    3    3    0  502  0.95158613862E+03  0.91222092590E+03  0.92667221253E+03  0.16113300706E+04  0.10100000352E+00 0.  1.
</event>
<event>
 5   0  0.4120440E-07  0.3597569E+04  0.7818609E-02  0.8091049E-01
       -2   -1    0    0    0  501  0.00000000000E+00  0.00000000000E+00  0.14421045941E+04  0.14421045941E+04  0.25500000920E-02 0.  1.
        2   -1    0    0  501    0  0.00000000000E+00  0.00000000000E+00 -0.22436825657E+04  0.22436825657E+04  0.25500000920E-02 0. -1.
    10030    2    1    2    0    0  0.00000000000E+00  0.00000000000E+00 -0.80157797163E+03  0.36857871598E+04  0.35975685877E+04 0.  0.
        2    1    3    3  502    0  0.81888935120E+03  0.13312608557E+04  0.51143223281E+03  0.16445054467E+04  0.25500000920E-02 0. -1.
       -2    1    3    3    0  502 -0.81888935120E+03 -0.13312608557E+04 -0.13130102044E+04  0.20412817131E+04  0.25500000920E-02 0.  1.
</event>
<event>
 5   0  0.3880259E-07  0.3593551E+04  0.7818609E-02  0.8091970E-01
        2   -1    0    0  501    0  0.00000000000E+00  0.00000000000E+00  0.18201230990E+04  0.18201230990E+04  0.25500000920E-02 0. -1.
       -2   -1    0    0    0  501  0.00000000000E+00  0.00000000000E+00 -0.17737277500E+04  0.17737277500E+04  0.25500000920E-02 0.  1.
    10030    2    1    2    0    0  0.00000000000E+00  0.00000000000E+00  0.46395349024E+02  0.35938508490E+04  0.35935513627E+04 0.  0.
        5    1    3    3  502    0 -0.76398838780E+03  0.58370970344E+03  0.15412126707E+04  0.18165224636E+04  0.46999998093E+01 0. -1.
       -5    1    3    3    0  502  0.76398838780E+03 -0.58370970344E+03 -0.14948173216E+04  0.17773283854E+04  0.46999998093E+01 0.  1.
</event>
<event>
 5   0  0.1348226E-07  0.3590331E+04  0.7818609E-02  0.8092710E-01
       -1   -1    0    0    0  501  0.00000000000E+00  0.00000000000E+00  0.23626364148E+04  0.23626364148E+04  0.50400001928E-02 0. -1.
        1   -1    0    0  501    0  0.00000000000E+00  0.00000000000E+00 -0.13639929948E+04  0.13639929949E+04  0.50400001928E-02 0.  1.
    10030    2    1    2    0    0  0.00000000000E+00  0.00000000000E+00  0.99864341991E+03  0.37266294096E+04  0.35903311931E+04 0.  0.
        4    1    3    3  502    0 -0.68252155165E+03 -0.32110545410E+03 -0.11915296865E+04  0.14102088455E+04  0.12699999809E+01 0.  1.
       -4    1    3    3    0  502  0.68252155165E+03  0.32110545410E+03  0.21901731064E+04  0.23164205642E+04  0.12699999809E+01 0. -1.
</event>
<event>
 5   0  0.4200635E-07  0.3598651E+04  0.7818609E-02  0.8090801E-01
       -2   -1    0    0    0  501  0.00000000000E+00  0.00000000000E+00  0.11610331212E+04  0.11610331212E+04  0.25500000920E-02 0. -1.
        2   -1    0    0  501    0  0.00000000000E+00  0.00000000000E+00 -0.27885276221E+04  0.27885276221E+04  0.25500000920E-02 0.  1.
    10030    2    1    2    0    0  0.00000000000E+00  0.00000000000E+00 -0.16274945008E+04  0.39495607433E+04  0.35986513744E+04 0.  0.
        4    1    3    3  502    0  0.16146549531E+04 -0.33855017102E+03 -0.16020053022E+04  0.22995976685E+04  0.12699999809E+01 0.  1.
       -4    1    3    3    0  502 -0.16146549531E+04  0.33855017102E+03 -0.25489198620E+02  0.16499630748E+04  0.12699999809E+01 0. -1.
</event>
<event>
 5   0  0.1361743E-07  0.3614070E+04  0.7818609E-02  0.8087276E-01
       -1   -1    0    0    0  501  0.00000000000E+00  0.00000000000E+00  0.12162992556E+04  0.12162992556E+04  0.50400001928E-02 0. -1.
        1   -1    0    0  501    0  0.00000000000E+00  0.00000000000E+00 -0.26846806766E+04  0.26846806766E+04  0.50400001928E-02 0.  1.
    10030    2    1    2    0    0  0.00000000000E+00  0.00000000000E+00 -0.14683814210E+04  0.39009799322E+04  0.36140697882E+04 0.  0.
        5    1    3    3  502    0 -0.11293611423E+04  0.74887273504E+03  0.55615586138E+03  0.14647861261E+04  0.46999998093E+01 0. -1.
       -5    1    3    3    0  502  0.11293611423E+04 -0.74887273504E+03 -0.20245372824E+04  0.24361938061E+04  0.46999998093E+01 0.  1.
</event>
<event>
 5   0  0.4120440E-07  0.3601449E+04  0.7818609E-02  0.8090160E-01
        2   -1    0    0  501    0  0.00000000000E+00  0.00000000000E+00  0.20858919483E+04  0.20858919483E+04  0.25500000920E-02 0.  1.
       -2   -1    0    0    0  501  0.00000000000E+00  0.00000000000E+00 -0.15545433145E+04  0.15545433145E+04  0.25500000920E-02 0. -1.
    10030    2    1    2    0    0  0.00000000000E+00  0.00000000000E+00  0.53134863383E+03  0.36404352629E+04  0.36014493655E+04 0.  0.
        2    1    3    3  502    0  0.11902369594E+04 -0.12483274709E+04  0.78859815245E+03  0.18965422590E+04  0.25500000920E-02 0.  1.
       -2    1    3    3    0  502 -0.11902369594E+04  0.12483274709E+04 -0.25724951862E+03  0.17438930039E+04  0.25500000920E-02 0. -1.
</event>
<event>
 5   0  0.4115358E-07  0.3605528E+04  0.7818609E-02  0.8089227E-01
       -2   -1    0    0    0  501  0.00000000000E+00  0.00000000000E+00  0.16972978965E+04  0.16972978965E+04  0.25500000920E-02 0. -1.
        2   -1    0    0  501    0  0.00000000000E+00  0.00000000000E+00 -0.19147834094E+04  0.19147834094E+04  0.25500000920E-02 0.  1.
    10030    2    1    2    0    0  0.00000000000E+00  0.00000000000E+00 -0.21748551283E+03  0.36120813059E+04  0.36055278965E+04 0.  0.
        3    1    3    3  502    0 -0.10727998467E+04  0.99216097148E+03  0.94895790468E+03  0.17423558820E+04  0.10100000352E+00 0. -1.
       -3    1    3    3    0  502  0.10727998467E+04 -0.99216097148E+03 -0.11664434175E+04  0.18697254239E+04  0.10100000352E+00 0.  1.
</event>
<event>
 5   0  0.1298250E-07  0.3592439E+04  0.7818609E-02  0.8092226E-01
        1   -1    0    0  501    0  0.00000000000E+00  0.00000000000E+00  0.10716920919E+04  0.10716920919E+04  0.50400001928E-02 0.  1.
       -1   -1    0    0    0  501  0.00000000000E+00  0.00000000000E+00 -0.30105707213E+04  0.30105707213E+04  0.50400001928E-02 0. -1.
    10030    2    1    2    0    0  0.00000000000E+00  0.00000000000E+00 -0.19388786294E+04  0.40822628132E+04  0.35924391904E+04 0.  0.
        2    1    3    3  502    0  0.72945981488E+02 -0.56009501004E+03 -0.29070308691E+04  0.29613942679E+04  0.25500000920E-02 0. -1.
       -2    1    3    3    0  502 -0.72945981488E+02  0.56009501004E+03  0.96815223968E+03  0.11208685452E+04  0.25500000920E-02 0.  1.
</event>
<event>
 5   0  0.1361743E-07  0.3588781E+04  0.7818609E-02  0.8093066E-01
        1   -1    0    0  501    0  0.00000000000E+00  0.00000000000E+00  0.19282311152E+04  0.19282311153E+04  0.50400001928E-02 0.  1.
       -1   -1    0    0    0  501  0.00000000000E+00  0.00000000000E+00 -0.16698397444E+04  0.16698397444E+04  0.50400001928E-02 0. -1.
    10030    2    1    2    0    0  0.00000000000E+00  0.00000000000E+00  0.25839137087E+03  0.35980708596E+04  0.35887808251E+04 0.  0.
        5    1    3    3  502    0  0.49965399788E+03 -0.54767725557E+03  0.17675035467E+04  0.19166886475E+04  0.46999998093E+01 0.  1.
       -5    1    3    3    0  502 -0.49965399788E+03  0.54767725557E+03 -0.15091121759E+04  0.16813822121E+04  0.46999998093E+01 0. -1.
</event>
<event>
 5   0  0.4115358E-07  0.3596464E+04  0.7818609E-02  0.8091302E-01
       -2   -1    0    0    0  501  0.00000000000E+00  0.00000000000E+00  0.12539208237E+04  0.12539208237E+04  0.25500000920E-02 0. -1.
        2   -1    0    0  501    0  0.00000000000E+00  0.00000000000E+00 -0.25788223131E+04  0.25788223131E+04  0.25500000920E-02 0.  1.
    10030    2    1    2    0    0  0.00000000000E+00  0.00000000000E+00 -0.13249014894E+04  0.38327431367E+04  0.35964643743E+04 0.  0.
        3    1    3    3  502    0 -0.49906494319E+03 -0.12921391671E+04 -0.18844993970E+04  0.23388089772E+04  0.10100000352E+00 0.  1.
       -3    1    3    3    0  502  0.49906494319E+03  0.12921391671E+04  0.55959790759E+03  0.14939341595E+04  0.10100000352E+00 0. -1.
</event>
<event>
 5   0  0.4115358E-07  0.3606295E+04  0.7818609E-02  0.8089051E-01
       -2   -1    0    0    0  501  0.00000000000E+00  0.00000000000E+00  0.23569236913E+04  0.23569236913E+04  0.25500000920E-02 0.  1.
        2   -1    0    0  501    0  0.00000000000E+00  0.00000000000E+00 -0.13794852785E+04  0.13794852785E+04  0.25500000920E-02 0. -1.
    10030    2    1    2    0    0  0.00000000000E+00  0.00000000000E+00  0.97743841283E+03  0.37364089698E+04  0.36062953482E+04 0.  0.
        3    1    3    3  502    0 -0.11056077740E+04 -0.13066070065E+04 -0.98977339196E+02  0.17144640396E+04  0.10100000352E+00 0. -1.
       -3    1    3    3    0  502  0.11056077740E+04  0.13066070065E+04  0.10764157520E+04  0.20219449302E+04  0.10100000352E+00 0.  1.
</event>
<event>
 5   0  0.4120440E-07  0.3589262E+04  0.7818609E-02  0.8092956E-01
        2   -1    0    0  501    0  0.00000000000E+00  0.00000000000E+00  0.16738682464E+04  0.16738682464E+04  0.25500000920E-02 0.  1.
       -2   -1    0    0    0  501  0.00000000000E+00  0.00000000000E+00 -0.19241065371E+04  0.19241065371E+04  0.25500000920E-02 0. -1.
    10030    2    1    2    0    0  0.00000000000E+00  0.00000000000E+00 -0.25023829065E+03  0.35979747835E+04  0.35892622279E+04 0.  0.
        2    1    3    3  502    0  0.14784021768E+04  0.88785290359E+03 -0.62305931206E+03  0.18336190119E+04  0.25500000920E-02 0. -1.
       -2    1    3    3    0  502 -0.14784021768E+04 -0.88785290359E+03  0.37282102141E+03  0.17643557716E+04  0.25500000920E-02 0.  1.
</event>
<event>
 5   0  0.1298250E-07  0.3511140E+04  0.7818609E-02  0.8111155E-01
       -1   -1    0    0    0  501  0.00000000000E+00  0.00000000000E+00  0.19402338935E+04  0.19402338935E+04  0.50400001928E-02 0. -1.
        1   -1    0    0  501    0  0.00000000000E+00  0.00000000000E+00 -0.15884821205E+04  0.15884821205E+04  0.50400001928E-02 0.  1.
    10030    2    1    2    0    0  0.00000000000E+00  0.00000000000E+00  0.35175177300E+03  0.35287160141E+04  0.35111404697E+04 0.  0.
        1    1    3    3  502    0 -0.94312288437E+03 -0.74087714524E+03 -0.11125896205E+04  0.16359203474E+04  0.50400001928E-02 0.  1.
       -1    1    3    3    0  502  0.94312288437E+03  0.74087714524E+03  0.14643413934E+04  0.18927956667E+04  0.50400001928E-02 0. -1.
</event>
<event>
 5   0  0.4200635E-07  0.3587550E+04  0.7818609E-02  0.8093350E-01
       -2   -1    0    0    0  501  0.00000000000E+00  0.00000000000E+00  0.17659256489E+04  0.17659256489E+04  0.25500000920E-02 0.  1.
        2   -1    0    0  501    0  0.00000000000E+00  0.00000000000E+00 -0.18220630918E+04  0.18220630918E+04  0.25500000920E-02 0. -1.
    10030    2    1    2    0    0  0.00000000000E+00  0.00000000000E+00 -0.56137442891E+02  0.35879887407E+04  0.35875495524E+04 0.  0.
        4    1    3    3  502    0  0.16002969733E+04  0.24448606667E+03  0.74462051102E+03  0.17819049239E+04  0.12699999809E+01 0.  1.
       -4    1    3    3    0  502 -0.16002969733E+04 -0.24448606667E+03 -0.80075795391E+03  0.18060838168E+04  0.12699999809E+01 0. -1.
</event>
<event>
 5   0  0.4115358E-07  0.3615784E+04  0.7818609E-02  0.8086886E-01
        2   -1    0    0  501    0  0.00000000000E+00  0.00000000000E+00  0.23445818522E+04  0.23445818522E+04  0.25500000920E-02 0. -1.
       -2   -1    0    0    0  501  0.00000000000E+00  0.00000000000E+00 -0.13940541929E+04  0.13940541929E+04  0.25500000920E-02 0.  1.
    10030    2    1    2    0    0  0.00000000000E+00  0.00000000000E+00  0.95052765924E+03  0.37386360451E+04  0.36157843750E+04 0.  0.
        3    1    3    3  502    0  0.12416789057E+04 -0.12698336036E+04  0.12580078305E+03  0.17804689643E+04  0.10100000352E+00 0.  1.
       -3    1    3    3    0  502 -0.12416789057E+04  0.12698336036E+04  0.82472687619E+03  0.19581670808E+04  0.10100000352E+00 0. -1.
</event>
<event>
 5   0  0.1298250E-07  0.3587187E+04  0.7818609E-02  0.8093433E-01
        1   -1    0    0  501    0  0.00000000000E+00  0.00000000000E+00  0.17599155162E+04  0.17599155162E+04  0.50400001928E-02 0.  1.
       -1   -1    0    0    0  501  0.00000000000E+00  0.00000000000E+00 -0.18279156584E+04  0.18279156584E+04  0.50400001928E-02 0. -1.
    10030    2    1    2    0    0  0.00000000000E+00  0.00000000000E+00 -0.68000142195E+02  0.35878311746E+04  0.35871867135E+04 0.  0.
        2    1    3    3  502    0  0.93684822653E+03 -0.15287639806E+04  0.12626128552E+02  0.17930318812E+04  0.25500000920E-02 0.  1.
       -2    1    3    3    0  502 -0.93684822653E+03  0.15287639806E+04 -0.80626270747E+02  0.17947992934E+04  0.25500000920E-02 0. -1.
</event>
<event>
 5   0  0.1298250E-07  0.3588016E+04  0.7818609E-02  0.8093242E-01
        1   -1    0    0  501    0  0.00000000000E+00  0.00000000000E+00  0.20857059244E+04  0.20857059244E+04  0.50400001928E-02 0.  1.
       -1   -1    0    0    0  501  0.00000000000E+00  0.00000000000E+00 -0.15431054154E+04  0.15431054154E+04  0.50400001928E-02 0. -1.
    10030    2    1    2    0    0  0.00000000000E+00  0.00000000000E+00  0.54260050900E+03  0.36288113397E+04  0.35880156670E+04 0.  0.
        1    1    3    3  502    0 -0.12710295438E+04  0.87418252483E+03  0.11975478242E+04  0.19529034742E+04  0.50400001928E-02 0.  1.
       -1    1    3    3    0  502  0.12710295438E+04 -0.87418252483E+03 -0.65494731525E+03  0.16759078656E+04  0.50400001928E-02 0. -1.
</event>
<event>
 5   0  0.3993751E-07  0.3606075E+04  0.7818609E-02  0.8089101E-01
        2   -1    0    0  501    0  0.00000000000E+00  0.00000000000E+00  0.16449513384E+04  0.16449513384E+04  0.25500000920E-02 0.  1.
       -2   -1    0    0    0  501  0.00000000000E+00  0.00000000000E+00 -0.19763166733E+04  0.19763166733E+04  0.25500000920E-02 0. -1.
    10030    2    1    2    0    0  0.00000000000E+00  0.00000000000E+00 -0.33136533496E+03  0.36212680117E+04  0.36060752942E+04 0.  0.
        1    1    3    3  502    0  0.65121406137E+03  0.14696810038E+04 -0.98576438880E+03  0.18856758568E+04  0.50400001928E-02 0. -1.
       -1    1    3    3    0  502 -0.65121406137E+03 -0.14696810038E+04  0.65439905384E+03  0.17355921550E+04  0.50400001928E-02 0.  1.
</event>
<event>
 5   0  0.1361743E-07  0.3609938E+04  0.7818609E-02  0.8088219E-01
        1   -1    0    0  501    0  0.00000000000E+00  0.00000000000E+00  0.25634649898E+04  0.25634649898E+04  0.50400001928E-02 0.  1.
       -1   -1    0    0    0  501  0.00000000000E+00  0.00000000000E+00 -0.12709019578E+04  0.12709019578E+04  0.50400001928E-02 0. -1.
    10030    2    1    2    0    0  0.00000000000E+00  0.00000000000E+00  0.12925630321E+04  0.38343669476E+04  0.36099377692E+04 0.  0.
        5    1    3    3  502    0 -0.13521408601E+04  0.30152576073E+03 -0.58266681786E+03  0.15029056526E+04  0.46999998093E+01 0. -1.
       -5    1    3    3    0  502  0.13521408601E+04 -0.30152576073E+03  0.18752298499E+04  0.23314612950E+04  0.46999998093E+01 0.  1.
</event>
<event>
 5   0  0.1298250E-07  0.3598815E+04  0.7818609E-02  0.8090763E-01
       -1   -1    0    0    0  501  0.00000000000E+00  0.00000000000E+00  0.13226814372E+04  0.13226814372E+04  0.50400001928E-02 0.  1.
        1   -1    0    0  501    0  0.00000000000E+00  0.00000000000E+00 -0.24479567866E+04  0.24479567866E+04  0.50400001928E-02 0. -1.
    10030    2    1    2    0    0  0.00000000000E+00  0.00000000000E+00 -0.11252753495E+04  0.37706382238E+04  0.35988148053E+04 0.  0.
        1    1    3    3  502    0  0.69005154425E+03 -0.16579019151E+04 -0.68236102062E+03  0.19210482702E+04  0.50400001928E-02 0. -1.
       -1    1    3    3    0  502 -0.69005154425E+03  0.16579019151E+04 -0.44291432883E+03  0.18495899536E+04  0.50400001928E-02 0.  1.
</event>
<event>
 5   0  0.4115358E-07  0.3599107E+04  0.7818609E-02  0.8090696E-01
       -2   -1    0    0    0  501  0.00000000000E+00  0.00000000000E+00  0.13144055460E+04  0.13144055460E+04  0.25500000920E-02 0.  1.
        2   -1    0    0  501    0  0.00000000000E+00  0.00000000000E+00 -0.24637700829E+04  0.24637700829E+04  0.25500000920E-02 0. -1.
    10030    2    1    2    0    0  0.00000000000E+00  0.00000000000E+00 -0.11493645370E+04  0.37781756289E+04  0.35991071454E+04 0.  0.
        3    1    3    3  502    0 -0.45880288065E+02 -0.50685326908E+03 -0.23866517764E+04  0.24403098060E+04  0.10100000352E+00 0. -1.
       -3    1    3    3    0  502  0.45880288065E+02  0.50685326908E+03  0.12372872394E+04  0.13378658230E+04  0.10100000352E+00 0.  1.
</event>
<event>
 5   0  0.1298250E-07  0.3606149E+04  0.7818609E-02  0.8089085E-01
        1   -1    0    0  501    0  0.00000000000E+00  0.00000000000E+00  0.11899581248E+04  0.11899581248E+04  0.50400001928E-02 0. -1.
       -1   -1    0    0    0  501  0.00000000000E+00  0.00000000000E+00 -0.27320936934E+04  0.27320936934E+04  0.50400001928E-02 0.  1.
    10030    2    1    2    0    0  0.00000000000E+00  0.00000000000E+00 -0.15421355686E+04  0.39220518182E+04  0.36061486870E+04 0.  0.
        1    1    3    3  502    0 -0.14913141213E+04  0.23786896080E+03 -0.18424944826E+04  0.23823067328E+04  0.50400001928E-02 0.  1.
       -1    1    3    3    0  502  0.14913141213E+04 -0.23786896080E+03  0.30035891402E+03  0.15397450854E+04  0.50400001928E-02 0. -1.
</event>
<event>
 5   0  0.1298250E-07  0.3512303E+04  0.7818609E-02  0.8110880E-01
        1   -1    0    0  501    0  0.00000000000E+00  0.00000000000E+00  0.23689698880E+04  0.23689698880E+04  0.50400001928E-02 0. -1.
       -1   -1    0    0    0  501  0.00000000000E+00  0.00000000000E+00 -0.13018603296E+04  0.13018603296E+04  0.50400001928E-02 0.  1.
    10030    2    1    2    0    0  0.00000000000E+00  0.00000000000E+00  0.10671095584E+04  0.36708302176E+04  0.35123029022E+04 0.  0.
        1    1    3    3  502    0  0.52673344399E+03 -0.16751348116E+04  0.50919705921E+03  0.18283343248E+04  0.50400001928E-02 0.  1.
       -1    1    3    3    0  502 -0.52673344399E+03  0.16751348116E+04  0.55791249915E+03  0.18424958928E+04  0.50400001928E-02 0. -1.
</event>
<event>
 5   0  0.1298250E-07  0.3412978E+04  0.7818609E-02  0.8134728E-01
        1   -1    0    0  501    0  0.00000000000E+00  0.00000000000E+00  0.18605223484E+04  0.18605223484E+04  0.50400001928E-02 0.  1.
       -1   -1    0    0    0  501  0.00000000000E+00  0.00000000000E+00 -0.15652084421E+04  0.15652084421E+04  0.50400001928E-02 0. -1.
    10030    2    1    2    0    0  0.00000000000E+00  0.00000000000E+00  0.29531390626E+03  0.34257307905E+04  0.34129783395E+04 0.  0.
        2    1    3    3  502    0  0.13298046294E+04 -0.10297591386E+04  0.43738935562E+03  0.17378416741E+04  0.25500000920E-02 0.  1.
       -2    1    3    3    0  502 -0.13298046294E+04  0.10297591386E+04 -0.14207544937E+03  0.16878891164E+04  0.25500000920E-02 0. -1.
</event>
<event>
 5   0  0.3993751E-07  0.3612283E+04  0.7818609E-02  0.8087684E-01
       -2   -1    0    0    0  501  0.00000000000E+00  0.00000000000E+00  0.13291531718E+04  0.13291531718E+04  0.25500000920E-02 0.  1.
        2   -1    0    0  501    0  0.00000000000E+00  0.00000000000E+00 -0.24543047289E+04  0.24543047289E+04  0.25500000920E-02 0. -1.
    10030    2    1    2    0    0  0.00000000000E+00  0.00000000000E+00 -0.11251515571E+04  0.37834579006E+04  0.36122828875E+04 0.  0.
        1    1    3    3  502    0  0.14148106198E+04 -0.70542122811E+03  0.35221865919E+03  0.16196808892E+04  0.50400001928E-02 0.  1.
       -1    1    3    3    0  502 -0.14148106198E+04  0.70542122811E+03 -0.14773702163E+04  0.21637770114E+04  0.50400001928E-02 0. -1.
</event>
<event>
 5   0  0.4115358E-07  0.3616533E+04  0.7818609E-02  0.8086715E-01
        2   -1    0    0  501    0  0.00000000000E+00  0.00000000000E+00  0.17129147571E+04  0.17129147571E+04  0.25500000920E-02 0.  1.
       -2   -1    0    0    0  501  0.00000000000E+00  0.00000000000E+00 -0.19089257815E+04  0.19089257815E+04  0.25500000920E-02 0. -1.
    10030    2    1    2    0    0  0.00000000000E+00  0.00000000000E+00 -0.19601102444E+03  0.36218405386E+04  0.36165326716E+04 0.  0.
        3    1    3    3  502    0 -0.14223470477E+04 -0.76234752359E+03 -0.91503513255E+03  0.18551372389E+04  0.10100000352E+00 0. -1.
       -3    1    3    3    0  502  0.14223470477E+04  0.76234752359E+03  0.71902410812E+03  0.17667032997E+04  0.10100000352E+00 0.  1.
</event>
<event>
 5   0  0.4120440E-07  0.3598802E+04  0.7818609E-02  0.8090766E-01
        2   -1    0    0  501    0  0.00000000000E+00  0.00000000000E+00  0.19686552147E+04  0.19686552147E+04  0.25500000920E-02 0. -1.
       -2   -1    0    0    0  501  0.00000000000E+00  0.00000000000E+00 -0.16446981208E+04  0.16446981208E+04  0.25500000920E-02 0.  1.
    10030    2    1    2    0    0  0.00000000000E+00  0.00000000000E+00  0.32395709394E+03  0.36133533355E+04  0.35988017628E+04 0.  0.
        2    1    3    3  502    0 -0.61356860167E+03 -0.72096259117E+03 -0.13744343306E+04  0.16689287630E+04  0.25500000920E-02 0.  1.
       -2    1    3    3    0  502  0.61356860167E+03  0.72096259117E+03  0.16983914246E+04  0.19444245724E+04  0.25500000920E-02 0. -1.
</event>
<event>
 5   0  0.3993751E-07  0.3620561E+04  0.7818609E-02  0.8085798E-01
       -2   -1    0    0    0  501  0.00000000000E+00  0.00000000000E+00  0.10322373959E+04  0.10322373959E+04  0.25500000920E-02 0. -1.
        2   -1    0    0  501    0  0.00000000000E+00  0.00000000000E+00 -0.31747697372E+04  0.31747697372E+04  0.25500000920E-02 0.  1.
    10030    2    1    2    0    0  0.00000000000E+00  0.00000000000E+00 -0.21425323413E+04  0.42070071331E+04  0.36205613079E+04 0.  0.
        1    1    3    3  502    0 -0.13806083129E+04 -0.10349940875E+04 -0.43501218102E+03  0.17794739876E+04  0.50400001928E-02 0.  1.
       -1    1    3    3    0  502  0.13806083129E+04  0.10349940875E+04 -0.17075201603E+04  0.24275331455E+04  0.50400001928E-02 0. -1.
</event>
<event>
 5   0  0.4115358E-07  0.3601324E+04  0.7818609E-02  0.8090189E-01
        2   -1    0    0  501    0  0.00000000000E+00  0.00000000000E+00  0.18581796097E+04  0.18581796097E+04  0.25500000920E-02 0. -1.
       -2   -1    0    0    0  501  0.00000000000E+00  0.00000000000E+00 -0.17449244899E+04  0.17449244899E+04  0.25500000920E-02 0.  1.
    10030    2    1    2    0    0  0.00000000000E+00  0.00000000000E+00  0.11325511981E+03  0.36031040995E+04  0.36013237052E+04 0.  0.
        3    1    3    3  502    0  0.48925221610E+03  0.10117039425E+04  0.14642596756E+04  0.18457976612E+04  0.10100000352E+00 0. -1.
       -3    1    3    3    0  502 -0.48925221610E+03 -0.10117039425E+04 -0.13510045558E+04  0.17573064383E+04  0.10100000352E+00 0.  1.
</event>
<event>
 5   0  0.1298250E-07  0.3590724E+04  0.7818609E-02  0.8092620E-01
        1   -1    0    0  501    0  0.00000000000E+00  0.00000000000E+00  0.17967642105E+04  0.17967642105E+04  0.50400001928E-02 0. -1.
       -1   -1    0    0    0  501  0.00000000000E+00  0.00000000000E+00 -0.17939611879E+04  0.17939611879E+04  0.50400001928E-02 0.  1.
    10030    2    1    2    0    0  0.00000000000E+00  0.00000000000E+00  0.28030226024E+01  0.35907253984E+04  0.35907243043E+04 0.  0.
        1    1    3    3  502    0  0.54503408167E+03  0.16269830122E+04 -0.52698239771E+03  0.17949502276E+04  0.50400001928E-02 0.  1.
       -1    1    3    3    0  502 -0.54503408167E+03 -0.16269830122E+04  0.52978542031E+03  0.17957751707E+04  0.50400001928E-02 0. -1.
</event>
<event>
 5   0  0.4200635E-07  0.3505678E+04  0.7818609E-02  0.8112446E-01
       -2   -1    0    0    0  501  0.00000000000E+00  0.00000000000E+00  0.17997952786E+04  0.17997952786E+04  0.25500000920E-02 0. -1.
        2   -1    0    0  501    0  0.00000000000E+00  0.00000000000E+00 -0.17071077631E+04  0.17071077631E+04  0.25500000920E-02 0.  1.
    10030    2    1    2    0    0  0.00000000000E+00  0.00000000000E+00  0.92687515543E+02  0.35069030417E+04  0.35056779613E+04 0.  0.
        4    1    3    3  502    0 -0.12734229948E+04 -0.11947555611E+04 -0.10666689208E+03  0.17494074464E+04  0.12699999809E+01 0. -1.
       -4    1    3    3    0  502  0.12734229948E+04  0.11947555611E+04  0.19935440762E+03  0.17574955953E+04  0.12699999809E+01 0.  1.
</event>
<event>
 5   0  0.4120440E-07  0.3427347E+04  0.7818609E-02  0.8131227E-01
       -2   -1    0    0    0  501  0.00000000000E+00  0.00000000000E+00  0.12879706334E+04  0.12879706334E+04  0.25500000920E-02 0. -1.
        2   -1    0    0  501    0  0.00000000000E+00  0.00000000000E+00 -0.22800800510E+04  0.22800800510E+04  0.25500000920E-02 0.  1.
    10030    2    1    2    0    0  0.00000000000E+00  0.00000000000E+00 -0.99210941764E+03  0.35680506844E+04  0.34273465815E+04 0.  0.
        2    1    3    3  502    0  0.51985550427E+03 -0.12682069551E+04  0.57480292094E+03  0.14862694992E+04  0.25500000920E-02 0. -1.
       -2    1    3    3    0  502 -0.51985550427E+03  0.12682069551E+04 -0.15669123386E+04  0.20817811852E+04  0.25500000920E-02 0.  1.
</event>
<event>
 5   0  0.1298250E-07  0.3570226E+04  0.7818609E-02  0.8097346E-01
        1   -1    0    0  501    0  0.00000000000E+00  0.00000000000E+00  0.13520394959E+04  0.13520394959E+04  0.50400001928E-02 0. -1.
       -1   -1    0    0    0  501  0.00000000000E+00  0.00000000000E+00 -0.23569045489E+04  0.23569045489E+04  0.50400001928E-02 0.  1.
    10030    2    1    2    0    0  0.00000000000E+00  0.00000000000E+00 -0.10048650530E+04  0.37089440448E+04  0.35702257845E+04 0.  0.
        2    1    3    3  502    0 -0.96184590911E+03  0.56343064136E+03 -0.19508897639E+04  0.22469028709E+04  0.25500000920E-02 0.  1.
       -2    1    3    3    0  502  0.96184590911E+03 -0.56343064136E+03  0.94602471086E+03  0.14620411739E+04  0.25500000920E-02 0. -1.
</event>
<event>
 5   0  0.1298250E-07  0.3607754E+04  0.7818609E-02  0.8088718E-01
       -1   -1    0    0    0  501  0.00000000000E+00  0.00000000000E+00  0.20252145310E+04  0.20252145311E+04  0.50400001928E-02 0.  1.
        1   -1    0    0  501    0  0.00000000000E+00  0.00000000000E+00 -0.16067294270E+04  0.16067294270E+04  0.50400001928E-02 0. -1.
    10030    2    1    2    0    0  0.00000000000E+00  0.00000000000E+00  0.41848510406E+03  0.36319439580E+04  0.36077537516E+04 0.  0.
        2    1    3    3  502    0  0.20068874637E+03 -0.48984586581E+03  0.19452606495E+04  0.20160019692E+04  0.25500000920E-02 0.  1.
       -2    1    3    3    0  502 -0.20068874637E+03  0.48984586581E+03 -0.15267755455E+04  0.16159419889E+04  0.25500000920E-02 0. -1.
</event>
<event>
 5   0  0.3993751E-07  0.3576588E+04  0.7818609E-02  0.8095876E-01
       -2   -1    0    0    0  501  0.00000000000E+00  0.00000000000E+00  0.20288108061E+04  0.20288108061E+04  0.25500000920E-02 0.  1.
        2   -1    0    0  501    0  0.00000000000E+00  0.00000000000E+00 -0.15762902311E+04  0.15762902311E+04  0.25500000920E-02 0. -1.
    10030    2    1    2    0    0  0.00000000000E+00  0.00000000000E+00  0.45252057502E+03  0.36051010372E+04  0.35765875660E+04 0.  0.
        1    1    3    3  502    0 -0.20272921821E+03  0.71610258093E+03 -0.14127697390E+04  0.15968156994E+04  0.50400001928E-02 0. -1.
       -1    1    3    3    0  502  0.20272921821E+03 -0.71610258093E+03  0.18652903140E+04  0.20082853378E+04  0.50400001928E-02 0.  1.
</event>
<event>
 5   0  0.1298250E-07  0.3609561E+04  0.7818609E-02  0.8088305E-01
        1   -1    0    0  501    0  0.00000000000E+00  0.00000000000E+00  0.15397192506E+04  0.15397192506E+04  0.50400001928E-02 0. -1.
       -1   -1    0    0    0  501  0.00000000000E+00  0.00000000000E+00 -0.21154722375E+04  0.21154722375E+04  0.50400001928E-02 0.  1.
    10030    2    1    2    0    0  0.00000000000E+00  0.00000000000E+00 -0.57575298694E+03  0.36551914881E+04  0.36095613740E+04 0.  0.
        1    1    3    3  502    0  0.96505763199E+03  0.51928925788E+03  0.11642089008E+04  0.15988683283E+04  0.50400001928E-02 0.  1.
       -1    1    3    3    0  502 -0.96505763199E+03 -0.51928925788E+03 -0.17399618878E+04  0.20563231598E+04  0.50400001928E-02 0. -1.
</event>
<event>
 5   0  0.1361743E-07  0.3600361E+04  0.7818609E-02  0.8090409E-01
       -1   -1    0    0    0  501  0.00000000000E+00  0.00000000000E+00  0.27429596721E+04  0.27429596721E+04  0.50400001928E-02 0. -1.
        1   -1    0    0  501    0  0.00000000000E+00  0.00000000000E+00 -0.11814425532E+04  0.11814425532E+04  0.50400001928E-02 0.  1.
    10030    2    1    2    0    0  0.00000000000E+00  0.00000000000E+00  0.15615171190E+04  0.39244022253E+04  0.36003606921E+04 0.  0.
        5    1    3    3  502    0  0.15351726774E+04  0.93381740434E+03  0.66206787434E+03  0.19149741654E+04  0.46999998093E+01 0.  1.
       -5    1    3    3    0  502 -0.15351726774E+04 -0.93381740434E+03  0.89944924463E+03  0.20094280599E+04  0.46999998093E+01 0. -1.
</event>
<event>
 5   0  0.1298250E-07  0.3621586E+04  0.7818609E-02  0.8085565E-01
       -1   -1    0    0    0  501  0.00000000000E+00  0.00000000000E+00  0.13046834681E+04  0.13046834681E+04  0.50400001928E-02 0. -1.
        1   -1    0    0  501    0  0.00000000000E+00  0.00000000000E+00 -0.25132315949E+04  0.25132315949E+04  0.50400001928E-02 0.  1.
    10030    2    1    2    0    0  0.00000000000E+00  0.00000000000E+00 -0.12085481268E+04  0.38179150630E+04  0.36215862344E+04 0.  0.
        1    1    3    3  502    0 -0.14965049965E+04 -0.73246276073E+03 -0.13519040892E+04  0.21456172927E+04  0.50400001928E-02 0.  1.
       -1    1    3    3    0  502  0.14965049965E+04  0.73246276073E+03  0.14335596241E+03  0.16722977702E+04  0.50400001928E-02 0. -1.
</event>
<event>
 5   0  0.1370997E-07  0.3557606E+04  0.7818609E-02  0.8100272E-01
        1   -1    0    0  501    0  0.00000000000E+00  0.00000000000E+00  0.15817191976E+04  0.15817191977E+04  0.50400001928E-02 0.  1.
       -1   -1    0    0    0  501  0.00000000000E+00  0.00000000000E+00 -0.20004442000E+04  0.20004442000E+04  0.50400001928E-02 0. -1.
    10030    2    1    2    0    0  0.00000000000E+00  0.00000000000E+00 -0.41872500232E+03  0.35821633976E+04  0.35576064959E+04 0.  0.
        3    1    3    3  502    0 -0.12633250604E+04  0.12053434642E+04  0.13253678941E+03  0.17511165254E+04  0.10100000352E+00 0. -1.
       -3    1    3    3    0  502  0.12633250604E+04 -0.12053434642E+04 -0.55126179173E+03  0.18310468722E+04  0.10100000352E+00 0.  1.
</event>
<event>
 5   0  0.4115358E-07  0.3621501E+04  0.7818609E-02  0.8085584E-01
       -2   -1    0    0    0  501  0.00000000000E+00  0.00000000000E+00  0.25057672814E+04  0.25057672814E+04  0.25500000920E-02 0.  1.
        2   -1    0    0  501    0  0.00000000000E+00  0.00000000000E+00 -0.13085080140E+04  0.13085080140E+04  0.25500000920E-02 0. -1.
    10030    2    1    2    0    0  0.00000000000E+00  0.00000000000E+00  0.11972592674E+04  0.38142752954E+04  0.36215005558E+04 0.  0.
        3    1    3    3  502    0 -0.10388470872E+04 -0.10486295149E+03  0.21567764187E+04  0.23962228693E+04  0.10100000352E+00 0.  1.
       -3    1    3    3    0  502  0.10388470872E+04  0.10486295149E+03 -0.95951715126E+03  0.14180524260E+04  0.10100000352E+00 0. -1.
</event>
<event>
 5   0  0.3993751E-07  0.3607240E+04  0.7818609E-02  0.8088835E-01
       -2   -1    0    0    0  501  0.00000000000E+00  0.00000000000E+00  0.14416974216E+04  0.14416974216E+04  0.25500000920E-02 0. -1.
        2   -1    0    0  501    0  0.00000000000E+00  0.00000000000E+00 -0.22563989887E+04  0.22563989887E+04  0.25500000920E-02 0.  1.
    10030    2    1    2    0    0  0.00000000000E+00  0.00000000000E+00 -0.81470156703E+03  0.36980964103E+04  0.36072397226E+04 0.  0.
        1    1    3    3  502    0 -0.56810710036E+03 -0.12672068031E+04 -0.15872010230E+04  0.21089726994E+04  0.50400001928E-02 0.  1.
       -1    1    3    3    0  502  0.56810710036E+03  0.12672068031E+04  0.77249945597E+03  0.15891237110E+04  0.50400001928E-02 0. -1.
</event>
<event>
 5   0  0.4200635E-07  0.3578154E+04  0.7818609E-02  0.8095514E-01
        2   -1    0    0  501    0  0.00000000000E+00  0.00000000000E+00  0.18286272327E+04  0.18286272327E+04  0.25500000920E-02 0.  1.
       -2   -1    0    0    0  501  0.00000000000E+00  0.00000000000E+00 -0.17503821005E+04  0.17503821006E+04  0.25500000920E-02 0. -1.
    10030    2    1    2    0    0  0.00000000000E+00  0.00000000000E+00  0.78245132141E+02  0.35790093332E+04  0.35781539244E+04 0.  0.
        4    1    3    3  502    0  0.66829870211E+02 -0.17874324931E+04  0.15155082317E+01  0.17886824924E+04  0.12699999809E+01 0.  1.
       -4    1    3    3    0  502 -0.66829870211E+02  0.17874324931E+04  0.76729623909E+02  0.17903268408E+04  0.12699999809E+01 0. -1.
</event>
<event>
 5   0  0.1298250E-07  0.3500995E+04  0.7818609E-02  0.8113554E-01
        1   -1    0    0  501    0  0.00000000000E+00  0.00000000000E+00  0.18187265327E+04  0.18187265327E+04  0.50400001928E-02 0.  1.
       -1   -1    0    0    0  501  0.00000000000E+00  0.00000000000E+00 -0.16848275889E+04  0.16848275889E+04  0.50400001928E-02 0. -1.
    10030    2    1    2    0    0  0.00000000000E+00  0.00000000000E+00  0.13389894379E+03  0.35035541217E+04  0.35009945096E+04 0.  0.
        2    1    3    3  502    0  0.87011042752E+03  0.15072289397E+04 -0.12136197651E+03  0.17445801679E+04  0.25500000920E-02 0. -1.
       -2    1    3    3    0  502 -0.87011042752E+03 -0.15072289397E+04  0.25526092030E+03  0.17589739538E+04  0.25500000920E-02 0.  1.
</event>
<event>
 5   0  0.3880259E-07  0.3470727E+04  0.7818609E-02  0.8120762E-01
        2   -1    0    0  501    0  0.00000000000E+00  0.00000000000E+00  0.17815825666E+04  0.17815825666E+04  0.25500000920E-02 0.  1.
       -2   -1    0    0    0  501  0.00000000000E+00  0.00000000000E+00 -0.16903437506E+04  0.16903437506E+04  0.25500000920E-02 0. -1.
    10030    2    1    2    0    0  0.00000000000E+00  0.00000000000E+00  0.91238816026E+02  0.34719263172E+04  0.34707272769E+04 0.  0.
        5    1    3    3  502    0  0.18767290395E+02 -0.11156905963E+04 -0.12838796740E+04  0.17010252276E+04  0.46999998093E+01 0. -1.
       -5    1    3    3    0  502 -0.18767290395E+02  0.11156905963E+04  0.13751184900E+04  0.17709010896E+04  0.46999998093E+01 0.  1.
</event>
<event>
 5   0  0.3880259E-07  0.3589094E+04  0.7818609E-02  0.8092994E-01
        2   -1    0    0  501    0  0.00000000000E+00  0.00000000000E+00  0.17595972244E+04  0.17595972244E+04  0.25500000920E-02 0.  1.
       -2   -1    0    0    0  501  0.00000000000E+00  0.00000000000E+00 -0.18301909784E+04  0.18301909784E+04  0.25500000920E-02 0. -1.
    10030    2    1    2    0    0  0.00000000000E+00  0.00000000000E+00 -0.70593753920E+02  0.35897882028E+04  0.35890940170E+04 0.  0.
        5    1    3    3  502    0 -0.10607226681E+04  0.10909221190E+04 -0.98686578903E+03  0.18136068549E+04  0.46999998093E+01 0. -1.
       -5    1    3    3    0  502  0.10607226681E+04 -0.10909221190E+04  0.91627203511E+03  0.17761813479E+04  0.46999998093E+01 0.  1.
</event>
<event>
 5   0  0.4115358E-07  0.3662778E+04  0.7818609E-02  0.8076261E-01
        2   -1    0    0  501    0  0.00000000000E+00  0.00000000000E+00  0.30490414034E+04  0.30490414034E+04  0.25500000920E-02 0. -1.
       -2   -1    0    0    0  501  0.00000000000E+00  0.00000000000E+00 -0.11000132439E+04  0.11000132440E+04  0.25500000920E-02 0.  1.
    10030    2    1    2    0    0  0.00000000000E+00  0.00000000000E+00  0.19490281594E+04  0.41490546473E+04  0.36627781396E+04 0.  0.
        3    1    3    3  502    0  0.58315813908E+03  0.64547103578E+03 -0.85105342695E+03  0.12169627024E+04  0.10100000352E+00 0.  1.
       -3    1    3    3    0  502 -0.58315813908E+03 -0.64547103578E+03  0.28000815864E+04  0.29320919450E+04  0.10100000352E+00 0. -1.
</event>
<event>
 5   0  0.3880259E-07  0.3599041E+04  0.7818609E-02  0.8090711E-01
       -2   -1    0    0    0  501  0.00000000000E+00  0.00000000000E+00  0.15435722623E+04  0.15435722623E+04  0.25500000920E-02 0.  1.
        2   -1    0    0  501    0  0.00000000000E+00  0.00000000000E+00 -0.20979094045E+04  0.20979094045E+04  0.25500000920E-02 0. -1.
    10030    2    1    2    0    0  0.00000000000E+00  0.00000000000E+00 -0.55433714223E+03  0.36414816668E+04  0.35990414088E+04 0.  0.
        5    1    3    3  502    0 -0.13826083777E+03  0.14899335011E+04  0.73423633283E+03  0.16667762235E+04  0.46999998093E+01 0.  1.
       -5    1    3    3    0  502  0.13826083777E+03 -0.14899335011E+04 -0.12885734751E+04  0.19747054432E+04  0.46999998093E+01 0. -1.
</event>
<event>
 5   0  0.4120440E-07  0.3610916E+04  0.7818609E-02  0.8087996E-01
       -2   -1    0    0    0  501  0.00000000000E+00  0.00000000000E+00  0.12215167202E+04  0.12215167202E+04  0.25500000920E-02 0.  1.
        2   -1    0    0  501    0  0.00000000000E+00  0.00000000000E+00 -0.26685494354E+04  0.26685494354E+04  0.25500000920E-02 0. -1.
    10030    2    1    2    0    0  0.00000000000E+00  0.00000000000E+00 -0.14470327152E+04  0.38900661556E+04  0.36109155371E+04 0.  0.
        2    1    3    3  502    0 -0.85881668457E+03 -0.15841544559E+04 -0.84428207060E+03  0.19899556911E+04  0.25500000920E-02 0.  1.
       -2    1    3    3    0  502  0.85881668457E+03  0.15841544559E+04 -0.60275064458E+03  0.19001104645E+04  0.25500000920E-02 0. -1.
</event>
<event>
 5   0  0.3880259E-07  0.3589774E+04  0.7818609E-02  0.8092838E-01
       -2   -1    0    0    0  501  0.00000000000E+00  0.00000000000E+00  0.13796305675E+04  0.13796305675E+04  0.25500000920E-02 0. -1.
        2   -1    0    0  501    0  0.00000000000E+00  0.00000000000E+00 -0.23351312647E+04  0.23351312647E+04  0.25500000920E-02 0.  1.
    10030    2    1    2    0    0  0.00000000000E+00  0.00000000000E+00 -0.95550069719E+03  0.37147618323E+04  0.35897735149E+04 0.  0.
        5    1    3    3  502    0 -0.10992696540E+03  0.12294892640E+04  0.87064101812E+03  0.15105514425E+04  0.46999998093E+01 0. -1.
       -5    1    3    3    0  502  0.10992696540E+03 -0.12294892640E+04 -0.18261417153E+04  0.22042103898E+04  0.46999998093E+01 0.  1.
</event>
<event>
 5   0  0.4120440E-07  0.3573536E+04  0.7818609E-02  0.8096581E-01
        2   -1    0    0  501    0  0.00000000000E+00  0.00000000000E+00  0.18770726700E+04  0.18770726700E+04  0.25500000920E-02 0. -1.
       -2   -1    0    0    0  501  0.00000000000E+00  0.00000000000E+00 -0.17008077168E+04  0.17008077168E+04  0.25500000920E-02 0.  1.
    10030    2    1    2    0    0  0.00000000000E+00  0.00000000000E+00  0.17626495316E+03  0.35778803868E+04  0.35735358860E+04 0.  0.
        2    1    3    3  502    0  0.81244023201E+03 -0.12801380609E+04 -0.85838825874E+03  0.17423096706E+04  0.25500000920E-02 0.  1.
       -2    1    3    3    0  502 -0.81244023201E+03  0.12801380609E+04  0.10346532119E+04  0.18355707163E+04  0.25500000920E-02 0. -1.
</event>
<event>
 5   0  0.4200635E-07  0.3605026E+04  0.7818609E-02  0.8089341E-01
       -2   -1    0    0    0  501  0.00000000000E+00  0.00000000000E+00  0.16419688809E+04  0.16419688809E+04  0.25500000920E-02 0.  1.
        2   -1    0    0  501    0  0.00000000000E+00  0.00000000000E+00 -0.19787545201E+04  0.19787545201E+04  0.25500000920E-02 0. -1.
    10030    2    1    2    0    0  0.00000000000E+00  0.00000000000E+00 -0.33678563917E+03  0.36207234010E+04  0.36050261275E+04 0.  0.
        4    1    3    3  502    0 -0.81919368458E+02 -0.30367763146E+03  0.16141933783E+04  0.16445524504E+04  0.12699999809E+01 0.  1.
       -4    1    3    3    0  502  0.81919368458E+02  0.30367763146E+03 -0.19509790174E+04  0.19761709506E+04  0.12699999809E+01 0. -1.
</event>
<event>
 5   0  0.3993751E-07  0.3598279E+04  0.7818609E-02  0.8090886E-01
       -2   -1    0    0    0  501  0.00000000000E+00  0.00000000000E+00  0.25170932319E+04  0.25170932319E+04  0.25500000920E-02 0. -1.
        2   -1    0    0  501    0  0.00000000000E+00  0.00000000000E+00 -0.12859686601E+04  0.12859686601E+04  0.25500000920E-02 0.  1.
    10030    2    1    2    0    0  0.00000000000E+00  0.00000000000E+00  0.12311245718E+04  0.38030618920E+04  0.35982790390E+04 0.  0.
        1    1    3    3  502    0 -0.10059645949E+04  0.41069014332E+01 -0.96094466088E+03  0.13911852049E+04  0.50400001928E-02 0.  1.
       -1    1    3    3    0  502  0.10059645949E+04 -0.41069014332E+01  0.21920692327E+04  0.24118766871E+04  0.50400001928E-02 0. -1.
</event>
<event>
 5   0  0.1298250E-07  0.3607210E+04  0.7818609E-02  0.8088842E-01
       -1   -1    0    0    0  501  0.00000000000E+00  0.00000000000E+00  0.16359712929E+04  0.16359712930E+04  0.50400001928E-02 0.  1.
        1   -1    0    0  501    0  0.00000000000E+00  0.00000000000E+00 -0.19884161404E+04  0.19884161404E+04  0.50400001928E-02 0. -1.
    10030    2    1    2    0    0  0.00000000000E+00  0.00000000000E+00 -0.35244484747E+03  0.36243874334E+04  0.36072104037E+04 0.  0.
        1    1    3    3  502    0  0.11250518174E+04 -0.16518358790E+03  0.12304314460E+04  0.16754070410E+04  0.50400001928E-02 0.  1.
       -1    1    3    3    0  502 -0.11250518174E+04  0.16518358790E+03 -0.15828762935E+04  0.19489803924E+04  0.50400001928E-02 0. -1.
</event>
<event>
 5   0  0.1361743E-07  0.3629751E+04  0.7818609E-02  0.8083711E-01
        1   -1    0    0  501    0  0.00000000000E+00  0.00000000000E+00  0.15176704742E+04  0.15176704743E+04  0.50400001928E-02 0.  1.
       -1   -1    0    0    0  501  0.00000000000E+00  0.00000000000E+00 -0.21702821702E+04  0.21702821702E+04  0.50400001928E-02 0. -1.
    10030    2    1    2    0    0  0.00000000000E+00  0.00000000000E+00 -0.65261169599E+03  0.36879526445E+04  0.36297510496E+04 0.  0.
        5    1    3    3  502    0  0.89234101882E+03  0.10655729243E+04  0.85946918024E+03  0.16341442754E+04  0.46999998093E+01 0.  1.
       -5    1    3    3    0  502 -0.89234101882E+03 -0.10655729243E+04 -0.15120808762E+04  0.20538083691E+04  0.46999998093E+01 0. -1.
</event>
<event>
 5   0  0.1298250E-07  0.3482413E+04  0.7818609E-02  0.8117971E-01
        1   -1    0    0  501    0  0.00000000000E+00  0.00000000000E+00  0.21104297757E+04  0.21104297757E+04  0.50400001928E-02 0.  1.
       -1   -1    0    0    0  501  0.00000000000E+00  0.00000000000E+00 -0.14365791859E+04  0.14365791859E+04  0.50400001928E-02 0. -1.
    10030    2    1    2    0    0  0.00000000000E+00  0.00000000000E+00  0.67385058983E+03  0.35470089616E+04  0.34824126631E+04 0.  0.
        2    1    3    3  502    0 -0.11005973400E+03  0.83321761544E+03  0.18901494336E+04  0.20685815481E+04  0.25500000920E-02 0.  1.
       -2    1    3    3    0  502  0.11005973400E+03 -0.83321761544E+03 -0.12162988438E+04  0.14784274135E+04  0.25500000920E-02 0. -1.
</event>
<event>
 5   0  0.1298250E-07  0.3736963E+04  0.7818609E-02  0.8059819E-01
        3   -1    0    0  501    0  0.00000000000E+00  0.00000000000E+00  0.17649364639E+04  0.17649364668E+04  0.10100000352E+00 0. -1.
       -3   -1    0    0    0  501  0.00000000000E+00  0.00000000000E+00 -0.19781014814E+04  0.19781014840E+04  0.10100000352E+00 0.  1.
    10030    2    1    2    0    0  0.00000000000E+00  0.00000000000E+00 -0.21316501754E+03  0.37430379507E+04  0.37369631756E+04 0.  0.
        2    1    3    3  502    0 -0.10622232458E+04  0.10415311860E+04 -0.12389591164E+04  0.19360075225E+04  0.25500000920E-02 0.  1.
       -2    1    3    3    0  502  0.10622232458E+04 -0.10415311860E+04  0.10257940988E+04  0.18070304282E+04  0.25500000920E-02 0. -1.
</event>
<event>
 5   0  0.3993751E-07  0.3614508E+04  0.7818609E-02  0.8087177E-01
        2   -1    0    0  501    0  0.00000000000E+00  0.00000000000E+00  0.21724535866E+04  0.21724535866E+04  0.25500000920E-02 0. -1.
       -2   -1    0    0    0  501  0.00000000000E+00  0.00000000000E+00 -0.15034461185E+04  0.15034461185E+04  0.25500000920E-02 0.  1.
    10030    2    1    2    0    0  0.00000000000E+00  0.00000000000E+00  0.66900746805E+03  0.36758997051E+04  0.36145079402E+04 0.  0.
        1    1    3    3  502    0  0.65001520366E+03 -0.11083625288E+04 -0.95797940921E+03  0.16027201280E+04  0.50400001928E-02 0.  1.
       -1    1    3    3    0  502 -0.65001520366E+03  0.11083625288E+04  0.16269868773E+04  0.20731795771E+04  0.50400001928E-02 0. -1.
</event>
<event>
 5   0  0.4200635E-07  0.3580406E+04  0.7818609E-02  0.8094995E-01
        2   -1    0    0  501    0  0.00000000000E+00  0.00000000000E+00  0.23529539116E+04  0.23529539116E+04  0.25500000920E-02 0.  1.
       -2   -1    0    0    0  501  0.00000000000E+00  0.00000000000E+00 -0.13620440359E+04  0.13620440359E+04  0.25500000920E-02 0. -1.
    10030    2    1    2    0    0  0.00000000000E+00  0.00000000000E+00  0.99090987573E+03  0.37149979475E+04  0.35804060340E+04 0.  0.
        4    1    3    3  502    0  0.71225548858E+03 -0.92052367358E+03  0.19067901604E+04  0.22339476366E+04  0.12699999809E+01 0.  1.
       -4    1    3    3    0  502 -0.71225548858E+03  0.92052367358E+03 -0.91588028466E+03  0.14810503109E+04  0.12699999809E+01 0. -1.
</event>
<event>
 5   0  0.1348226E-07  0.3607225E+04  0.7818609E-02  0.8088839E-01
       -1   -1    0    0    0  501  0.00000000000E+00  0.00000000000E+00  0.12276662691E+04  0.12276662692E+04  0.50400001928E-02 0. -1.
        1   -1    0    0  501    0  0.00000000000E+00  0.00000000000E+00 -0.26497571477E+04  0.26497571477E+04  0.50400001928E-02 0.  1.
    10030    2    1    2    0    0  0.00000000000E+00  0.00000000000E+00 -0.14220908785E+04  0.38774234168E+04  0.36072246792E+04 0.  0.
        4    1    3    3  502    0  0.45611547209E+03  0.15181164946E+04 -0.16358990236E+04  0.22779126945E+04  0.12699999809E+01 0.  1.
       -4    1    3    3    0  502 -0.45611547209E+03 -0.15181164946E+04  0.21380814509E+03  0.15995107224E+04  0.12699999809E+01 0. -1.
</event>
<event>
 5   0  0.1298250E-07  0.3633390E+04  0.7818609E-02  0.8082886E-01
        1   -1    0    0  501    0  0.00000000000E+00  0.00000000000E+00  0.24026553121E+04  0.24026553121E+04  0.50400001928E-02 0. -1.
       -1   -1    0    0    0  501  0.00000000000E+00  0.00000000000E+00 -0.13736388688E+04  0.13736388688E+04  0.50400001928E-02 0.  1.
    10030    2    1    2    0    0  0.00000000000E+00  0.00000000000E+00  0.10290164433E+04  0.37762941809E+04  0.36333900011E+04 0.  0.
        2    1    3    3  502    0 -0.14622132972E+04  0.16953764209E+03 -0.59205943406E+03  0.15866143552E+04  0.25500000920E-02 0.  1.
       -2    1    3    3    0  502  0.14622132972E+04 -0.16953764209E+03  0.16210758774E+04  0.21896798257E+04  0.25500000920E-02 0. -1.
</event>
<event>
 5   0  0.1298250E-07  0.3601549E+04  0.7818609E-02  0.8090137E-01
        1   -1    0    0  501    0  0.00000000000E+00  0.00000000000E+00  0.27455496110E+04  0.27455496110E+04  0.50400001928E-02 0. -1.
       -1   -1    0    0    0  501  0.00000000000E+00  0.00000000000E+00 -0.11811075679E+04  0.11811075679E+04  0.50400001928E-02 0.  1.
    10030    2    1    2    0    0  0.00000000000E+00  0.00000000000E+00  0.15644420431E+04  0.39266571788E+04  0.36015493463E+04 0.  0.
        2    1    3    3  502    0 -0.13733533842E+04  0.74152944007E+03 -0.19709536089E+03  0.15731535239E+04  0.25500000920E-02 0.  1.
       -2    1    3    3    0  502  0.13733533842E+04 -0.74152944007E+03  0.17615374040E+04  0.23535036550E+04  0.25500000920E-02 0. -1.
</event>
<event>
 5   0  0.4120440E-07  0.3572833E+04  0.7818609E-02  0.8096743E-01
       -2   -1    0    0    0  501  0.00000000000E+00  0.00000000000E+00  0.13297468485E+04  0.13297468485E+04  0.25500000920E-02 0. -1.
        2   -1    0    0  501    0  0.00000000000E+00  0.00000000000E+00 -0.23999189979E+04  0.23999189979E+04  0.25500000920E-02 0.  1.
    10030    2    1    2    0    0  0.00000000000E+00  0.00000000000E+00 -0.10701721494E+04  0.37296658464E+04  0.35728334549E+04 0.  0.
        2    1    3    3  502    0  0.15694767870E+04  0.27081066847E+03 -0.13797319140E+04  0.21071914858E+04  0.25500000920E-02 0.  1.
       -2    1    3    3    0  502 -0.15694767870E+04 -0.27081066847E+03  0.30955976458E+03  0.16224743607E+04  0.25500000920E-02 0. -1.
</event>
<event>
 5   0  0.1298250E-07  0.3592571E+04  0.7818609E-02  0.8092196E-01
       -1   -1    0    0    0  501  0.00000000000E+00  0.00000000000E+00  0.25860083033E+04  0.25860083033E+04  0.50400001928E-02 0. -1.
        1   -1    0    0  501    0  0.00000000000E+00  0.00000000000E+00 -0.12477303908E+04  0.12477303908E+04  0.50400001928E-02 0.  1.
    10030    2    1    2    0    0  0.00000000000E+00  0.00000000000E+00  0.13382779126E+04  0.38337386941E+04  0.35925707514E+04 0.  0.
        1    1    3    3  502    0  0.14261051444E+04  0.99319792815E+03  0.11539766450E+04  0.20861160333E+04  0.50400001928E-02 0.  1.
       -1    1    3    3    0  502 -0.14261051444E+04 -0.99319792815E+03  0.18430126759E+03  0.17476226608E+04  0.50400001928E-02 0. -1.
</event>
<event>
 5   0  0.1298250E-07  0.3632389E+04  0.7818609E-02  0.8083113E-01
        1   -1    0    0  501    0  0.00000000000E+00  0.00000000000E+00  0.24622262250E+04  0.24622262250E+04  0.50400001928E-02 0. -1.
       -1   -1    0    0    0  501  0.00000000000E+00  0.00000000000E+00 -0.13396666119E+04  0.13396666119E+04  0.50400001928E-02 0.  1.
    10030    2    1    2    0    0  0.00000000000E+00  0.00000000000E+00  0.11225596131E+04  0.38018928369E+04  0.36323888914E+04 0.  0.
        2    1    3    3  502    0 -0.53206612189E+03  0.10567184080E+04 -0.88099745934E+03  0.14750948021E+04  0.25500000920E-02 0.  1.
       -2    1    3    3    0  502  0.53206612189E+03 -0.10567184080E+04  0.20035570725E+04  0.23267980348E+04  0.25500000920E-02 0. -1.
</event>
<event>
 5   0  0.1370997E-07  0.3606296E+04  0.7818609E-02  0.8089051E-01
       -1   -1    0    0    0  501  0.00000000000E+00  0.00000000000E+00  0.16719570854E+04  0.16719570854E+04  0.50400001928E-02 0.  1.
        1   -1    0    0  501    0  0.00000000000E+00  0.00000000000E+00 -0.19446326065E+04  0.19446326065E+04  0.50400001928E-02 0. -1.
    10030    2    1    2    0    0  0.00000000000E+00  0.00000000000E+00 -0.27267552107E+03  0.36165896919E+04  0.36062957532E+04 0.  0.
        3    1    3    3  502    0 -0.33861807165E+03 -0.85988859769E+01 -0.19124397147E+04  0.19422053990E+04  0.10100000352E+00 0. -1.
       -3    1    3    3    0  502  0.33861807165E+03  0.85988859769E+01  0.16397641937E+04  0.16743842929E+04  0.10100000352E+00 0.  1.
</event>
<event>
 5   0  0.1348226E-07  0.3581003E+04  0.7818609E-02  0.8094857E-01
       -1   -1    0    0    0  501  0.00000000000E+00  0.00000000000E+00  0.13377732618E+04  0.13377732618E+04  0.50400001928E-02 0. -1.
        1   -1    0    0  501    0  0.00000000000E+00  0.00000000000E+00 -0.23964421377E+04  0.23964421377E+04  0.50400001928E-02 0.  1.
    10030    2    1    2    0    0  0.00000000000E+00  0.00000000000E+00 -0.10586688759E+04  0.37342153996E+04  0.35810033317E+04 0.  0.
        4    1    3    3  502    0 -0.77613904141E+03 -0.16009149680E+04 -0.31928629187E+03  0.18075579923E+04  0.12699999809E+01 0. -1.
       -4    1    3    3    0  502  0.77613904141E+03  0.16009149680E+04 -0.73938258400E+03  0.19266574073E+04  0.12699999809E+01 0.  1.
</event>
<event>
 5   0  0.4200635E-07  0.3588650E+04  0.7818609E-02  0.8093096E-01
        2   -1    0    0  501    0  0.00000000000E+00  0.00000000000E+00  0.14107622453E+04  0.14107622453E+04  0.25500000920E-02 0.  1.
       -2   -1    0    0    0  501  0.00000000000E+00  0.00000000000E+00 -0.22821722609E+04  0.22821722609E+04  0.25500000920E-02 0. -1.
    10030    2    1    2    0    0  0.00000000000E+00  0.00000000000E+00 -0.87141001554E+03  0.36929345062E+04  0.35886501434E+04 0.  0.
        4    1    3    3  502    0 -0.27198780912E+03 -0.16100275095E+04 -0.12012553516E+04  0.20271117340E+04  0.12699999809E+01 0.  1.
       -4    1    3    3    0  502  0.27198780912E+03  0.16100275095E+04  0.32984533610E+03  0.16658227721E+04  0.12699999809E+01 0. -1.
</event>
<event>
 5   0  0.4120440E-07  0.3542862E+04  0.7818609E-02  0.8103707E-01
        2   -1    0    0  501    0  0.00000000000E+00  0.00000000000E+00  0.25461791086E+04  0.25461791086E+04  0.25500000920E-02 0. -1.
       -2   -1    0    0    0  501  0.00000000000E+00  0.00000000000E+00 -0.12324222895E+04  0.12324222895E+04  0.25500000920E-02 0.  1.
    10030    2    1    2    0    0  0.00000000000E+00  0.00000000000E+00  0.13137568191E+04  0.37786013981E+04  0.35428620557E+04 0.  0.
        2    1    3    3  502    0  0.16903626379E+04 -0.49287191219E+03  0.86401591826E+03  0.19613189634E+04  0.25500000920E-02 0. -1.
       -2    1    3    3    0  502 -0.16903626379E+04  0.49287191219E+03  0.44974090089E+03  0.18172824347E+04  0.25500000920E-02 0.  1.
</event>
<event>
 5   0  0.3880259E-07  0.3656627E+04  0.7818609E-02  0.8077642E-01
       -2   -1    0    0    0  501  0.00000000000E+00  0.00000000000E+00  0.16578903411E+04  0.16578903411E+04  0.25500000920E-02 0. -1.
        2   -1    0    0  501    0  0.00000000000E+00  0.00000000000E+00 -0.20162554224E+04  0.20162554224E+04  0.25500000920E-02 0.  1.
    10030    2    1    2    0    0  0.00000000000E+00  0.00000000000E+00 -0.35836508131E+03  0.36741457635E+04  0.36566270742E+04 0.  0.
        5    1    3    3  502    0 -0.42644595274E+03 -0.50013566138E+03  0.15350733997E+04  0.16698695346E+04  0.46999998093E+01 0. -1.
       -5    1    3    3    0  502  0.42644595274E+03  0.50013566138E+03 -0.18934384810E+04  0.20042762289E+04  0.46999998093E+01 0.  1.
</event>
<event>
 5   0  0.4115358E-07  0.3616289E+04  0.7818609E-02  0.8086771E-01
       -2   -1    0    0    0  501  0.00000000000E+00  0.00000000000E+00  0.22007335390E+04  0.22007335390E+04  0.25500000920E-02 0.  1.
        2   -1    0    0  501    0  0.00000000000E+00  0.00000000000E+00 -0.14855891611E+04  0.14855891611E+04  0.25500000920E-02 0. -1.
    10030    2    1    2    0    0  0.00000000000E+00  0.00000000000E+00  0.71514437791E+03  0.36863227002E+04  0.36162886456E+04 0.  0.
        3    1    3    3  502    0  0.58397944697E+03 -0.11671829973E+04  0.16332217224E+04  0.20906365893E+04  0.10100000352E+00 0.  1.
       -3    1    3    3    0  502 -0.58397944697E+03  0.11671829973E+04 -0.91807734453E+03  0.15956861109E+04  0.10100000352E+00 0. -1.
</event>
<event>
 5   0  0.3993751E-07  0.3604870E+04  0.7818609E-02  0.8089377E-01
        2   -1    0    0  501    0  0.00000000000E+00  0.00000000000E+00  0.10459633369E+04  0.10459633369E+04  0.25500000920E-02 0.  1.
       -2   -1    0    0    0  501  0.00000000000E+00  0.00000000000E+00 -0.31060101028E+04  0.31060101028E+04  0.25500000920E-02 0. -1.
    10030    2    1    2    0    0  0.00000000000E+00  0.00000000000E+00 -0.20600467659E+04  0.41519734397E+04  0.36048704230E+04 0.  0.
        1    1    3    3  502    0  0.10120091401E+04 -0.69418714643E+03 -0.25504939502E+04  0.28303847236E+04  0.50400001928E-02 0. -1.
       -1    1    3    3    0  502 -0.10120091401E+04  0.69418714643E+03  0.49044718426E+03  0.13215887161E+04  0.50400001928E-02 0.  1.
</event>
<event>
 5   0  0.1370997E-07  0.3599285E+04  0.7818609E-02  0.8090655E-01
       -1   -1    0    0    0  501  0.00000000000E+00  0.00000000000E+00  0.14266758424E+04  0.14266758425E+04  0.50400001928E-02 0. -1.
        1   -1    0    0  501    0  0.00000000000E+00  0.00000000000E+00 -0.22701118074E+04  0.22701118074E+04  0.50400001928E-02 0.  1.
    10030    2    1    2    0    0  0.00000000000E+00  0.00000000000E+00 -0.84343596497E+03  0.36967876499E+04  0.35992853042E+04 0.  0.
        3    1    3    3  502    0  0.78209529038E+03 -0.90569451442E+03 -0.18022873498E+04  0.21633759031E+04  0.10100000352E+00 0.  1.
       -3    1    3    3    0  502 -0.78209529038E+03  0.90569451442E+03  0.95885138484E+03  0.15334117468E+04  0.10100000352E+00 0. -1.
</event>
<event>
 5   0  0.1370997E-07  0.3599705E+04  0.7818609E-02  0.8090559E-01
        1   -1    0    0  501    0  0.00000000000E+00  0.00000000000E+00  0.22333880743E+04  0.22333880743E+04  0.50400001928E-02 0. -1.
       -1   -1    0    0    0  501  0.00000000000E+00  0.00000000000E+00 -0.14504731968E+04  0.14504731968E+04  0.50400001928E-02 0.  1.
    10030    2    1    2    0    0  0.00000000000E+00  0.00000000000E+00  0.78291487754E+03  0.36838612711E+04  0.35997052878E+04 0.  0.
        3    1    3    3  502    0 -0.40101887919E+03 -0.91413275506E+03 -0.11412257020E+04  0.15161962104E+04  0.10100000352E+00 0.  1.
       -3    1    3    3    0  502  0.40101887919E+03  0.91413275506E+03  0.19241405795E+04  0.21676650607E+04  0.10100000352E+00 0. -1.
</event>
<event>
 5   0  0.3880259E-07  0.3605343E+04  0.7818609E-02  0.8089269E-01
        2   -1    0    0  501    0  0.00000000000E+00  0.00000000000E+00  0.12595867952E+04  0.12595867953E+04  0.25500000920E-02 0. -1.
       -2   -1    0    0    0  501  0.00000000000E+00  0.00000000000E+00 -0.25799124510E+04  0.25799124510E+04  0.25500000920E-02 0.  1.
    10030    2    1    2    0    0  0.00000000000E+00  0.00000000000E+00 -0.13203256557E+04  0.38394992462E+04  0.36053425114E+04 0.  0.
        5    1    3    3  502    0 -0.17326914250E+04 -0.29383770664E+03 -0.23279992789E+03  0.17727882188E+04  0.46999998093E+01 0. -1.
       -5    1    3    3    0  502  0.17326914250E+04  0.29383770664E+03 -0.10875257278E+04  0.20667110274E+04  0.46999998093E+01 0.  1.
</event>
<event>
 5   0  0.1348226E-07  0.3561126E+04  0.7818609E-02  0.8099455E-01
       -1   -1    0    0    0  501  0.00000000000E+00  0.00000000000E+00  0.17988893627E+04  0.17988893627E+04  0.50400001928E-02 0. -1.
        1   -1    0    0  501    0  0.00000000000E+00  0.00000000000E+00 -0.17624233834E+04  0.17624233834E+04  0.50400001928E-02 0.  1.
    10030    2    1    2    0    0  0.00000000000E+00  0.00000000000E+00  0.36465979348E+02  0.35613127461E+04  0.35611260449E+04 0.  0.
        4    1    3    3  502    0  0.29599589870E+03 -0.65626917482E+03 -0.16103794123E+04  0.17639802341E+04  0.12699999809E+01 0.  1.
       -4    1    3    3    0  502 -0.29599589870E+03  0.65626917482E+03  0.16468453916E+04  0.17973325120E+04  0.12699999809E+01 0. -1.
</event>
<event>
 5   0  0.3993751E-07  0.3584770E+04  0.7818609E-02  0.8093989E-01
        2   -1    0    0  501    0  0.00000000000E+00  0.00000000000E+00  0.15668062749E+04  0.15668062749E+04  0.25500000920E-02 0. -1.
       -2   -1    0    0    0  501  0.00000000000E+00  0.00000000000E+00 -0.20504409544E+04  0.20504409544E+04  0.25500000920E-02 0.  1.
    10030    2    1    2    0    0  0.00000000000E+00  0.00000000000E+00 -0.48363467957E+03  0.36172472293E+04  0.35847698691E+04 0.  0.
        1    1    3    3  502    0 -0.79475666023E+03 -0.11424618313E+04  0.89792301318E+03  0.16562375803E+04  0.50400001928E-02 0. -1.
       -1    1    3    3    0  502  0.79475666023E+03  0.11424618313E+04 -0.13815576927E+04  0.19610096490E+04  0.50400001928E-02 0.  1.
</event>
<event>
 5   0  0.4115358E-07  0.3612128E+04  0.7818609E-02  0.8087719E-01
        2   -1    0    0  501    0  0.00000000000E+00  0.00000000000E+00  0.20857674161E+04  0.20857674161E+04  0.25500000920E-02 0. -1.
       -2   -1    0    0    0  501  0.00000000000E+00  0.00000000000E+00 -0.15638694990E+04  0.15638694990E+04  0.25500000920E-02 0.  1.
    10030    2    1    2    0    0  0.00000000000E+00  0.00000000000E+00  0.52189791719E+03  0.36496369151E+04  0.36121284828E+04 0.  0.
        3    1    3    3  502    0 -0.17110457819E+04  0.57663597737E+03  0.21951932286E+03  0.18188940215E+04  0.10100000352E+00 0. -1.
       -3    1    3    3    0  502  0.17110457819E+04 -0.57663597737E+03  0.30237859433E+03  0.18307428936E+04  0.10100000352E+00 0.  1.
</event>
<event>
 5   0  0.1370997E-07  0.3578894E+04  0.7818609E-02  0.8095344E-01
        1   -1    0    0  501    0  0.00000000000E+00  0.00000000000E+00  0.10782612534E+04  0.10782612535E+04  0.50400001928E-02 0. -1.
       -1   -1    0    0    0  501  0.00000000000E+00  0.00000000000E+00 -0.29697068260E+04  0.29697068260E+04  0.50400001928E-02 0.  1.
    10030    2    1    2    0    0  0.00000000000E+00  0.00000000000E+00 -0.18914455725E+04  0.40479680794E+04  0.35788935746E+04 0.  0.
        3    1    3    3  502    0  0.29846783747E+03  0.79321098080E+03  0.83686631712E+03  0.11910549748E+04  0.10100000352E+00 0. -1.
       -3    1    3    3    0  502 -0.29846783747E+03 -0.79321098080E+03 -0.27283118896E+04  0.28569131046E+04  0.10100000352E+00 0.  1.
</event>
<event>
 5   0  0.4115358E-07  0.3606535E+04  0.7818609E-02  0.8088996E-01
        2   -1    0    0  501    0  0.00000000000E+00  0.00000000000E+00  0.19416791214E+04  0.19416791214E+04  0.25500000920E-02 0. -1.
       -2   -1    0    0    0  501  0.00000000000E+00  0.00000000000E+00 -0.16747226656E+04  0.16747226656E+04  0.25500000920E-02 0.  1.
    10030    2    1    2    0    0  0.00000000000E+00  0.00000000000E+00  0.26695645581E+03  0.36164017870E+04  0.36065351982E+04 0.  0.
        3    1    3    3  502    0  0.15432294029E+03 -0.73877756436E+03  0.17756906763E+04  0.19294261447E+04  0.10100000352E+00 0. -1.
       -3    1    3    3    0  502 -0.15432294029E+03  0.73877756436E+03 -0.15087342205E+04  0.16869756423E+04  0.10100000352E+00 0.  1.
</event>
<event>
 5   0  0.3993751E-07  0.3590577E+04  0.7818609E-02  0.8092654E-01
        2   -1    0    0  501    0  0.00000000000E+00  0.00000000000E+00  0.23342705193E+04  0.23342705193E+04  0.25500000920E-02 0.  1.
       -2   -1    0    0    0  501  0.00000000000E+00  0.00000000000E+00 -0.13807571903E+04  0.13807571903E+04  0.25500000920E-02 0. -1.
    10030    2    1    2    0    0  0.00000000000E+00  0.00000000000E+00  0.95351332904E+03  0.37150277096E+04  0.35905770030E+04 0.  0.
        1    1    3    3  502    0  0.89466495717E+03 -0.63645989601E+03  0.19463948231E+04  0.22347168483E+04  0.50400001928E-02 0.  1.
       -1    1    3    3    0  502 -0.89466495717E+03  0.63645989601E+03 -0.99288149403E+03  0.14803108613E+04  0.50400001928E-02 0. -1.
</event>
<event>
 5   0  0.1298250E-07  0.3582965E+04  0.7818609E-02  0.8094405E-01
        1   -1    0    0  501    0  0.00000000000E+00  0.00000000000E+00  0.99448029348E+03  0.99448029349E+03  0.50400001928E-02 0. -1.
       -1   -1    0    0    0  501  0.00000000000E+00  0.00000000000E+00 -0.32272222569E+04  0.32272222569E+04  0.50400001928E-02 0.  1.
    10030    2    1    2    0    0  0.00000000000E+00  0.00000000000E+00 -0.22327419634E+04  0.42217025504E+04  0.35829646591E+04 0.  0.
        2    1    3    3  502    0  0.14424281497E+04 -0.57096044884E+03 -0.21721003716E+04  0.26691974122E+04  0.25500000920E-02 0.  1.
       -2    1    3    3    0  502 -0.14424281497E+04  0.57096044884E+03 -0.60641591813E+02  0.15525051381E+04  0.25500000920E-02 0. -1.
</event>
<event>
 5   0  0.4200635E-07  0.3568786E+04  0.7818609E-02  0.8097679E-01
       -2   -1    0    0    0  501  0.00000000000E+00  0.00000000000E+00  0.13744458593E+04  0.13744458593E+04  0.25500000920E-02 0. -1.
        2   -1    0    0  501    0  0.00000000000E+00  0.00000000000E+00 -0.23166125235E+04  0.23166125235E+04  0.25500000920E-02 0.  1.
    10030    2    1    2    0    0  0.00000000000E+00  0.00000000000E+00 -0.94216666421E+03  0.36910583827E+04  0.35687860627E+04 0.  0.
        4    1    3    3  502    0  0.34343093795E+03  0.11227952024E+04  0.91862061671E+03  0.14907982178E+04  0.12699999809E+01 0. -1.
       -4    1    3    3    0  502 -0.34343093795E+03 -0.11227952024E+04 -0.18607872809E+04  0.22002601650E+04  0.12699999809E+01 0.  1.
</event>
<event>
 5   0  0.4120440E-07  0.3614859E+04  0.7818609E-02  0.8087097E-01
       -2   -1    0    0    0  501  0.00000000000E+00  0.00000000000E+00  0.27650190351E+04  0.27650190351E+04  0.25500000920E-02 0. -1.
        2   -1    0    0  501    0  0.00000000000E+00  0.00000000000E+00 -0.11814748887E+04  0.11814748887E+04  0.25500000920E-02 0.  1.
    10030    2    1    2    0    0  0.00000000000E+00  0.00000000000E+00  0.15835441464E+04  0.39464939238E+04  0.36148585349E+04 0.  0.
        2    1    3    3  502    0 -0.42174558756E+03 -0.75478124063E+03  0.25245966617E+04  0.26685487378E+04  0.25500000920E-02 0. -1.
       -2    1    3    3    0  502  0.42174558756E+03  0.75478124063E+03 -0.94105251530E+03  0.12779451860E+04  0.25500000920E-02 0.  1.
</event>
<event>
 5   0  0.1370997E-07  0.3623090E+04  0.7818609E-02  0.8085223E-01
       -1   -1    0    0    0  501  0.00000000000E+00  0.00000000000E+00  0.19154127110E+04  0.19154127110E+04  0.50400001928E-02 0.  1.
        1   -1    0    0  501    0  0.00000000000E+00  0.00000000000E+00 -0.17133093683E+04  0.17133093683E+04  0.50400001928E-02 0. -1.
    10030    2    1    2    0    0  0.00000000000E+00  0.00000000000E+00  0.20210334274E+03  0.36287220794E+04  0.36230895887E+04 0.  0.
        3    1    3    3  502    0 -0.16357236880E+04 -0.10874876750E+03  0.87314326284E+03  0.18573630355E+04  0.10100000352E+00 0.  1.
       -3    1    3    3    0  502  0.16357236880E+04  0.10874876750E+03 -0.67103992010E+03  0.17713590439E+04  0.10100000352E+00 0. -1.
</event>
<event>
 5   0  0.1348226E-07  0.3602910E+04  0.7818609E-02  0.8089825E-01
       -1   -1    0    0    0  501  0.00000000000E+00  0.00000000000E+00  0.30225570326E+04  0.30225570326E+04  0.50400001928E-02 0.  1.
        1   -1    0    0  501    0  0.00000000000E+00  0.00000000000E+00 -0.10736736421E+04  0.10736736421E+04  0.50400001928E-02 0. -1.
    10030    2    1    2    0    0  0.00000000000E+00  0.00000000000E+00  0.19488833905E+04  0.40962306747E+04  0.36029098339E+04 0.  0.
        4    1    3    3  502    0  0.59745082961E+03  0.23734545393E+03  0.28877035113E+04  0.29583971235E+04  0.12699999809E+01 0.  1.
       -4    1    3    3    0  502 -0.59745082961E+03 -0.23734545393E+03 -0.93882012079E+03  0.11378335513E+04  0.12699999809E+01 0. -1.
</event>
<event>
 5   0  0.1361743E-07  0.3581066E+04  0.7818609E-02  0.8094842E-01
       -1   -1    0    0    0  501  0.00000000000E+00  0.00000000000E+00  0.15231701050E+04  0.15231701050E+04  0.50400001928E-02 0. -1.
        1   -1    0    0  501    0  0.00000000000E+00  0.00000000000E+00 -0.21048266084E+04  0.21048266084E+04  0.50400001928E-02 0.  1.
    10030    2    1    2    0    0  0.00000000000E+00  0.00000000000E+00 -0.58165650341E+03  0.36279967134E+04  0.35810663027E+04 0.  0.
        5    1    3    3  502    0 -0.17038337409E+04 -0.26168098903E+03  0.19972864329E+03  0.17353501024E+04  0.46999998093E+01 0. -1.
       -5    1    3    3    0  502  0.17038337409E+04  0.26168098903E+03 -0.78138514671E+03  0.18926466110E+04  0.46999998093E+01 0.  1.
</event>
<event>
 5   0  0.1348226E-07  0.3304904E+04  0.7818609E-02  0.8161649E-01
       -1   -1    0    0    0  501  0.00000000000E+00  0.00000000000E+00  0.14215784982E+04  0.14215784982E+04  0.50400001928E-02 0.  1.
        1   -1    0    0  501    0  0.00000000000E+00  0.00000000000E+00 -0.19208210243E+04  0.19208210243E+04  0.50400001928E-02 0. -1.
    10030    2    1    2    0    0  0.00000000000E+00  0.00000000000E+00 -0.49924252613E+03  0.33423995225E+04  0.33049041541E+04 0.  0.
        4    1    3    3  502    0  0.12905055194E+04  0.89155850679E+03  0.27619584845E+03  0.15926602984E+04  0.12699999809E+01 0.  1.
       -4    1    3    3    0  502 -0.12905055194E+04 -0.89155850679E+03 -0.77543837457E+03  0.17497392241E+04  0.12699999809E+01 0. -1.
</event>
<event>
 5   0  0.1298250E-07  0.3568300E+04  0.7818609E-02  0.8097792E-01
       -1   -1    0    0    0  501  0.00000000000E+00  0.00000000000E+00  0.27746532048E+04  0.27746532048E+04  0.50400001928E-02 0. -1.
        1   -1    0    0  501    0  0.00000000000E+00  0.00000000000E+00 -0.11472395871E+04  0.11472395871E+04  0.50400001928E-02 0.  1.
    10030    2    1    2    0    0  0.00000000000E+00  0.00000000000E+00  0.16274136177E+04  0.39218927919E+04  0.35683004341E+04 0.  0.
        1    1    3    3  502    0  0.10215209175E+04  0.60211284861E+03  0.22789037291E+04  0.25689389004E+04  0.50400001928E-02 0. -1.
       -1    1    3    3    0  502 -0.10215209175E+04 -0.60211284861E+03 -0.65149011142E+03  0.13529538915E+04  0.50400001928E-02 0.  1.
</event>
<event>
 5   0  0.3880259E-07  0.3608971E+04  0.7818609E-02  0.8088440E-01
        2   -1    0    0  501    0  0.00000000000E+00  0.00000000000E+00  0.19876722903E+04  0.19876722903E+04  0.25500000920E-02 0.  1.
       -2   -1    0    0    0  501  0.00000000000E+00  0.00000000000E+00 -0.16381817390E+04  0.16381817390E+04  0.25500000920E-02 0. -1.
    10030    2    1    2    0    0  0.00000000000E+00  0.00000000000E+00  0.34949055139E+03  0.36258540293E+04  0.36089712934E+04 0.  0.
        5    1    3    3  502    0 -0.36430998052E+03 -0.15489432815E+04 -0.68023469604E+03  0.17305167964E+04  0.46999998093E+01 0. -1.
       -5    1    3    3    0  502  0.36430998052E+03  0.15489432815E+04  0.10297252474E+04  0.18953372329E+04  0.46999998093E+01 0.  1.
</event>
<event>
 5   0  0.1348226E-07  0.3576828E+04  0.7818609E-02  0.8095820E-01
        1   -1    0    0  501    0  0.00000000000E+00  0.00000000000E+00  0.15052733703E+04  0.15052733703E+04  0.50400001928E-02 0.  1.
       -1   -1    0    0    0  501  0.00000000000E+00  0.00000000000E+00 -0.21248136697E+04  0.21248136697E+04  0.50400001928E-02 0. -1.
    10030    2    1    2    0    0  0.00000000000E+00  0.00000000000E+00 -0.61954029937E+03  0.36300870400E+04  0.35768284465E+04 0.  0.
        4    1    3    3  502    0  0.62910162139E+03 -0.12565759110E+04  0.81289807348E+03  0.16234397928E+04  0.12699999809E+01 0.  1.
       -4    1    3    3    0  502 -0.62910162139E+03  0.12565759110E+04 -0.14324383729E+04  0.20066472473E+04  0.12699999809E+01 0. -1.
</event>
<event>
 5   0  0.3880259E-07  0.3592414E+04  0.7818609E-02  0.8092231E-01
        2   -1    0    0  501    0  0.00000000000E+00  0.00000000000E+00  0.24790969440E+04  0.24790969440E+04  0.25500000920E-02 0.  1.
       -2   -1    0    0    0  501  0.00000000000E+00  0.00000000000E+00 -0.13014256533E+04  0.13014256533E+04  0.25500000920E-02 0. -1.
    10030    2    1    2    0    0  0.00000000000E+00  0.00000000000E+00  0.11776712907E+04  0.37805225973E+04  0.35924144304E+04 0.  0.
        5    1    3    3  502    0 -0.11029629709E+04 -0.69037834003E+03  0.18918920382E+04  0.22961766356E+04  0.46999998093E+01 0.  1.
       -5    1    3    3    0  502  0.11029629709E+04  0.69037834003E+03 -0.71422074757E+03  0.14843459617E+04  0.46999998093E+01 0. -1.
</event>
<event>
 5   0  0.4115358E-07  0.3597023E+04  0.7818609E-02  0.8091174E-01
        2   -1    0    0  501    0  0.00000000000E+00  0.00000000000E+00  0.22289745287E+04  0.22289745287E+04  0.25500000920E-02 0. -1.
       -2   -1    0    0    0  501  0.00000000000E+00  0.00000000000E+00 -0.14511799241E+04  0.14511799241E+04  0.25500000920E-02 0.  1.
    10030    2    1    2    0    0  0.00000000000E+00  0.00000000000E+00  0.77779460458E+03  0.36801544528E+04  0.35970227063E+04 0.  0.
        3    1    3    3  502    0 -0.76721412178E+03 -0.14384986616E+04 -0.38809300738E+03  0.16758615995E+04  0.10100000352E+00 0.  1.
       -3    1    3    3    0  502  0.76721412178E+03  0.14384986616E+04  0.11658876120E+04  0.20042928533E+04  0.10100000352E+00 0. -1.
</event>
<event>
 5   0  0.4115358E-07  0.3572160E+04  0.7818609E-02  0.8096899E-01
        2   -1    0    0  501    0  0.00000000000E+00  0.00000000000E+00  0.23712870312E+04  0.23712870312E+04  0.25500000920E-02 0.  1.
       -2   -1    0    0    0  501  0.00000000000E+00  0.00000000000E+00 -0.13452955897E+04  0.13452955897E+04  0.25500000920E-02 0. -1.
    10030    2    1    2    0    0  0.00000000000E+00  0.00000000000E+00  0.10259914415E+04  0.37165826209E+04  0.35721601224E+04 0.  0.
        3    1    3    3  502    0  0.10513619815E+04  0.87434314233E+02 -0.98647843175E+03  0.14443498475E+04  0.10100000352E+00 0. -1.
       -3    1    3    3    0  502 -0.10513619815E+04 -0.87434314233E+02  0.20124698732E+04  0.22722327734E+04  0.10100000352E+00 0.  1.
</event>
<event>
 5   0  0.1361743E-07  0.3597007E+04  0.7818609E-02  0.8091178E-01
        1   -1    0    0  501    0  0.00000000000E+00  0.00000000000E+00  0.16889141310E+04  0.16889141310E+04  0.50400001928E-02 0.  1.
       -1   -1    0    0    0  501  0.00000000000E+00  0.00000000000E+00 -0.19152037309E+04  0.19152037310E+04  0.50400001928E-02 0. -1.
    10030    2    1    2    0    0  0.00000000000E+00  0.00000000000E+00 -0.22628959991E+03  0.36041178620E+04  0.35970068919E+04 0.  0.
        5    1    3    3  502    0 -0.15978500161E+04 -0.36138149516E+03  0.63052952270E+03  0.17553662946E+04  0.46999998093E+01 0.  1.
       -5    1    3    3    0  502  0.15978500161E+04  0.36138149516E+03 -0.85681912262E+03  0.18487515674E+04  0.46999998093E+01 0. -1.
</event>
<event>
 5   0  0.3880259E-07  0.3531607E+04  0.7818609E-02  0.8106340E-01
       -2   -1    0    0    0  501  0.00000000000E+00  0.00000000000E+00  0.14741568398E+04  0.14741568398E+04  0.25500000920E-02 0.  1.
        2   -1    0    0  501    0  0.00000000000E+00  0.00000000000E+00 -0.21151500134E+04  0.21151500134E+04  0.25500000920E-02 0. -1.
    10030    2    1    2    0    0  0.00000000000E+00  0.00000000000E+00 -0.64099317357E+03  0.35893068532E+04  0.35316074864E+04 0.  0.
        5    1    3    3  502    0 -0.81460984903E+03 -0.14254062286E+04 -0.98124811475E+03  0.19126531508E+04  0.46999998093E+01 0. -1.
       -5    1    3    3    0  502  0.81460984903E+03  0.14254062286E+04  0.34025494118E+03  0.16766537024E+04  0.46999998093E+01 0.  1.
</event>
<event>
 5   0  0.4115358E-07  0.3607735E+04  0.7818609E-02  0.8088722E-01
        2   -1    0    0  501    0  0.00000000000E+00  0.00000000000E+00  0.20576840812E+04  0.20576840812E+04  0.25500000920E-02 0.  1.
       -2   -1    0    0    0  501  0.00000000000E+00  0.00000000000E+00 -0.15813592386E+04  0.15813592386E+04  0.25500000920E-02 0. -1.
    10030    2    1    2    0    0  0.00000000000E+00  0.00000000000E+00  0.47632484259E+03  0.36390433198E+04  0.36077348749E+04 0.  0.
        3    1    3    3  502    0 -0.51205940668E+03  0.20073967295E+03 -0.14947209353E+04  0.15926995752E+04  0.10100000352E+00 0. -1.
       -3    1    3    3    0  502  0.51205940668E+03 -0.20073967295E+03  0.19710457779E+04  0.20463437446E+04  0.10100000352E+00 0.  1.
</event>
<event>
 5   0  0.1370997E-07  0.3520588E+04  0.7818609E-02  0.8108928E-01
       -1   -1    0    0    0  501  0.00000000000E+00  0.00000000000E+00  0.15681132540E+04  0.15681132540E+04  0.50400001928E-02 0.  1.
        1   -1    0    0  501    0  0.00000000000E+00  0.00000000000E+00 -0.19760274510E+04  0.19760274510E+04  0.50400001928E-02 0. -1.
    10030    2    1    2    0    0  0.00000000000E+00  0.00000000000E+00 -0.40791419703E+03  0.35441407050E+04  0.35205879260E+04 0.  0.
        3    1    3    3  502    0  0.97352753572E+03 -0.13284074909E+04  0.42166045243E+03  0.17000646670E+04  0.10100000352E+00 0.  1.
       -3    1    3    3    0  502 -0.97352753572E+03  0.13284074909E+04 -0.82957464946E+03  0.18440760380E+04  0.10100000352E+00 0. -1.
</event>
<event>
 5   0  0.1370997E-07  0.3608604E+04  0.7818609E-02  0.8088524E-01
       -1   -1    0    0    0  501  0.00000000000E+00  0.00000000000E+00  0.10988558566E+04  0.10988558566E+04  0.50400001928E-02 0. -1.
        1   -1    0    0  501    0  0.00000000000E+00  0.00000000000E+00 -0.29626325404E+04  0.29626325404E+04  0.50400001928E-02 0.  1.
    10030    2    1    2    0    0  0.00000000000E+00  0.00000000000E+00 -0.18637766838E+04  0.40614883970E+04  0.36086042277E+04 0.  0.
        3    1    3    3  502    0 -0.71150980239E+03  0.76797913325E+03 -0.25858267998E+04  0.27897201288E+04  0.10100000352E+00 0.  1.
       -3    1    3    3    0  502  0.71150980239E+03 -0.76797913325E+03  0.72205011597E+03  0.12717682683E+04  0.10100000352E+00 0. -1.
</event>
<event>
 5   0  0.1348226E-07  0.3627377E+04  0.7818609E-02  0.8084249E-01
       -1   -1    0    0    0  501  0.00000000000E+00  0.00000000000E+00  0.27223760576E+04  0.27223760576E+04  0.50400001928E-02 0. -1.
        1   -1    0    0  501    0  0.00000000000E+00  0.00000000000E+00 -0.12083073041E+04  0.12083073042E+04  0.50400001928E-02 0.  1.
    10030    2    1    2    0    0  0.00000000000E+00  0.00000000000E+00  0.15140687535E+04  0.39306833618E+04  0.36273774963E+04 0.  0.
        4    1    3    3  502    0  0.77314077303E+03  0.32682822361E+03 -0.98516294019E+03  0.12942607830E+04  0.12699999809E+01 0.  1.
       -4    1    3    3    0  502 -0.77314077303E+03 -0.32682822361E+03  0.24992316937E+04  0.26364225788E+04  0.12699999809E+01 0. -1.
</event>
<event>
 5   0  0.3993751E-07  0.3611040E+04  0.7818609E-02  0.8087967E-01
       -2   -1    0    0    0  501  0.00000000000E+00  0.00000000000E+00  0.13263833627E+04  0.13263833628E+04  0.25500000920E-02 0.  1.
        2   -1    0    0  501    0  0.00000000000E+00  0.00000000000E+00 -0.24577379218E+04  0.24577379218E+04  0.25500000920E-02 0. -1.
    10030    2    1    2    0    0  0.00000000000E+00  0.00000000000E+00 -0.11313545590E+04  0.37841212845E+04  0.36110401213E+04 0.  0.
        1    1    3    3  502    0  0.66271402624E+03  0.85074012062E+03 -0.20831720088E+04  0.23457523850E+04  0.50400001928E-02 0. -1.
       -1    1    3    3    0  502 -0.66271402624E+03 -0.85074012062E+03  0.95181744978E+03  0.14383688995E+04  0.50400001928E-02 0.  1.
</event>
<event>
 5   0  0.3880259E-07  0.3673579E+04  0.7818609E-02  0.8073842E-01
       -2   -1    0    0    0  501  0.00000000000E+00  0.00000000000E+00  0.20341623791E+04  0.20341623791E+04  0.25500000920E-02 0. -1.
        2   -1    0    0  501    0  0.00000000000E+00  0.00000000000E+00 -0.16585678744E+04  0.16585678744E+04  0.25500000920E-02 0.  1.
    10030    2    1    2    0    0  0.00000000000E+00  0.00000000000E+00  0.37559450468E+03  0.36927302534E+04  0.36735793843E+04 0.  0.
        5    1    3    3  502    0 -0.11949365778E+04 -0.12456232485E+04 -0.44342824030E+03  0.17821620006E+04  0.46999998093E+01 0.  1.
       -5    1    3    3    0  502  0.11949365778E+04  0.12456232485E+04  0.81902274498E+03  0.19105682529E+04  0.46999998093E+01 0. -1.
</event>
<event>
 5   0  0.4120440E-07  0.3598720E+04  0.7818609E-02  0.8090785E-01
       -2   -1    0    0    0  501  0.00000000000E+00  0.00000000000E+00  0.18554010396E+04  0.18554010396E+04  0.25500000920E-02 0.  1.
        2   -1    0    0  501    0  0.00000000000E+00  0.00000000000E+00 -0.17450120343E+04  0.17450120343E+04  0.25500000920E-02 0. -1.
    10030    2    1    2    0    0  0.00000000000E+00  0.00000000000E+00  0.11038900537E+03  0.36004130739E+04  0.35987204074E+04 0.  0.
        2    1    3    3  502    0  0.61046183140E+03 -0.62804238888E+03  0.16277468550E+04  0.18484211408E+04  0.25500000920E-02 0.  1.
       -2    1    3    3    0  502 -0.61046183140E+03  0.62804238888E+03 -0.15173578496E+04  0.17519919331E+04  0.25500000920E-02 0. -1.
</event>
<event>
 5   0  0.4115358E-07  0.3604424E+04  0.7818609E-02  0.8089479E-01
       -2   -1    0    0    0  501  0.00000000000E+00  0.00000000000E+00  0.10194001228E+04  0.10194001228E+04  0.25500000920E-02 0.  1.
        2   -1    0    0  501    0  0.00000000000E+00  0.00000000000E+00 -0.31861566063E+04  0.31861566063E+04  0.25500000920E-02 0. -1.
    10030    2    1    2    0    0  0.00000000000E+00  0.00000000000E+00 -0.21667564835E+04  0.42055567292E+04  0.36044241903E+04 0.  0.
        3    1    3    3  502    0 -0.10541141326E+04  0.26575824208E+03  0.59377264711E+03  0.12386888287E+04  0.10100000352E+00 0.  1.
       -3    1    3    3    0  502  0.10541141326E+04 -0.26575824208E+03 -0.27605291306E+04  0.29668679005E+04  0.10100000352E+00 0. -1.
</event>
<event>
 5   0  0.1298250E-07  0.3608833E+04  0.7818609E-02  0.8088471E-01
       -1   -1    0    0    0  501  0.00000000000E+00  0.00000000000E+00  0.15804821000E+04  0.15804821001E+04  0.50400001928E-02 0.  1.
        1   -1    0    0  501    0  0.00000000000E+00  0.00000000000E+00 -0.20600801416E+04  0.20600801416E+04  0.50400001928E-02 0. -1.
    10030    2    1    2    0    0  0.00000000000E+00  0.00000000000E+00 -0.47959804159E+03  0.36405622417E+04  0.36088334894E+04 0.  0.
        2    1    3    3  502    0  0.75627243813E+03 -0.13511050196E+04  0.69489288369E+03  0.16971472813E+04  0.25500000920E-02 0.  1.
       -2    1    3    3    0  502 -0.75627243813E+03  0.13511050196E+04 -0.11744909253E+04  0.19434149604E+04  0.25500000920E-02 0. -1.
</event>
<event>
 5   0  0.1298250E-07  0.3573035E+04  0.7818609E-02  0.8096697E-01
       -1   -1    0    0    0  501  0.00000000000E+00  0.00000000000E+00  0.17041646445E+04  0.17041646446E+04  0.50400001928E-02 0. -1.
        1   -1    0    0  501    0  0.00000000000E+00  0.00000000000E+00 -0.18728495779E+04  0.18728495779E+04  0.50400001928E-02 0.  1.
    10030    2    1    2    0    0  0.00000000000E+00  0.00000000000E+00 -0.16868493333E+03  0.35770142224E+04  0.35730345843E+04 0.  0.
        1    1    3    3  502    0  0.16966215601E+04 -0.43243646597E+03  0.27118406742E+03  0.17717411813E+04  0.50400001928E-02 0.  1.
       -1    1    3    3    0  502 -0.16966215601E+04  0.43243646597E+03 -0.43986900075E+03  0.18052730411E+04  0.50400001928E-02 0. -1.
</event>
<event>
 5   0  0.4115358E-07  0.3596851E+04  0.7818609E-02  0.8091213E-01
       -2   -1    0    0    0  501  0.00000000000E+00  0.00000000000E+00  0.23023487909E+04  0.23023487909E+04  0.25500000920E-02 0.  1.
        2   -1    0    0  501    0  0.00000000000E+00  0.00000000000E+00 -0.14047973843E+04  0.14047973843E+04  0.25500000920E-02 0. -1.
    10030    2    1    2    0    0  0.00000000000E+00  0.00000000000E+00  0.89755140657E+03  0.37071461752E+04  0.35968505998E+04 0.  0.
        3    1    3    3  502    0  0.14962427974E+03  0.17921203023E+04  0.46510274640E+03  0.18575260908E+04  0.10100000352E+00 0. -1.
       -3    1    3    3    0  502 -0.14962427974E+03 -0.17921203023E+04  0.43244866016E+03  0.18496200845E+04  0.10100000352E+00 0.  1.
</event>
<event>
 5   0  0.3880259E-07  0.3608417E+04  0.7818609E-02  0.8088566E-01
        2   -1    0    0  501    0  0.00000000000E+00  0.00000000000E+00  0.15953224544E+04  0.15953224544E+04  0.25500000920E-02 0. -1.
       -2   -1    0    0    0  501  0.00000000000E+00  0.00000000000E+00 -0.20404449448E+04  0.20404449448E+04  0.25500000920E-02 0.  1.
    10030    2    1    2    0    0  0.00000000000E+00  0.00000000000E+00 -0.44512249046E+03  0.36357673992E+04  0.36084166264E+04 0.  0.
        5    1    3    3  502    0  0.66457662575E+03  0.25018737039E+03  0.14485909636E+04  0.16132866087E+04  0.46999998093E+01 0. -1.
       -5    1    3    3    0  502 -0.66457662575E+03 -0.25018737039E+03 -0.18937134541E+04  0.20224807905E+04  0.46999998093E+01 0.  1.
</event>
<event>
 5   0  0.1370997E-07  0.3590640E+04  0.7818609E-02  0.8092639E-01
        1   -1    0    0  501    0  0.00000000000E+00  0.00000000000E+00  0.21718432934E+04  0.21718432934E+04  0.50400001928E-02 0.  1.
       -1   -1    0    0    0  501  0.00000000000E+00  0.00000000000E+00 -0.14840733021E+04  0.14840733021E+04  0.50400001928E-02 0. -1.
    10030    2    1    2    0    0  0.00000000000E+00  0.00000000000E+00  0.68776999129E+03  0.36559165956E+04  0.35906404154E+04 0.  0.
        3    1    3    3  502    0 -0.83652121284E+02 -0.25632108107E+03  0.21511110715E+04  0.21679430403E+04  0.10100000352E+00 0.  1.
       -3    1    3    3    0  502  0.83652121284E+02  0.25632108107E+03 -0.14633410802E+04  0.14879735553E+04  0.10100000352E+00 0. -1.
</event>
<event>
 5   0  0.1298250E-07  0.3195337E+04  0.7818609E-02  0.8190050E-01
       -1   -1    0    0    0  501  0.00000000000E+00  0.00000000000E+00  0.10107987209E+04  0.10107987209E+04  0.50400001928E-02 0.  1.
        1   -1    0    0  501    0  0.00000000000E+00  0.00000000000E+00 -0.25252745423E+04  0.25252745423E+04  0.50400001928E-02 0. -1.
    10030    2    1    2    0    0  0.00000000000E+00  0.00000000000E+00 -0.15144758213E+04  0.35360732632E+04  0.31953367756E+04 0.  0.
        2    1    3    3  502    0 -0.13608732247E+04 -0.31416813623E+01  0.16900908411E+03  0.13713314239E+04  0.25500000920E-02 0.  1.
       -2    1    3    3    0  502  0.13608732247E+04  0.31416813623E+01 -0.16834849054E+04  0.21647418393E+04  0.25500000920E-02 0. -1.
</event>
<event>
 5   0  0.1298250E-07  0.3394019E+04  0.7818609E-02  0.8139376E-01
        1   -1    0    0  501    0  0.00000000000E+00  0.00000000000E+00  0.17639813734E+04  0.17639813735E+04  0.50400001928E-02 0.  1.
       -1   -1    0    0    0  501  0.00000000000E+00  0.00000000000E+00 -0.16325804477E+04  0.16325804477E+04  0.50400001928E-02 0. -1.
    10030    2    1    2    0    0  0.00000000000E+00  0.00000000000E+00  0.13140092571E+03  0.33965618212E+04  0.33940191517E+04 0.  0.
        2    1    3    3  502    0 -0.94801609906E+03 -0.56044805732E+03  0.13577931840E+04  0.17482673936E+04  0.25500000920E-02 0.  1.
       -2    1    3    3    0  502  0.94801609906E+03  0.56044805732E+03 -0.12263922582E+04  0.16482944276E+04  0.25500000920E-02 0. -1.
</event>
<event>
 5   0  0.4200635E-07  0.3590606E+04  0.7818609E-02  0.8092647E-01
        2   -1    0    0  501    0  0.00000000000E+00  0.00000000000E+00  0.17551549979E+04  0.17551549979E+04  0.25500000920E-02 0.  1.
       -2   -1    0    0    0  501  0.00000000000E+00  0.00000000000E+00 -0.18363692067E+04  0.18363692068E+04  0.25500000920E-02 0. -1.
    10030    2    1    2    0    0  0.00000000000E+00  0.00000000000E+00 -0.81214208825E+02  0.35915242047E+04  0.35906058493E+04 0.  0.
        4    1    3    3  502    0  0.78479946647E+03 -0.30489168892E+03 -0.16266487540E+04  0.18316268523E+04  0.12699999809E+01 0. -1.
       -4    1    3    3    0  502 -0.78479946647E+03  0.30489168892E+03  0.15454345451E+04  0.17598973523E+04  0.12699999809E+01 0.  1.
</event>
<event>
 5   0  0.1361743E-07  0.3597333E+04  0.7818609E-02  0.8091103E-01
        1   -1    0    0  501    0  0.00000000000E+00  0.00000000000E+00  0.17704348314E+04  0.17704348314E+04  0.50400001928E-02 0.  1.
       -1   -1    0    0    0  501  0.00000000000E+00  0.00000000000E+00 -0.18273478828E+04  0.18273478828E+04  0.50400001928E-02 0. -1.
    10030    2    1    2    0    0  0.00000000000E+00  0.00000000000E+00 -0.56913051351E+02  0.35977827142E+04  0.35973325344E+04 0.  0.
        5    1    3    3  502    0 -0.74524263371E+03  0.84293894946E+02 -0.16634963365E+04  0.18247559276E+04  0.46999998093E+01 0. -1.
       -5    1    3    3    0  502  0.74524263371E+03 -0.84293894946E+02  0.16065832851E+04  0.17730267866E+04  0.46999998093E+01 0.  1.
</event>
<event>
 5   0  0.3880259E-07  0.3584587E+04  0.7818609E-02  0.8094031E-01
        2   -1    0    0  501    0  0.00000000000E+00  0.00000000000E+00  0.19345240457E+04  0.19345240457E+04  0.25500000920E-02 0. -1.
       -2   -1    0    0    0  501  0.00000000000E+00  0.00000000000E+00 -0.16605204229E+04  0.16605204229E+04  0.25500000920E-02 0.  1.
    10030    2    1    2    0    0  0.00000000000E+00  0.00000000000E+00  0.27400362278E+03  0.35950444686E+04  0.35845873886E+04 0.  0.
        5    1    3    3  502    0  0.10301350414E+04 -0.45493719376E+03  0.15353966627E+04  0.19041037408E+04  0.46999998093E+01 0. -1.
       -5    1    3    3    0  502 -0.10301350414E+04  0.45493719376E+03 -0.12613930399E+04  0.16909407278E+04  0.46999998093E+01 0.  1.
</event>
<event>
 5   0  0.1298250E-07  0.3155261E+04  0.7818609E-02  0.8200733E-01
        1   -1    0    0  501    0  0.00000000000E+00  0.00000000000E+00  0.11027942209E+04  0.11027942209E+04  0.50400001928E-02 0. -1.
       -1   -1    0    0    0  501  0.00000000000E+00  0.00000000000E+00 -0.22569201969E+04  0.22569201969E+04  0.50400001928E-02 0.  1.
    10030    2    1    2    0    0  0.00000000000E+00  0.00000000000E+00 -0.11541259760E+04  0.33597144179E+04  0.31552613523E+04 0.  0.
        2    1    3    3  502    0 -0.13863701531E+00 -0.63579839484E+03 -0.21144620574E+04  0.22079831092E+04  0.25500000920E-02 0.  1.
       -2    1    3    3    0  502  0.13863701531E+00  0.63579839484E+03  0.96033608142E+03  0.11517313087E+04  0.25500000920E-02 0. -1.
</event>
<event>
 5   0  0.3993751E-07  0.3597275E+04  0.7818609E-02  0.8091116E-01
        2   -1    0    0  501    0  0.00000000000E+00  0.00000000000E+00  0.20754938183E+04  0.20754938183E+04  0.25500000920E-02 0. -1.
       -2   -1    0    0    0  501  0.00000000000E+00  0.00000000000E+00 -0.15587122731E+04  0.15587122731E+04  0.25500000920E-02 0.  1.
    10030    2    1    2    0    0  0.00000000000E+00  0.00000000000E+00  0.51678154517E+03  0.36342060914E+04  0.35972754620E+04 0.  0.
        1    1    3    3  502    0 -0.46229937826E+03 -0.86686279815E+03 -0.12637039954E+04  0.16006622423E+04  0.50400001928E-02 0.  1.
       -1    1    3    3    0  502  0.46229937826E+03  0.86686279815E+03  0.17804855406E+04  0.20335438491E+04  0.50400001928E-02 0. -1.
</event>
<event>
 5   0  0.1361743E-07  0.3658053E+04  0.7818609E-02  0.8077322E-01
       -1   -1    0    0    0  501  0.00000000000E+00  0.00000000000E+00  0.13689441649E+04  0.13689441649E+04  0.50400001928E-02 0. -1.
        1   -1    0    0  501    0  0.00000000000E+00  0.00000000000E+00 -0.24437358258E+04  0.24437358258E+04  0.50400001928E-02 0.  1.
    10030    2    1    2    0    0  0.00000000000E+00  0.00000000000E+00 -0.10747916609E+04  0.38126799907E+04  0.36580529790E+04 0.  0.
        5    1    3    3  502    0  0.11942377248E+02  0.13898638868E+04 -0.17765371239E+04  0.22556530067E+04  0.46999998093E+01 0.  1.
       -5    1    3    3    0  502 -0.11942377248E+02 -0.13898638868E+04  0.70174546303E+03  0.15570269840E+04  0.46999998093E+01 0. -1.
</event>
<event>
 5   0  0.1298250E-07  0.3609827E+04  0.7818609E-02  0.8088244E-01
        1   -1    0    0  501    0  0.00000000000E+00  0.00000000000E+00  0.24767269147E+04  0.24767269147E+04  0.50400001928E-02 0. -1.
       -1   -1    0    0    0  501  0.00000000000E+00  0.00000000000E+00 -0.13153296309E+04  0.13153296309E+04  0.50400001928E-02 0.  1.
    10030    2    1    2    0    0  0.00000000000E+00  0.00000000000E+00  0.11613972838E+04  0.37920565456E+04  0.36098267541E+04 0.  0.
        2    1    3    3  502    0  0.14343537255E+04  0.34341969941E+03  0.16736057732E+04  0.22307541289E+04  0.25500000920E-02 0. -1.
       -2    1    3    3    0  502 -0.14343537255E+04 -0.34341969941E+03 -0.51220848939E+03  0.15613024167E+04  0.25500000920E-02 0.  1.
</event>
<event>
 5   0  0.4120440E-07  0.3631718E+04  0.7818609E-02  0.8083265E-01
        2   -1    0    0  501    0  0.00000000000E+00  0.00000000000E+00  0.12116908371E+04  0.12116908371E+04  0.25500000920E-02 0. -1.
       -2   -1    0    0    0  501  0.00000000000E+00  0.00000000000E+00 -0.27212754563E+04  0.27212754563E+04  0.25500000920E-02 0.  1.
    10030    2    1    2    0    0  0.00000000000E+00  0.00000000000E+00 -0.15095846192E+04  0.39329662935E+04  0.36317183457E+04 0.  0.
        2    1    3    3  502    0  0.67420482112E+03 -0.11271551361E+04 -0.21127231849E+04  0.24876957406E+04  0.25500000920E-02 0.  1.
       -2    1    3    3    0  502 -0.67420482112E+03  0.11271551361E+04  0.60313856568E+03  0.14452705529E+04  0.25500000920E-02 0. -1.
</event>
<event>
 5   0  0.4120440E-07  0.3588331E+04  0.7818609E-02  0.8093170E-01
       -2   -1    0    0    0  501  0.00000000000E+00  0.00000000000E+00  0.17293692445E+04  0.17293692445E+04  0.25500000920E-02 0.  1.
        2   -1    0    0  501    0  0.00000000000E+00  0.00000000000E+00 -0.18613897157E+04  0.18613897157E+04  0.25500000920E-02 0. -1.
    10030    2    1    2    0    0  0.00000000000E+00  0.00000000000E+00 -0.13202047118E+03  0.35907589603E+04  0.35883311589E+04 0.  0.
        2    1    3    3  502    0 -0.14620095807E+04  0.11056324881E+02  0.97461444502E+03  0.17571191117E+04  0.25500000920E-02 0.  1.
       -2    1    3    3    0  502  0.14620095807E+04 -0.11056324881E+02 -0.11066349162E+04  0.18336398485E+04  0.25500000920E-02 0. -1.
</event>
<event>
 5   0  0.4200635E-07  0.3604065E+04  0.7818609E-02  0.8089561E-01
       -2   -1    0    0    0  501  0.00000000000E+00  0.00000000000E+00  0.18826717612E+04  0.18826717612E+04  0.25500000920E-02 0.  1.
        2   -1    0    0  501    0  0.00000000000E+00  0.00000000000E+00 -0.17248474719E+04  0.17248474719E+04  0.25500000920E-02 0. -1.
    10030    2    1    2    0    0  0.00000000000E+00  0.00000000000E+00  0.15782428929E+03  0.36075192330E+04  0.36040652755E+04 0.  0.
        4    1    3    3  502    0  0.21313893863E+03 -0.92375505731E+03  0.16128847851E+04  0.18708689307E+04  0.12699999809E+01 0.  1.
       -4    1    3    3    0  502 -0.21313893863E+03  0.92375505731E+03 -0.14550604958E+04  0.17366503023E+04  0.12699999809E+01 0. -1.
</event>
<event>
 5   0  0.4120440E-07  0.3566549E+04  0.7818609E-02  0.8098197E-01
       -2   -1    0    0    0  501  0.00000000000E+00  0.00000000000E+00  0.20897764521E+04  0.20897764521E+04  0.25500000920E-02 0. -1.
        2   -1    0    0  501    0  0.00000000000E+00  0.00000000000E+00 -0.15217260257E+04  0.15217260257E+04  0.25500000920E-02 0.  1.
    10030    2    1    2    0    0  0.00000000000E+00  0.00000000000E+00  0.56805042644E+03  0.36115024778E+04  0.35665485922E+04 0.  0.
        2    1    3    3  502    0 -0.11167758345E+04  0.11797888295E+04  0.10288073985E+04  0.19228974518E+04  0.25500000920E-02 0. -1.
       -2    1    3    3    0  502  0.11167758345E+04 -0.11797888295E+04 -0.46075697206E+03  0.16886050261E+04  0.25500000920E-02 0.  1.
</event>
<event>
 5   0  0.4120440E-07  0.3592238E+04  0.7818609E-02  0.8092272E-01
        2   -1    0    0  501    0  0.00000000000E+00  0.00000000000E+00  0.22875121178E+04  0.22875121178E+04  0.25500000920E-02 0.  1.
       -2   -1    0    0    0  501  0.00000000000E+00  0.00000000000E+00 -0.14102848011E+04  0.14102848011E+04  0.25500000920E-02 0. -1.
    10030    2    1    2    0    0  0.00000000000E+00  0.00000000000E+00  0.87722731667E+03  0.36977969189E+04  0.35922380612E+04 0.  0.
        2    1    3    3  502    0 -0.29892210184E+03  0.17302265006E+04  0.82788656096E+03  0.19412455600E+04  0.25500000920E-02 0.  1.
       -2    1    3    3    0  502  0.29892210184E+03 -0.17302265006E+04  0.49340755711E+02  0.17565513589E+04  0.25500000920E-02 0. -1.
</event>
<event>
 5   0  0.4115358E-07  0.3570522E+04  0.7818609E-02  0.8097278E-01
       -2   -1    0    0    0  501  0.00000000000E+00  0.00000000000E+00  0.18898591425E+04  0.18898591425E+04  0.25500000920E-02 0.  1.
        2   -1    0    0  501    0  0.00000000000E+00  0.00000000000E+00 -0.16864522037E+04  0.16864522037E+04  0.25500000920E-02 0. -1.
    10030    2    1    2    0    0  0.00000000000E+00  0.00000000000E+00  0.20340693886E+03  0.35763113462E+04  0.35705221554E+04 0.  0.
        3    1    3    3  502    0 -0.25793462730E+03 -0.16946208235E+04 -0.39799127307E+03  0.17597349434E+04  0.10100000352E+00 0. -1.
       -3    1    3    3    0  502  0.25793462730E+03  0.16946208235E+04  0.60139821193E+03  0.18165764027E+04  0.10100000352E+00 0.  1.
</event>
<event>
 5   0  0.1348226E-07  0.3500066E+04  0.7818609E-02  0.8113774E-01
        1   -1    0    0  501    0  0.00000000000E+00  0.00000000000E+00  0.23363027900E+04  0.23363027900E+04  0.50400001928E-02 0.  1.
       -1   -1    0    0    0  501  0.00000000000E+00  0.00000000000E+00 -0.13108814308E+04  0.13108814308E+04  0.50400001928E-02 0. -1.
    10030    2    1    2    0    0  0.00000000000E+00  0.00000000000E+00  0.10254213592E+04  0.36471842208E+04  0.35000662531E+04 0.  0.
        4    1    3    3  502    0 -0.21087399610E+03 -0.80291644588E+02  0.23210805844E+04  0.23320230021E+04  0.12699999809E+01 0.  1.
       -4    1    3    3    0  502  0.21087399610E+03  0.80291644588E+02 -0.12956592251E+04  0.13151612186E+04  0.12699999809E+01 0. -1.
</event>
<event>
 5   0  0.1298250E-07  0.3554523E+04  0.7818609E-02  0.8100989E-01
       -1   -1    0    0    0  501  0.00000000000E+00  0.00000000000E+00  0.13271707173E+04  0.13271707173E+04  0.50400001928E-02 0. -1.
        1   -1    0    0  501    0  0.00000000000E+00  0.00000000000E+00 -0.23799943721E+04  0.23799943721E+04  0.50400001928E-02 0.  1.
    10030    2    1    2    0    0  0.00000000000E+00  0.00000000000E+00 -0.10528236549E+04  0.37071650894E+04  0.35545232243E+04 0.  0.
        1    1    3    3  502    0 -0.49735817220E+03  0.18748847077E+03 -0.22951588201E+04  0.23559013324E+04  0.50400001928E-02 0.  1.
       -1    1    3    3    0  502  0.49735817220E+03 -0.18748847077E+03  0.12423351653E+04  0.13512637570E+04  0.50400001928E-02 0. -1.
</event>
<event>
 5   0  0.1370997E-07  0.3624845E+04  0.7818609E-02  0.8084824E-01
       -1   -1    0    0    0  501  0.00000000000E+00  0.00000000000E+00  0.23764571209E+04  0.23764571209E+04  0.50400001928E-02 0. -1.
        1   -1    0    0  501    0  0.00000000000E+00  0.00000000000E+00 -0.13822575823E+04  0.13822575823E+04  0.50400001928E-02 0.  1.
    10030    2    1    2    0    0  0.00000000000E+00  0.00000000000E+00  0.99419953853E+03  0.37587147032E+04  0.36248453067E+04 0.  0.
        3    1    3    3  502    0 -0.75906553063E+03  0.16313589241E+04  0.27143096495E+03  0.18196667821E+04  0.10100000352E+00 0.  1.
       -3    1    3    3    0  502  0.75906553063E+03 -0.16313589241E+04  0.72276857358E+03  0.19390479211E+04  0.10100000352E+00 0. -1.
</event>
<event>
 5   0  0.1298250E-07  0.3581120E+04  0.7818609E-02  0.8094830E-01
        1   -1    0    0  501    0  0.00000000000E+00  0.00000000000E+00  0.20173430295E+04  0.20173430295E+04  0.50400001928E-02 0. -1.
       -1   -1    0    0    0  501  0.00000000000E+00  0.00000000000E+00 -0.15892708618E+04  0.15892708618E+04  0.50400001928E-02 0.  1.
    10030    2    1    2    0    0  0.00000000000E+00  0.00000000000E+00  0.42807216779E+03  0.36066138913E+04  0.35811196545E+04 0.  0.
        2    1    3    3  502    0 -0.87406708544E+03 -0.15560552528E+04  0.68775870672E+02  0.17860658835E+04  0.25500000920E-02 0.  1.
       -2    1    3    3    0  502  0.87406708544E+03  0.15560552528E+04  0.35929629711E+03  0.18205480078E+04  0.25500000920E-02 0. -1.
</event>
<event>
 5   0  0.1370997E-07  0.3622161E+04  0.7818609E-02  0.8085434E-01
       -1   -1    0    0    0  501  0.00000000000E+00  0.00000000000E+00  0.26051395863E+04  0.26051395863E+04  0.50400001928E-02 0. -1.
        1   -1    0    0  501    0  0.00000000000E+00  0.00000000000E+00 -0.12590545252E+04  0.12590545252E+04  0.50400001928E-02 0.  1.
    10030    2    1    2    0    0  0.00000000000E+00  0.00000000000E+00  0.13460850611E+04  0.38641941115E+04  0.36221611146E+04 0.  0.
        3    1    3    3  502    0 -0.88042654095E+03  0.15739522758E+03  0.23531024475E+04  0.25173429028E+04  0.10100000352E+00 0. -1.
       -3    1    3    3    0  502  0.88042654095E+03 -0.15739522758E+03 -0.10070173864E+04  0.13468512087E+04  0.10100000352E+00 0.  1.
</event>
<event>
 5   0  0.4200635E-07  0.3730950E+04  0.7818609E-02  0.8061137E-01
        2   -1    0    0  501    0  0.00000000000E+00  0.00000000000E+00  0.22241299417E+04  0.22241299417E+04  0.25500000920E-02 0.  1.
       -2   -1    0    0    0  501  0.00000000000E+00  0.00000000000E+00 -0.15646554866E+04  0.15646554866E+04  0.25500000920E-02 0. -1.
    10030    2    1    2    0    0  0.00000000000E+00  0.00000000000E+00  0.65947445506E+03  0.37887854283E+04  0.37309500754E+04 0.  0.
        4    1    3    3  502    0 -0.33069980860E+03 -0.37426945890E+02 -0.15342634015E+04  0.15699455207E+04  0.12699999809E+01 0. -1.
       -4    1    3    3    0  502  0.33069980860E+03  0.37426945890E+02  0.21937378566E+04  0.22188399077E+04  0.12699999809E+01 0.  1.
</event>
<event>
 5   0  0.4200635E-07  0.3590287E+04  0.7818609E-02  0.8092720E-01
       -2   -1    0    0    0  501  0.00000000000E+00  0.00000000000E+00  0.15520579157E+04  0.15520579157E+04  0.25500000920E-02 0.  1.
        2   -1    0    0  501    0  0.00000000000E+00  0.00000000000E+00 -0.20763011099E+04  0.20763011099E+04  0.25500000920E-02 0. -1.
    10030    2    1    2    0    0  0.00000000000E+00  0.00000000000E+00 -0.52424319417E+03  0.36283590257E+04  0.35902866588E+04 0.  0.
        4    1    3    3  502    0  0.14882699719E+03 -0.65703351041E+03  0.14194630060E+04  0.15712158818E+04  0.12699999809E+01 0.  1.
       -4    1    3    3    0  502 -0.14882699719E+03  0.65703351041E+03 -0.19437062002E+04  0.20571431439E+04  0.12699999809E+01 0. -1.
</event>
<event>
 5   0  0.4120440E-07  0.3595984E+04  0.7818609E-02  0.8091412E-01
        2   -1    0    0  501    0  0.00000000000E+00  0.00000000000E+00  0.12852263853E+04  0.12852263853E+04  0.25500000920E-02 0.  1.
       -2   -1    0    0    0  501  0.00000000000E+00  0.00000000000E+00 -0.25153350071E+04  0.25153350071E+04  0.25500000920E-02 0. -1.
    10030    2    1    2    0    0  0.00000000000E+00  0.00000000000E+00 -0.12301086218E+04  0.38005613925E+04  0.35959838260E+04 0.  0.
        2    1    3    3  502    0  0.79017639726E+03  0.16100433901E+04 -0.74939363459E+03  0.19437616306E+04  0.25500000920E-02 0. -1.
       -2    1    3    3    0  502 -0.79017639726E+03 -0.16100433901E+04 -0.48071498721E+03  0.18567997619E+04  0.25500000920E-02 0.  1.
</event>
<event>
 5   0  0.1348226E-07  0.3596071E+04  0.7818609E-02  0.8091392E-01
       -1   -1    0    0    0  501  0.00000000000E+00  0.00000000000E+00  0.12611457452E+04  0.12611457452E+04  0.50400001928E-02 0.  1.
        1   -1    0    0  501    0  0.00000000000E+00  0.00000000000E+00 -0.25634874238E+04  0.25634874238E+04  0.50400001928E-02 0. -1.
    10030    2    1    2    0    0  0.00000000000E+00  0.00000000000E+00 -0.13023416786E+04  0.38246331690E+04  0.35960707765E+04 0.  0.
        4    1    3    3  502    0  0.71805519311E+03  0.16250520422E+04 -0.94539869107E+03  0.20125053287E+04  0.12699999809E+01 0.  1.
       -4    1    3    3    0  502 -0.71805519311E+03 -0.16250520422E+04 -0.35694298758E+03  0.18121278403E+04  0.12699999809E+01 0. -1.
</event>
<event>
 5   0  0.1370997E-07  0.3595953E+04  0.7818609E-02  0.8091419E-01
       -1   -1    0    0    0  501  0.00000000000E+00  0.00000000000E+00  0.18703606027E+04  0.18703606027E+04  0.50400001928E-02 0.  1.
        1   -1    0    0  501    0  0.00000000000E+00  0.00000000000E+00 -0.17283935578E+04  0.17283935578E+04  0.50400001928E-02 0. -1.
    10030    2    1    2    0    0  0.00000000000E+00  0.00000000000E+00  0.14196704491E+03  0.35987541605E+04  0.35959528453E+04 0.  0.
        3    1    3    3  502    0 -0.64892430595E+03 -0.84311575972E+03 -0.13795496983E+04  0.17421550790E+04  0.10100000352E+00 0. -1.
       -3    1    3    3    0  502  0.64892430595E+03  0.84311575972E+03  0.15215167432E+04  0.18565990814E+04  0.10100000352E+00 0.  1.
</event>
<event>
 5   0  0.1348226E-07  0.3594928E+04  0.7818609E-02  0.8091654E-01
       -1   -1    0    0    0  501  0.00000000000E+00  0.00000000000E+00  0.12137602994E+04  0.12137602994E+04  0.50400001928E-02 0.  1.
        1   -1    0    0  501    0  0.00000000000E+00  0.00000000000E+00 -0.26618745727E+04  0.26618745727E+04  0.50400001928E-02 0. -1.
    10030    2    1    2    0    0  0.00000000000E+00  0.00000000000E+00 -0.14481142734E+04  0.38756348721E+04  0.35949284712E+04 0.  0.
        4    1    3    3  502    0 -0.17406436795E+03 -0.72879724548E+03 -0.24854736020E+04  0.25959631100E+04  0.12699999809E+01 0. -1.
       -4    1    3    3    0  502  0.17406436795E+03  0.72879724548E+03  0.10373593286E+04  0.12796717621E+04  0.12699999809E+01 0.  1.
</event>
<event>
 5   0  0.1348226E-07  0.3503348E+04  0.7818609E-02  0.8112997E-01
       -1   -1    0    0    0  501  0.00000000000E+00  0.00000000000E+00  0.15907195172E+04  0.15907195172E+04  0.50400001928E-02 0. -1.
        1   -1    0    0  501    0  0.00000000000E+00  0.00000000000E+00 -0.19289145284E+04  0.19289145284E+04  0.50400001928E-02 0.  1.
    10030    2    1    2    0    0  0.00000000000E+00  0.00000000000E+00 -0.33819501118E+03  0.35196340456E+04  0.35033481057E+04 0.  0.
        4    1    3    3  502    0 -0.34496482052E+03  0.78069650576E+03  0.13676776277E+04  0.16121511926E+04  0.12699999809E+01 0. -1.
       -4    1    3    3    0  502  0.34496482052E+03 -0.78069650576E+03 -0.17058726389E+04  0.19074828530E+04  0.12699999809E+01 0.  1.
</event>
<event>
 5   0  0.3993751E-07  0.3604010E+04  0.7818609E-02  0.8089574E-01
       -2   -1    0    0    0  501  0.00000000000E+00  0.00000000000E+00  0.18225512744E+04  0.18225512744E+04  0.25500000920E-02 0.  1.
        2   -1    0    0  501    0  0.00000000000E+00  0.00000000000E+00 -0.17816906044E+04  0.17816906044E+04  0.25500000920E-02 0. -1.
    10030    2    1    2    0    0  0.00000000000E+00  0.00000000000E+00  0.40860669973E+02  0.36042418788E+04  0.36040102562E+04 0.  0.
        1    1    3    3  502    0 -0.65039309765E+03  0.11486658090E+04 -0.12063424981E+04  0.17882132269E+04  0.50400001928E-02 0. -1.
       -1    1    3    3    0  502  0.65039309765E+03 -0.11486658090E+04  0.12472031680E+04  0.18160286519E+04  0.50400001928E-02 0.  1.
</event>
<event>
 5   0  0.4120440E-07  0.3609733E+04  0.7818609E-02  0.8088266E-01
        2   -1    0    0  501    0  0.00000000000E+00  0.00000000000E+00  0.27350943330E+04  0.27350943330E+04  0.25500000920E-02 0.  1.
       -2   -1    0    0    0  501  0.00000000000E+00  0.00000000000E+00 -0.11910165997E+04  0.11910165997E+04  0.25500000920E-02 0. -1.
    10030    2    1    2    0    0  0.00000000000E+00  0.00000000000E+00  0.15440777333E+04  0.39261109327E+04  0.36097328169E+04 0.  0.
        2    1    3    3  502    0 -0.11348003238E+04 -0.13844626970E+04  0.10225140917E+04  0.20615634363E+04  0.25500000920E-02 0.  1.
       -2    1    3    3    0  502  0.11348003238E+04  0.13844626970E+04  0.52156364159E+03  0.18645474964E+04  0.25500000920E-02 0. -1.
</event>
<event>
 5   0  0.4115358E-07  0.3529116E+04  0.7818609E-02  0.8106924E-01
       -2   -1    0    0    0  501  0.00000000000E+00  0.00000000000E+00  0.14310296137E+04  0.14310296137E+04  0.25500000920E-02 0.  1.
        2   -1    0    0  501    0  0.00000000000E+00  0.00000000000E+00 -0.21758217684E+04  0.21758217684E+04  0.25500000920E-02 0. -1.
    10030    2    1    2    0    0  0.00000000000E+00  0.00000000000E+00 -0.74479215472E+03  0.36068513820E+04  0.35291162546E+04 0.  0.
        3    1    3    3  502    0  0.91122896008E+03  0.79518939244E+03  0.94081926920E+03  0.15322549706E+04  0.10100000352E+00 0.  1.
       -3    1    3    3    0  502 -0.91122896008E+03 -0.79518939244E+03 -0.16856114239E+04  0.20745964114E+04  0.10100000352E+00 0. -1.
</event>
<event>
 5   0  0.3880259E-07  0.3366811E+04  0.7818609E-02  0.8146100E-01
       -2   -1    0    0    0  501  0.00000000000E+00  0.00000000000E+00  0.11347911685E+04  0.11347911685E+04  0.25500000920E-02 0.  1.
        2   -1    0    0  501    0  0.00000000000E+00  0.00000000000E+00 -0.24972465518E+04  0.24972465518E+04  0.25500000920E-02 0. -1.
    10030    2    1    2    0    0  0.00000000000E+00  0.00000000000E+00 -0.13624553833E+04  0.36320377203E+04  0.33668105575E+04 0.  0.
        5    1    3    3  502    0  0.71007654898E+03  0.69837990127E+03  0.78284717420E+03  0.12668129223E+04  0.46999998093E+01 0.  1.
       -5    1    3    3    0  502 -0.71007654898E+03 -0.69837990127E+03 -0.21453025575E+04  0.23652247980E+04  0.46999998093E+01 0. -1.
</event>
<event>
 5   0  0.1361743E-07  0.3599033E+04  0.7818609E-02  0.8090713E-01
       -1   -1    0    0    0  501  0.00000000000E+00  0.00000000000E+00  0.18866241079E+04  0.18866241079E+04  0.50400001928E-02 0.  1.
        1   -1    0    0  501    0  0.00000000000E+00  0.00000000000E+00 -0.17164303374E+04  0.17164303374E+04  0.50400001928E-02 0. -1.
    10030    2    1    2    0    0  0.00000000000E+00  0.00000000000E+00  0.17019377052E+03  0.36030544454E+04  0.35990325668E+04 0.  0.
        5    1    3    3  502    0  0.10372556662E+03  0.69231974874E+03 -0.15745165243E+04  0.17231337740E+04  0.46999998093E+01 0. -1.
       -5    1    3    3    0  502 -0.10372556662E+03 -0.69231974874E+03  0.17447102949E+04  0.18799206714E+04  0.46999998093E+01 0.  1.
</event>
<event>
 5   0  0.1298250E-07  0.3599673E+04  0.7818609E-02  0.8090567E-01
       -1   -1    0    0    0  501  0.00000000000E+00  0.00000000000E+00  0.11406612651E+04  0.11406612651E+04  0.50400001928E-02 0.  1.
        1   -1    0    0  501    0  0.00000000000E+00  0.00000000000E+00 -0.28399419418E+04  0.28399419418E+04  0.50400001928E-02 0. -1.
    10030    2    1    2    0    0  0.00000000000E+00  0.00000000000E+00 -0.16992806767E+04  0.39806032069E+04  0.35996731897E+04 0.  0.
        2    1    3    3  502    0 -0.60095822463E+03 -0.16233423462E+04 -0.13947794801E+04  0.22230161850E+04  0.25500000920E-02 0. -1.
       -2    1    3    3    0  502  0.60095822463E+03  0.16233423462E+04 -0.30450119656E+03  0.17575870218E+04  0.25500000920E-02 0.  1.
</event>
<event>
 5   0  0.1361743E-07  0.3517748E+04  0.7818609E-02  0.8109597E-01
        1   -1    0    0  501    0  0.00000000000E+00  0.00000000000E+00  0.21472961194E+04  0.21472961194E+04  0.50400001928E-02 0. -1.
       -1   -1    0    0    0  501  0.00000000000E+00  0.00000000000E+00 -0.14407134322E+04  0.14407134322E+04  0.50400001928E-02 0.  1.
    10030    2    1    2    0    0  0.00000000000E+00  0.00000000000E+00  0.70658268716E+03  0.35880095516E+04  0.35177483493E+04 0.  0.
        5    1    3    3  502    0 -0.78160141855E+03  0.15249998340E+04  0.75755479190E+03  0.18736159222E+04  0.46999998093E+01 0. -1.
       -5    1    3    3    0  502  0.78160141855E+03 -0.15249998340E+04 -0.50972104741E+02  0.17143936294E+04  0.46999998093E+01 0.  1.
</event>
<event>
 5   0  0.4120440E-07  0.3608106E+04  0.7818609E-02  0.8088637E-01
       -2   -1    0    0    0  501  0.00000000000E+00  0.00000000000E+00  0.25953860865E+04  0.25953860865E+04  0.25500000920E-02 0. -1.
        2   -1    0    0  501    0  0.00000000000E+00  0.00000000000E+00 -0.12539972629E+04  0.12539972630E+04  0.25500000920E-02 0.  1.
    10030    2    1    2    0    0  0.00000000000E+00  0.00000000000E+00  0.13413888236E+04  0.38493833495E+04  0.36081059013E+04 0.  0.
        2    1    3    3  502    0  0.16830012497E+04 -0.60979361702E+03  0.43150207228E+03  0.18413406801E+04  0.25500000920E-02 0.  1.
       -2    1    3    3    0  502 -0.16830012497E+04  0.60979361702E+03  0.90988675129E+03  0.20080426694E+04  0.25500000920E-02 0. -1.
</event>
<event>
 5   0  0.3993751E-07  0.3620901E+04  0.7818609E-02  0.8085721E-01
        2   -1    0    0  501    0  0.00000000000E+00  0.00000000000E+00  0.25101685691E+04  0.25101685691E+04  0.25500000920E-02 0.  1.
       -2   -1    0    0    0  501  0.00000000000E+00  0.00000000000E+00 -0.13057809245E+04  0.13057809245E+04  0.25500000920E-02 0. -1.
    10030    2    1    2    0    0  0.00000000000E+00  0.00000000000E+00  0.12043876446E+04  0.38159494937E+04  0.36209005703E+04 0.  0.
        1    1    3    3  502    0  0.79136938466E+03  0.16175785472E+04  0.40530278087E+03  0.18458321168E+04  0.50400001928E-02 0.  1.
       -1    1    3    3    0  502 -0.79136938466E+03 -0.16175785472E+04  0.79908486374E+03  0.19701173769E+04  0.50400001928E-02 0. -1.
</event>
<event>
 5   0  0.3993751E-07  0.3614685E+04  0.7818609E-02  0.8087136E-01
        2   -1    0    0  501    0  0.00000000000E+00  0.00000000000E+00  0.28343070677E+04  0.28343070677E+04  0.25500000920E-02 0.  1.
       -2   -1    0    0    0  501  0.00000000000E+00  0.00000000000E+00 -0.11524818224E+04  0.11524818224E+04  0.25500000920E-02 0. -1.
    10030    2    1    2    0    0  0.00000000000E+00  0.00000000000E+00  0.16818252453E+04  0.39867888901E+04  0.36146852558E+04 0.  0.
        1    1    3    3  502    0  0.13600808829E+03  0.17904060582E+04  0.61370834717E+03  0.18975484154E+04  0.50400001928E-02 0.  1.
       -1    1    3    3    0  502 -0.13600808829E+03 -0.17904060582E+04  0.10681168981E+04  0.20892404747E+04  0.50400001928E-02 0. -1.
</event>
<event>
 5   0  0.4115358E-07  0.3618506E+04  0.7818609E-02  0.8086266E-01
       -2   -1    0    0    0  501  0.00000000000E+00  0.00000000000E+00  0.21465957036E+04  0.21465957036E+04  0.25500000920E-02 0. -1.
        2   -1    0    0  501    0  0.00000000000E+00  0.00000000000E+00 -0.15249245123E+04  0.15249245123E+04  0.25500000920E-02 0.  1.
    10030    2    1    2    0    0  0.00000000000E+00  0.00000000000E+00  0.62167119133E+03  0.36715202159E+04  0.36185059935E+04 0.  0.
        3    1    3    3  502    0 -0.11576966079E+04  0.69023230063E+03  0.15354625778E+04  0.20431170800E+04  0.10100000352E+00 0. -1.
       -3    1    3    3    0  502  0.11576966079E+04 -0.69023230063E+03 -0.91379138644E+03  0.16284031358E+04  0.10100000352E+00 0.  1.
</event>
<event>
 5   0  0.1348226E-07  0.3593203E+04  0.7818609E-02  0.8092050E-01
        1   -1    0    0  501    0  0.00000000000E+00  0.00000000000E+00  0.30326288130E+04  0.30326288130E+04  0.50400001928E-02 0.  1.
       -1   -1    0    0    0  501  0.00000000000E+00  0.00000000000E+00 -0.10643496574E+04  0.10643496574E+04  0.50400001928E-02 0. -1.
    10030    2    1    2    0    0  0.00000000000E+00  0.00000000000E+00  0.19682791556E+04  0.40969784705E+04  0.35932032719E+04 0.  0.
        4    1    3    3  502    0  0.20566611404E+03 -0.13949448358E+04  0.22536134349E+04  0.26583725796E+04  0.12699999809E+01 0.  1.
       -4    1    3    3    0  502 -0.20566611404E+03  0.13949448358E+04 -0.28533427928E+03  0.14386058908E+04  0.12699999809E+01 0. -1.
</event>
<event>
 5   0  0.4115358E-07  0.3480709E+04  0.7818609E-02  0.8118377E-01
        2   -1    0    0  501    0  0.00000000000E+00  0.00000000000E+00  0.21545461101E+04  0.21545461101E+04  0.25500000920E-02 0. -1.
       -2   -1    0    0    0  501  0.00000000000E+00  0.00000000000E+00 -0.14057875511E+04  0.14057875511E+04  0.25500000920E-02 0.  1.
    10030    2    1    2    0    0  0.00000000000E+00  0.00000000000E+00  0.74875855907E+03  0.35603336612E+04  0.34807091805E+04 0.  0.
        3    1    3    3  502    0 -0.68234026155E+03 -0.23978788874E+03  0.19935462102E+04  0.21206869091E+04  0.10100000352E+00 0. -1.
       -3    1    3    3    0  502  0.68234026155E+03  0.23978788874E+03 -0.12447876511E+04  0.14396467521E+04  0.10100000352E+00 0.  1.
</event>
<event>
 5   0  0.1298250E-07  0.3594159E+04  0.7818609E-02  0.8091831E-01
        1   -1    0    0  501    0  0.00000000000E+00  0.00000000000E+00  0.15229822747E+04  0.15229822747E+04  0.50400001928E-02 0. -1.
       -1   -1    0    0    0  501  0.00000000000E+00  0.00000000000E+00 -0.21205067179E+04  0.21205067179E+04  0.50400001928E-02 0.  1.
    10030    2    1    2    0    0  0.00000000000E+00  0.00000000000E+00 -0.59752444321E+03  0.36434889925E+04  0.35941586746E+04 0.  0.
        2    1    3    3  502    0 -0.16897616084E+04 -0.46258783725E+03 -0.70452126041E+03  0.18882881154E+04  0.25500000920E-02 0.  1.
       -2    1    3    3    0  502  0.16897616084E+04  0.46258783725E+03  0.10699681720E+03  0.17552008772E+04  0.25500000920E-02 0. -1.
</event>
<event>
 5   0  0.3880259E-07  0.3604947E+04  0.7818609E-02  0.8089359E-01
        2   -1    0    0  501    0  0.00000000000E+00  0.00000000000E+00  0.23055969538E+04  0.23055969538E+04  0.25500000920E-02 0.  1.
       -2   -1    0    0    0  501  0.00000000000E+00  0.00000000000E+00 -0.14091407904E+04  0.14091407904E+04  0.25500000920E-02 0. -1.
    10030    2    1    2    0    0  0.00000000000E+00  0.00000000000E+00  0.89645616340E+03  0.37147377442E+04  0.36049469976E+04 0.  0.
        5    1    3    3  502    0  0.33796818762E+03  0.14814089516E+04  0.14473415961E+04  0.20984791549E+04  0.46999998093E+01 0.  1.
       -5    1    3    3    0  502 -0.33796818762E+03 -0.14814089516E+04 -0.55088543266E+03  0.16162585894E+04  0.46999998093E+01 0. -1.
</event>
<event>
 5   0  0.4115358E-07  0.3588554E+04  0.7818609E-02  0.8093119E-01
       -2   -1    0    0    0  501  0.00000000000E+00  0.00000000000E+00  0.10979414605E+04  0.10979414605E+04  0.25500000920E-02 0.  1.
        2   -1    0    0  501    0  0.00000000000E+00  0.00000000000E+00 -0.29322411636E+04  0.29322411636E+04  0.25500000920E-02 0. -1.
    10030    2    1    2    0    0  0.00000000000E+00  0.00000000000E+00 -0.18342997031E+04  0.40301826241E+04  0.35885535503E+04 0.  0.
        3    1    3    3  502    0  0.87439867856E+03  0.68411381270E+03 -0.25001728366E+04  0.27355893297E+04  0.10100000352E+00 0. -1.
       -3    1    3    3    0  502 -0.87439867856E+03 -0.68411381270E+03  0.66587313352E+03  0.12945932944E+04  0.10100000352E+00 0.  1.
</event>
<event>
 5   0  0.1298250E-07  0.3620197E+04  0.7818609E-02  0.8085881E-01
       -1   -1    0    0    0  501  0.00000000000E+00  0.00000000000E+00  0.18574086792E+04  0.18574086792E+04  0.50400001928E-02 0.  1.
        1   -1    0    0  501    0  0.00000000000E+00  0.00000000000E+00 -0.17639929699E+04  0.17639929700E+04  0.50400001928E-02 0. -1.
    10030    2    1    2    0    0  0.00000000000E+00  0.00000000000E+00  0.93415709229E+02  0.36214016491E+04  0.36201965982E+04 0.  0.
        2    1    3    3  502    0  0.42972397334E+02 -0.64998959231E+03  0.17360929017E+04  0.18542792833E+04  0.25500000920E-02 0.  1.
       -2    1    3    3    0  502 -0.42972397334E+02  0.64998959231E+03 -0.16426771925E+04  0.17671223658E+04  0.25500000920E-02 0. -1.
</event>
<event>
 5   0  0.1298250E-07  0.3611918E+04  0.7818609E-02  0.8087767E-01
        1   -1    0    0  501    0  0.00000000000E+00  0.00000000000E+00  0.30353970614E+04  0.30353970614E+04  0.50400001928E-02 0.  1.
       -1   -1    0    0    0  501  0.00000000000E+00  0.00000000000E+00 -0.10744844742E+04  0.10744844742E+04  0.50400001928E-02 0. -1.
    10030    2    1    2    0    0  0.00000000000E+00  0.00000000000E+00  0.19609125871E+04  0.41098815356E+04  0.36119175049E+04 0.  0.
        2    1    3    3  502    0  0.12089684212E+04  0.10563859248E+04  0.39438851314E+02  0.16059611728E+04  0.25500000920E-02 0. -1.
       -2    1    3    3    0  502 -0.12089684212E+04 -0.10563859248E+04  0.19214737358E+04  0.25039203628E+04  0.25500000920E-02 0.  1.
</event>
<event>
 5   0  0.1298250E-07  0.3599729E+04  0.7818609E-02  0.8090554E-01
       -3   -1    0    0    0  501  0.00000000000E+00  0.00000000000E+00  0.19577912373E+04  0.19577912400E+04  0.10100000352E+00 0.  1.
        3   -1    0    0  501    0  0.00000000000E+00  0.00000000000E+00 -0.16546773415E+04  0.16546773446E+04  0.10100000352E+00 0. -1.
    10030    2    1    2    0    0  0.00000000000E+00  0.00000000000E+00  0.30311389587E+03  0.36124685845E+04  0.35997293287E+04 0.  0.
        1    1    3    3  502    0 -0.11911460971E+04  0.51378312516E+03 -0.11005406598E+04  0.17011736737E+04  0.50400001928E-02 0. -1.
       -1    1    3    3    0  502  0.11911460971E+04 -0.51378312516E+03  0.14036545557E+04  0.19112949108E+04  0.50400001928E-02 0.  1.
</event>
<event>
 5   0  0.4120440E-07  0.3590698E+04  0.7818609E-02  0.8092626E-01
        2   -1    0    0  501    0  0.00000000000E+00  0.00000000000E+00  0.17948382847E+04  0.17948382847E+04  0.25500000920E-02 0. -1.
       -2   -1    0    0    0  501  0.00000000000E+00  0.00000000000E+00 -0.17958601589E+04  0.17958601589E+04  0.25500000920E-02 0.  1.
    10030    2    1    2    0    0  0.00000000000E+00  0.00000000000E+00 -0.10218741830E+01  0.35906984436E+04  0.35906982981E+04 0.  0.
        2    1    3    3  502    0  0.13981464166E+04 -0.77675868470E+02  0.11230689339E+04  0.17950294630E+04  0.25500000920E-02 0. -1.
       -2    1    3    3    0  502 -0.13981464166E+04  0.77675868470E+02 -0.11240908080E+04  0.17956689805E+04  0.25500000920E-02 0.  1.
</event>
<event>
 5   0  0.4120440E-07  0.3677215E+04  0.7818609E-02  0.8073030E-01
        2   -1    0    0  501    0  0.00000000000E+00  0.00000000000E+00  0.25598707113E+04  0.25598707113E+04  0.25500000920E-02 0. -1.
       -2   -1    0    0    0  501  0.00000000000E+00  0.00000000000E+00 -0.13205656638E+04  0.13205656638E+04  0.25500000920E-02 0.  1.
    10030    2    1    2    0    0  0.00000000000E+00  0.00000000000E+00  0.12393050475E+04  0.38804363751E+04  0.36772149055E+04 0.  0.
        2    1    3    3  502    0  0.94892667767E+03  0.47834802933E+03  0.22029716889E+04  0.24458869432E+04  0.25500000920E-02 0. -1.
       -2    1    3    3    0  502 -0.94892667767E+03 -0.47834802933E+03 -0.96366664147E+03  0.14345494319E+04  0.25500000920E-02 0.  1.
</event>
<event>
 5   0  0.1370997E-07  0.3523476E+04  0.7818609E-02  0.8108249E-01
       -1   -1    0    0    0  501  0.00000000000E+00  0.00000000000E+00  0.17094771473E+04  0.17094771473E+04  0.50400001928E-02 0.  1.
        1   -1    0    0  501    0  0.00000000000E+00  0.00000000000E+00 -0.18155963395E+04  0.18155963395E+04  0.50400001928E-02 0. -1.
    10030    2    1    2    0    0  0.00000000000E+00  0.00000000000E+00 -0.10611919225E+03  0.35250734868E+04  0.35234758129E+04 0.  0.
        3    1    3    3  502    0  0.73197111817E+03  0.17343885008E+03  0.15407282588E+04  0.17145571820E+04  0.10100000352E+00 0.  1.
       -3    1    3    3    0  502 -0.73197111817E+03 -0.17343885008E+03 -0.16468474511E+04  0.18105163048E+04  0.10100000352E+00 0. -1.
</event>
<event>
 5   0  0.4200635E-07  0.3552501E+04  0.7818609E-02  0.8101459E-01
        2   -1    0    0  501    0  0.00000000000E+00  0.00000000000E+00  0.19571058330E+04  0.19571058330E+04  0.25500000920E-02 0.  1.
       -2   -1    0    0    0  501  0.00000000000E+00  0.00000000000E+00 -0.16121082663E+04  0.16121082663E+04  0.25500000920E-02 0. -1.
    10030    2    1    2    0    0  0.00000000000E+00  0.00000000000E+00  0.34499756673E+03  0.35692140993E+04  0.35525013674E+04 0.  0.
        4    1    3    3  502    0 -0.40552772204E+02 -0.90816616051E+02 -0.16093079441E+04  0.16123789433E+04  0.12699999809E+01 0. -1.
       -4    1    3    3    0  502  0.40552772204E+02  0.90816616051E+02  0.19543055108E+04  0.19568351559E+04  0.12699999809E+01 0.  1.
</event>
<event>
 5   0  0.1298250E-07  0.3617107E+04  0.7818609E-02  0.8086584E-01
       -1   -1    0    0    0  501  0.00000000000E+00  0.00000000000E+00  0.14621128429E+04  0.14621128429E+04  0.50400001928E-02 0. -1.
        1   -1    0    0  501    0  0.00000000000E+00  0.00000000000E+00 -0.22370813574E+04  0.22370813574E+04  0.50400001928E-02 0.  1.
    10030    2    1    2    0    0  0.00000000000E+00  0.00000000000E+00 -0.77496851449E+03  0.36991942003E+04  0.36171067904E+04 0.  0.
        1    1    3    3  502    0 -0.94730477894E+02 -0.72453254372E+03  0.13044316175E+04  0.14951465196E+04  0.50400001928E-02 0. -1.
       -1    1    3    3    0  502  0.94730477894E+02  0.72453254372E+03 -0.20794001319E+04  0.22040476808E+04  0.50400001928E-02 0.  1.
</event>
<event>
 5   0  0.4120440E-07  0.3607082E+04  0.7818609E-02  0.8088872E-01
       -2   -1    0    0    0  501  0.00000000000E+00  0.00000000000E+00  0.10973612112E+04  0.10973612112E+04  0.25500000920E-02 0.  1.
        2   -1    0    0  501    0  0.00000000000E+00  0.00000000000E+00 -0.29641646210E+04  0.29641646210E+04  0.25500000920E-02 0. -1.
    10030    2    1    2    0    0  0.00000000000E+00  0.00000000000E+00 -0.18668034098E+04  0.40615258322E+04  0.36070815232E+04 0.  0.
        2    1    3    3  502    0 -0.60646543489E+03 -0.39187123446E+03  0.92750922966E+03  0.11754304570E+04  0.25500000920E-02 0.  1.
       -2    1    3    3    0  502  0.60646543489E+03  0.39187123446E+03 -0.27943126394E+04  0.28860953752E+04  0.25500000920E-02 0. -1.
</event>
<event>
 5   0  0.1361743E-07  0.3495402E+04  0.7818609E-02  0.8114880E-01
       -1   -1    0    0    0  501  0.00000000000E+00  0.00000000000E+00  0.15689197453E+04  0.15689197453E+04  0.50400001928E-02 0.  1.
        1   -1    0    0  501    0  0.00000000000E+00  0.00000000000E+00 -0.19468547595E+04  0.19468547595E+04  0.50400001928E-02 0. -1.
    10030    2    1    2    0    0  0.00000000000E+00  0.00000000000E+00 -0.37793501424E+03  0.35157745048E+04  0.34954020504E+04 0.  0.
        5    1    3    3  502    0 -0.11336092850E+04  0.54155597926E+03  0.10330555396E+04  0.16265235097E+04  0.46999998093E+01 0.  1.
       -5    1    3    3    0  502  0.11336092850E+04 -0.54155597926E+03 -0.14109905539E+04  0.18892509952E+04  0.46999998093E+01 0. -1.
</event>
<event>
 5   0  0.3993751E-07  0.3609101E+04  0.7818609E-02  0.8088410E-01
       -2   -1    0    0    0  501  0.00000000000E+00  0.00000000000E+00  0.16888987829E+04  0.16888987829E+04  0.25500000920E-02 0.  1.
        2   -1    0    0  501    0  0.00000000000E+00  0.00000000000E+00 -0.19281220430E+04  0.19281220430E+04  0.25500000920E-02 0. -1.
    10030    2    1    2    0    0  0.00000000000E+00  0.00000000000E+00 -0.23922326008E+03  0.36170208260E+04  0.36091012576E+04 0.  0.
        1    1    3    3  502    0 -0.83314205926E+03 -0.42745348419E+03 -0.16655790789E+04  0.19107579230E+04  0.50400001928E-02 0. -1.
       -1    1    3    3    0  502  0.83314205926E+03  0.42745348419E+03  0.14263558189E+04  0.17062629030E+04  0.50400001928E-02 0.  1.
</event>
<event>
 5   0  0.3880259E-07  0.3569148E+04  0.7818609E-02  0.8097596E-01
        2   -1    0    0  501    0  0.00000000000E+00  0.00000000000E+00  0.22293570323E+04  0.22293570323E+04  0.25500000920E-02 0.  1.
       -2   -1    0    0    0  501  0.00000000000E+00  0.00000000000E+00 -0.14285303240E+04  0.14285303240E+04  0.25500000920E-02 0. -1.
    10030    2    1    2    0    0  0.00000000000E+00  0.00000000000E+00  0.80082670832E+03  0.36578873564E+04  0.35691478668E+04 0.  0.
        5    1    3    3  502    0 -0.11476387442E+04 -0.36374477290E+03  0.17504722207E+04  0.21245140697E+04  0.46999998093E+01 0.  1.
       -5    1    3    3    0  502  0.11476387442E+04  0.36374477290E+03 -0.94964551233E+03  0.15333732866E+04  0.46999998093E+01 0. -1.
</event>
<event>
 5   0  0.1298250E-07  0.3610927E+04  0.7818609E-02  0.8087993E-01
        1   -1    0    0  501    0  0.00000000000E+00  0.00000000000E+00  0.16946618292E+04  0.16946618292E+04  0.50400001928E-02 0. -1.
       -1   -1    0    0    0  501  0.00000000000E+00  0.00000000000E+00 -0.19235097866E+04  0.19235097866E+04  0.50400001928E-02 0.  1.
    10030    2    1    2    0    0  0.00000000000E+00  0.00000000000E+00 -0.22884795735E+03  0.36181716158E+04  0.36109270906E+04 0.  0.
        1    1    3    3  502    0 -0.37418596364E+03  0.45391092786E+03 -0.18247898036E+04  0.19172657858E+04  0.50400001928E-02 0.  1.
       -1    1    3    3    0  502  0.37418596364E+03 -0.45391092786E+03  0.15959418463E+04  0.17009058300E+04  0.50400001928E-02 0. -1.
</event>
<event>
 5   0  0.1348226E-07  0.3611930E+04  0.7818609E-02  0.8087764E-01
        1   -1    0    0  501    0  0.00000000000E+00  0.00000000000E+00  0.19800864503E+04  0.19800864503E+04  0.50400001928E-02 0. -1.
       -1   -1    0    0    0  501  0.00000000000E+00  0.00000000000E+00 -0.16471554327E+04  0.16471554327E+04  0.50400001928E-02 0.  1.
    10030    2    1    2    0    0  0.00000000000E+00  0.00000000000E+00  0.33293101762E+03  0.36272418830E+04  0.36119303170E+04 0.  0.
        4    1    3    3  502    0 -0.34789128422E+03 -0.16842327372E+04 -0.38708828260E+03  0.17628123015E+04  0.12699999809E+01 0.  1.
       -4    1    3    3    0  502  0.34789128422E+03  0.16842327372E+04  0.72001930022E+03  0.18644295815E+04  0.12699999809E+01 0. -1.
</event>
<event>
 5   0  0.1348226E-07  0.3546921E+04  0.7818609E-02  0.8102760E-01
        1   -1    0    0  501    0  0.00000000000E+00  0.00000000000E+00  0.25448064823E+04  0.25448064823E+04  0.50400001928E-02 0. -1.
       -1   -1    0    0    0  501  0.00000000000E+00  0.00000000000E+00 -0.12359137273E+04  0.12359137273E+04  0.50400001928E-02 0.  1.
    10030    2    1    2    0    0  0.00000000000E+00  0.00000000000E+00  0.13088927550E+04  0.37807202096E+04  0.35469205036E+04 0.  0.
        4    1    3    3  502    0  0.97039088503E+02 -0.17707876581E+04  0.64660359573E+03  0.18876449184E+04  0.12699999809E+01 0.  1.
       -4    1    3    3    0  502 -0.97039088503E+02  0.17707876581E+04  0.66228915932E+03  0.18930752913E+04  0.12699999809E+01 0. -1.
</event>
<event>
 5   0  0.4120440E-07  0.3591880E+04  0.7818609E-02  0.8092354E-01
       -2   -1    0    0    0  501  0.00000000000E+00  0.00000000000E+00  0.20344041040E+04  0.20344041040E+04  0.25500000920E-02 0.  1.
        2   -1    0    0  501    0  0.00000000000E+00  0.00000000000E+00 -0.15854277942E+04  0.15854277942E+04  0.25500000920E-02 0. -1.
    10030    2    1    2    0    0  0.00000000000E+00  0.00000000000E+00  0.44897630984E+03  0.36198318982E+04  0.35918801824E+04 0.  0.
        2    1    3    3  502    0 -0.10203578780E+04  0.44331209480E+02 -0.12642705742E+04  0.16252616836E+04  0.25500000920E-02 0. -1.
       -2    1    3    3    0  502  0.10203578780E+04 -0.44331209480E+02  0.17132468841E+04  0.19945702146E+04  0.25500000920E-02 0.  1.
</event>
<event>
 5   0  0.4120440E-07  0.3610887E+04  0.7818609E-02  0.8088002E-01
       -2   -1    0    0    0  501  0.00000000000E+00  0.00000000000E+00  0.13159582908E+04  0.13159582908E+04  0.25500000920E-02 0. -1.
        2   -1    0    0  501    0  0.00000000000E+00  0.00000000000E+00 -0.24769984248E+04  0.24769984248E+04  0.25500000920E-02 0.  1.
    10030    2    1    2    0    0  0.00000000000E+00  0.00000000000E+00 -0.11610401340E+04  0.37929567156E+04  0.36108872115E+04 0.  0.
        2    1    3    3  502    0 -0.71399251226E+03 -0.43418348424E+03  0.11005909459E+04  0.13818831484E+04  0.25500000920E-02 0. -1.
       -2    1    3    3    0  502  0.71399251226E+03  0.43418348424E+03 -0.22616310798E+04  0.24110735673E+04  0.25500000920E-02 0.  1.
</event>
<event>
 5   0  0.4200635E-07  0.3643493E+04  0.7818609E-02  0.8080601E-01
        2   -1    0    0  501    0  0.00000000000E+00  0.00000000000E+00  0.17741042521E+04  0.17741042521E+04  0.25500000920E-02 0. -1.
       -2   -1    0    0    0  501  0.00000000000E+00  0.00000000000E+00 -0.18706680173E+04  0.18706680174E+04  0.25500000920E-02 0.  1.
    10030    2    1    2    0    0  0.00000000000E+00  0.00000000000E+00 -0.96563765245E+02  0.36447722695E+04  0.36434928757E+04 0.  0.
        4    1    3    3  502    0 -0.12460688929E+04  0.44235100228E+03 -0.13018764912E+04  0.18555985844E+04  0.12699999809E+01 0.  1.
       -4    1    3    3    0  502  0.12460688929E+04 -0.44235100228E+03  0.12053127259E+04  0.17891736851E+04  0.12699999809E+01 0. -1.
</event>
<event>
 5   0  0.3880259E-07  0.3599884E+04  0.7818609E-02  0.8090518E-01
        2   -1    0    0  501    0  0.00000000000E+00  0.00000000000E+00  0.99757930292E+03  0.99757930292E+03  0.25500000920E-02 0. -1.
       -2   -1    0    0    0  501  0.00000000000E+00  0.00000000000E+00 -0.32476525928E+04  0.32476525928E+04  0.25500000920E-02 0.  1.
    10030    2    1    2    0    0  0.00000000000E+00  0.00000000000E+00 -0.22500732899E+04  0.42452318957E+04  0.35998838924E+04 0.  0.
        5    1    3    3  502    0 -0.96370906130E+03  0.14361575258E+04 -0.17128822810E+04  0.24341880355E+04  0.46999998093E+01 0. -1.
       -5    1    3    3    0  502  0.96370906130E+03 -0.14361575258E+04 -0.53719100891E+03  0.18110438602E+04  0.46999998093E+01 0.  1.
</event>
<event>
 5   0  0.4120440E-07  0.3608494E+04  0.7818609E-02  0.8088549E-01
       -2   -1    0    0    0  501  0.00000000000E+00  0.00000000000E+00  0.19674571894E+04  0.19674571894E+04  0.25500000920E-02 0.  1.
        2   -1    0    0  501    0  0.00000000000E+00  0.00000000000E+00 -0.16545761069E+04  0.16545761069E+04  0.25500000920E-02 0. -1.
    10030    2    1    2    0    0  0.00000000000E+00  0.00000000000E+00  0.31288108254E+03  0.36220332963E+04  0.36084942328E+04 0.  0.
        2    1    3    3  502    0 -0.48842685483E+03 -0.30797393275E+03  0.18722103314E+04  0.19592295069E+04  0.25500000920E-02 0.  1.
       -2    1    3    3    0  502  0.48842685483E+03  0.30797393275E+03 -0.15593292488E+04  0.16628037894E+04  0.25500000920E-02 0. -1.
</event>
<event>
 5   0  0.3993751E-07  0.3601943E+04  0.7818609E-02  0.8090047E-01
       -2   -1    0    0    0  501  0.00000000000E+00  0.00000000000E+00  0.22028055822E+04  0.22028055822E+04  0.25500000920E-02 0. -1.
        2   -1    0    0  501    0  0.00000000000E+00  0.00000000000E+00 -0.14724398739E+04  0.14724398739E+04  0.25500000920E-02 0.  1.
    10030    2    1    2    0    0  0.00000000000E+00  0.00000000000E+00  0.73036570831E+03  0.36752454561E+04  0.36019432387E+04 0.  0.
        1    1    3    3  502    0 -0.25537020824E+03  0.17430098849E+04  0.74723761502E+03  0.19135468260E+04  0.50400001928E-02 0. -1.
       -1    1    3    3    0  502  0.25537020824E+03 -0.17430098849E+04 -0.16871906718E+02  0.17616986301E+04  0.50400001928E-02 0.  1.
</event>
<event>
 5   0  0.4200635E-07  0.3583212E+04  0.7818609E-02  0.8094348E-01
       -2   -1    0    0    0  501  0.00000000000E+00  0.00000000000E+00  0.14174984351E+04  0.14174984351E+04  0.25500000920E-02 0. -1.
        2   -1    0    0  501    0  0.00000000000E+00  0.00000000000E+00 -0.22644488123E+04  0.22644488123E+04  0.25500000920E-02 0.  1.
    10030    2    1    2    0    0  0.00000000000E+00  0.00000000000E+00 -0.84695037720E+03  0.36819472475E+04  0.35832123286E+04 0.  0.
        4    1    3    3  502    0  0.12445117836E+04  0.25719262636E+03  0.87421448818E+03  0.15424688687E+04  0.12699999809E+01 0. -1.
       -4    1    3    3    0  502 -0.12445117836E+04 -0.25719262636E+03 -0.17211648654E+04  0.21394783788E+04  0.12699999809E+01 0.  1.
</event>
<event>
 5   0  0.4200635E-07  0.3601246E+04  0.7818609E-02  0.8090206E-01
        2   -1    0    0  501    0  0.00000000000E+00  0.00000000000E+00  0.22525669836E+04  0.22525669836E+04  0.25500000920E-02 0. -1.
       -2   -1    0    0    0  501  0.00000000000E+00  0.00000000000E+00 -0.14393547681E+04  0.14393547681E+04  0.25500000920E-02 0.  1.
    10030    2    1    2    0    0  0.00000000000E+00  0.00000000000E+00  0.81321221546E+03  0.36919217517E+04  0.36012459112E+04 0.  0.
        4    1    3    3  502    0  0.16983495283E+04 -0.29250332543E+03 -0.12834886627E+03  0.17281274143E+04  0.12699999809E+01 0.  1.
       -4    1    3    3    0  502 -0.16983495283E+04  0.29250332543E+03  0.94156108173E+03  0.19637943373E+04  0.12699999809E+01 0. -1.
</event>
<event>
 5   0  0.3880259E-07  0.3622113E+04  0.7818609E-02  0.8085445E-01
        2   -1    0    0  501    0  0.00000000000E+00  0.00000000000E+00  0.22940582234E+04  0.22940582234E+04  0.25500000920E-02 0.  1.
       -2   -1    0    0    0  501  0.00000000000E+00  0.00000000000E+00 -0.14297481163E+04  0.14297481163E+04  0.25500000920E-02 0. -1.
    10030    2    1    2    0    0  0.00000000000E+00  0.00000000000E+00  0.86431010707E+03  0.37238063397E+04  0.36221128771E+04 0.  0.
        5    1    3    3  502    0 -0.15144647872E+04 -0.71530202236E+03  0.11404408560E+04  0.20262990922E+04  0.46999998093E+01 0.  1.
       -5    1    3    3    0  502  0.15144647872E+04  0.71530202236E+03 -0.27613074892E+03  0.16975072475E+04  0.46999998093E+01 0. -1.
</event>
<event>
 5   0  0.1348226E-07  0.3600443E+04  0.7818609E-02  0.8090390E-01
       -1   -1    0    0    0  501  0.00000000000E+00  0.00000000000E+00  0.12211712220E+04  0.12211712220E+04  0.50400001928E-02 0.  1.
        1   -1    0    0  501    0  0.00000000000E+00  0.00000000000E+00 -0.26538438123E+04  0.26538438124E+04  0.50400001928E-02 0. -1.
    10030    2    1    2    0    0  0.00000000000E+00  0.00000000000E+00 -0.14326725903E+04  0.38750150344E+04  0.36004431346E+04 0.  0.
        4    1    3    3  502    0  0.15847541586E+04 -0.80186303027E+03 -0.40004380588E+03  0.18205676922E+04  0.12699999809E+01 0.  1.
       -4    1    3    3    0  502 -0.15847541586E+04  0.80186303027E+03 -0.10326287844E+04  0.20544473422E+04  0.12699999809E+01 0. -1.
</event>
<event>
 5   0  0.3880259E-07  0.3585676E+04  0.7818609E-02  0.8093781E-01
        2   -1    0    0  501    0  0.00000000000E+00  0.00000000000E+00  0.12788070190E+04  0.12788070190E+04  0.25500000920E-02 0.  1.
       -2   -1    0    0    0  501  0.00000000000E+00  0.00000000000E+00 -0.25134900938E+04  0.25134900938E+04  0.25500000920E-02 0. -1.
    10030    2    1    2    0    0  0.00000000000E+00  0.00000000000E+00 -0.12346830749E+04  0.37922971128E+04  0.35856763792E+04 0.  0.
        5    1    3    3  502    0 -0.42305077657E+03 -0.83804969525E+02 -0.24578051358E+04  0.24953603764E+04  0.46999998093E+01 0. -1.
       -5    1    3    3    0  502  0.42305077657E+03  0.83804969525E+02  0.12231220609E+04  0.12969367364E+04  0.46999998093E+01 0.  1.
</event>
<event>
 5   0  0.4115358E-07  0.3581956E+04  0.7818609E-02  0.8094637E-01
        2   -1    0    0  501    0  0.00000000000E+00  0.00000000000E+00  0.24081541845E+04  0.24081541845E+04  0.25500000920E-02 0. -1.
       -2   -1    0    0    0  501  0.00000000000E+00  0.00000000000E+00 -0.13319757357E+04  0.13319757357E+04  0.25500000920E-02 0.  1.
    10030    2    1    2    0    0  0.00000000000E+00  0.00000000000E+00  0.10761784488E+04  0.37401299202E+04  0.35819564160E+04 0.  0.
        3    1    3    3  502    0  0.12306855764E+04  0.73607539373E+03 -0.58223434167E+03  0.15477050145E+04  0.10100000352E+00 0.  1.
       -3    1    3    3    0  502 -0.12306855764E+04 -0.73607539373E+03  0.16584127905E+04  0.21924249056E+04  0.10100000352E+00 0. -1.
</event>
<event>
 5   0  0.3880259E-07  0.3420909E+04  0.7818609E-02  0.8132793E-01
        2   -1    0    0  501    0  0.00000000000E+00  0.00000000000E+00  0.23065326585E+04  0.23065326585E+04  0.25500000920E-02 0. -1.
       -2   -1    0    0    0  501  0.00000000000E+00  0.00000000000E+00 -0.12684213727E+04  0.12684213727E+04  0.25500000920E-02 0.  1.
    10030    2    1    2    0    0  0.00000000000E+00  0.00000000000E+00  0.10381112857E+04  0.35749540312E+04  0.34209094235E+04 0.  0.
        5    1    3    3  502    0  0.54659343306E+02  0.10450653074E+04 -0.89482212524E+03  0.13769088083E+04  0.46999998093E+01 0.  1.
       -5    1    3    3    0  502 -0.54659343306E+02 -0.10450653074E+04  0.19329334110E+04  0.21980452229E+04  0.46999998093E+01 0. -1.
</event>
<event>
 5   0  0.1298250E-07  0.3600207E+04  0.7818609E-02  0.8090444E-01
       -1   -1    0    0    0  501  0.00000000000E+00  0.00000000000E+00  0.12926073193E+04  0.12926073193E+04  0.50400001928E-02 0.  1.
        1   -1    0    0  501    0  0.00000000000E+00  0.00000000000E+00 -0.25068496621E+04  0.25068496621E+04  0.50400001928E-02 0. -1.
    10030    2    1    2    0    0  0.00000000000E+00  0.00000000000E+00 -0.12142423429E+04  0.37994569814E+04  0.36002067838E+04 0.  0.
        1    1    3    3  502    0 -0.42266158606E+03  0.17030000855E+04 -0.18298296857E+03  0.17641810776E+04  0.50400001928E-02 0.  1.
       -1    1    3    3    0  502  0.42266158606E+03 -0.17030000855E+04 -0.10312593743E+04  0.20352759038E+04  0.50400001928E-02 0. -1.
</event>
<event>
 5   0  0.1361743E-07  0.3596766E+04  0.7818609E-02  0.8091233E-01
        1   -1    0    0  501    0  0.00000000000E+00  0.00000000000E+00  0.14416363220E+04  0.14416363220E+04  0.50400001928E-02 0.  1.
       -1   -1    0    0    0  501  0.00000000000E+00  0.00000000000E+00 -0.22434102302E+04  0.22434102302E+04  0.50400001928E-02 0. -1.
    10030    2    1    2    0    0  0.00000000000E+00  0.00000000000E+00 -0.80177390823E+03  0.36850465522E+04  0.35967661437E+04 0.  0.
        5    1    3    3  502    0  0.16269728639E+04  0.63876180470E+03  0.32705071130E+02  0.17481845024E+04  0.46999998093E+01 0.  1.
       -5    1    3    3    0  502 -0.16269728639E+04 -0.63876180470E+03 -0.83447897936E+03  0.19368620498E+04  0.46999998093E+01 0. -1.
</event>
<event>
 5   0  0.1361743E-07  0.3600446E+04  0.7818609E-02  0.8090389E-01
        1   -1    0    0  501    0  0.00000000000E+00  0.00000000000E+00  0.17291320520E+04  0.17291320520E+04  0.50400001928E-02 0.  1.
       -1   -1    0    0    0  501  0.00000000000E+00  0.00000000000E+00 -0.18742369557E+04  0.18742369558E+04  0.50400001928E-02 0. -1.
    10030    2    1    2    0    0  0.00000000000E+00  0.00000000000E+00 -0.14510490371E+03  0.36033690078E+04  0.36004461909E+04 0.  0.
        5    1    3    3  502    0 -0.12538106447E+04 -0.12009265345E+04 -0.54887518463E+03  0.18208656547E+04  0.46999998093E+01 0. -1.
       -5    1    3    3    0  502  0.12538106447E+04  0.12009265345E+04  0.40377028092E+03  0.17825033531E+04  0.46999998093E+01 0.  1.
</event>
<event>
 5   0  0.3993751E-07  0.3649699E+04  0.7818609E-02  0.8079201E-01
        2   -1    0    0  501    0  0.00000000000E+00  0.00000000000E+00  0.20194029758E+04  0.20194029758E+04  0.25500000920E-02 0.  1.
       -2   -1    0    0    0  501  0.00000000000E+00  0.00000000000E+00 -0.16490395744E+04  0.16490395744E+04  0.25500000920E-02 0. -1.
    10030    2    1    2    0    0  0.00000000000E+00  0.00000000000E+00  0.37036340139E+03  0.36684425501E+04  0.36496988499E+04 0.  0.
        1    1    3    3  502    0 -0.98262158646E+03 -0.14634897249E+04  0.65954618386E+03  0.18821127825E+04  0.50400001928E-02 0. -1.
       -1    1    3    3    0  502  0.98262158646E+03  0.14634897249E+04 -0.28918278248E+03  0.17863297677E+04  0.50400001928E-02 0.  1.
</event>
<event>
 5   0  0.3993751E-07  0.3584593E+04  0.7818609E-02  0.8094030E-01
       -2   -1    0    0    0  501  0.00000000000E+00  0.00000000000E+00  0.14514542660E+04  0.14514542660E+04  0.25500000920E-02 0. -1.
        2   -1    0    0  501    0  0.00000000000E+00  0.00000000000E+00 -0.22131783388E+04  0.22131783388E+04  0.25500000920E-02 0.  1.
    10030    2    1    2    0    0  0.00000000000E+00  0.00000000000E+00 -0.76172407277E+03  0.36646326048E+04  0.35845932217E+04 0.  0.
        1    1    3    3  502    0  0.14303338930E+04  0.25861749239E+03  0.69116508508E+03  0.16094866348E+04  0.50400001928E-02 0. -1.
       -1    1    3    3    0  502 -0.14303338930E+04 -0.25861749239E+03 -0.14528891579E+04  0.20551459700E+04  0.50400001928E-02 0.  1.
</event>
<event>
 5   0  0.1348226E-07  0.3599047E+04  0.7818609E-02  0.8090710E-01
       -1   -1    0    0    0  501  0.00000000000E+00  0.00000000000E+00  0.14119099765E+04  0.14119099765E+04  0.50400001928E-02 0. -1.
        1   -1    0    0  501    0  0.00000000000E+00  0.00000000000E+00 -0.22935496207E+04  0.22935496207E+04  0.50400001928E-02 0.  1.
    10030    2    1    2    0    0  0.00000000000E+00  0.00000000000E+00 -0.88163964420E+03  0.37054595971E+04  0.35990474245E+04 0.  0.
        4    1    3    3  502    0  0.46776457916E+03  0.12841487034E+02  0.13481736340E+04  0.14270747583E+04  0.12699999809E+01 0. -1.
       -4    1    3    3    0  502 -0.46776457916E+03 -0.12841487034E+02 -0.22298132782E+04  0.22783848389E+04  0.12699999809E+01 0.  1.
</event>
<event>
 5   0  0.4120440E-07  0.3598294E+04  0.7818609E-02  0.8090883E-01
       -2   -1    0    0    0  501  0.00000000000E+00  0.00000000000E+00  0.13387153896E+04  0.13387153896E+04  0.25500000920E-02 0.  1.
        2   -1    0    0  501    0  0.00000000000E+00  0.00000000000E+00 -0.24179373880E+04  0.24179373880E+04  0.25500000920E-02 0. -1.
    10030    2    1    2    0    0  0.00000000000E+00  0.00000000000E+00 -0.10792219984E+04  0.37566527776E+04  0.35982940361E+04 0.  0.
        2    1    3    3  502    0 -0.98169275862E+03 -0.14490271198E+04 -0.97451294172E+03  0.20032662678E+04  0.25500000920E-02 0. -1.
       -2    1    3    3    0  502  0.98169275862E+03  0.14490271198E+04 -0.10470905665E+03  0.17533865098E+04  0.25500000920E-02 0.  1.
</event>
<event>
 5   0  0.3880259E-07  0.3590184E+04  0.7818609E-02  0.8092744E-01
        2   -1    0    0  501    0  0.00000000000E+00  0.00000000000E+00  0.19321583556E+04  0.19321583556E+04  0.25500000920E-02 0.  1.
       -2   -1    0    0    0  501  0.00000000000E+00  0.00000000000E+00 -0.16677489141E+04  0.16677489141E+04  0.25500000920E-02 0. -1.
    10030    2    1    2    0    0  0.00000000000E+00  0.00000000000E+00  0.26440944151E+03  0.35999072697E+04  0.35901838390E+04 0.  0.
        5    1    3    3  502    0  0.13704820584E+03  0.67557102754E+03  0.17941478849E+04  0.19220216302E+04  0.46999998093E+01 0.  1.
       -5    1    3    3    0  502 -0.13704820584E+03 -0.67557102754E+03 -0.15297384434E+04  0.16778856395E+04  0.46999998093E+01 0. -1.
</event>
<event>
 5   0  0.3880259E-07  0.3599275E+04  0.7818609E-02  0.8090658E-01
       -2   -1    0    0    0  501  0.00000000000E+00  0.00000000000E+00  0.12366954314E+04  0.12366954314E+04  0.25500000920E-02 0.  1.
        2   -1    0    0  501    0  0.00000000000E+00  0.00000000000E+00 -0.26188301345E+04  0.26188301345E+04  0.25500000920E-02 0. -1.
    10030    2    1    2    0    0  0.00000000000E+00  0.00000000000E+00 -0.13821347031E+04  0.38555255659E+04  0.35992750731E+04 0.  0.
        5    1    3    3  502    0  0.58305378545E+03 -0.10890526807E+04  0.71080150032E+03  0.14252186923E+04  0.46999998093E+01 0.  1.
       -5    1    3    3    0  502 -0.58305378545E+03  0.10890526807E+04 -0.20929362034E+04  0.24303068735E+04  0.46999998093E+01 0. -1.
</event>
<event>
 5   0  0.1298250E-07  0.3593297E+04  0.7818609E-02  0.8092029E-01
       -1   -1    0    0    0  501  0.00000000000E+00  0.00000000000E+00  0.13431432949E+04  0.13431432949E+04  0.50400001928E-02 0. -1.
        1   -1    0    0  501    0  0.00000000000E+00  0.00000000000E+00 -0.24032768717E+04  0.24032768717E+04  0.50400001928E-02 0.  1.
    10030    2    1    2    0    0  0.00000000000E+00  0.00000000000E+00 -0.10601335768E+04  0.37464201667E+04  0.35932966569E+04 0.  0.
        1    1    3    3  502    0  0.36683751372E+03 -0.15600021237E+04  0.31680819829E+03  0.16335678198E+04  0.50400001928E-02 0. -1.
       -1    1    3    3    0  502 -0.36683751372E+03  0.15600021237E+04 -0.13769417751E+04  0.21128523468E+04  0.50400001928E-02 0.  1.
</event>
<event>
 5   0  0.1348226E-07  0.3586416E+04  0.7818609E-02  0.8093610E-01
        1   -1    0    0  501    0  0.00000000000E+00  0.00000000000E+00  0.15791925736E+04  0.15791925736E+04  0.50400001928E-02 0.  1.
       -1   -1    0    0    0  501  0.00000000000E+00  0.00000000000E+00 -0.20362277170E+04  0.20362277170E+04  0.50400001928E-02 0. -1.
    10030    2    1    2    0    0  0.00000000000E+00  0.00000000000E+00 -0.45703514345E+03  0.36154202906E+04  0.35864164225E+04 0.  0.
        4    1    3    3  502    0 -0.12390709457E+04  0.10895813517E+04  0.47937909830E+03  0.17182229958E+04  0.12699999809E+01 0.  1.
       -4    1    3    3    0  502  0.12390709457E+04 -0.10895813517E+04 -0.93641424175E+03  0.18971972948E+04  0.12699999809E+01 0. -1.
</event>
<event>
 5   0  0.4115358E-07  0.3620616E+04  0.7818609E-02  0.8085786E-01
       -2   -1    0    0    0  501  0.00000000000E+00  0.00000000000E+00  0.11756127339E+04  0.11756127339E+04  0.25500000920E-02 0. -1.
        2   -1    0    0  501    0  0.00000000000E+00  0.00000000000E+00 -0.27876651623E+04  0.27876651623E+04  0.25500000920E-02 0.  1.
    10030    2    1    2    0    0  0.00000000000E+00  0.00000000000E+00 -0.16120524284E+04  0.39632778962E+04  0.36206157834E+04 0.  0.
        3    1    3    3  502    0 -0.15405661858E+04  0.42811575035E+03 -0.17352395027E+04  0.23595939080E+04  0.10100000352E+00 0.  1.
       -3    1    3    3    0  502  0.15405661858E+04 -0.42811575035E+03  0.12318707430E+03  0.16036839882E+04  0.10100000352E+00 0. -1.
</event>
<event>
 5   0  0.3993751E-07  0.3606966E+04  0.7818609E-02  0.8088898E-01
        2   -1    0    0  501    0  0.00000000000E+00  0.00000000000E+00  0.20391145765E+04  0.20391145765E+04  0.25500000920E-02 0.  1.
       -2   -1    0    0    0  501  0.00000000000E+00  0.00000000000E+00 -0.15950803215E+04  0.15950803215E+04  0.25500000920E-02 0. -1.
    10030    2    1    2    0    0  0.00000000000E+00  0.00000000000E+00  0.44403425504E+03  0.36341948980E+04  0.36069663343E+04 0.  0.
        1    1    3    3  502    0  0.83490280280E+03  0.61292178454E+03  0.17095823504E+04  0.19988515745E+04  0.50400001928E-02 0.  1.
       -1    1    3    3    0  502 -0.83490280280E+03 -0.61292178454E+03 -0.12655480953E+04  0.16353433235E+04  0.50400001928E-02 0. -1.
</event>
<event>
 5   0  0.3880259E-07  0.3585648E+04  0.7818609E-02  0.8093787E-01
        2   -1    0    0  501    0  0.00000000000E+00  0.00000000000E+00  0.17154998803E+04  0.17154998803E+04  0.25500000920E-02 0. -1.
       -2   -1    0    0    0  501  0.00000000000E+00  0.00000000000E+00 -0.18736335419E+04  0.18736335419E+04  0.25500000920E-02 0.  1.
    10030    2    1    2    0    0  0.00000000000E+00  0.00000000000E+00 -0.15813366160E+03  0.35891334222E+04  0.35856481238E+04 0.  0.
        5    1    3    3  502    0  0.60444132293E+03 -0.13613661393E+04  0.91966497724E+03  0.17505635774E+04  0.46999998093E+01 0. -1.
       -5    1    3    3    0  502 -0.60444132293E+03  0.13613661393E+04 -0.10777986388E+04  0.18385698448E+04  0.46999998093E+01 0.  1.
</event>
<event>
 5   0  0.1298250E-07  0.3573804E+04  0.7818609E-02  0.8096519E-01
        4   -1    0    0  501    0  0.00000000000E+00  0.00000000000E+00  0.21107328045E+04  0.21107331866E+04  0.12699999809E+01 0. -1.
       -4   -1    0    0    0  501  0.00000000000E+00  0.00000000000E+00 -0.15127532000E+04  0.15127537331E+04  0.12699999809E+01 0.  1.
    10030    2    1    2    0    0  0.00000000000E+00  0.00000000000E+00  0.59797960446E+03  0.36234869197E+04  0.35738043945E+04 0.  0.
        4    1    3    3  502    0 -0.67785611061E+03  0.16390357498E+04  0.78969001523E+02  0.17754336968E+04  0.12699999809E+01 0.  1.
       -4    1    3    3    0  502  0.67785611061E+03 -0.16390357498E+04  0.51901060294E+03  0.18480532229E+04  0.12699999809E+01 0. -1.
</event>
<event>
 5   0  0.4115358E-07  0.3586241E+04  0.7818609E-02  0.8093651E-01
        2   -1    0    0  501    0  0.00000000000E+00  0.00000000000E+00  0.16802936603E+04  0.16802936603E+04  0.25500000920E-02 0.  1.
       -2   -1    0    0    0  501  0.00000000000E+00  0.00000000000E+00 -0.19135230048E+04  0.19135230048E+04  0.25500000920E-02 0. -1.
    10030    2    1    2    0    0  0.00000000000E+00  0.00000000000E+00 -0.23322934453E+03  0.35938166651E+04  0.35862406912E+04 0.  0.
        3    1    3    3  502    0 -0.65304918408E+03 -0.11809208945E+03 -0.17859252549E+04  0.19052422431E+04  0.10100000352E+00 0. -1.
       -3    1    3    3    0  502  0.65304918408E+03  0.11809208945E+03  0.15526959104E+04  0.16885744220E+04  0.10100000352E+00 0.  1.
</event>
<event>
 5   0  0.4200635E-07  0.3603763E+04  0.7818609E-02  0.8089630E-01
       -2   -1    0    0    0  501  0.00000000000E+00  0.00000000000E+00  0.19939559861E+04  0.19939559861E+04  0.25500000920E-02 0. -1.
        2   -1    0    0  501    0  0.00000000000E+00  0.00000000000E+00 -0.16283095904E+04  0.16283095904E+04  0.25500000920E-02 0.  1.
    10030    2    1    2    0    0  0.00000000000E+00  0.00000000000E+00  0.36564639569E+03  0.36222655766E+04  0.36037633968E+04 0.  0.
        4    1    3    3  502    0 -0.72185950642E+03  0.15050480124E+04  0.86492752010E+03  0.18799872059E+04  0.12699999809E+01 0.  1.
       -4    1    3    3    0  502  0.72185950642E+03 -0.15050480124E+04 -0.49928112440E+03  0.17422783706E+04  0.12699999809E+01 0. -1.
</event>
<event>
 5   0  0.4115358E-07  0.3592396E+04  0.7818609E-02  0.8092236E-01
       -2   -1    0    0    0  501  0.00000000000E+00  0.00000000000E+00  0.32647925952E+04  0.32647925952E+04  0.25500000920E-02 0. -1.
        2   -1    0    0  501    0  0.00000000000E+00  0.00000000000E+00 -0.98821806303E+03  0.98821806304E+03  0.25500000920E-02 0.  1.
    10030    2    1    2    0    0  0.00000000000E+00  0.00000000000E+00  0.22765745322E+04  0.42530106582E+04  0.35923958661E+04 0.  0.
        3    1    3    3  502    0 -0.15526293546E+04 -0.90311132382E+03  0.11473831164E+04  0.21313742050E+04  0.10100000352E+00 0. -1.
       -3    1    3    3    0  502  0.15526293546E+04  0.90311132382E+03  0.11291914158E+04  0.21216364532E+04  0.10100000352E+00 0.  1.
</event>
<event>
 5   0  0.4200635E-07  0.3602374E+04  0.7818609E-02  0.8089948E-01
       -2   -1    0    0    0  501  0.00000000000E+00  0.00000000000E+00  0.21952177594E+04  0.21952177594E+04  0.25500000920E-02 0. -1.
        2   -1    0    0  501    0  0.00000000000E+00  0.00000000000E+00 -0.14778826959E+04  0.14778826959E+04  0.25500000920E-02 0.  1.
    10030    2    1    2    0    0  0.00000000000E+00  0.00000000000E+00  0.71733506357E+03  0.36731004553E+04  0.36023738509E+04 0.  0.
        4    1    3    3  502    0 -0.12004020922E+04 -0.68305701852E+03  0.15375421106E+04  0.20667775468E+04  0.12699999809E+01 0. -1.
       -4    1    3    3    0  502  0.12004020922E+04  0.68305701852E+03 -0.82020704701E+03  0.16063229085E+04  0.12699999809E+01 0.  1.
</event>
<event>
 5   0  0.3993751E-07  0.3626452E+04  0.7818609E-02  0.8084459E-01
       -2   -1    0    0    0  501  0.00000000000E+00  0.00000000000E+00  0.14064518780E+04  0.14064518780E+04  0.25500000920E-02 0. -1.
        2   -1    0    0  501    0  0.00000000000E+00  0.00000000000E+00 -0.23376479658E+04  0.23376479658E+04  0.25500000920E-02 0.  1.
    10030    2    1    2    0    0  0.00000000000E+00  0.00000000000E+00 -0.93119608782E+03  0.37440998438E+04  0.36264524658E+04 0.  0.
        1    1    3    3  502    0  0.10567360389E+04  0.14118671121E+04 -0.30341527679E+02  0.17637971557E+04  0.50400001928E-02 0.  1.
       -1    1    3    3    0  502 -0.10567360389E+04 -0.14118671121E+04 -0.90085456014E+03  0.19803026881E+04  0.50400001928E-02 0. -1.
</event>
<event>
 5   0  0.1348226E-07  0.3615056E+04  0.7818609E-02  0.8087052E-01
       -1   -1    0    0    0  501  0.00000000000E+00  0.00000000000E+00  0.14692909994E+04  0.14692909994E+04  0.50400001928E-02 0. -1.
        1   -1    0    0  501    0  0.00000000000E+00  0.00000000000E+00 -0.22236282039E+04  0.22236282039E+04  0.50400001928E-02 0.  1.
    10030    2    1    2    0    0  0.00000000000E+00  0.00000000000E+00 -0.75433720450E+03  0.36929192033E+04  0.36150556876E+04 0.  0.
        4    1    3    3  502    0 -0.15584905837E+04 -0.75340508228E+02 -0.13092834345E+04  0.20368588111E+04  0.12699999809E+01 0. -1.
       -4    1    3    3    0  502  0.15584905837E+04  0.75340508228E+02  0.55494623004E+03  0.16560603922E+04  0.12699999809E+01 0.  1.
</event>
<event>
 5   0  0.4115358E-07  0.3622926E+04  0.7818609E-02  0.8085260E-01
       -2   -1    0    0    0  501  0.00000000000E+00  0.00000000000E+00  0.16900984903E+04  0.16900984903E+04  0.25500000920E-02 0.  1.
        2   -1    0    0  501    0  0.00000000000E+00  0.00000000000E+00 -0.19415428061E+04  0.19415428061E+04  0.25500000920E-02 0. -1.
    10030    2    1    2    0    0  0.00000000000E+00  0.00000000000E+00 -0.25144431584E+03  0.36316412964E+04  0.36229262015E+04 0.  0.
        3    1    3    3  502    0  0.13637758941E+04  0.72369155062E+03  0.82407198489E+03  0.17500596550E+04  0.10100000352E+00 0. -1.
       -3    1    3    3    0  502 -0.13637758941E+04 -0.72369155062E+03 -0.10755163007E+04  0.18815816414E+04  0.10100000352E+00 0.  1.
</event>
<event>
 5   0  0.3880259E-07  0.3623909E+04  0.7818609E-02  0.8085037E-01
        2   -1    0    0  501    0  0.00000000000E+00  0.00000000000E+00  0.12915480439E+04  0.12915480439E+04  0.25500000920E-02 0.  1.
       -2   -1    0    0    0  501  0.00000000000E+00  0.00000000000E+00 -0.25420498109E+04  0.25420498109E+04  0.25500000920E-02 0. -1.
    10030    2    1    2    0    0  0.00000000000E+00  0.00000000000E+00 -0.12505017670E+04  0.38335978549E+04  0.36239091936E+04 0.  0.
        5    1    3    3  502    0 -0.12726412312E+04  0.12099283691E+04 -0.10978858443E+04  0.20709702506E+04  0.46999998093E+01 0.  1.
       -5    1    3    3    0  502  0.12726412312E+04 -0.12099283691E+04 -0.15261592270E+03  0.17626276043E+04  0.46999998093E+01 0. -1.
</event>
<event>
 5   0  0.1370997E-07  0.3623936E+04  0.7818609E-02  0.8085031E-01
       -1   -1    0    0    0  501  0.00000000000E+00  0.00000000000E+00  0.16660797712E+04  0.16660797712E+04  0.50400001928E-02 0. -1.
        1   -1    0    0  501    0  0.00000000000E+00  0.00000000000E+00 -0.19706303382E+04  0.19706303382E+04  0.50400001928E-02 0.  1.
    10030    2    1    2    0    0  0.00000000000E+00  0.00000000000E+00 -0.30455056704E+03  0.36367101094E+04  0.36239356192E+04 0.  0.
        3    1    3    3  502    0 -0.13719460782E+04  0.96579365217E+03 -0.83896357549E+03  0.18758606855E+04  0.10100000352E+00 0.  1.
       -3    1    3    3    0  502  0.13719460782E+04 -0.96579365217E+03  0.53441300844E+03  0.17608494240E+04  0.10100000352E+00 0. -1.
</event>
<event>
 5   0  0.1348226E-07  0.3607513E+04  0.7818609E-02  0.8088773E-01
        1   -1    0    0  501    0  0.00000000000E+00  0.00000000000E+00  0.34930025190E+04  0.34930025190E+04  0.50400001928E-02 0. -1.
       -1   -1    0    0    0  501  0.00000000000E+00  0.00000000000E+00 -0.93144437487E+03  0.93144437488E+03  0.50400001928E-02 0.  1.
    10030    2    1    2    0    0  0.00000000000E+00  0.00000000000E+00  0.25615581442E+04  0.44244468939E+04  0.36075130202E+04 0.  0.
        4    1    3    3  502    0 -0.63837575036E+03  0.86459322332E+03  0.30574402966E+04  0.32408313472E+04  0.12699999809E+01 0.  1.
       -4    1    3    3    0  502  0.63837575036E+03 -0.86459322332E+03 -0.49588215247E+03  0.11836155467E+04  0.12699999809E+01 0. -1.
</event>
<event>
 5   0  0.4200635E-07  0.3716581E+04  0.7818609E-02  0.8064297E-01
       -2   -1    0    0    0  501  0.00000000000E+00  0.00000000000E+00  0.27185592206E+04  0.27185592206E+04  0.25500000920E-02 0.  1.
        2   -1    0    0  501    0  0.00000000000E+00  0.00000000000E+00 -0.12702477655E+04  0.12702477655E+04  0.25500000920E-02 0. -1.
    10030    2    1    2    0    0  0.00000000000E+00  0.00000000000E+00  0.14483114550E+04  0.39888069861E+04  0.37165811038E+04 0.  0.
        4    1    3    3  502    0 -0.76012852911E+03  0.16860170600E+04  0.52980253871E+03  0.19238350372E+04  0.12699999809E+01 0.  1.
       -4    1    3    3    0  502  0.76012852911E+03 -0.16860170600E+04  0.91850891634E+03  0.20649719489E+04  0.12699999809E+01 0. -1.
</event>
<event>
 5   0  0.1370997E-07  0.3599023E+04  0.7818609E-02  0.8090716E-01
        1   -1    0    0  501    0  0.00000000000E+00  0.00000000000E+00  0.28454699981E+04  0.28454699981E+04  0.50400001928E-02 0.  1.
       -1   -1    0    0    0  501  0.00000000000E+00  0.00000000000E+00 -0.11380337857E+04  0.11380337857E+04  0.50400001928E-02 0. -1.
    10030    2    1    2    0    0  0.00000000000E+00  0.00000000000E+00  0.17074362124E+04  0.39835037838E+04  0.35990226417E+04 0.  0.
        3    1    3    3  502    0  0.78345635626E+03 -0.11929238687E+04  0.20668806808E+04  0.25117458027E+04  0.10100000352E+00 0.  1.
       -3    1    3    3    0  502 -0.78345635626E+03  0.11929238687E+04 -0.35944446835E+03  0.14717579810E+04  0.10100000352E+00 0. -1.
</event>
<event>
 5   0  0.3880259E-07  0.3581536E+04  0.7818609E-02  0.8094734E-01
        2   -1    0    0  501    0  0.00000000000E+00  0.00000000000E+00  0.13693711401E+04  0.13693711401E+04  0.25500000920E-02 0. -1.
       -2   -1    0    0    0  501  0.00000000000E+00  0.00000000000E+00 -0.23418415672E+04  0.23418415672E+04  0.25500000920E-02 0.  1.
    10030    2    1    2    0    0  0.00000000000E+00  0.00000000000E+00 -0.97247042706E+03  0.37112127073E+04  0.35815361268E+04 0.  0.
        5    1    3    3  502    0  0.19816809397E+03 -0.80616199432E+03 -0.21303990282E+04  0.22864360617E+04  0.46999998093E+01 0.  1.
       -5    1    3    3    0  502 -0.19816809397E+03  0.80616199432E+03  0.11579286012E+04  0.14247766456E+04  0.46999998093E+01 0. -1.
</event>
<event>
 5   0  0.4120440E-07  0.3616546E+04  0.7818609E-02  0.8086712E-01
        2   -1    0    0  501    0  0.00000000000E+00  0.00000000000E+00  0.20674757475E+04  0.20674757475E+04  0.25500000920E-02 0. -1.
       -2   -1    0    0    0  501  0.00000000000E+00  0.00000000000E+00 -0.15815673300E+04  0.15815673300E+04  0.25500000920E-02 0.  1.
    10030    2    1    2    0    0  0.00000000000E+00  0.00000000000E+00  0.48590841749E+03  0.36490430776E+04  0.36165464731E+04 0.  0.
        2    1    3    3  502    0  0.12745891287E+04 -0.12501974260E+04  0.53237841100E+03  0.18630614116E+04  0.25500000920E-02 0. -1.
       -2    1    3    3    0  502 -0.12745891287E+04  0.12501974260E+04 -0.46469993510E+02  0.17859816660E+04  0.25500000920E-02 0.  1.
</event>
<event>
 5   0  0.3880259E-07  0.3598224E+04  0.7818609E-02  0.8090899E-01
        2   -1    0    0  501    0  0.00000000000E+00  0.00000000000E+00  0.24174240180E+04  0.24174240180E+04  0.25500000920E-02 0. -1.
       -2   -1    0    0    0  501  0.00000000000E+00  0.00000000000E+00 -0.13389472310E+04  0.13389472310E+04  0.25500000920E-02 0.  1.
    10030    2    1    2    0    0  0.00000000000E+00  0.00000000000E+00  0.10784767869E+04  0.37563712490E+04  0.35982235589E+04 0.  0.
        5    1    3    3  502    0  0.29615970120E+03 -0.13824901144E+03  0.23861648503E+04  0.24084493228E+04  0.46999998093E+01 0. -1.
       -5    1    3    3    0  502 -0.29615970120E+03  0.13824901144E+03 -0.13076880634E+04  0.13479219261E+04  0.46999998093E+01 0.  1.
</event>
<event>
 5   0  0.1361743E-07  0.3599775E+04  0.7818609E-02  0.8090543E-01
        1   -1    0    0  501    0  0.00000000000E+00  0.00000000000E+00  0.97562622661E+03  0.97562622662E+03  0.50400001928E-02 0.  1.
       -1   -1    0    0    0  501  0.00000000000E+00  0.00000000000E+00 -0.33205285580E+04  0.33205285580E+04  0.50400001928E-02 0. -1.
    10030    2    1    2    0    0  0.00000000000E+00  0.00000000000E+00 -0.23449023314E+04  0.42961547846E+04  0.35997748526E+04 0.  0.
        5    1    3    3  502    0 -0.12508813545E+04 -0.12678377742E+04 -0.14824174551E+04  0.23172613978E+04  0.46999998093E+01 0.  1.
       -5    1    3    3    0  502  0.12508813545E+04  0.12678377742E+04 -0.86248487631E+03  0.19788933868E+04  0.46999998093E+01 0. -1.
</event>
<event>
 5   0  0.1348226E-07  0.3410023E+04  0.7818609E-02  0.8135451E-01
       -1   -1    0    0    0  501  0.00000000000E+00  0.00000000000E+00  0.19424509647E+04  0.19424509647E+04  0.50400001928E-02 0.  1.
        1   -1    0    0  501    0  0.00000000000E+00  0.00000000000E+00 -0.14965956648E+04  0.14965956648E+04  0.50400001928E-02 0. -1.
    10030    2    1    2    0    0  0.00000000000E+00  0.00000000000E+00  0.44585529990E+03  0.34390466296E+04  0.34100226938E+04 0.  0.
        4    1    3    3  502    0  0.51455953677E+03 -0.42187965821E+03  0.18061003740E+04  0.19247737885E+04  0.12699999809E+01 0.  1.
       -4    1    3    3    0  502 -0.51455953677E+03  0.42187965821E+03 -0.13602450741E+04  0.15142728411E+04  0.12699999809E+01 0. -1.
</event>
<event>
 5   0  0.4115358E-07  0.3584954E+04  0.7818609E-02  0.8093947E-01
        2   -1    0    0  501    0  0.00000000000E+00  0.00000000000E+00  0.26962423172E+04  0.26962423172E+04  0.25500000920E-02 0. -1.
       -2   -1    0    0    0  501  0.00000000000E+00  0.00000000000E+00 -0.11916484853E+04  0.11916484853E+04  0.25500000920E-02 0.  1.
    10030    2    1    2    0    0  0.00000000000E+00  0.00000000000E+00  0.15045938320E+04  0.38878908025E+04  0.35849535970E+04 0.  0.
        3    1    3    3  502    0  0.15041523272E+04 -0.86073451773E+03  0.25574765104E+03  0.17517833784E+04  0.10100000352E+00 0.  1.
       -3    1    3    3    0  502 -0.15041523272E+04  0.86073451773E+03  0.12488461809E+04  0.21361074241E+04  0.10100000352E+00 0. -1.
</event>
<event>
 5   0  0.1298250E-07  0.3609156E+04  0.7818609E-02  0.8088398E-01
       -1   -1    0    0    0  501  0.00000000000E+00  0.00000000000E+00  0.17208206492E+04  0.17208206492E+04  0.50400001928E-02 0.  1.
        1   -1    0    0  501    0  0.00000000000E+00  0.00000000000E+00 -0.18924119194E+04  0.18924119194E+04  0.50400001928E-02 0. -1.
    10030    2    1    2    0    0  0.00000000000E+00  0.00000000000E+00 -0.17159127019E+03  0.36132325687E+04  0.36091558613E+04 0.  0.
        2    1    3    3  502    0  0.14796060894E+04  0.90317413775E+03 -0.58790357823E+03  0.18304612315E+04  0.25500000920E-02 0.  1.
       -2    1    3    3    0  502 -0.14796060894E+04 -0.90317413775E+03  0.41631230804E+03  0.17827713372E+04  0.25500000920E-02 0. -1.
</event>
<event>
 5   0  0.4200635E-07  0.3581830E+04  0.7818609E-02  0.8094666E-01
        2   -1    0    0  501    0  0.00000000000E+00  0.00000000000E+00  0.18426981355E+04  0.18426981355E+04  0.25500000920E-02 0. -1.
       -2   -1    0    0    0  501  0.00000000000E+00  0.00000000000E+00 -0.17405872895E+04  0.17405872895E+04  0.25500000920E-02 0.  1.
    10030    2    1    2    0    0  0.00000000000E+00  0.00000000000E+00  0.10211084604E+03  0.35832854250E+04  0.35818302322E+04 0.  0.
        4    1    3    3  502    0  0.49347018093E+03  0.15992950350E+04  0.68858814088E+03  0.18098101196E+04  0.12699999809E+01 0. -1.
       -4    1    3    3    0  502 -0.49347018093E+03 -0.15992950350E+04 -0.58647729484E+03  0.17734753054E+04  0.12699999809E+01 0.  1.
</event>
<event>
 5   0  0.1348226E-07  0.3303856E+04  0.7818609E-02  0.8161915E-01
        1   -1    0    0  501    0  0.00000000000E+00  0.00000000000E+00  0.18139293033E+04  0.18139293033E+04  0.50400001928E-02 0. -1.
       -1   -1    0    0    0  501  0.00000000000E+00  0.00000000000E+00 -0.15043948001E+04  0.15043948001E+04  0.50400001928E-02 0.  1.
    10030    2    1    2    0    0  0.00000000000E+00  0.00000000000E+00  0.30953450325E+03  0.33183241034E+04  0.33038558151E+04 0.  0.
        4    1    3    3  502    0  0.71351124036E+03  0.14019061916E+04 -0.35184717766E+03  0.16119048698E+04  0.12699999809E+01 0.  1.
       -4    1    3    3    0  502 -0.71351124036E+03 -0.14019061916E+04  0.66138168091E+03  0.17064192336E+04  0.12699999809E+01 0. -1.
</event>
<event>
 5   0  0.1298250E-07  0.3508975E+04  0.7818609E-02  0.8111666E-01
        1   -1    0    0  501    0  0.00000000000E+00  0.00000000000E+00  0.19652708745E+04  0.19652708745E+04  0.50400001928E-02 0. -1.
       -1   -1    0    0    0  501  0.00000000000E+00  0.00000000000E+00 -0.15663117418E+04  0.15663117418E+04  0.50400001928E-02 0.  1.
    10030    2    1    2    0    0  0.00000000000E+00  0.00000000000E+00  0.39895913267E+03  0.35315826163E+04  0.35089752616E+04 0.  0.
        1    1    3    3  502    0 -0.26707416768E+03 -0.14361314541E+04 -0.77859671738E+03  0.16552990705E+04  0.50400001928E-02 0.  1.
       -1    1    3    3    0  502  0.26707416768E+03  0.14361314541E+04  0.11775558501E+04  0.18762835458E+04  0.50400001928E-02 0. -1.
</event>
<event>
 5   0  0.1361743E-07  0.3619119E+04  0.7818609E-02  0.8086126E-01
        1   -1    0    0  501    0  0.00000000000E+00  0.00000000000E+00  0.23468125417E+04  0.23468125417E+04  0.50400001928E-02 0.  1.
       -1   -1    0    0    0  501  0.00000000000E+00  0.00000000000E+00 -0.13952989088E+04  0.13952989088E+04  0.50400001928E-02 0. -1.
    10030    2    1    2    0    0  0.00000000000E+00  0.00000000000E+00  0.95151363298E+03  0.37421114505E+04  0.36191186654E+04 0.  0.
        5    1    3    3  502    0  0.34883091513E+03 -0.91883124213E+03  0.20467830822E+04  0.22705234935E+04  0.46999998093E+01 0.  1.
       -5    1    3    3    0  502 -0.34883091513E+03  0.91883124213E+03 -0.10952694492E+04  0.14715879570E+04  0.46999998093E+01 0. -1.
</event>
<event>
 5   0  0.1370997E-07  0.3593772E+04  0.7818609E-02  0.8091920E-01
        1   -1    0    0  501    0  0.00000000000E+00  0.00000000000E+00  0.12864762632E+04  0.12864762632E+04  0.50400001928E-02 0.  1.
       -1   -1    0    0    0  501  0.00000000000E+00  0.00000000000E+00 -0.25098007557E+04  0.25098007557E+04  0.50400001928E-02 0. -1.
    10030    2    1    2    0    0  0.00000000000E+00  0.00000000000E+00 -0.12233244924E+04  0.37962770189E+04  0.35937718890E+04 0.  0.
        3    1    3    3  502    0 -0.72414013300E+03 -0.51050059038E+03  0.10396950341E+04  0.13659998387E+04  0.10100000352E+00 0.  1.
       -3    1    3    3    0  502  0.72414013300E+03  0.51050059038E+03 -0.22630195266E+04  0.24302771803E+04  0.10100000352E+00 0. -1.
</event>
<event>
 5   0  0.4120440E-07  0.3577468E+04  0.7818609E-02  0.8095673E-01
       -2   -1    0    0    0  501  0.00000000000E+00  0.00000000000E+00  0.14822601437E+04  0.14822601437E+04  0.25500000920E-02 0.  1.
        2   -1    0    0  501    0  0.00000000000E+00  0.00000000000E+00 -0.21585744467E+04  0.21585744467E+04  0.25500000920E-02 0. -1.
    10030    2    1    2    0    0  0.00000000000E+00  0.00000000000E+00 -0.67631430296E+03  0.36408345904E+04  0.35774677466E+04 0.  0.
        2    1    3    3  502    0  0.75388022910E+03  0.15208544826E+04  0.23595834498E+03  0.17137707250E+04  0.25500000920E-02 0.  1.
       -2    1    3    3    0  502 -0.75388022910E+03 -0.15208544826E+04 -0.91227264794E+03  0.19270638654E+04  0.25500000920E-02 0. -1.
</event>
<event>
 5   0  0.1348226E-07  0.3590854E+04  0.7818609E-02  0.8092590E-01
        1   -1    0    0  501    0  0.00000000000E+00  0.00000000000E+00  0.15034085248E+04  0.15034085248E+04  0.50400001928E-02 0. -1.
       -1   -1    0    0    0  501  0.00000000000E+00  0.00000000000E+00 -0.21441670131E+04  0.21441670131E+04  0.50400001928E-02 0.  1.
    10030    2    1    2    0    0  0.00000000000E+00  0.00000000000E+00 -0.64075848828E+03  0.36475755379E+04  0.35908544755E+04 0.  0.
        4    1    3    3  502    0 -0.37043332616E+03 -0.89183253065E+03  0.12171249465E+04  0.15536990893E+04  0.12699999809E+01 0. -1.
       -4    1    3    3    0  502  0.37043332616E+03  0.89183253065E+03 -0.18578834348E+04  0.20938764486E+04  0.12699999809E+01 0.  1.
</event>
<event>
 5   0  0.3880259E-07  0.3609404E+04  0.7818609E-02  0.8088341E-01
       -2   -1    0    0    0  501  0.00000000000E+00  0.00000000000E+00  0.13800364685E+04  0.13800364685E+04  0.25500000920E-02 0. -1.
        2   -1    0    0  501    0  0.00000000000E+00  0.00000000000E+00 -0.23600459668E+04  0.23600459668E+04  0.25500000920E-02 0.  1.
    10030    2    1    2    0    0  0.00000000000E+00  0.00000000000E+00 -0.98000949830E+03  0.37400824354E+04  0.36094041069E+04 0.  0.
        5    1    3    3  502    0  0.15416509873E+03 -0.10230157666E+04  0.10422474960E+04  0.14685469244E+04  0.46999998093E+01 0. -1.
       -5    1    3    3    0  502 -0.15416509873E+03  0.10230157666E+04 -0.20222569943E+04  0.22715355109E+04  0.46999998093E+01 0.  1.
</event>
<event>
 5   0  0.4200635E-07  0.3591296E+04  0.7818609E-02  0.8092488E-01
        2   -1    0    0  501    0  0.00000000000E+00  0.00000000000E+00  0.17706329986E+04  0.17706329986E+04  0.25500000920E-02 0. -1.
       -2   -1    0    0    0  501  0.00000000000E+00  0.00000000000E+00 -0.18210161374E+04  0.18210161374E+04  0.25500000920E-02 0.  1.
    10030    2    1    2    0    0  0.00000000000E+00  0.00000000000E+00 -0.50383138810E+02  0.35916491360E+04  0.35912957349E+04 0.  0.
        4    1    3    3  502    0 -0.29523318551E+03 -0.11495014654E+04  0.13224696601E+04  0.17769197696E+04  0.12699999809E+01 0. -1.
       -4    1    3    3    0  502  0.29523318551E+03  0.11495014654E+04 -0.13728527989E+04  0.18147293664E+04  0.12699999809E+01 0.  1.
</event>
<event>
 5   0  0.1298250E-07  0.3594006E+04  0.7818609E-02  0.8091866E-01
        1   -1    0    0  501    0  0.00000000000E+00  0.00000000000E+00  0.17940965272E+04  0.17940965272E+04  0.50400001928E-02 0.  1.
       -1   -1    0    0    0  501  0.00000000000E+00  0.00000000000E+00 -0.17999137921E+04  0.17999137921E+04  0.50400001928E-02 0. -1.
    10030    2    1    2    0    0  0.00000000000E+00  0.00000000000E+00 -0.58172648980E+01  0.35940103193E+04  0.35940056114E+04 0.  0.
        1    1    3    3  502    0 -0.29828281599E+03 -0.49108337332E+03  0.16997631389E+04  0.17942492152E+04  0.50400001928E-02 0.  1.
       -1    1    3    3    0  502  0.29828281599E+03  0.49108337332E+03 -0.17055804038E+04  0.17997611041E+04  0.50400001928E-02 0. -1.
</event>
<event>
 5   0  0.3880259E-07  0.3621397E+04  0.7818609E-02  0.8085608E-01
        2   -1    0    0  501    0  0.00000000000E+00  0.00000000000E+00  0.19647688835E+04  0.19647688835E+04  0.25500000920E-02 0.  1.
       -2   -1    0    0    0  501  0.00000000000E+00  0.00000000000E+00 -0.16687101277E+04  0.16687101277E+04  0.25500000920E-02 0. -1.
    10030    2    1    2    0    0  0.00000000000E+00  0.00000000000E+00  0.29605875578E+03  0.36334790112E+04  0.36213973737E+04 0.  0.
        5    1    3    3  502    0  0.22369083567E+03 -0.18490695660E+03 -0.16452160272E+04  0.16706244457E+04  0.46999998093E+01 0. -1.
       -5    1    3    3    0  502 -0.22369083567E+03  0.18490695660E+03  0.19412747829E+04  0.19628545655E+04  0.46999998093E+01 0.  1.
</event>
<event>
 5   0  0.3993751E-07  0.3587586E+04  0.7818609E-02  0.8093341E-01
       -2   -1    0    0    0  501  0.00000000000E+00  0.00000000000E+00  0.18869307680E+04  0.18869307680E+04  0.25500000920E-02 0.  1.
        2   -1    0    0  501    0  0.00000000000E+00  0.00000000000E+00 -0.17052522449E+04  0.17052522449E+04  0.25500000920E-02 0. -1.
    10030    2    1    2    0    0  0.00000000000E+00  0.00000000000E+00  0.18167852306E+03  0.35921830129E+04  0.35875857777E+04 0.  0.
        1    1    3    3  502    0 -0.40024507819E+03 -0.24095186380E+03 -0.16432688851E+04  0.17083871201E+04  0.50400001928E-02 0. -1.
       -1    1    3    3    0  502  0.40024507819E+03  0.24095186380E+03  0.18249474082E+04  0.18837958928E+04  0.50400001928E-02 0.  1.
</event>
<event>
 5   0  0.4115358E-07  0.3614711E+04  0.7818609E-02  0.8087130E-01
        2   -1    0    0  501    0  0.00000000000E+00  0.00000000000E+00  0.23308953438E+04  0.23308953438E+04  0.25500000920E-02 0.  1.
       -2   -1    0    0    0  501  0.00000000000E+00  0.00000000000E+00 -0.14014073548E+04  0.14014073548E+04  0.25500000920E-02 0. -1.
    10030    2    1    2    0    0  0.00000000000E+00  0.00000000000E+00  0.92948798901E+03  0.37323026987E+04  0.36147109861E+04 0.  0.
        3    1    3    3  502    0  0.26081421218E+03  0.93869365276E+03  0.20365553124E+04  0.22575932711E+04  0.10100000352E+00 0.  1.
       -3    1    3    3    0  502 -0.26081421218E+03 -0.93869365276E+03 -0.11070673234E+04  0.14747094276E+04  0.10100000352E+00 0. -1.
</event>
<event>
 5   0  0.1298250E-07  0.3597173E+04  0.7818609E-02  0.8091140E-01
       -1   -1    0    0    0  501  0.00000000000E+00  0.00000000000E+00  0.20371522817E+04  0.20371522817E+04  0.50400001928E-02 0.  1.
        1   -1    0    0  501    0  0.00000000000E+00  0.00000000000E+00 -0.15879586816E+04  0.15879586816E+04  0.50400001928E-02 0. -1.
    10030    2    1    2    0    0  0.00000000000E+00  0.00000000000E+00  0.44919360009E+03  0.36251109633E+04  0.35971731410E+04 0.  0.
        1    1    3    3  502    0 -0.87694385058E+03  0.22423870587E+03  0.17908879192E+04  0.20066372501E+04  0.50400001928E-02 0.  1.
       -1    1    3    3    0  502  0.87694385058E+03 -0.22423870587E+03 -0.13416943191E+04  0.16184737132E+04  0.50400001928E-02 0. -1.
</event>
<event>
 5   0  0.1298250E-07  0.3564922E+04  0.7818609E-02  0.8098574E-01
       -1   -1    0    0    0  501  0.00000000000E+00  0.00000000000E+00  0.10535371181E+04  0.10535371181E+04  0.50400001928E-02 0.  1.
        1   -1    0    0  501    0  0.00000000000E+00  0.00000000000E+00 -0.30157153331E+04  0.30157153331E+04  0.50400001928E-02 0. -1.
    10030    2    1    2    0    0  0.00000000000E+00  0.00000000000E+00 -0.19621782150E+04  0.40692524512E+04  0.35649224626E+04 0.  0.
        2    1    3    3  502    0  0.12606900429E+04 -0.33186617692E+03 -0.23686649382E+04  0.27037100682E+04  0.25500000920E-02 0. -1.
       -2    1    3    3    0  502 -0.12606900429E+04  0.33186617692E+03  0.40648672317E+03  0.13655423830E+04  0.25500000920E-02 0.  1.
</event>
<event>
 5   0  0.3993751E-07  0.3665333E+04  0.7818609E-02  0.8075688E-01
       -2   -1    0    0    0  501  0.00000000000E+00  0.00000000000E+00  0.16158863101E+04  0.16158863101E+04  0.25500000920E-02 0. -1.
        2   -1    0    0  501    0  0.00000000000E+00  0.00000000000E+00 -0.20785285287E+04  0.20785285287E+04  0.25500000920E-02 0.  1.
    10030    2    1    2    0    0  0.00000000000E+00  0.00000000000E+00 -0.46264221863E+03  0.36944148388E+04  0.36653326150E+04 0.  0.
        1    1    3    3  502    0  0.59512483603E+03  0.76687935850E+03  0.13354863423E+04  0.16510000883E+04  0.50400001928E-02 0. -1.
       -1    1    3    3    0  502 -0.59512483603E+03 -0.76687935850E+03 -0.17981285609E+04  0.20434147505E+04  0.50400001928E-02 0.  1.
</event>
<event>
 5   0  0.4115358E-07  0.3627785E+04  0.7818609E-02  0.8084157E-01
        2   -1    0    0  501    0  0.00000000000E+00  0.00000000000E+00  0.21491002341E+04  0.21491002341E+04  0.25500000920E-02 0. -1.
       -2   -1    0    0    0  501  0.00000000000E+00  0.00000000000E+00 -0.15309689430E+04  0.15309689430E+04  0.25500000920E-02 0.  1.
    10030    2    1    2    0    0  0.00000000000E+00  0.00000000000E+00  0.61813129115E+03  0.36800691771E+04  0.36277848414E+04 0.  0.
        3    1    3    3  502    0 -0.17171338304E+04 -0.42525012185E+03 -0.97736974792E+02  0.17717050499E+04  0.10100000352E+00 0.  1.
       -3    1    3    3    0  502  0.17171338304E+04  0.42525012185E+03  0.71586826594E+03  0.19083641272E+04  0.10100000352E+00 0. -1.
</event>
<event>
 5   0  0.1361743E-07  0.3638129E+04  0.7818609E-02  0.8081813E-01
        1   -1    0    0  501    0  0.00000000000E+00  0.00000000000E+00  0.14745528986E+04  0.14745528986E+04  0.50400001928E-02 0.  1.
       -1   -1    0    0    0  501  0.00000000000E+00  0.00000000000E+00 -0.22440676623E+04  0.22440676623E+04  0.50400001928E-02 0. -1.
    10030    2    1    2    0    0  0.00000000000E+00  0.00000000000E+00 -0.76951476368E+03  0.37186205610E+04  0.36381294514E+04 0.  0.
        5    1    3    3  502    0  0.18240429377E+03 -0.77182341031E+03  0.12885296352E+04  0.15130477236E+04  0.46999998093E+01 0.  1.
       -5    1    3    3    0  502 -0.18240429377E+03  0.77182341031E+03 -0.20580443989E+04  0.22055728374E+04  0.46999998093E+01 0. -1.
</event>
<event>
 5   0  0.4115358E-07  0.3600642E+04  0.7818609E-02  0.8090345E-01
       -2   -1    0    0    0  501  0.00000000000E+00  0.00000000000E+00  0.30443763934E+04  0.30443763934E+04  0.25500000920E-02 0. -1.
        2   -1    0    0  501    0  0.00000000000E+00  0.00000000000E+00 -0.10646369300E+04  0.10646369300E+04  0.25500000920E-02 0.  1.
    10030    2    1    2    0    0  0.00000000000E+00  0.00000000000E+00  0.19797394634E+04  0.41090133234E+04  0.36006419080E+04 0.  0.
        3    1    3    3  502    0  0.50727912225E+03 -0.16994769208E+04  0.63701964211E+03  0.18845020421E+04  0.10100000352E+00 0. -1.
       -3    1    3    3    0  502 -0.50727912225E+03  0.16994769208E+04  0.13427198212E+04  0.22245112813E+04  0.10100000352E+00 0.  1.
</event>
<event>
 5   0  0.1348226E-07  0.3696859E+04  0.7818609E-02  0.8068658E-01
       -1   -1    0    0    0  501  0.00000000000E+00  0.00000000000E+00  0.27479072805E+04  0.27479072805E+04  0.50400001928E-02 0.  1.
        1   -1    0    0  501    0  0.00000000000E+00  0.00000000000E+00 -0.12433793153E+04  0.12433793153E+04  0.50400001928E-02 0. -1.
    10030    2    1    2    0    0  0.00000000000E+00  0.00000000000E+00  0.15045279652E+04  0.39912865958E+04  0.36968587060E+04 0.  0.
        4    1    3    3  502    0 -0.17922165984E+04 -0.43840641230E+03  0.87272493240E+03  0.20410514297E+04  0.12699999809E+01 0.  1.
       -4    1    3    3    0  502  0.17922165984E+04  0.43840641230E+03  0.63180303276E+03  0.19502351661E+04  0.12699999809E+01 0. -1.
</event>
<event>
 5   0  0.1348226E-07  0.3609661E+04  0.7818609E-02  0.8088282E-01
       -1   -1    0    0    0  501  0.00000000000E+00  0.00000000000E+00  0.17239128356E+04  0.17239128356E+04  0.50400001928E-02 0. -1.
        1   -1    0    0  501    0  0.00000000000E+00  0.00000000000E+00 -0.18895462542E+04  0.18895462542E+04  0.50400001928E-02 0.  1.
    10030    2    1    2    0    0  0.00000000000E+00  0.00000000000E+00 -0.16563341864E+03  0.36134590898E+04  0.36096609486E+04 0.  0.
        4    1    3    3  502    0 -0.23874894248E+03  0.81863201069E+03 -0.16751670300E+04  0.18797195583E+04  0.12699999809E+01 0.  1.
       -4    1    3    3    0  502  0.23874894248E+03 -0.81863201069E+03  0.15095336114E+04  0.17337395315E+04  0.12699999809E+01 0. -1.
</event>
<event>
 5   0  0.4115358E-07  0.3487078E+04  0.7818609E-02  0.8116859E-01
       -2   -1    0    0    0  501  0.00000000000E+00  0.00000000000E+00  0.19793387227E+04  0.19793387227E+04  0.25500000920E-02 0. -1.
        2   -1    0    0  501    0  0.00000000000E+00  0.00000000000E+00 -0.15358302843E+04  0.15358302843E+04  0.25500000920E-02 0.  1.
    10030    2    1    2    0    0  0.00000000000E+00  0.00000000000E+00  0.44350843842E+03  0.35151690069E+04  0.34870780623E+04 0.  0.
        3    1    3    3  502    0  0.23110314285E+03 -0.65028580780E+03 -0.13922837317E+04  0.15539415350E+04  0.10100000352E+00 0.  1.
       -3    1    3    3    0  502 -0.23110314285E+03  0.65028580780E+03  0.18357921701E+04  0.19612274719E+04  0.10100000352E+00 0. -1.
</event>
<event>
 5   0  0.1361743E-07  0.3478217E+04  0.7818609E-02  0.8118972E-01
        1   -1    0    0  501    0  0.00000000000E+00  0.00000000000E+00  0.10868558619E+04  0.10868558619E+04  0.50400001928E-02 0. -1.
       -1   -1    0    0    0  501  0.00000000000E+00  0.00000000000E+00 -0.27827966839E+04  0.27827966840E+04  0.50400001928E-02 0.  1.
    10030    2    1    2    0    0  0.00000000000E+00  0.00000000000E+00 -0.16959408221E+04  0.38696525458E+04  0.34782172953E+04 0.  0.
        5    1    3    3  502    0  0.41245042966E+03  0.12344661302E+04 -0.21312323876E+04  0.24972375865E+04  0.46999998093E+01 0.  1.
       -5    1    3    3    0  502 -0.41245042966E+03 -0.12344661302E+04  0.43529156554E+03  0.13724149593E+04  0.46999998093E+01 0. -1.
</event>
<event>
 5   0  0.1298250E-07  0.3606887E+04  0.7818609E-02  0.8088916E-01
       -1   -1    0    0    0  501  0.00000000000E+00  0.00000000000E+00  0.27718412285E+04  0.27718412285E+04  0.50400001928E-02 0. -1.
        1   -1    0    0  501    0  0.00000000000E+00  0.00000000000E+00 -0.11733746308E+04  0.11733746308E+04  0.50400001928E-02 0.  1.
    10030    2    1    2    0    0  0.00000000000E+00  0.00000000000E+00  0.15984665978E+04  0.39452158593E+04  0.36068868450E+04 0.  0.
        1    1    3    3  502    0 -0.89887972222E+03 -0.11734260913E+04 -0.33087770112E+03  0.15147255857E+04  0.50400001928E-02 0.  1.
       -1    1    3    3    0  502  0.89887972222E+03  0.11734260913E+04  0.19293442989E+04  0.24304902737E+04  0.50400001928E-02 0. -1.
</event>
<event>
 5   0  0.1348226E-07  0.3603545E+04  0.7818609E-02  0.8089680E-01
       -1   -1    0    0    0  501  0.00000000000E+00  0.00000000000E+00  0.16789940259E+04  0.16789940259E+04  0.50400001928E-02 0. -1.
        1   -1    0    0  501    0  0.00000000000E+00  0.00000000000E+00 -0.19335288845E+04  0.19335288845E+04  0.50400001928E-02 0.  1.
    10030    2    1    2    0    0  0.00000000000E+00  0.00000000000E+00 -0.25453485869E+03  0.36125229104E+04  0.36035446138E+04 0.  0.
        4    1    3    3  502    0 -0.44864099208E+03  0.10188264633E+03  0.16191185511E+04  0.16832127937E+04  0.12699999809E+01 0. -1.
       -4    1    3    3    0  502  0.44864099208E+03 -0.10188264633E+03 -0.18736534098E+04  0.19293101167E+04  0.12699999809E+01 0.  1.
</event>
<event>
 5   0  0.4120440E-07  0.3479626E+04  0.7818609E-02  0.8118635E-01
       -2   -1    0    0    0  501  0.00000000000E+00  0.00000000000E+00  0.12428151360E+04  0.12428151360E+04  0.25500000920E-02 0. -1.
        2   -1    0    0  501    0  0.00000000000E+00  0.00000000000E+00 -0.24355590708E+04  0.24355590708E+04  0.25500000920E-02 0.  1.
    10030    2    1    2    0    0  0.00000000000E+00  0.00000000000E+00 -0.11927439348E+04  0.36783742068E+04  0.34796262315E+04 0.  0.
        2    1    3    3  502    0  0.79975955227E+03  0.95475888087E+02  0.10338592547E+04  0.13105708471E+04  0.25500000920E-02 0. -1.
       -2    1    3    3    0  502 -0.79975955227E+03 -0.95475888087E+02 -0.22266031895E+04  0.23678033597E+04  0.25500000920E-02 0.  1.
</event>
<event>
 5   0  0.4120440E-07  0.3594245E+04  0.7818609E-02  0.8091811E-01
       -2   -1    0    0    0  501  0.00000000000E+00  0.00000000000E+00  0.18414428558E+04  0.18414428558E+04  0.25500000920E-02 0.  1.
        2   -1    0    0  501    0  0.00000000000E+00  0.00000000000E+00 -0.17538690982E+04  0.17538690982E+04  0.25500000920E-02 0. -1.
    10030    2    1    2    0    0  0.00000000000E+00  0.00000000000E+00  0.87573757603E+02  0.35953119540E+04  0.35942452453E+04 0.  0.
        2    1    3    3  502    0 -0.60681760116E+03 -0.53363559685E+03 -0.15618858177E+04  0.17585453815E+04  0.25500000920E-02 0. -1.
       -2    1    3    3    0  502  0.60681760116E+03  0.53363559685E+03  0.16494595753E+04  0.18367665725E+04  0.25500000920E-02 0.  1.
</event>
<event>
 5   0  0.4120440E-07  0.3162519E+04  0.7818609E-02  0.8198786E-01
        2   -1    0    0  501    0  0.00000000000E+00  0.00000000000E+00  0.19016758798E+04  0.19016758798E+04  0.25500000920E-02 0. -1.
       -2   -1    0    0    0  501  0.00000000000E+00  0.00000000000E+00 -0.13148306961E+04  0.13148306961E+04  0.25500000920E-02 0.  1.
    10030    2    1    2    0    0  0.00000000000E+00  0.00000000000E+00  0.58684518369E+03  0.32165065759E+04  0.31625191356E+04 0.  0.
        2    1    3    3  502    0 -0.54439007605E+03 -0.51206132619E+03 -0.11238557401E+04  0.13496736944E+04  0.25500000920E-02 0.  1.
       -2    1    3    3    0  502  0.54439007605E+03  0.51206132619E+03  0.17107009238E+04  0.18668328815E+04  0.25500000920E-02 0. -1.
</event>
<event>
 5   0  0.1298250E-07  0.3594604E+04  0.7818609E-02  0.8091729E-01
        1   -1    0    0  501    0  0.00000000000E+00  0.00000000000E+00  0.16655602451E+04  0.16655602451E+04  0.50400001928E-02 0.  1.
       -1   -1    0    0    0  501  0.00000000000E+00  0.00000000000E+00 -0.19394640563E+04  0.19394640564E+04  0.50400001928E-02 0. -1.
    10030    2    1    2    0    0  0.00000000000E+00  0.00000000000E+00 -0.27390381123E+03  0.36050243015E+04  0.35946038608E+04 0.  0.
        2    1    3    3  502    0 -0.10270175549E+04 -0.10619577880E+04  0.88962417385E+03  0.17245145903E+04  0.25500000920E-02 0.  1.
       -2    1    3    3    0  502  0.10270175549E+04  0.10619577880E+04 -0.11635279851E+04  0.18805097111E+04  0.25500000920E-02 0. -1.
</event>
<event>
 5   0  0.1348226E-07  0.3608567E+04  0.7818609E-02  0.8088532E-01
       -1   -1    0    0    0  501  0.00000000000E+00  0.00000000000E+00  0.11875334226E+04  0.11875334226E+04  0.50400001928E-02 0. -1.
        1   -1    0    0  501    0  0.00000000000E+00  0.00000000000E+00 -0.27413453579E+04  0.27413453579E+04  0.50400001928E-02 0.  1.
    10030    2    1    2    0    0  0.00000000000E+00  0.00000000000E+00 -0.15538119353E+04  0.39288787805E+04  0.36085671591E+04 0.  0.
        4    1    3    3  502    0  0.10633771497E+04 -0.30368118630E+03  0.77527792996E+03  0.13505742138E+04  0.12699999809E+01 0. -1.
       -4    1    3    3    0  502 -0.10633771497E+04  0.30368118630E+03 -0.23290898653E+04  0.25783045668E+04  0.12699999809E+01 0.  1.
</event>
<event>
 5   0  0.1370997E-07  0.3575461E+04  0.7818609E-02  0.8096136E-01
       -1   -1    0    0    0  501  0.00000000000E+00  0.00000000000E+00  0.17402972361E+04  0.17402972361E+04  0.50400001928E-02 0. -1.
        1   -1    0    0  501    0  0.00000000000E+00  0.00000000000E+00 -0.18364567474E+04  0.18364567474E+04  0.50400001928E-02 0.  1.
    10030    2    1    2    0    0  0.00000000000E+00  0.00000000000E+00 -0.96159511338E+02  0.35767539835E+04  0.35754611460E+04 0.  0.
        3    1    3    3  502    0 -0.77264387312E+03  0.10664502991E+04  0.11613593864E+04  0.17558617342E+04  0.10100000352E+00 0. -1.
       -3    1    3    3    0  502  0.77264387312E+03 -0.10664502991E+04 -0.12575188977E+04  0.18208922493E+04  0.10100000352E+00 0.  1.
</event>
<event>
 5   0  0.3880259E-07  0.3575372E+04  0.7818609E-02  0.8096156E-01
        2   -1    0    0  501    0  0.00000000000E+00  0.00000000000E+00  0.29613311088E+04  0.29613311088E+04  0.25500000920E-02 0.  1.
       -2   -1    0    0    0  501  0.00000000000E+00  0.00000000000E+00 -0.10791840632E+04  0.10791840632E+04  0.25500000920E-02 0. -1.
    10030    2    1    2    0    0  0.00000000000E+00  0.00000000000E+00  0.18821470455E+04  0.40405151720E+04  0.35753720581E+04 0.  0.
        5    1    3    3  502    0 -0.14471643597E+03 -0.17796273362E+04  0.10407717653E+04  0.20666988799E+04  0.46999998093E+01 0. -1.
       -5    1    3    3    0  502  0.14471643597E+03  0.17796273362E+04  0.84137528020E+03  0.19738162921E+04  0.46999998093E+01 0.  1.
</event>
<event>
 5   0  0.1348226E-07  0.3565090E+04  0.7818609E-02  0.8098535E-01
       -1   -1    0    0    0  501  0.00000000000E+00  0.00000000000E+00  0.16553857624E+04  0.16553857624E+04  0.50400001928E-02 0. -1.
        1   -1    0    0  501    0  0.00000000000E+00  0.00000000000E+00 -0.19194718576E+04  0.19194718576E+04  0.50400001928E-02 0.  1.
    10030    2    1    2    0    0  0.00000000000E+00  0.00000000000E+00 -0.26408609523E+03  0.35748576200E+04  0.35650898358E+04 0.  0.
        4    1    3    3  502    0  0.17526493452E+04 -0.24655343475E+03  0.80425311039E+02  0.17717330970E+04  0.12699999809E+01 0.  1.
       -4    1    3    3    0  502 -0.17526493452E+04  0.24655343475E+03 -0.34451140627E+03  0.18031245230E+04  0.12699999809E+01 0. -1.
</event>
<event>
 5   0  0.3880259E-07  0.3394832E+04  0.7818609E-02  0.8139176E-01
       -2   -1    0    0    0  501  0.00000000000E+00  0.00000000000E+00  0.14344255108E+04  0.14344255108E+04  0.25500000920E-02 0. -1.
        2   -1    0    0  501    0  0.00000000000E+00  0.00000000000E+00 -0.20086234618E+04  0.20086234618E+04  0.25500000920E-02 0.  1.
    10030    2    1    2    0    0  0.00000000000E+00  0.00000000000E+00 -0.57419795102E+03  0.34430489725E+04  0.33948317985E+04 0.  0.
        5    1    3    3  502    0 -0.13065795422E+04  0.83549026236E+03 -0.98682898185E+03  0.18382185964E+04  0.46999998093E+01 0.  1.
       -5    1    3    3    0  502  0.13065795422E+04 -0.83549026236E+03  0.41263103084E+03  0.16048303762E+04  0.46999998093E+01 0. -1.
</event>
<event>
 5   0  0.1348226E-07  0.3609994E+04  0.7818609E-02  0.8088206E-01
       -1   -1    0    0    0  501  0.00000000000E+00  0.00000000000E+00  0.17467476325E+04  0.17467476325E+04  0.50400001928E-02 0.  1.
        1   -1    0    0  501    0  0.00000000000E+00  0.00000000000E+00 -0.18651885494E+04  0.18651885494E+04  0.50400001928E-02 0. -1.
    10030    2    1    2    0    0  0.00000000000E+00  0.00000000000E+00 -0.11844091685E+03  0.36119361819E+04  0.36099937301E+04 0.  0.
        4    1    3    3  502    0  0.12485996356E+04  0.10246970770E+04  0.74682267845E+03  0.17795367025E+04  0.12699999809E+01 0.  1.
       -4    1    3    3    0  502 -0.12485996356E+04 -0.10246970770E+04 -0.86526359530E+03  0.18323994794E+04  0.12699999809E+01 0. -1.
</event>
<event>
 5   0  0.1298250E-07  0.3408347E+04  0.7818609E-02  0.8135861E-01
       -3   -1    0    0    0  501  0.00000000000E+00  0.00000000000E+00  0.13005579484E+04  0.13005579523E+04  0.10100000352E+00 0.  1.
        3   -1    0    0  501    0  0.00000000000E+00  0.00000000000E+00 -0.22330474095E+04  0.22330474117E+04  0.10100000352E+00 0. -1.
    10030    2    1    2    0    0  0.00000000000E+00  0.00000000000E+00 -0.93248946108E+03  0.35336053640E+04  0.34083471469E+04 0.  0.
        1    1    3    3  502    0  0.77533994795E+03  0.48471188217E+03 -0.19571877047E+04  0.21602502992E+04  0.50400001928E-02 0. -1.
       -1    1    3    3    0  502 -0.77533994795E+03 -0.48471188217E+03  0.10246982436E+04  0.13733550648E+04  0.50400001928E-02 0.  1.
</event>
<event>
 5   0  0.1370997E-07  0.3597473E+04  0.7818609E-02  0.8091071E-01
        1   -1    0    0  501    0  0.00000000000E+00  0.00000000000E+00  0.20830366445E+04  0.20830366445E+04  0.50400001928E-02 0. -1.
       -1   -1    0    0    0  501  0.00000000000E+00  0.00000000000E+00 -0.15532386252E+04  0.15532386253E+04  0.50400001928E-02 0.  1.
    10030    2    1    2    0    0  0.00000000000E+00  0.00000000000E+00  0.52979801923E+03  0.36362752697E+04  0.35974729875E+04 0.  0.
        3    1    3    3  502    0  0.54774118584E+03 -0.60529665930E+03 -0.13552142008E+04  0.15820903870E+04  0.10100000352E+00 0.  1.
       -3    1    3    3    0  502 -0.54774118584E+03  0.60529665930E+03  0.18850122200E+04  0.20541848827E+04  0.10100000352E+00 0. -1.
</event>
<event>
 5   0  0.1370997E-07  0.3605515E+04  0.7818609E-02  0.8089230E-01
       -1   -1    0    0    0  501  0.00000000000E+00  0.00000000000E+00  0.13569746825E+04  0.13569746825E+04  0.50400001928E-02 0.  1.
        1   -1    0    0  501    0  0.00000000000E+00  0.00000000000E+00 -0.23949853872E+04  0.23949853872E+04  0.50400001928E-02 0. -1.
    10030    2    1    2    0    0  0.00000000000E+00  0.00000000000E+00 -0.10380107047E+04  0.37519600697E+04  0.36055149621E+04 0.  0.
        3    1    3    3  502    0  0.15291573651E+03 -0.17814002033E+04 -0.27906557189E+03  0.18095987152E+04  0.10100000352E+00 0.  1.
       -3    1    3    3    0  502 -0.15291573651E+03  0.17814002033E+04 -0.75894513279E+03  0.19423613545E+04  0.10100000352E+00 0. -1.
</event>
<event>
 5   0  0.4200635E-07  0.3604617E+04  0.7818609E-02  0.8089435E-01
       -2   -1    0    0    0  501  0.00000000000E+00  0.00000000000E+00  0.19113502263E+04  0.19113502263E+04  0.25500000920E-02 0. -1.
        2   -1    0    0  501    0  0.00000000000E+00  0.00000000000E+00 -0.16994875438E+04  0.16994875438E+04  0.25500000920E-02 0.  1.
    10030    2    1    2    0    0  0.00000000000E+00  0.00000000000E+00  0.21186268256E+03  0.36108377701E+04  0.36046169846E+04 0.  0.
        4    1    3    3  502    0  0.56570255348E+03 -0.40720822764E+03  0.17708696176E+04  0.19031076520E+04  0.12699999809E+01 0. -1.
       -4    1    3    3    0  502 -0.56570255348E+03  0.40720822764E+03 -0.15590069351E+04  0.17077301181E+04  0.12699999809E+01 0.  1.
</event>
<event>
 5   0  0.4120440E-07  0.3607084E+04  0.7818609E-02  0.8088871E-01
        2   -1    0    0  501    0  0.00000000000E+00  0.00000000000E+00  0.18629198186E+04  0.18629198186E+04  0.25500000920E-02 0.  1.
       -2   -1    0    0    0  501  0.00000000000E+00  0.00000000000E+00 -0.17460570065E+04  0.17460570065E+04  0.25500000920E-02 0. -1.
    10030    2    1    2    0    0  0.00000000000E+00  0.00000000000E+00  0.11686281213E+03  0.36089768251E+04  0.36070842529E+04 0.  0.
        2    1    3    3  502    0  0.12447659649E+03  0.16105594730E+02  0.18585447586E+04  0.18627781492E+04  0.25500000920E-02 0.  1.
       -2    1    3    3    0  502 -0.12447659649E+03 -0.16105594730E+02 -0.17416819465E+04  0.17461986760E+04  0.25500000920E-02 0. -1.
</event>
<event>
 5   0  0.1370997E-07  0.3603465E+04  0.7818609E-02  0.8089698E-01
        1   -1    0    0  501    0  0.00000000000E+00  0.00000000000E+00  0.20745018053E+04  0.20745018053E+04  0.50400001928E-02 0. -1.
       -1   -1    0    0    0  501  0.00000000000E+00  0.00000000000E+00 -0.15648289563E+04  0.15648289563E+04  0.50400001928E-02 0.  1.
    10030    2    1    2    0    0  0.00000000000E+00  0.00000000000E+00  0.50967284899E+03  0.36393307616E+04  0.36034652738E+04 0.  0.
        3    1    3    3  502    0 -0.98206027563E+03  0.14987267449E+04  0.64235394190E+02  0.17929725143E+04  0.10100000352E+00 0.  1.
       -3    1    3    3    0  502  0.98206027563E+03 -0.14987267449E+04  0.44543745481E+03  0.18463582473E+04  0.10100000352E+00 0. -1.
</event>
<event>
 5   0  0.4115358E-07  0.3600084E+04  0.7818609E-02  0.8090473E-01
        2   -1    0    0  501    0  0.00000000000E+00  0.00000000000E+00  0.27873196033E+04  0.27873196033E+04  0.25500000920E-02 0. -1.
       -2   -1    0    0    0  501  0.00000000000E+00  0.00000000000E+00 -0.11624610663E+04  0.11624610663E+04  0.25500000920E-02 0.  1.
    10030    2    1    2    0    0  0.00000000000E+00  0.00000000000E+00  0.16248585371E+04  0.39497806696E+04  0.36000836202E+04 0.  0.
        3    1    3    3  502    0  0.14681881698E+04 -0.18880907261E+03 -0.31122482658E+03  0.15126421489E+04  0.10100000352E+00 0.  1.
       -3    1    3    3    0  502 -0.14681881698E+04  0.18880907261E+03  0.19360833636E+04  0.24371385207E+04  0.10100000352E+00 0. -1.
</event>
<event>
 5   0  0.1298250E-07  0.3654674E+04  0.7818609E-02  0.8078081E-01
       -1   -1    0    0    0  501  0.00000000000E+00  0.00000000000E+00  0.10498677141E+04  0.10498677141E+04  0.50400001928E-02 0.  1.
        1   -1    0    0  501    0  0.00000000000E+00  0.00000000000E+00 -0.31805536272E+04  0.31805536272E+04  0.50400001928E-02 0. -1.
    10030    2    1    2    0    0  0.00000000000E+00  0.00000000000E+00 -0.21306859131E+04  0.42304213413E+04  0.36546740299E+04 0.  0.
        1    1    3    3  502    0  0.12075027623E+04 -0.13605571782E+04 -0.12657734987E+04  0.22161591337E+04  0.50400001928E-02 0. -1.
       -1    1    3    3    0  502 -0.12075027623E+04  0.13605571782E+04 -0.86491241445E+03  0.20142622076E+04  0.50400001928E-02 0.  1.
</event>
<event>
 5   0  0.1348226E-07  0.3595635E+04  0.7818609E-02  0.8091492E-01
       -1   -1    0    0    0  501  0.00000000000E+00  0.00000000000E+00  0.25725929201E+04  0.25725929201E+04  0.50400001928E-02 0.  1.
        1   -1    0    0  501    0  0.00000000000E+00  0.00000000000E+00 -0.12563775531E+04  0.12563775531E+04  0.50400001928E-02 0. -1.
    10030    2    1    2    0    0  0.00000000000E+00  0.00000000000E+00  0.13162153669E+04  0.38289704732E+04  0.35956351306E+04 0.  0.
        4    1    3    3  502    0  0.43919172051E+03  0.80384540282E+03 -0.98924231867E+03  0.13482057621E+04  0.12699999809E+01 0. -1.
       -4    1    3    3    0  502 -0.43919172051E+03 -0.80384540282E+03  0.23054576856E+04  0.24807647111E+04  0.12699999809E+01 0.  1.
</event>
<event>
 5   0  0.1361743E-07  0.3577019E+04  0.7818609E-02  0.8095776E-01
       -1   -1    0    0    0  501  0.00000000000E+00  0.00000000000E+00  0.17177457418E+04  0.17177457418E+04  0.50400001928E-02 0. -1.
        1   -1    0    0  501    0  0.00000000000E+00  0.00000000000E+00 -0.18621887059E+04  0.18621887060E+04  0.50400001928E-02 0.  1.
    10030    2    1    2    0    0  0.00000000000E+00  0.00000000000E+00 -0.14444296419E+03  0.35799344477E+04  0.35770192731E+04 0.  0.
        5    1    3    3  502    0  0.17294878718E+04 -0.43918356257E+03 -0.19370462967E+03  0.17948688181E+04  0.46999998093E+01 0. -1.
       -5    1    3    3    0  502 -0.17294878718E+04  0.43918356257E+03  0.49261665485E+02  0.17850656297E+04  0.46999998093E+01 0.  1.
</event>
<event>
 5   0  0.4115358E-07  0.3597168E+04  0.7818609E-02  0.8091141E-01
        2   -1    0    0  501    0  0.00000000000E+00  0.00000000000E+00  0.14599856904E+04  0.14599856904E+04  0.25500000920E-02 0.  1.
       -2   -1    0    0    0  501  0.00000000000E+00  0.00000000000E+00 -0.22157096088E+04  0.22157096088E+04  0.25500000920E-02 0. -1.
    10030    2    1    2    0    0  0.00000000000E+00  0.00000000000E+00 -0.75572391834E+03  0.36756952992E+04  0.35971679544E+04 0.  0.
        3    1    3    3  502    0 -0.13861205090E+04  0.26697675740E+03  0.76105384741E+03  0.16036862608E+04  0.10100000352E+00 0.  1.
       -3    1    3    3    0  502  0.13861205090E+04 -0.26697675740E+03 -0.15167777658E+04  0.20720090384E+04  0.10100000352E+00 0. -1.
</event>
<event>
 5   0  0.1298250E-07  0.3743926E+04  0.7818609E-02  0.8058296E-01
       -1   -1    0    0    0  501  0.00000000000E+00  0.00000000000E+00  0.11057502281E+04  0.11057502281E+04  0.50400001928E-02 0.  1.
        1   -1    0    0  501    0  0.00000000000E+00  0.00000000000E+00 -0.31691110545E+04  0.31691110545E+04  0.50400001928E-02 0. -1.
    10030    2    1    2    0    0  0.00000000000E+00  0.00000000000E+00 -0.20633608264E+04  0.42748612826E+04  0.37439258922E+04 0.  0.
        1    1    3    3  502    0 -0.32345535116E+03  0.74800863502E+03 -0.29559325626E+04  0.30662155170E+04  0.50400001928E-02 0. -1.
       -1    1    3    3    0  502  0.32345535116E+03 -0.74800863502E+03  0.89257173626E+03  0.12086457656E+04  0.50400001928E-02 0.  1.
</event>
<event>
 5   0  0.3993751E-07  0.3623998E+04  0.7818609E-02  0.8085017E-01
       -2   -1    0    0    0  501  0.00000000000E+00  0.00000000000E+00  0.11897396409E+04  0.11897396409E+04  0.25500000920E-02 0.  1.
        2   -1    0    0  501    0  0.00000000000E+00  0.00000000000E+00 -0.27597140964E+04  0.27597140964E+04  0.25500000920E-02 0. -1.
    10030    2    1    2    0    0  0.00000000000E+00  0.00000000000E+00 -0.15699744554E+04  0.39494537373E+04  0.36239984868E+04 0.  0.
        1    1    3    3  502    0 -0.17592042983E+04  0.12786993969E+03 -0.12372115972E+04  0.21544936808E+04  0.50400001928E-02 0. -1.
       -1    1    3    3    0  502  0.17592042983E+04 -0.12786993969E+03 -0.33276285825E+03  0.17949600565E+04  0.50400001928E-02 0.  1.
</event>
<event>
 5   0  0.1348226E-07  0.3674258E+04  0.7818609E-02  0.8073691E-01
       -1   -1    0    0    0  501  0.00000000000E+00  0.00000000000E+00  0.11656754442E+04  0.11656754442E+04  0.50400001928E-02 0.  1.
        1   -1    0    0  501    0  0.00000000000E+00  0.00000000000E+00 -0.28953537845E+04  0.28953537845E+04  0.50400001928E-02 0. -1.
    10030    2    1    2    0    0  0.00000000000E+00  0.00000000000E+00 -0.17296783403E+04  0.40610292287E+04  0.36742579163E+04 0.  0.
        4    1    3    3  502    0 -0.12295098285E+04  0.17576123602E+03 -0.23610166313E+04  0.26677682764E+04  0.12699999809E+01 0. -1.
       -4    1    3    3    0  502  0.12295098285E+04 -0.17576123602E+03  0.63133829098E+03  0.13932609523E+04  0.12699999809E+01 0.  1.
</event>
<event>
 5   0  0.1361743E-07  0.3591735E+04  0.7818609E-02  0.8092387E-01
        1   -1    0    0  501    0  0.00000000000E+00  0.00000000000E+00  0.15142401574E+04  0.15142401574E+04  0.50400001928E-02 0. -1.
       -1   -1    0    0    0  501  0.00000000000E+00  0.00000000000E+00 -0.21298739467E+04  0.21298739467E+04  0.50400001928E-02 0.  1.
    10030    2    1    2    0    0  0.00000000000E+00  0.00000000000E+00 -0.61563378931E+03  0.36441141041E+04  0.35917353244E+04 0.  0.
        5    1    3    3  502    0  0.16787162499E+04  0.40921144841E+02  0.33814340521E+03  0.17129290237E+04  0.46999998093E+01 0. -1.
       -5    1    3    3    0  502 -0.16787162499E+04 -0.40921144841E+02 -0.95377719452E+03  0.19311850803E+04  0.46999998093E+01 0.  1.
</event>
<event>
 5   0  0.1298250E-07  0.3586810E+04  0.7818609E-02  0.8093520E-01
       -1   -1    0    0    0  501  0.00000000000E+00  0.00000000000E+00  0.14024923297E+04  0.14024923297E+04  0.50400001928E-02 0. -1.
        1   -1    0    0  501    0  0.00000000000E+00  0.00000000000E+00 -0.22932755167E+04  0.22932755167E+04  0.50400001928E-02 0.  1.
    10030    2    1    2    0    0  0.00000000000E+00  0.00000000000E+00 -0.89078318703E+03  0.36957678464E+04  0.35868099042E+04 0.  0.
        2    1    3    3  502    0 -0.90217256295E+03  0.68123246378E+03  0.98913218780E+03  0.15021236594E+04  0.25500000920E-02 0. -1.
       -2    1    3    3    0  502  0.90217256295E+03 -0.68123246378E+03 -0.18799153748E+04  0.21936441871E+04  0.25500000920E-02 0.  1.
</event>
<event>
 5   0  0.1348226E-07  0.3617745E+04  0.7818609E-02  0.8086439E-01
       -1   -1    0    0    0  501  0.00000000000E+00  0.00000000000E+00  0.22205031726E+04  0.22205031726E+04  0.50400001928E-02 0.  1.
        1   -1    0    0  501    0  0.00000000000E+00  0.00000000000E+00 -0.14735488279E+04  0.14735488279E+04  0.50400001928E-02 0. -1.
    10030    2    1    2    0    0  0.00000000000E+00  0.00000000000E+00  0.74695434470E+03  0.36940520005E+04  0.36177450697E+04 0.  0.
        4    1    3    3  502    0 -0.17595412605E+04  0.41894436172E+03  0.39672600660E+03  0.18517270217E+04  0.12699999809E+01 0.  1.
       -4    1    3    3    0  502  0.17595412605E+04 -0.41894436172E+03  0.35022833809E+03  0.18423249788E+04  0.12699999809E+01 0. -1.
</event>
<event>
 5   0  0.1361743E-07  0.3606229E+04  0.7818609E-02  0.8089066E-01
       -1   -1    0    0    0  501  0.00000000000E+00  0.00000000000E+00  0.16469404033E+04  0.16469404034E+04  0.50400001928E-02 0. -1.
        1   -1    0    0  501    0  0.00000000000E+00  0.00000000000E+00 -0.19740984962E+04  0.19740984962E+04  0.50400001928E-02 0.  1.
    10030    2    1    2    0    0  0.00000000000E+00  0.00000000000E+00 -0.32715809283E+03  0.36210388995E+04  0.36062293735E+04 0.  0.
        5    1    3    3  502    0  0.10356315133E+03 -0.29894864842E+03  0.16188459820E+04  0.16494787128E+04  0.46999998093E+01 0. -1.
       -5    1    3    3    0  502 -0.10356315133E+03  0.29894864842E+03 -0.19460040748E+04  0.19715601867E+04  0.46999998093E+01 0.  1.
</event>
<event>
 5   0  0.4120440E-07  0.3542414E+04  0.7818609E-02  0.8103811E-01
        2   -1    0    0  501    0  0.00000000000E+00  0.00000000000E+00  0.15220955114E+04  0.15220955114E+04  0.25500000920E-02 0. -1.
       -2   -1    0    0    0  501  0.00000000000E+00  0.00000000000E+00 -0.20610892152E+04  0.20610892152E+04  0.25500000920E-02 0.  1.
    10030    2    1    2    0    0  0.00000000000E+00  0.00000000000E+00 -0.53899370375E+03  0.35831847266E+04  0.35424142293E+04 0.  0.
        2    1    3    3  502    0 -0.59785609279E+02  0.20841390384E+03 -0.20476150089E+04  0.20590623835E+04  0.25500000920E-02 0.  1.
       -2    1    3    3    0  502  0.59785609279E+02 -0.20841390384E+03  0.15086213052E+04  0.15241223431E+04  0.25500000920E-02 0. -1.
</event>
<event>
 5   0  0.1298250E-07  0.3600874E+04  0.7818609E-02  0.8090291E-01
        1   -1    0    0  501    0  0.00000000000E+00  0.00000000000E+00  0.25081360728E+04  0.25081360728E+04  0.50400001928E-02 0.  1.
       -1   -1    0    0    0  501  0.00000000000E+00  0.00000000000E+00 -0.12924235593E+04  0.12924235593E+04  0.50400001928E-02 0. -1.
    10030    2    1    2    0    0  0.00000000000E+00  0.00000000000E+00  0.12157125135E+04  0.38005596321E+04  0.36008744219E+04 0.  0.
        1    1    3    3  502    0 -0.17093729548E+04 -0.23515650623E+03  0.11504869014E+04  0.20738550073E+04  0.50400001928E-02 0.  1.
       -1    1    3    3    0  502  0.17093729548E+04  0.23515650623E+03  0.65225612042E+02  0.17267046248E+04  0.50400001928E-02 0. -1.
</event>
<event>
 5   0  0.1298250E-07  0.3585569E+04  0.7818609E-02  0.8093805E-01
        1   -1    0    0  501    0  0.00000000000E+00  0.00000000000E+00  0.13684243845E+04  0.13684243845E+04  0.50400001928E-02 0. -1.
       -1   -1    0    0    0  501  0.00000000000E+00  0.00000000000E+00 -0.23487426014E+04  0.23487426014E+04  0.50400001928E-02 0.  1.
    10030    2    1    2    0    0  0.00000000000E+00  0.00000000000E+00 -0.98031821696E+03  0.37171669859E+04  0.35855692149E+04 0.  0.
        1    1    3    3  502    0  0.13483233513E+04  0.79925072045E+03 -0.13923276392E+04  0.20965099162E+04  0.50400001928E-02 0.  1.
       -1    1    3    3    0  502 -0.13483233513E+04 -0.79925072045E+03  0.41200942222E+03  0.16206570698E+04  0.50400001928E-02 0. -1.
</event>
<event>
 5   0  0.1298250E-07  0.3578876E+04  0.7818609E-02  0.8095348E-01
       -1   -1    0    0    0  501  0.00000000000E+00  0.00000000000E+00  0.15250123313E+04  0.15250123313E+04  0.50400001928E-02 0. -1.
        1   -1    0    0  501    0  0.00000000000E+00  0.00000000000E+00 -0.20997135384E+04  0.20997135384E+04  0.50400001928E-02 0.  1.
    10030    2    1    2    0    0  0.00000000000E+00  0.00000000000E+00 -0.57470120709E+03  0.36247258697E+04  0.35788763813E+04 0.  0.
        1    1    3    3  502    0  0.52534996737E+03  0.33825831765E+03 -0.19856382193E+04  0.20816268676E+04  0.50400001928E-02 0.  1.
       -1    1    3    3    0  502 -0.52534996737E+03 -0.33825831765E+03  0.14109370123E+04  0.15430990021E+04  0.50400001928E-02 0. -1.
</event>
<event>
 5   0  0.4200635E-07  0.3371488E+04  0.7818609E-02  0.8144940E-01
       -2   -1    0    0    0  501  0.00000000000E+00  0.00000000000E+00  0.19440657051E+04  0.19440657051E+04  0.25500000920E-02 0.  1.
        2   -1    0    0  501    0  0.00000000000E+00  0.00000000000E+00 -0.14617469485E+04  0.14617469485E+04  0.25500000920E-02 0. -1.
    10030    2    1    2    0    0  0.00000000000E+00  0.00000000000E+00  0.48231875657E+03  0.34058126536E+04  0.33714875720E+04 0.  0.
        4    1    3    3  502    0 -0.76702211257E+03  0.71541736934E+03  0.15742866101E+04  0.18916989394E+04  0.12699999809E+01 0.  1.
       -4    1    3    3    0  502  0.76702211257E+03 -0.71541736934E+03 -0.10919678535E+04  0.15141137142E+04  0.12699999809E+01 0. -1.
</event>
<event>
 5   0  0.1370997E-07  0.3600094E+04  0.7818609E-02  0.8090470E-01
        1   -1    0    0  501    0  0.00000000000E+00  0.00000000000E+00  0.26123655547E+04  0.26123655547E+04  0.50400001928E-02 0. -1.
       -1   -1    0    0    0  501  0.00000000000E+00  0.00000000000E+00 -0.12403203041E+04  0.12403203041E+04  0.50400001928E-02 0.  1.
    10030    2    1    2    0    0  0.00000000000E+00  0.00000000000E+00  0.13720452506E+04  0.38526858589E+04  0.36000944650E+04 0.  0.
        3    1    3    3  502    0 -0.64578371178E+03 -0.41632407001E+03  0.24280576428E+04  0.25467285409E+04  0.10100000352E+00 0. -1.
       -3    1    3    3    0  502  0.64578371178E+03  0.41632407001E+03 -0.10560123922E+04  0.13059573180E+04  0.10100000352E+00 0.  1.
</event>
<event>
 5   0  0.4200635E-07  0.3587170E+04  0.7818609E-02  0.8093437E-01
       -2   -1    0    0    0  501  0.00000000000E+00  0.00000000000E+00  0.12776560568E+04  0.12776560568E+04  0.25500000920E-02 0.  1.
        2   -1    0    0  501    0  0.00000000000E+00  0.00000000000E+00 -0.25178507520E+04  0.25178507520E+04  0.25500000920E-02 0. -1.
    10030    2    1    2    0    0  0.00000000000E+00  0.00000000000E+00 -0.12401946952E+04  0.37955068088E+04  0.35871700620E+04 0.  0.
        4    1    3    3  502    0  0.85815544435E+02 -0.85728352969E+03 -0.22845612269E+04  0.24416226101E+04  0.12699999809E+01 0. -1.
       -4    1    3    3    0  502 -0.85815544435E+02  0.85728352969E+03  0.10443665317E+04  0.13538841987E+04  0.12699999809E+01 0.  1.
</event>
<event>
 5   0  0.4115358E-07  0.3613932E+04  0.7818609E-02  0.8087308E-01
        2   -1    0    0  501    0  0.00000000000E+00  0.00000000000E+00  0.21802243372E+04  0.21802243372E+04  0.25500000920E-02 0. -1.
       -2   -1    0    0    0  501  0.00000000000E+00  0.00000000000E+00 -0.14976103240E+04  0.14976103240E+04  0.25500000920E-02 0.  1.
    10030    2    1    2    0    0  0.00000000000E+00  0.00000000000E+00  0.68261401315E+03  0.36778346612E+04  0.36139321942E+04 0.  0.
        3    1    3    3  502    0  0.17030675153E+04  0.25942751088E+03  0.89627972779E+03  0.19419214597E+04  0.10100000352E+00 0. -1.
       -3    1    3    3    0  502 -0.17030675153E+04 -0.25942751088E+03 -0.21366571464E+03  0.17359132014E+04  0.10100000352E+00 0.  1.
</event>
<event>
 5   0  0.3993751E-07  0.3593482E+04  0.7818609E-02  0.8091986E-01
       -2   -1    0    0    0  501  0.00000000000E+00  0.00000000000E+00  0.17304639359E+04  0.17304639359E+04  0.25500000920E-02 0. -1.
        2   -1    0    0  501    0  0.00000000000E+00  0.00000000000E+00 -0.18655563960E+04  0.18655563960E+04  0.25500000920E-02 0.  1.
    10030    2    1    2    0    0  0.00000000000E+00  0.00000000000E+00 -0.13509246013E+03  0.35960203319E+04  0.35934819124E+04 0.  0.
        1    1    3    3  502    0 -0.36987883996E+03  0.47829466025E+03  0.16256010622E+04  0.17344033417E+04  0.50400001928E-02 0. -1.
       -1    1    3    3    0  502  0.36987883996E+03 -0.47829466025E+03 -0.17606935224E+04  0.18616169901E+04  0.50400001928E-02 0.  1.
</event>
<event>
 5   0  0.4200635E-07  0.3588623E+04  0.7818609E-02  0.8093103E-01
       -2   -1    0    0    0  501  0.00000000000E+00  0.00000000000E+00  0.23321006607E+04  0.23321006607E+04  0.25500000920E-02 0. -1.
        2   -1    0    0  501    0  0.00000000000E+00  0.00000000000E+00 -0.13805377504E+04  0.13805377504E+04  0.25500000920E-02 0.  1.
    10030    2    1    2    0    0  0.00000000000E+00  0.00000000000E+00  0.95156291022E+03  0.37126384111E+04  0.35886225769E+04 0.  0.
        4    1    3    3  502    0  0.82538405559E+03  0.32381097138E+03 -0.11380757325E+04  0.14426816594E+04  0.12699999809E+01 0.  1.
       -4    1    3    3    0  502 -0.82538405559E+03 -0.32381097138E+03  0.20896386428E+04  0.22699567517E+04  0.12699999809E+01 0. -1.
</event>
<event>
 5   0  0.1370997E-07  0.3639224E+04  0.7818609E-02  0.8081566E-01
        1   -1    0    0  501    0  0.00000000000E+00  0.00000000000E+00  0.19523283858E+04  0.19523283858E+04  0.50400001928E-02 0. -1.
       -1   -1    0    0    0  501  0.00000000000E+00  0.00000000000E+00 -0.16959176512E+04  0.16959176512E+04  0.50400001928E-02 0.  1.
    10030    2    1    2    0    0  0.00000000000E+00  0.00000000000E+00  0.25641073463E+03  0.36482460370E+04  0.36392241868E+04 0.  0.
        3    1    3    3  502    0 -0.43594343196E+03  0.16511800655E+04  0.75789140432E+03  0.18683794249E+04  0.10100000352E+00 0. -1.
       -3    1    3    3    0  502  0.43594343196E+03 -0.16511800655E+04 -0.50148066969E+03  0.17798666121E+04  0.10100000352E+00 0.  1.
</event>
<event>
 5   0  0.4115358E-07  0.3595522E+04  0.7818609E-02  0.8091518E-01
       -2   -1    0    0    0  501  0.00000000000E+00  0.00000000000E+00  0.17392263361E+04  0.17392263361E+04  0.25500000920E-02 0.  1.
        2   -1    0    0  501    0  0.00000000000E+00  0.00000000000E+00 -0.18582655955E+04  0.18582655955E+04  0.25500000920E-02 0. -1.
    10030    2    1    2    0    0  0.00000000000E+00  0.00000000000E+00 -0.11903925945E+03  0.35974919316E+04  0.35955219166E+04 0.  0.
        3    1    3    3  502    0  0.39345349909E+03 -0.95154528971E+03 -0.15339960773E+04  0.18475356748E+04  0.10100000352E+00 0. -1.
       -3    1    3    3    0  502 -0.39345349909E+03  0.95154528971E+03  0.14149568178E+04  0.17499562568E+04  0.10100000352E+00 0.  1.
</event>
<event>
 5   0  0.1370997E-07  0.3570873E+04  0.7818609E-02  0.8097196E-01
        1   -1    0    0  501    0  0.00000000000E+00  0.00000000000E+00  0.17873768109E+04  0.17873768109E+04  0.50400001928E-02 0. -1.
       -1   -1    0    0    0  501  0.00000000000E+00  0.00000000000E+00 -0.17834977984E+04  0.17834977984E+04  0.50400001928E-02 0.  1.
    10030    2    1    2    0    0  0.00000000000E+00  0.00000000000E+00  0.38790125283E+01  0.35708746093E+04  0.35708725024E+04 0.  0.
        3    1    3    3  502    0 -0.40080985892E+03 -0.16625319907E+04 -0.51101443341E+03  0.17848800869E+04  0.10100000352E+00 0.  1.
       -3    1    3    3    0  502  0.40080985892E+03  0.16625319907E+04  0.51489344594E+03  0.17859945224E+04  0.10100000352E+00 0. -1.
</event>
<event>
 5   0  0.4200635E-07  0.3618506E+04  0.7818609E-02  0.8086266E-01
        2   -1    0    0  501    0  0.00000000000E+00  0.00000000000E+00  0.21302368948E+04  0.21302368948E+04  0.25500000920E-02 0.  1.
       -2   -1    0    0    0  501  0.00000000000E+00  0.00000000000E+00 -0.15366349651E+04  0.15366349651E+04  0.25500000920E-02 0. -1.
    10030    2    1    2    0    0  0.00000000000E+00  0.00000000000E+00  0.59360192968E+03  0.36668718600E+04  0.36185060435E+04 0.  0.
        4    1    3    3  502    0 -0.12894757109E+03 -0.89733025910E+03  0.18834768078E+04  0.20902907856E+04  0.12699999809E+01 0.  1.
       -4    1    3    3    0  502  0.12894757109E+03  0.89733025910E+03 -0.12898748781E+04  0.15765810744E+04  0.12699999809E+01 0. -1.
</event>
<event>
 5   0  0.4120440E-07  0.3222275E+04  0.7818609E-02  0.8182959E-01
       -2   -1    0    0    0  501  0.00000000000E+00  0.00000000000E+00  0.14430100489E+04  0.14430100489E+04  0.25500000920E-02 0. -1.
        2   -1    0    0  501    0  0.00000000000E+00  0.00000000000E+00 -0.17988537347E+04  0.17988537347E+04  0.25500000920E-02 0.  1.
    10030    2    1    2    0    0  0.00000000000E+00  0.00000000000E+00 -0.35584368584E+03  0.32418637836E+04  0.32222749825E+04 0.  0.
        2    1    3    3  502    0  0.13040884265E+04 -0.91894681730E+03  0.48511109984E+02  0.15960774433E+04  0.25500000920E-02 0. -1.
       -2    1    3    3    0  502 -0.13040884265E+04  0.91894681730E+03 -0.40435479582E+03  0.16457863403E+04  0.25500000920E-02 0.  1.
</event>
<event>
 5   0  0.3993751E-07  0.3621991E+04  0.7818609E-02  0.8085473E-01
        2   -1    0    0  501    0  0.00000000000E+00  0.00000000000E+00  0.21994970105E+04  0.21994970105E+04  0.25500000920E-02 0. -1.
       -2   -1    0    0    0  501  0.00000000000E+00  0.00000000000E+00 -0.14911155719E+04  0.14911155719E+04  0.25500000920E-02 0.  1.
    10030    2    1    2    0    0  0.00000000000E+00  0.00000000000E+00  0.70838143860E+03  0.36906125824E+04  0.36219907469E+04 0.  0.
        1    1    3    3  502    0  0.14580071077E+04 -0.95115740420E+03 -0.15448591743E+03  0.17476701726E+04  0.50400001928E-02 0.  1.
       -1    1    3    3    0  502 -0.14580071077E+04  0.95115740420E+03  0.86286735603E+03  0.19429424098E+04  0.50400001928E-02 0. -1.
</event>
<event>
 5   0  0.4115358E-07  0.3596941E+04  0.7818609E-02  0.8091193E-01
       -2   -1    0    0    0  501  0.00000000000E+00  0.00000000000E+00  0.24248131843E+04  0.24248131843E+04  0.25500000920E-02 0.  1.
        2   -1    0    0  501    0  0.00000000000E+00  0.00000000000E+00 -0.13339153639E+04  0.13339153639E+04  0.25500000920E-02 0. -1.
    10030    2    1    2    0    0  0.00000000000E+00  0.00000000000E+00  0.10908978205E+04  0.37587285482E+04  0.35969406785E+04 0.  0.
        3    1    3    3  502    0 -0.26964432295E+03  0.58483683506E+03 -0.12092930005E+04  0.13700845798E+04  0.10100000352E+00 0. -1.
       -3    1    3    3    0  502  0.26964432295E+03 -0.58483683506E+03  0.23001908210E+04  0.23886439684E+04  0.10100000352E+00 0.  1.
</event>
<event>
 5   0  0.4120440E-07  0.3602485E+04  0.7818609E-02  0.8089923E-01
        2   -1    0    0  501    0  0.00000000000E+00  0.00000000000E+00  0.18627040862E+04  0.18627040862E+04  0.25500000920E-02 0. -1.
       -2   -1    0    0    0  501  0.00000000000E+00  0.00000000000E+00 -0.17418084677E+04  0.17418084677E+04  0.25500000920E-02 0.  1.
    10030    2    1    2    0    0  0.00000000000E+00  0.00000000000E+00  0.12089561844E+03  0.36045125539E+04  0.36024845594E+04 0.  0.
        2    1    3    3  502    0 -0.17036985710E+04  0.52481021261E+03 -0.19749407731E+03  0.17936048870E+04  0.25500000920E-02 0.  1.
       -2    1    3    3    0  502  0.17036985710E+04 -0.52481021261E+03  0.31838969575E+03  0.18109076670E+04  0.25500000920E-02 0. -1.
</event>
<event>
 5   0  0.1298250E-07  0.3591752E+04  0.7818609E-02  0.8092384E-01
        1   -1    0    0  501    0  0.00000000000E+00  0.00000000000E+00  0.20257017461E+04  0.20257017461E+04  0.50400001928E-02 0. -1.
       -1   -1    0    0    0  501  0.00000000000E+00  0.00000000000E+00 -0.15921252968E+04  0.15921252968E+04  0.50400001928E-02 0.  1.
    10030    2    1    2    0    0  0.00000000000E+00  0.00000000000E+00  0.43357644925E+03  0.36178270429E+04  0.35917522151E+04 0.  0.
        2    1    3    3  502    0  0.15483412906E+04  0.10564384298E+03 -0.69345889765E+03  0.16998254665E+04  0.25500000920E-02 0.  1.
       -2    1    3    3    0  502 -0.15483412906E+04 -0.10564384298E+03  0.11270353469E+04  0.19180015764E+04  0.25500000920E-02 0. -1.
</event>
<event>
 5   0  0.1298250E-07  0.3598982E+04  0.7818609E-02  0.8090725E-01
       -1   -1    0    0    0  501  0.00000000000E+00  0.00000000000E+00  0.18527912095E+04  0.18527912095E+04  0.50400001928E-02 0. -1.
        1   -1    0    0  501    0  0.00000000000E+00  0.00000000000E+00 -0.17477242677E+04  0.17477242677E+04  0.50400001928E-02 0.  1.
    10030    2    1    2    0    0  0.00000000000E+00  0.00000000000E+00  0.10506694174E+03  0.36005154772E+04  0.35989821671E+04 0.  0.
        2    1    3    3  502    0 -0.14658235286E+04  0.73056860199E+03  0.79837041458E+03  0.18220220685E+04  0.25500000920E-02 0.  1.
       -2    1    3    3    0  502  0.14658235286E+04 -0.73056860199E+03 -0.69330347284E+03  0.17784934087E+04  0.25500000920E-02 0. -1.
</event>
<event>
 5   0  0.1348226E-07  0.3528901E+04  0.7818609E-02  0.8106975E-01
        1   -1    0    0  501    0  0.00000000000E+00  0.00000000000E+00  0.14803792805E+04  0.14803792805E+04  0.50400001928E-02 0. -1.
       -1   -1    0    0    0  501  0.00000000000E+00  0.00000000000E+00 -0.21030324804E+04  0.21030324804E+04  0.50400001928E-02 0.  1.
    10030    2    1    2    0    0  0.00000000000E+00  0.00000000000E+00 -0.62265319989E+03  0.35834117609E+04  0.35289010812E+04 0.  0.
        4    1    3    3  502    0  0.19470769675E+03 -0.13592676137E+04  0.81383467695E+03  0.15961979912E+04  0.12699999809E+01 0. -1.
       -4    1    3    3    0  502 -0.19470769675E+03  0.13592676137E+04 -0.14364878768E+04  0.19872137696E+04  0.12699999809E+01 0.  1.
</event>
<event>
 5   0  0.1361743E-07  0.3598192E+04  0.7818609E-02  0.8090906E-01
       -1   -1    0    0    0  501  0.00000000000E+00  0.00000000000E+00  0.16095652858E+04  0.16095652858E+04  0.50400001928E-02 0.  1.
        1   -1    0    0  501    0  0.00000000000E+00  0.00000000000E+00 -0.20109444325E+04  0.20109444325E+04  0.50400001928E-02 0. -1.
    10030    2    1    2    0    0  0.00000000000E+00  0.00000000000E+00 -0.40137914675E+03  0.36205097183E+04  0.35981919627E+04 0.  0.
        5    1    3    3  502    0 -0.57545985888E+03  0.74695037593E+03  0.13410133940E+04  0.16393376486E+04  0.46999998093E+01 0.  1.
       -5    1    3    3    0  502  0.57545985888E+03 -0.74695037593E+03 -0.17423925408E+04  0.19811720696E+04  0.46999998093E+01 0. -1.
</event>
<event>
 5   0  0.1361743E-07  0.3590088E+04  0.7818609E-02  0.8092766E-01
        1   -1    0    0  501    0  0.00000000000E+00  0.00000000000E+00  0.25131386402E+04  0.25131386402E+04  0.50400001928E-02 0.  1.
       -1   -1    0    0    0  501  0.00000000000E+00  0.00000000000E+00 -0.12821348154E+04  0.12821348154E+04  0.50400001928E-02 0. -1.
    10030    2    1    2    0    0  0.00000000000E+00  0.00000000000E+00  0.12310038249E+04  0.37952734556E+04  0.35900877686E+04 0.  0.
        5    1    3    3  502    0 -0.25793481738E+03 -0.17759780308E+04  0.65688133981E+03  0.19110582201E+04  0.46999998093E+01 0.  1.
       -5    1    3    3    0  502  0.25793481738E+03  0.17759780308E+04  0.57412248506E+03  0.18842152355E+04  0.46999998093E+01 0. -1.
</event>
<event>
 5   0  0.4115358E-07  0.3719022E+04  0.7818609E-02  0.8063759E-01
        2   -1    0    0  501    0  0.00000000000E+00  0.00000000000E+00  0.15048208012E+04  0.15048208012E+04  0.25500000920E-02 0.  1.
       -2   -1    0    0    0  501  0.00000000000E+00  0.00000000000E+00 -0.22978026557E+04  0.22978026557E+04  0.25500000920E-02 0. -1.
    10030    2    1    2    0    0  0.00000000000E+00  0.00000000000E+00 -0.79298185455E+03  0.38026234569E+04  0.37190220399E+04 0.  0.
        3    1    3    3  502    0  0.92229520644E+01 -0.52022970171E+03 -0.22218550110E+04  0.22819648782E+04  0.10100000352E+00 0. -1.
       -3    1    3    3    0  502 -0.92229520644E+01  0.52022970171E+03  0.14288731564E+04  0.15206585786E+04  0.10100000352E+00 0.  1.
</event>
<event>
 5   0  0.4115358E-07  0.3586879E+04  0.7818609E-02  0.8093504E-01
        2   -1    0    0  501    0  0.00000000000E+00  0.00000000000E+00  0.18565310143E+04  0.18565310143E+04  0.25500000920E-02 0.  1.
       -2   -1    0    0    0  501  0.00000000000E+00  0.00000000000E+00 -0.17324916687E+04  0.17324916687E+04  0.25500000920E-02 0. -1.
    10030    2    1    2    0    0  0.00000000000E+00  0.00000000000E+00  0.12403934557E+03  0.35890226830E+04  0.35868785956E+04 0.  0.
        3    1    3    3  502    0 -0.34019529426E+02 -0.14183207014E+04 -0.10357384786E+04  0.17565719873E+04  0.10100000352E+00 0. -1.
       -3    1    3    3    0  502  0.34019529426E+02  0.14183207014E+04  0.11597778242E+04  0.18324506957E+04  0.10100000352E+00 0.  1.
</event>
<event>
 5   0  0.1298250E-07  0.3589193E+04  0.7818609E-02  0.8092972E-01
        3   -1    0    0  501    0  0.00000000000E+00  0.00000000000E+00  0.15359338769E+04  0.15359338802E+04  0.10100000352E+00 0.  1.
       -3   -1    0    0    0  501  0.00000000000E+00  0.00000000000E+00 -0.20968192553E+04  0.20968192577E+04  0.10100000352E+00 0. -1.
    10030    2    1    2    0    0  0.00000000000E+00  0.00000000000E+00 -0.56088537840E+03  0.36327531379E+04  0.35891925210E+04 0.  0.
        1    1    3    3  502    0 -0.74909545916E+03  0.14756971256E+04  0.42206303945E+03  0.17079119482E+04  0.50400001928E-02 0.  1.
       -1    1    3    3    0  502  0.74909545916E+03 -0.14756971256E+04 -0.98294841784E+03  0.19248411897E+04  0.50400001928E-02 0. -1.
</event>
<event>
 5   0  0.3993751E-07  0.3604244E+04  0.7818609E-02  0.8089520E-01
        2   -1    0    0  501    0  0.00000000000E+00  0.00000000000E+00  0.21467183207E+04  0.21467183207E+04  0.25500000920E-02 0.  1.
       -2   -1    0    0    0  501  0.00000000000E+00  0.00000000000E+00 -0.15128413353E+04  0.15128413353E+04  0.25500000920E-02 0. -1.
    10030    2    1    2    0    0  0.00000000000E+00  0.00000000000E+00  0.63387698537E+03  0.36595596560E+04  0.36042442818E+04 0.  0.
        1    1    3    3  502    0 -0.22028032490E+03 -0.57321656142E+03  0.20372087635E+04  0.21277500309E+04  0.50400001928E-02 0.  1.
       -1    1    3    3    0  502  0.22028032490E+03  0.57321656142E+03 -0.14033317782E+04  0.15318096251E+04  0.50400001928E-02 0. -1.
</event>
<event>
 5   0  0.1298250E-07  0.3607632E+04  0.7818609E-02  0.8088746E-01
       -1   -1    0    0    0  501  0.00000000000E+00  0.00000000000E+00  0.20422619082E+04  0.20422619082E+04  0.50400001928E-02 0. -1.
        1   -1    0    0  501    0  0.00000000000E+00  0.00000000000E+00 -0.15932102733E+04  0.15932102733E+04  0.50400001928E-02 0.  1.
    10030    2    1    2    0    0  0.00000000000E+00  0.00000000000E+00  0.44905163487E+03  0.36354721815E+04  0.36076322722E+04 0.  0.
        2    1    3    3  502    0 -0.91543419216E+03 -0.15220152660E+04  0.54192054067E+03  0.18569405220E+04  0.25500000920E-02 0. -1.
       -2    1    3    3    0  502  0.91543419216E+03  0.15220152660E+04 -0.92868905804E+02  0.17785316595E+04  0.25500000920E-02 0.  1.
</event>
<event>
 5   0  0.4115358E-07  0.3601265E+04  0.7818609E-02  0.8090202E-01
        2   -1    0    0  501    0  0.00000000000E+00  0.00000000000E+00  0.20693548619E+04  0.20693548619E+04  0.25500000920E-02 0.  1.
       -2   -1    0    0    0  501  0.00000000000E+00  0.00000000000E+00 -0.15668055012E+04  0.15668055012E+04  0.25500000920E-02 0. -1.
    10030    2    1    2    0    0  0.00000000000E+00  0.00000000000E+00  0.50254936071E+03  0.36361603631E+04  0.36012645454E+04 0.  0.
        3    1    3    3  502    0  0.89241271102E+03 -0.11963991315E+04  0.12682610936E+04  0.19586366534E+04  0.10100000352E+00 0.  1.
       -3    1    3    3    0  502 -0.89241271102E+03  0.11963991315E+04 -0.76571173284E+03  0.16775237097E+04  0.10100000352E+00 0. -1.
</event>
<event>
 5   0  0.4200635E-07  0.3608737E+04  0.7818609E-02  0.8088493E-01
       -2   -1    0    0    0  501  0.00000000000E+00  0.00000000000E+00  0.15764691139E+04  0.15764691139E+04  0.25500000920E-02 0.  1.
        2   -1    0    0  501    0  0.00000000000E+00  0.00000000000E+00 -0.20652132148E+04  0.20652132148E+04  0.25500000920E-02 0. -1.
    10030    2    1    2    0    0  0.00000000000E+00  0.00000000000E+00 -0.48874410090E+03  0.36416823287E+04  0.36087365361E+04 0.  0.
        4    1    3    3  502    0  0.69996734021E+03  0.15564455405E+04  0.34686606770E+03  0.17414920843E+04  0.12699999809E+01 0.  1.
       -4    1    3    3    0  502 -0.69996734021E+03 -0.15564455405E+04 -0.83561016860E+03  0.19001902444E+04  0.12699999809E+01 0. -1.
</event>
<event>
 5   0  0.3880259E-07  0.3594011E+04  0.7818609E-02  0.8091865E-01
       -2   -1    0    0    0  501  0.00000000000E+00  0.00000000000E+00  0.15314583728E+04  0.15314583728E+04  0.25500000920E-02 0. -1.
        2   -1    0    0  501    0  0.00000000000E+00  0.00000000000E+00 -0.21085976970E+04  0.21085976970E+04  0.25500000920E-02 0.  1.
    10030    2    1    2    0    0  0.00000000000E+00  0.00000000000E+00 -0.57713932420E+03  0.36400560698E+04  0.35940114623E+04 0.  0.
        5    1    3    3  502    0  0.63960415313E+03  0.11319099309E+04  0.96784489832E+03  0.16208205951E+04  0.46999998093E+01 0. -1.
       -5    1    3    3    0  502 -0.63960415313E+03 -0.11319099309E+04 -0.15449842225E+04  0.20192354747E+04  0.46999998093E+01 0.  1.
</event>
<event>
 5   0  0.1298250E-07  0.3622590E+04  0.7818609E-02  0.8085337E-01
        1   -1    0    0  501    0  0.00000000000E+00  0.00000000000E+00  0.17361136230E+04  0.17361136230E+04  0.50400001928E-02 0.  1.
       -1   -1    0    0    0  501  0.00000000000E+00  0.00000000000E+00 -0.18897316569E+04  0.18897316570E+04  0.50400001928E-02 0. -1.
    10030    2    1    2    0    0  0.00000000000E+00  0.00000000000E+00 -0.15361803398E+03  0.36258452799E+04  0.36225896115E+04 0.  0.
        1    1    3    3  502    0  0.14301547684E+04  0.29796078706E+02 -0.11889144212E+04  0.18600397761E+04  0.50400001928E-02 0. -1.
       -1    1    3    3    0  502 -0.14301547684E+04 -0.29796078706E+02  0.10352963872E+04  0.17658055038E+04  0.50400001928E-02 0.  1.
</event>
<event>
 5   0  0.1370997E-07  0.3612094E+04  0.7818609E-02  0.8087727E-01
       -1   -1    0    0    0  501  0.00000000000E+00  0.00000000000E+00  0.19552256959E+04  0.19552256959E+04  0.50400001928E-02 0. -1.
        1   -1    0    0  501    0  0.00000000000E+00  0.00000000000E+00 -0.16682506264E+04  0.16682506264E+04  0.50400001928E-02 0.  1.
    10030    2    1    2    0    0  0.00000000000E+00  0.00000000000E+00  0.28697506948E+03  0.36234763223E+04  0.36120944019E+04 0.  0.
        3    1    3    3  502    0 -0.13724814149E+04 -0.92226239703E+03  0.87209108486E+03  0.18694427067E+04  0.10100000352E+00 0. -1.
       -3    1    3    3    0  502  0.13724814149E+04  0.92226239703E+03 -0.58511601539E+03  0.17540336156E+04  0.10100000352E+00 0.  1.
</event>
<event>
 5   0  0.1348226E-07  0.3518510E+04  0.7818609E-02  0.8109417E-01
        1   -1    0    0  501    0  0.00000000000E+00  0.00000000000E+00  0.12764878655E+04  0.12764878655E+04  0.50400001928E-02 0. -1.
       -1   -1    0    0    0  501  0.00000000000E+00  0.00000000000E+00 -0.24246038335E+04  0.24246038335E+04  0.50400001928E-02 0.  1.
    10030    2    1    2    0    0  0.00000000000E+00  0.00000000000E+00 -0.11481159680E+04  0.37010916990E+04  0.35185095550E+04 0.  0.
        4    1    3    3  502    0 -0.13459168083E+04 -0.72687236029E+03  0.34002353384E+03  0.15669885448E+04  0.12699999809E+01 0. -1.
       -4    1    3    3    0  502  0.13459168083E+04  0.72687236029E+03 -0.14881395018E+04  0.21341031542E+04  0.12699999809E+01 0.  1.
</event>
<event>
 5   0  0.1361743E-07  0.3619628E+04  0.7818609E-02  0.8086010E-01
       -1   -1    0    0    0  501  0.00000000000E+00  0.00000000000E+00  0.12705975513E+04  0.12705975513E+04  0.50400001928E-02 0. -1.
        1   -1    0    0  501    0  0.00000000000E+00  0.00000000000E+00 -0.25778635235E+04  0.25778635235E+04  0.50400001928E-02 0.  1.
    10030    2    1    2    0    0  0.00000000000E+00  0.00000000000E+00 -0.13072659722E+04  0.38484610748E+04  0.36196282022E+04 0.  0.
        5    1    3    3  502    0  0.14684261037E+04 -0.10343797852E+04 -0.41782759744E+03  0.18441308937E+04  0.46999998093E+01 0. -1.
       -5    1    3    3    0  502 -0.14684261037E+04  0.10343797852E+04 -0.88943837479E+03  0.20043301810E+04  0.46999998093E+01 0.  1.
</event>
<event>
 5   0  0.4115358E-07  0.3603275E+04  0.7818609E-02  0.8089742E-01
       -2   -1    0    0    0  501  0.00000000000E+00  0.00000000000E+00  0.17175276534E+04  0.17175276534E+04  0.25500000920E-02 0.  1.
        2   -1    0    0  501    0  0.00000000000E+00  0.00000000000E+00 -0.18898661969E+04  0.18898661969E+04  0.25500000920E-02 0. -1.
    10030    2    1    2    0    0  0.00000000000E+00  0.00000000000E+00 -0.17233854352E+03  0.36073938503E+04  0.36032748740E+04 0.  0.
        3    1    3    3  502    0 -0.33883849520E+03  0.83568973895E+03  0.14753279310E+04  0.17290984297E+04  0.10100000352E+00 0.  1.
       -3    1    3    3    0  502  0.33883849520E+03 -0.83568973895E+03 -0.16476664745E+04  0.18782954206E+04  0.10100000352E+00 0. -1.
</event>
<event>
 5   0  0.1298250E-07  0.3629262E+04  0.7818609E-02  0.8083822E-01
        1   -1    0    0  501    0  0.00000000000E+00  0.00000000000E+00  0.17343863815E+04  0.17343863815E+04  0.50400001928E-02 0.  1.
       -1   -1    0    0    0  501  0.00000000000E+00  0.00000000000E+00 -0.18985880926E+04  0.18985880926E+04  0.50400001928E-02 0. -1.
    10030    2    1    2    0    0  0.00000000000E+00  0.00000000000E+00 -0.16420171110E+03  0.36329744740E+04  0.36292618157E+04 0.  0.
        2    1    3    3  502    0  0.74566228437E+02 -0.16581150109E+04  0.65212054630E+03  0.17833021950E+04  0.25500000920E-02 0. -1.
       -2    1    3    3    0  502 -0.74566228437E+02  0.16581150109E+04 -0.81632225740E+03  0.18496722790E+04  0.25500000920E-02 0.  1.
</event>
<event>
 5   0  0.1348226E-07  0.3545083E+04  0.7818609E-02  0.8103188E-01
        1   -1    0    0  501    0  0.00000000000E+00  0.00000000000E+00  0.12256496877E+04  0.12256496877E+04  0.50400001928E-02 0.  1.
       -1   -1    0    0    0  501  0.00000000000E+00  0.00000000000E+00 -0.25634597102E+04  0.25634597102E+04  0.50400001928E-02 0. -1.
    10030    2    1    2    0    0  0.00000000000E+00  0.00000000000E+00 -0.13378100225E+04  0.37891093979E+04  0.35450831264E+04 0.  0.
        4    1    3    3  502    0  0.56746603654E+03 -0.16779377137E+04 -0.73987845401E+03  0.19196130895E+04  0.12699999809E+01 0.  1.
       -4    1    3    3    0  502 -0.56746603654E+03  0.16779377137E+04 -0.59793156853E+03  0.18694963084E+04  0.12699999809E+01 0. -1.
</event>
<event>
 5   0  0.1370997E-07  0.3623103E+04  0.7818609E-02  0.8085220E-01
       -1   -1    0    0    0  501  0.00000000000E+00  0.00000000000E+00  0.12994049273E+04  0.12994049273E+04  0.50400001928E-02 0.  1.
        1   -1    0    0  501    0  0.00000000000E+00  0.00000000000E+00 -0.25255547879E+04  0.25255547880E+04  0.50400001928E-02 0. -1.
    10030    2    1    2    0    0  0.00000000000E+00  0.00000000000E+00 -0.12261498607E+04  0.38249597152E+04  0.36231027231E+04 0.  0.
        3    1    3    3  502    0  0.90669109910E+03 -0.26064262646E+03  0.10195977121E+04  0.13891014479E+04  0.10100000352E+00 0.  1.
       -3    1    3    3    0  502 -0.90669109910E+03  0.26064262646E+03 -0.22457475727E+04  0.24358582673E+04  0.10100000352E+00 0. -1.
</event>
<event>
 5   0  0.1348226E-07  0.3596001E+04  0.7818609E-02  0.8091408E-01
       -1   -1    0    0    0  501  0.00000000000E+00  0.00000000000E+00  0.24030860729E+04  0.24030860729E+04  0.50400001928E-02 0.  1.
        1   -1    0    0  501    0  0.00000000000E+00  0.00000000000E+00 -0.13452727054E+04  0.13452727054E+04  0.50400001928E-02 0. -1.
    10030    2    1    2    0    0  0.00000000000E+00  0.00000000000E+00  0.10578133675E+04  0.37483587783E+04  0.35960011694E+04 0.  0.
        4    1    3    3  502    0 -0.13412933840E+03 -0.57005518575E+02  0.23969185542E+04  0.24013455555E+04  0.12699999809E+01 0.  1.
       -4    1    3    3    0  502  0.13412933840E+03  0.57005518575E+02 -0.13391051867E+04  0.13470132228E+04  0.12699999809E+01 0. -1.
</event>
<event>
 5   0  0.4120440E-07  0.3606271E+04  0.7818609E-02  0.8089057E-01
        2   -1    0    0  501    0  0.00000000000E+00  0.00000000000E+00  0.13685419436E+04  0.13685419436E+04  0.25500000920E-02 0.  1.
       -2   -1    0    0    0  501  0.00000000000E+00  0.00000000000E+00 -0.23757385354E+04  0.23757385354E+04  0.25500000920E-02 0. -1.
    10030    2    1    2    0    0  0.00000000000E+00  0.00000000000E+00 -0.10071965918E+04  0.37442804790E+04  0.36062711116E+04 0.  0.
        2    1    3    3  502    0  0.13219026049E+04 -0.38027743266E+03  0.70689206257E+03  0.15465231362E+04  0.25500000920E-02 0.  1.
       -2    1    3    3    0  502 -0.13219026049E+04  0.38027743266E+03 -0.17140886543E+04  0.21977573428E+04  0.25500000920E-02 0. -1.
</event>
<event>
 5   0  0.3880259E-07  0.3594174E+04  0.7818609E-02  0.8091827E-01
       -2   -1    0    0    0  501  0.00000000000E+00  0.00000000000E+00  0.14542194246E+04  0.14542194246E+04  0.25500000920E-02 0.  1.
        2   -1    0    0  501    0  0.00000000000E+00  0.00000000000E+00 -0.22207944263E+04  0.22207944263E+04  0.25500000920E-02 0. -1.
    10030    2    1    2    0    0  0.00000000000E+00  0.00000000000E+00 -0.76657500170E+03  0.36750138510E+04  0.35941743936E+04 0.  0.
        5    1    3    3  502    0 -0.13323881572E+04  0.11307417438E+04  0.45263698099E+02  0.17481149805E+04  0.46999998093E+01 0. -1.
       -5    1    3    3    0  502  0.13323881572E+04 -0.11307417438E+04 -0.81183869980E+03  0.19268988705E+04  0.46999998093E+01 0.  1.
</event>
<event>
 5   0  0.4115358E-07  0.3647326E+04  0.7818609E-02  0.8079736E-01
        2   -1    0    0  501    0  0.00000000000E+00  0.00000000000E+00  0.12302424448E+04  0.12302424448E+04  0.25500000920E-02 0.  1.
       -2   -1    0    0    0  501  0.00000000000E+00  0.00000000000E+00 -0.27033263780E+04  0.27033263780E+04  0.25500000920E-02 0. -1.
    10030    2    1    2    0    0  0.00000000000E+00  0.00000000000E+00 -0.14730839332E+04  0.39335688227E+04  0.36473260628E+04 0.  0.
        3    1    3    3  502    0 -0.15317552451E+04  0.96863416270E+03 -0.95550417205E+03  0.20487836648E+04  0.10100000352E+00 0.  1.
       -3    1    3    3    0  502  0.15317552451E+04 -0.96863416270E+03 -0.51757976115E+03  0.18847851579E+04  0.10100000352E+00 0. -1.
</event>
<event>
 5   0  0.3880259E-07  0.3567447E+04  0.7818609E-02  0.8097989E-01
        2   -1    0    0  501    0  0.00000000000E+00  0.00000000000E+00  0.25451455998E+04  0.25451455998E+04  0.25500000920E-02 0.  1.
       -2   -1    0    0    0  501  0.00000000000E+00  0.00000000000E+00 -0.12500933122E+04  0.12500933122E+04  0.25500000920E-02 0. -1.
    10030    2    1    2    0    0  0.00000000000E+00  0.00000000000E+00  0.12950522877E+04  0.37952389120E+04  0.35674469823E+04 0.  0.
        5    1    3    3  502    0 -0.41520118282E+03 -0.89745876254E+02 -0.11954899941E+04  0.12687256443E+04  0.46999998093E+01 0. -1.
       -5    1    3    3    0  502  0.41520118282E+03  0.89745876254E+02  0.24905422818E+04  0.25265132677E+04  0.46999998093E+01 0.  1.
</event>
<event>
 5   0  0.1348226E-07  0.3604925E+04  0.7818609E-02  0.8089365E-01
       -1   -1    0    0    0  501  0.00000000000E+00  0.00000000000E+00  0.20249914963E+04  0.20249914963E+04  0.50400001928E-02 0.  1.
        1   -1    0    0  501    0  0.00000000000E+00  0.00000000000E+00 -0.16043872839E+04  0.16043872839E+04  0.50400001928E-02 0. -1.
    10030    2    1    2    0    0  0.00000000000E+00  0.00000000000E+00  0.42060421235E+03  0.36293787802E+04  0.36049247463E+04 0.  0.
        4    1    3    3  502    0 -0.70351576481E+03  0.10515885550E+04 -0.10821883797E+04  0.16649042683E+04  0.12699999809E+01 0. -1.
       -4    1    3    3    0  502  0.70351576481E+03 -0.10515885550E+04  0.15027925921E+04  0.19644745119E+04  0.12699999809E+01 0.  1.
</event>
<event>
 5   0  0.1361743E-07  0.3563879E+04  0.7818609E-02  0.8098816E-01
        1   -1    0    0  501    0  0.00000000000E+00  0.00000000000E+00  0.20552626844E+04  0.20552626844E+04  0.50400001928E-02 0.  1.
       -1   -1    0    0    0  501  0.00000000000E+00  0.00000000000E+00 -0.15449649158E+04  0.15449649158E+04  0.50400001928E-02 0. -1.
    10030    2    1    2    0    0  0.00000000000E+00  0.00000000000E+00  0.51029776860E+03  0.36002276002E+04  0.35638792011E+04 0.  0.
        5    1    3    3  502    0 -0.42768403724E+03  0.16412241412E+04 -0.29701187848E+03  0.17218503022E+04  0.46999998093E+01 0. -1.
       -5    1    3    3    0  502  0.42768403724E+03 -0.16412241412E+04  0.80730964708E+03  0.18783772980E+04  0.46999998093E+01 0.  1.
</event>
<event>
 5   0  0.1370997E-07  0.3533503E+04  0.7818609E-02  0.8105896E-01
        1   -1    0    0  501    0  0.00000000000E+00  0.00000000000E+00  0.16107686246E+04  0.16107686246E+04  0.50400001928E-02 0. -1.
       -1   -1    0    0    0  501  0.00000000000E+00  0.00000000000E+00 -0.19378391381E+04  0.19378391381E+04  0.50400001928E-02 0.  1.
    10030    2    1    2    0    0  0.00000000000E+00  0.00000000000E+00 -0.32707051358E+03  0.35486077627E+04  0.35335027852E+04 0.  0.
        3    1    3    3  502    0  0.15202540086E+04  0.86232190389E+03 -0.42278438550E+03  0.17981985328E+04  0.10100000352E+00 0. -1.
       -3    1    3    3    0  502 -0.15202540086E+04 -0.86232190389E+03  0.95713871921E+02  0.17504092299E+04  0.10100000352E+00 0.  1.
</event>
<event>
 5   0  0.1361743E-07  0.3592607E+04  0.7818609E-02  0.8092187E-01
        1   -1    0    0  501    0  0.00000000000E+00  0.00000000000E+00  0.16355980791E+04  0.16355980791E+04  0.50400001928E-02 0. -1.
       -1   -1    0    0    0  501  0.00000000000E+00  0.00000000000E+00 -0.19727987718E+04  0.19727987719E+04  0.50400001928E-02 0.  1.
    10030    2    1    2    0    0  0.00000000000E+00  0.00000000000E+00 -0.33720069279E+03  0.36083968509E+04  0.35926067871E+04 0.  0.
        5    1    3    3  502    0 -0.58220711380E+03 -0.79175808459E+03 -0.16788171992E+04  0.19453265192E+04  0.46999998093E+01 0.  1.
       -5    1    3    3    0  502  0.58220711380E+03  0.79175808459E+03  0.13416165064E+04  0.16630703317E+04  0.46999998093E+01 0. -1.
</event>
<event>
 5   0  0.4120440E-07  0.3605775E+04  0.7818609E-02  0.8089170E-01
        2   -1    0    0  501    0  0.00000000000E+00  0.00000000000E+00  0.19631457463E+04  0.19631457463E+04  0.25500000920E-02 0. -1.
       -2   -1    0    0    0  501  0.00000000000E+00  0.00000000000E+00 -0.16557117443E+04  0.16557117443E+04  0.25500000920E-02 0.  1.
    10030    2    1    2    0    0  0.00000000000E+00  0.00000000000E+00  0.30743400207E+03  0.36188574906E+04  0.36057750722E+04 0.  0.
        2    1    3    3  502    0 -0.14822896663E+03  0.17716130609E+04  0.45450221413E+03  0.18349814514E+04  0.25500000920E-02 0. -1.
       -2    1    3    3    0  502  0.14822896663E+03 -0.17716130609E+04 -0.14706821206E+03  0.17838760392E+04  0.25500000920E-02 0.  1.
</event>
<event>
 5   0  0.4115358E-07  0.3820786E+04  0.7818609E-02  0.8041709E-01
       -2   -1    0    0    0  501  0.00000000000E+00  0.00000000000E+00  0.16883096470E+04  0.16883096470E+04  0.25500000920E-02 0.  1.
        2   -1    0    0  501    0  0.00000000000E+00  0.00000000000E+00 -0.21616891340E+04  0.21616891340E+04  0.25500000920E-02 0. -1.
    10030    2    1    2    0    0  0.00000000000E+00  0.00000000000E+00 -0.47337948694E+03  0.38499987810E+04  0.38207855835E+04 0.  0.
        3    1    3    3  502    0  0.86281846442E+03 -0.16285805932E+04  0.27001703613E+03  0.18626968785E+04  0.10100000352E+00 0.  1.
       -3    1    3    3    0  502 -0.86281846442E+03  0.16285805932E+04 -0.74339652306E+03  0.19873019025E+04  0.10100000352E+00 0. -1.
</event>
<event>
 5   0  0.4115358E-07  0.3586835E+04  0.7818609E-02  0.8093514E-01
       -2   -1    0    0    0  501  0.00000000000E+00  0.00000000000E+00  0.16585266860E+04  0.16585266860E+04  0.25500000920E-02 0. -1.
        2   -1    0    0  501    0  0.00000000000E+00  0.00000000000E+00 -0.19392791933E+04  0.19392791933E+04  0.25500000920E-02 0.  1.
    10030    2    1    2    0    0  0.00000000000E+00  0.00000000000E+00 -0.28075250725E+03  0.35978058793E+04  0.35868349802E+04 0.  0.
        3    1    3    3  502    0  0.88265041145E+03 -0.91087220422E+03 -0.14121606353E+04  0.18981458299E+04  0.10100000352E+00 0.  1.
       -3    1    3    3    0  502 -0.88265041145E+03  0.91087220422E+03  0.11314081281E+04  0.16996600495E+04  0.10100000352E+00 0. -1.
</event>
<event>
 5   0  0.1298250E-07  0.3674695E+04  0.7818609E-02  0.8073593E-01
        1   -1    0    0  501    0  0.00000000000E+00  0.00000000000E+00  0.17865833281E+04  0.17865833282E+04  0.50400001928E-02 0. -1.
       -1   -1    0    0    0  501  0.00000000000E+00  0.00000000000E+00 -0.18895539662E+04  0.18895539662E+04  0.50400001928E-02 0.  1.
    10030    2    1    2    0    0  0.00000000000E+00  0.00000000000E+00 -0.10297063804E+03  0.36761372944E+04  0.36746948791E+04 0.  0.
        2    1    3    3  502    0 -0.17642398725E+04  0.80434820591E+02 -0.55847170256E+03  0.18522696161E+04  0.25500000920E-02 0. -1.
       -2    1    3    3    0  502  0.17642398725E+04 -0.80434820591E+02  0.45550106452E+03  0.18238676783E+04  0.25500000920E-02 0.  1.
</event>
<event>
 5   0  0.4200635E-07  0.3585485E+04  0.7818609E-02  0.8093825E-01
       -2   -1    0    0    0  501  0.00000000000E+00  0.00000000000E+00  0.11887525029E+04  0.11887525029E+04  0.25500000920E-02 0.  1.
        2   -1    0    0  501    0  0.00000000000E+00  0.00000000000E+00 -0.27036116897E+04  0.27036116897E+04  0.25500000920E-02 0. -1.
    10030    2    1    2    0    0  0.00000000000E+00  0.00000000000E+00 -0.15148591868E+04  0.38923641926E+04  0.35854847165E+04 0.  0.
        4    1    3    3  502    0 -0.14977345860E+04  0.37339911749E+03  0.23235635900E+03  0.15609698529E+04  0.12699999809E+01 0.  1.
       -4    1    3    3    0  502  0.14977345860E+04 -0.37339911749E+03 -0.17472155458E+04  0.23313943398E+04  0.12699999809E+01 0. -1.
</event>
<event>
 5   0  0.4115358E-07  0.3592037E+04  0.7818609E-02  0.8092318E-01
       -2   -1    0    0    0  501  0.00000000000E+00  0.00000000000E+00  0.12507130357E+04  0.12507130358E+04  0.25500000920E-02 0. -1.
        2   -1    0    0  501    0  0.00000000000E+00  0.00000000000E+00 -0.25790748371E+04  0.25790748371E+04  0.25500000920E-02 0.  1.
    10030    2    1    2    0    0  0.00000000000E+00  0.00000000000E+00 -0.13283618013E+04  0.38297878728E+04  0.35920370371E+04 0.  0.
        3    1    3    3  502    0 -0.73161084797E+03  0.29755751163E+03  0.10556200298E+04  0.13183810386E+04  0.10100000352E+00 0. -1.
       -3    1    3    3    0  502  0.73161084797E+03 -0.29755751163E+03 -0.23839818311E+04  0.25114068342E+04  0.10100000352E+00 0.  1.
</event>
<event>
 5   0  0.4115358E-07  0.3589730E+04  0.7818609E-02  0.8092848E-01
        2   -1    0    0  501    0  0.00000000000E+00  0.00000000000E+00  0.25448048236E+04  0.25448048236E+04  0.25500000920E-02 0.  1.
       -2   -1    0    0    0  501  0.00000000000E+00  0.00000000000E+00 -0.12659284385E+04  0.12659284385E+04  0.25500000920E-02 0. -1.
    10030    2    1    2    0    0  0.00000000000E+00  0.00000000000E+00  0.12788763850E+04  0.38107332621E+04  0.35897302387E+04 0.  0.
        3    1    3    3  502    0 -0.24488443596E+03  0.98821359263E+03 -0.92974296148E+03  0.13787517820E+04  0.10100000352E+00 0. -1.
       -3    1    3    3    0  502  0.24488443596E+03 -0.98821359263E+03  0.22086193465E+04  0.24319814801E+04  0.10100000352E+00 0.  1.
</event>
<event>
 5   0  0.4115358E-07  0.3581079E+04  0.7818609E-02  0.8094839E-01
        2   -1    0    0  501    0  0.00000000000E+00  0.00000000000E+00  0.11573403324E+04  0.11573403324E+04  0.25500000920E-02 0.  1.
       -2   -1    0    0    0  501  0.00000000000E+00  0.00000000000E+00 -0.27701725995E+04  0.27701725995E+04  0.25500000920E-02 0. -1.
    10030    2    1    2    0    0  0.00000000000E+00  0.00000000000E+00 -0.16128322671E+04  0.39275129318E+04  0.35810794334E+04 0.  0.
        3    1    3    3  502    0 -0.40482106471E+03 -0.22980440138E+03 -0.27026482318E+04  0.27424437337E+04  0.10100000352E+00 0. -1.
       -3    1    3    3    0  502  0.40482106471E+03  0.22980440138E+03  0.10898159647E+04  0.11850691982E+04  0.10100000352E+00 0.  1.
</event>
<event>
 5   0  0.3880259E-07  0.3605646E+04  0.7818609E-02  0.8089200E-01
       -2   -1    0    0    0  501  0.00000000000E+00  0.00000000000E+00  0.27884077907E+04  0.27884077907E+04  0.25500000920E-02 0.  1.
        2   -1    0    0  501    0  0.00000000000E+00  0.00000000000E+00 -0.11656008952E+04  0.11656008952E+04  0.25500000920E-02 0. -1.
    10030    2    1    2    0    0  0.00000000000E+00  0.00000000000E+00  0.16228068955E+04  0.39540086859E+04  0.36056459155E+04 0.  0.
        5    1    3    3  502    0  0.26365459339E+03 -0.76730990564E+03  0.25768768346E+04  0.27015911139E+04  0.46999998093E+01 0.  1.
       -5    1    3    3    0  502 -0.26365459339E+03  0.76730990564E+03 -0.95406993911E+03  0.12524175720E+04  0.46999998093E+01 0. -1.
</event>
<event>
 5   0  0.1370997E-07  0.3606039E+04  0.7818609E-02  0.8089110E-01
       -1   -1    0    0    0  501  0.00000000000E+00  0.00000000000E+00  0.14768144077E+04  0.14768144077E+04  0.50400001928E-02 0.  1.
        1   -1    0    0  501    0  0.00000000000E+00  0.00000000000E+00 -0.22012776614E+04  0.22012776614E+04  0.50400001928E-02 0. -1.
    10030    2    1    2    0    0  0.00000000000E+00  0.00000000000E+00 -0.72446325377E+03  0.36780920691E+04  0.36060385831E+04 0.  0.
        3    1    3    3  502    0  0.19206934003E+02  0.74495280772E+03  0.13123885627E+04  0.15092008951E+04  0.10100000352E+00 0.  1.
       -3    1    3    3    0  502 -0.19206934003E+02 -0.74495280772E+03 -0.20368518165E+04  0.21688911740E+04  0.10100000352E+00 0. -1.
</event>
<event>
 5   0  0.1298250E-07  0.3593492E+04  0.7818609E-02  0.8091984E-01
        1   -1    0    0  501    0  0.00000000000E+00  0.00000000000E+00  0.28625382777E+04  0.28625382777E+04  0.50400001928E-02 0.  1.
       -1   -1    0    0    0  501  0.00000000000E+00  0.00000000000E+00 -0.11277740051E+04  0.11277740051E+04  0.50400001928E-02 0. -1.
    10030    2    1    2    0    0  0.00000000000E+00  0.00000000000E+00  0.17347642726E+04  0.39903122828E+04  0.35934920388E+04 0.  0.
        2    1    3    3  502    0  0.64153844636E+03  0.90847230644E+02 -0.99352716015E+03  0.11861370138E+04  0.25500000920E-02 0. -1.
       -2    1    3    3    0  502 -0.64153844636E+03 -0.90847230644E+02  0.27282914327E+04  0.28041752690E+04  0.25500000920E-02 0.  1.
</event>
<event>
 5   0  0.1348226E-07  0.3604391E+04  0.7818609E-02  0.8089487E-01
       -1   -1    0    0    0  501  0.00000000000E+00  0.00000000000E+00  0.27154628370E+04  0.27154628370E+04  0.50400001928E-02 0.  1.
        1   -1    0    0  501    0  0.00000000000E+00  0.00000000000E+00 -0.11960790224E+04  0.11960790224E+04  0.50400001928E-02 0. -1.
    10030    2    1    2    0    0  0.00000000000E+00  0.00000000000E+00  0.15193838146E+04  0.39115418594E+04  0.36043907309E+04 0.  0.
        4    1    3    3  502    0 -0.79447267288E+03  0.13436446315E+04 -0.21780916030E+03  0.15760742898E+04  0.12699999809E+01 0.  1.
       -4    1    3    3    0  502  0.79447267288E+03 -0.13436446315E+04  0.17371929749E+04  0.23354675696E+04  0.12699999809E+01 0. -1.
</event>
<event>
 5   0  0.4115358E-07  0.3593065E+04  0.7818609E-02  0.8092082E-01
        2   -1    0    0  501    0  0.00000000000E+00  0.00000000000E+00  0.22434393224E+04  0.22434393224E+04  0.25500000920E-02 0.  1.
       -2   -1    0    0    0  501  0.00000000000E+00  0.00000000000E+00 -0.14386521164E+04  0.14386521164E+04  0.25500000920E-02 0. -1.
    10030    2    1    2    0    0  0.00000000000E+00  0.00000000000E+00  0.80478720598E+03  0.36820914389E+04  0.35930648362E+04 0.  0.
        3    1    3    3  502    0 -0.12840387042E+04  0.12404210806E+04  0.19710824704E+03  0.17961769184E+04  0.10100000352E+00 0.  1.
       -3    1    3    3    0  502  0.12840387042E+04 -0.12404210806E+04  0.60767895895E+03  0.18859145204E+04  0.10100000352E+00 0. -1.
</event>
<event>
 5   0  0.4115358E-07  0.3572207E+04  0.7818609E-02  0.8096888E-01
        2   -1    0    0  501    0  0.00000000000E+00  0.00000000000E+00  0.13274464684E+04  0.13274464684E+04  0.25500000920E-02 0. -1.
       -2   -1    0    0    0  501  0.00000000000E+00  0.00000000000E+00 -0.24032347489E+04  0.24032347489E+04  0.25500000920E-02 0.  1.
    10030    2    1    2    0    0  0.00000000000E+00  0.00000000000E+00 -0.10757882805E+04  0.37306812174E+04  0.35722068699E+04 0.  0.
        3    1    3    3  502    0 -0.97928182086E+02  0.17576756990E+04 -0.85320133003E+03  0.19562633544E+04  0.10100000352E+00 0.  1.
       -3    1    3    3    0  502  0.97928182086E+02 -0.17576756990E+04 -0.22258695043E+03  0.17744178630E+04  0.10100000352E+00 0. -1.
</event>
<event>
 5   0  0.3993751E-07  0.3603033E+04  0.7818609E-02  0.8089797E-01
       -2   -1    0    0    0  501  0.00000000000E+00  0.00000000000E+00  0.11893433873E+04  0.11893433873E+04  0.25500000920E-02 0. -1.
        2   -1    0    0  501    0  0.00000000000E+00  0.00000000000E+00 -0.27287847560E+04  0.27287847560E+04  0.25500000920E-02 0.  1.
    10030    2    1    2    0    0  0.00000000000E+00  0.00000000000E+00 -0.15394413687E+04  0.39181281434E+04  0.36030332250E+04 0.  0.
        1    1    3    3  502    0  0.97571586646E+03 -0.12182928175E+04 -0.17479466391E+04  0.23434112516E+04  0.50400001928E-02 0.  1.
       -1    1    3    3    0  502 -0.97571586646E+03  0.12182928175E+04  0.20850527037E+03  0.15747168917E+04  0.50400001928E-02 0. -1.
</event>
<event>
 5   0  0.1298250E-07  0.3198206E+04  0.7818609E-02  0.8189291E-01
       -1   -1    0    0    0  501  0.00000000000E+00  0.00000000000E+00  0.15416796711E+04  0.15416796711E+04  0.50400001928E-02 0. -1.
        1   -1    0    0  501    0  0.00000000000E+00  0.00000000000E+00 -0.16586650070E+04  0.16586650070E+04  0.50400001928E-02 0.  1.
    10030    2    1    2    0    0  0.00000000000E+00  0.00000000000E+00 -0.11698533590E+03  0.32003446780E+04  0.31982058235E+04 0.  0.
        1    1    3    3  502    0  0.11385689610E+03  0.67697734423E+03  0.13867267818E+04  0.15473438159E+04  0.50400001928E-02 0. -1.
       -1    1    3    3    0  502 -0.11385689610E+03 -0.67697734423E+03 -0.15037121176E+04  0.16530008621E+04  0.50400001928E-02 0.  1.
</event>
<event>
 5   0  0.4120440E-07  0.3604994E+04  0.7818609E-02  0.8089349E-01
       -2   -1    0    0    0  501  0.00000000000E+00  0.00000000000E+00  0.12749612711E+04  0.12749612711E+04  0.25500000920E-02 0. -1.
        2   -1    0    0  501    0  0.00000000000E+00  0.00000000000E+00 -0.25483096250E+04  0.25483096250E+04  0.25500000920E-02 0.  1.
    10030    2    1    2    0    0  0.00000000000E+00  0.00000000000E+00 -0.12733483539E+04  0.38232708961E+04  0.36049943571E+04 0.  0.
        2    1    3    3  502    0 -0.16328918348E+04  0.43426735306E+03 -0.13024352236E+04  0.21333685546E+04  0.25500000920E-02 0.  1.
       -2    1    3    3    0  502  0.16328918348E+04 -0.43426735306E+03  0.29086869685E+02  0.16899023416E+04  0.25500000920E-02 0. -1.
</event>
<event>
 5   0  0.4115358E-07  0.3623328E+04  0.7818609E-02  0.8085169E-01
       -2   -1    0    0    0  501  0.00000000000E+00  0.00000000000E+00  0.15947241618E+04  0.15947241618E+04  0.25500000920E-02 0. -1.
        2   -1    0    0  501    0  0.00000000000E+00  0.00000000000E+00 -0.20581154166E+04  0.20581154166E+04  0.25500000920E-02 0.  1.
    10030    2    1    2    0    0  0.00000000000E+00  0.00000000000E+00 -0.46339125488E+03  0.36528395784E+04  0.36233279634E+04 0.  0.
        3    1    3    3  502    0  0.34989392764E+03 -0.15540875353E+04 -0.11015748624E+04  0.19367707700E+04  0.10100000352E+00 0.  1.
       -3    1    3    3    0  502 -0.34989392764E+03  0.15540875353E+04  0.63818360752E+03  0.17160688084E+04  0.10100000352E+00 0. -1.
</event>
<event>
 5   0  0.1298250E-07  0.3608471E+04  0.7818609E-02  0.8088554E-01
       -1   -1    0    0    0  501  0.00000000000E+00  0.00000000000E+00  0.28336945106E+04  0.28336945106E+04  0.50400001928E-02 0.  1.
        1   -1    0    0  501    0  0.00000000000E+00  0.00000000000E+00 -0.11487710241E+04  0.11487710241E+04  0.50400001928E-02 0. -1.
    10030    2    1    2    0    0  0.00000000000E+00  0.00000000000E+00  0.16849234865E+04  0.39824655347E+04  0.36084712247E+04 0.  0.
        1    1    3    3  502    0 -0.16912099850E+04  0.73887763696E+02  0.15357645629E+03  0.16997753801E+04  0.50400001928E-02 0. -1.
       -1    1    3    3    0  502  0.16912099850E+04 -0.73887763696E+02  0.15313470302E+04  0.22826901546E+04  0.50400001928E-02 0.  1.
</event>
<event>
 5   0  0.4200635E-07  0.3553551E+04  0.7818609E-02  0.8101215E-01
        2   -1    0    0  501    0  0.00000000000E+00  0.00000000000E+00  0.22479699011E+04  0.22479699011E+04  0.25500000920E-02 0. -1.
       -2   -1    0    0    0  501  0.00000000000E+00  0.00000000000E+00 -0.14043477578E+04  0.14043477578E+04  0.25500000920E-02 0.  1.
    10030    2    1    2    0    0  0.00000000000E+00  0.00000000000E+00  0.84362214331E+03  0.36523176589E+04  0.35535511761E+04 0.  0.
        4    1    3    3  502    0  0.15109175740E+04  0.89022108126E+03  0.12827852617E+03  0.17583578937E+04  0.12699999809E+01 0.  1.
       -4    1    3    3    0  502 -0.15109175740E+04 -0.89022108126E+03  0.71534361714E+03  0.18939597653E+04  0.12699999809E+01 0. -1.
</event>
<event>
 5   0  0.1298250E-07  0.3626943E+04  0.7818609E-02  0.8084348E-01
       -3   -1    0    0    0  501  0.00000000000E+00  0.00000000000E+00  0.10525266795E+04  0.10525266843E+04  0.10100000352E+00 0. -1.
        3   -1    0    0  501    0  0.00000000000E+00  0.00000000000E+00 -0.31245554590E+04  0.31245554606E+04  0.10100000352E+00 0.  1.
    10030    2    1    2    0    0  0.00000000000E+00  0.00000000000E+00 -0.20720287795E+04  0.41770821450E+04  0.36269425116E+04 0.  0.
        5    1    3    3  502    0  0.13426107799E+04  0.30641108747E+02  0.36748471853E+03  0.13923396468E+04  0.46999998093E+01 0. -1.
       -5    1    3    3    0  502 -0.13426107799E+04 -0.30641108747E+02 -0.24395134980E+04  0.27847424981E+04  0.46999998093E+01 0.  1.
</event>
<event>
 5   0  0.3880259E-07  0.3495858E+04  0.7818609E-02  0.8114772E-01
       -2   -1    0    0    0  501  0.00000000000E+00  0.00000000000E+00  0.13748785514E+04  0.13748785514E+04  0.25500000920E-02 0.  1.
        2   -1    0    0  501    0  0.00000000000E+00  0.00000000000E+00 -0.22222009497E+04  0.22222009497E+04  0.25500000920E-02 0. -1.
    10030    2    1    2    0    0  0.00000000000E+00  0.00000000000E+00 -0.84732239830E+03  0.35970795011E+04  0.34958583625E+04 0.  0.
        5    1    3    3  502    0 -0.22542070320E+03 -0.17327366791E+04 -0.47017450228E+03  0.18094963512E+04  0.46999998093E+01 0. -1.
       -5    1    3    3    0  502  0.22542070320E+03  0.17327366791E+04 -0.37714789601E+03  0.17875831499E+04  0.46999998093E+01 0.  1.
</event>
<event>
 5   0  0.4200635E-07  0.3595358E+04  0.7818609E-02  0.8091556E-01
       -2   -1    0    0    0  501  0.00000000000E+00  0.00000000000E+00  0.15606782403E+04  0.15606782403E+04  0.25500000920E-02 0.  1.
        2   -1    0    0  501    0  0.00000000000E+00  0.00000000000E+00 -0.20706699498E+04  0.20706699498E+04  0.25500000920E-02 0. -1.
    10030    2    1    2    0    0  0.00000000000E+00  0.00000000000E+00 -0.50999170953E+03  0.36313481901E+04  0.35953578590E+04 0.  0.
        4    1    3    3  502    0 -0.12823417232E+04  0.87910319398E+03  0.65649301711E+03  0.16876633003E+04  0.12699999809E+01 0.  1.
       -4    1    3    3    0  502  0.12823417232E+04 -0.87910319398E+03 -0.11664847266E+04  0.19436848899E+04  0.12699999809E+01 0. -1.
</event>
<event>
 5   0  0.4115358E-07  0.3788065E+04  0.7818609E-02  0.8048721E-01
       -2   -1    0    0    0  501  0.00000000000E+00  0.00000000000E+00  0.25126153903E+04  0.25126153903E+04  0.25500000920E-02 0. -1.
        2   -1    0    0  501    0  0.00000000000E+00  0.00000000000E+00 -0.14277393563E+04  0.14277393563E+04  0.25500000920E-02 0.  1.
    10030    2    1    2    0    0  0.00000000000E+00  0.00000000000E+00  0.10848760341E+04  0.39403547466E+04  0.37880654060E+04 0.  0.
        3    1    3    3  502    0  0.61928454502E+03  0.65924983791E+03 -0.11885651069E+04  0.14935898768E+04  0.10100000352E+00 0.  1.
       -3    1    3    3    0  502 -0.61928454502E+03 -0.65924983791E+03  0.22734411410E+04  0.24467648698E+04  0.10100000352E+00 0. -1.
</event>
<event>
 5   0  0.4115358E-07  0.3601523E+04  0.7818609E-02  0.8090143E-01
       -2   -1    0    0    0  501  0.00000000000E+00  0.00000000000E+00  0.13310527513E+04  0.13310527513E+04  0.25500000920E-02 0. -1.
        2   -1    0    0  501    0  0.00000000000E+00  0.00000000000E+00 -0.24362233389E+04  0.24362233389E+04  0.25500000920E-02 0.  1.
    10030    2    1    2    0    0  0.00000000000E+00  0.00000000000E+00 -0.11051705876E+04  0.37672760902E+04  0.36015228879E+04 0.  0.
        3    1    3    3  502    0 -0.38354600751E+03  0.11808090694E+04  0.81179301427E+03  0.14833831287E+04  0.10100000352E+00 0. -1.
       -3    1    3    3    0  502  0.38354600751E+03 -0.11808090694E+04 -0.19169636019E+04  0.22838929615E+04  0.10100000352E+00 0.  1.
</event>
<event>
 5   0  0.4200635E-07  0.3608776E+04  0.7818609E-02  0.8088485E-01
        2   -1    0    0  501    0  0.00000000000E+00  0.00000000000E+00  0.20746840408E+04  0.20746840408E+04  0.25500000920E-02 0.  1.
       -2   -1    0    0    0  501  0.00000000000E+00  0.00000000000E+00 -0.15693065359E+04  0.15693065359E+04  0.25500000920E-02 0. -1.
    10030    2    1    2    0    0  0.00000000000E+00  0.00000000000E+00  0.50537750488E+03  0.36439905767E+04  0.36087755403E+04 0.  0.
        4    1    3    3  502    0  0.10400945012E+04  0.14310028785E+04  0.61146963032E+03  0.18717538651E+04  0.12699999809E+01 0. -1.
       -4    1    3    3    0  502 -0.10400945012E+04 -0.14310028785E+04 -0.10609212543E+03  0.17722367116E+04  0.12699999809E+01 0.  1.
</event>
<event>
 5   0  0.4115358E-07  0.3562946E+04  0.7818609E-02  0.8099032E-01
        2   -1    0    0  501    0  0.00000000000E+00  0.00000000000E+00  0.13489478501E+04  0.13489478501E+04  0.25500000920E-02 0.  1.
       -2   -1    0    0    0  501  0.00000000000E+00  0.00000000000E+00 -0.23526829325E+04  0.23526829325E+04  0.25500000920E-02 0. -1.
    10030    2    1    2    0    0  0.00000000000E+00  0.00000000000E+00 -0.10037350824E+04  0.37016307826E+04  0.35629462998E+04 0.  0.
        3    1    3    3  502    0 -0.22406132591E+02 -0.10908060562E+04  0.96124108074E+03  0.14540785098E+04  0.10100000352E+00 0.  1.
       -3    1    3    3    0  502  0.22406132591E+02  0.10908060562E+04 -0.19649761632E+04  0.22475522728E+04  0.10100000352E+00 0. -1.
</event>
<event>
 5   0  0.1361743E-07  0.3599874E+04  0.7818609E-02  0.8090521E-01
       -1   -1    0    0    0  501  0.00000000000E+00  0.00000000000E+00  0.16252946787E+04  0.16252946787E+04  0.50400001928E-02 0.  1.
        1   -1    0    0  501    0  0.00000000000E+00  0.00000000000E+00 -0.19933453575E+04  0.19933453575E+04  0.50400001928E-02 0. -1.
    10030    2    1    2    0    0  0.00000000000E+00  0.00000000000E+00 -0.36805067875E+03  0.36186400362E+04  0.35998742214E+04 0.  0.
        5    1    3    3  502    0 -0.15281684102E+04 -0.94680557291E+03 -0.94048791950E+02  0.18001685333E+04  0.46999998093E+01 0.  1.
       -5    1    3    3    0  502  0.15281684102E+04  0.94680557291E+03 -0.27400188680E+03  0.18184715029E+04  0.46999998093E+01 0. -1.
</event>
<event>
 5   0  0.3993751E-07  0.3601071E+04  0.7818609E-02  0.8090246E-01
        2   -1    0    0  501    0  0.00000000000E+00  0.00000000000E+00  0.16160100657E+04  0.16160100657E+04  0.25500000920E-02 0. -1.
       -2   -1    0    0    0  501  0.00000000000E+00  0.00000000000E+00 -0.20061310332E+04  0.20061310332E+04  0.25500000920E-02 0.  1.
    10030    2    1    2    0    0  0.00000000000E+00  0.00000000000E+00 -0.39012096752E+03  0.36221410989E+04  0.36010709200E+04 0.  0.
        1    1    3    3  502    0  0.22462064745E+03  0.16463342363E+03 -0.19843362244E+04  0.20037836338E+04  0.50400001928E-02 0.  1.
       -1    1    3    3    0  502 -0.22462064745E+03 -0.16463342363E+03  0.15942152569E+04  0.16183574651E+04  0.50400001928E-02 0. -1.
</event>
<event>
 5   0  0.1370997E-07  0.3645992E+04  0.7818609E-02  0.8080037E-01
       -1   -1    0    0    0  501  0.00000000000E+00  0.00000000000E+00  0.19419210591E+04  0.19419210591E+04  0.50400001928E-02 0.  1.
        1   -1    0    0  501    0  0.00000000000E+00  0.00000000000E+00 -0.17113538933E+04  0.17113538933E+04  0.50400001928E-02 0. -1.
    10030    2    1    2    0    0  0.00000000000E+00  0.00000000000E+00  0.23056716583E+03  0.36532749524E+04  0.36459918623E+04 0.  0.
        3    1    3    3  502    0 -0.44532837185E+03 -0.79283302581E+03  0.16984437207E+04  0.19265546056E+04  0.10100000352E+00 0.  1.
       -3    1    3    3    0  502  0.44532837185E+03  0.79283302581E+03 -0.14678765549E+04  0.17267203469E+04  0.10100000352E+00 0. -1.
</event>
<event>
 5   0  0.4200635E-07  0.3560205E+04  0.7818609E-02  0.8099669E-01
        2   -1    0    0  501    0  0.00000000000E+00  0.00000000000E+00  0.24249156465E+04  0.24249156465E+04  0.25500000920E-02 0. -1.
       -2   -1    0    0    0  501  0.00000000000E+00  0.00000000000E+00 -0.13067525750E+04  0.13067525750E+04  0.25500000920E-02 0.  1.
    10030    2    1    2    0    0  0.00000000000E+00  0.00000000000E+00  0.11181630715E+04  0.37316682215E+04  0.35602049184E+04 0.  0.
        4    1    3    3  502    0  0.37406985519E+03  0.63258588472E+02 -0.12638852135E+04  0.13195974202E+04  0.12699999809E+01 0.  1.
       -4    1    3    3    0  502 -0.37406985519E+03 -0.63258588472E+02  0.23820482850E+04  0.24120708013E+04  0.12699999809E+01 0. -1.
</event>
<event>
 5   0  0.4200635E-07  0.3500575E+04  0.7818609E-02  0.8113654E-01
        2   -1    0    0  501    0  0.00000000000E+00  0.00000000000E+00  0.25345451925E+04  0.25345451925E+04  0.25500000920E-02 0.  1.
       -2   -1    0    0    0  501  0.00000000000E+00  0.00000000000E+00 -0.12087008097E+04  0.12087008097E+04  0.25500000920E-02 0. -1.
    10030    2    1    2    0    0  0.00000000000E+00  0.00000000000E+00  0.13258443828E+04  0.37432460021E+04  0.35005752820E+04 0.  0.
        4    1    3    3  502    0 -0.68085160697E+03 -0.15426420214E+04  0.16113511137E+03  0.16938918070E+04  0.12699999809E+01 0. -1.
       -4    1    3    3    0  502  0.68085160697E+03  0.15426420214E+04  0.11647092714E+04  0.20493541951E+04  0.12699999809E+01 0.  1.
</event>
<event>
 5   0  0.4200635E-07  0.3626847E+04  0.7818609E-02  0.8084370E-01
       -2   -1    0    0    0  501  0.00000000000E+00  0.00000000000E+00  0.17895481231E+04  0.17895481231E+04  0.25500000920E-02 0.  1.
        2   -1    0    0  501    0  0.00000000000E+00  0.00000000000E+00 -0.18376177278E+04  0.18376177278E+04  0.25500000920E-02 0. -1.
    10030    2    1    2    0    0  0.00000000000E+00  0.00000000000E+00 -0.48069604716E+02  0.36271658510E+04  0.36268473118E+04 0.  0.
        4    1    3    3  502    0 -0.94979724367E+03 -0.15240813178E+04 -0.27617809832E+03  0.18169244955E+04  0.12699999809E+01 0.  1.
       -4    1    3    3    0  502  0.94979724367E+03  0.15240813178E+04  0.22810849360E+03  0.18102413555E+04  0.12699999809E+01 0. -1.
</event>
<event>
 5   0  0.3993751E-07  0.3598005E+04  0.7818609E-02  0.8090949E-01
        2   -1    0    0  501    0  0.00000000000E+00  0.00000000000E+00  0.18314940387E+04  0.18314940387E+04  0.25500000920E-02 0.  1.
       -2   -1    0    0    0  501  0.00000000000E+00  0.00000000000E+00 -0.17670874743E+04  0.17670874743E+04  0.25500000920E-02 0. -1.
    10030    2    1    2    0    0  0.00000000000E+00  0.00000000000E+00  0.64406564368E+02  0.35985815130E+04  0.35980051001E+04 0.  0.
        1    1    3    3  502    0  0.33730605317E+03 -0.35492083772E+03 -0.16991621414E+04  0.17683031859E+04  0.50400001928E-02 0. -1.
       -1    1    3    3    0  502 -0.33730605317E+03  0.35492083772E+03  0.17635687058E+04  0.18302783271E+04  0.50400001928E-02 0.  1.
</event>
<event>
 5   0  0.1348226E-07  0.3568087E+04  0.7818609E-02  0.8097841E-01
        1   -1    0    0  501    0  0.00000000000E+00  0.00000000000E+00  0.22245875831E+04  0.22245875831E+04  0.50400001928E-02 0.  1.
       -1   -1    0    0    0  501  0.00000000000E+00  0.00000000000E+00 -0.14307419020E+04  0.14307419020E+04  0.50400001928E-02 0. -1.
    10030    2    1    2    0    0  0.00000000000E+00  0.00000000000E+00  0.79384568114E+03  0.36553294851E+04  0.35680866972E+04 0.  0.
        4    1    3    3  502    0  0.96759349349E+03 -0.18381717974E+03 -0.11269915053E+04  0.14967088528E+04  0.12699999809E+01 0. -1.
       -4    1    3    3    0  502 -0.96759349349E+03  0.18381717974E+03  0.19208371865E+04  0.21586206322E+04  0.12699999809E+01 0.  1.
</event>
<event>
 5   0  0.1361743E-07  0.3520759E+04  0.7818609E-02  0.8108888E-01
       -1   -1    0    0    0  501  0.00000000000E+00  0.00000000000E+00  0.26989093814E+04  0.26989093814E+04  0.50400001928E-02 0. -1.
        1   -1    0    0  501    0  0.00000000000E+00  0.00000000000E+00 -0.11482178885E+04  0.11482178886E+04  0.50400001928E-02 0.  1.
    10030    2    1    2    0    0  0.00000000000E+00  0.00000000000E+00  0.15506914928E+04  0.38471272699E+04  0.35207590268E+04 0.  0.
        5    1    3    3  502    0  0.12354337474E+04 -0.67021273835E+03 -0.38282796262E+03  0.14567295555E+04  0.46999998093E+01 0.  1.
       -5    1    3    3    0  502 -0.12354337474E+04  0.67021273835E+03  0.19335194554E+04  0.23903977145E+04  0.46999998093E+01 0. -1.
</event>
<event>
 5   0  0.4200635E-07  0.3603530E+04  0.7818609E-02  0.8089684E-01
       -2   -1    0    0    0  501  0.00000000000E+00  0.00000000000E+00  0.29823136444E+04  0.29823136444E+04  0.25500000920E-02 0.  1.
        2   -1    0    0  501    0  0.00000000000E+00  0.00000000000E+00 -0.10885366654E+04  0.10885366654E+04  0.25500000920E-02 0. -1.
    10030    2    1    2    0    0  0.00000000000E+00  0.00000000000E+00  0.18937769790E+04  0.40708503098E+04  0.36035303521E+04 0.  0.
        4    1    3    3  502    0  0.37696524895E+03  0.14685285365E+04 -0.15284431998E+03  0.15238247473E+04  0.12699999809E+01 0. -1.
       -4    1    3    3    0  502 -0.37696524895E+03 -0.14685285365E+04  0.20466212990E+04  0.25470255625E+04  0.12699999809E+01 0.  1.
</event>
<event>
 5   0  0.3993751E-07  0.3604961E+04  0.7818609E-02  0.8089356E-01
        2   -1    0    0  501    0  0.00000000000E+00  0.00000000000E+00  0.20234694566E+04  0.20234694566E+04  0.25500000920E-02 0.  1.
       -2   -1    0    0    0  501  0.00000000000E+00  0.00000000000E+00 -0.16056260692E+04  0.16056260692E+04  0.25500000920E-02 0. -1.
    10030    2    1    2    0    0  0.00000000000E+00  0.00000000000E+00  0.41784338734E+03  0.36290955258E+04  0.36049606432E+04 0.  0.
        1    1    3    3  502    0 -0.13325191866E+04 -0.68839634750E+02 -0.10110451074E+04  0.16740843728E+04  0.50400001928E-02 0. -1.
       -1    1    3    3    0  502  0.13325191866E+04  0.68839634750E+02  0.14288884948E+04  0.19550111530E+04  0.50400001928E-02 0.  1.
</event>
<event>
 5   0  0.4120440E-07  0.3608183E+04  0.7818609E-02  0.8088620E-01
       -2   -1    0    0    0  501  0.00000000000E+00  0.00000000000E+00  0.15885436364E+04  0.15885436364E+04  0.25500000920E-02 0. -1.
        2   -1    0    0  501    0  0.00000000000E+00  0.00000000000E+00 -0.20488873479E+04  0.20488873479E+04  0.25500000920E-02 0.  1.
    10030    2    1    2    0    0  0.00000000000E+00  0.00000000000E+00 -0.46034371151E+03  0.36374309844E+04  0.36081834534E+04 0.  0.
        2    1    3    3  502    0  0.10383823364E+03  0.17792364358E+04 -0.51222951562E+03  0.18544119688E+04  0.25500000920E-02 0.  1.
       -2    1    3    3    0  502 -0.10383823364E+03 -0.17792364358E+04  0.51885804108E+02  0.17830190156E+04  0.25500000920E-02 0. -1.
</event>
<event>
 5   0  0.3880259E-07  0.3234767E+04  0.7818609E-02  0.8179695E-01
        2   -1    0    0  501    0  0.00000000000E+00  0.00000000000E+00  0.22813437008E+04  0.22813437008E+04  0.25500000920E-02 0. -1.
       -2   -1    0    0    0  501  0.00000000000E+00  0.00000000000E+00 -0.11466613791E+04  0.11466613791E+04  0.25500000920E-02 0.  1.
    10030    2    1    2    0    0  0.00000000000E+00  0.00000000000E+00  0.11346823217E+04  0.34280050799E+04  0.32347665846E+04 0.  0.
        5    1    3    3  502    0 -0.68181734445E+03  0.80467028556E+03  0.18667793789E+04  0.21441213816E+04  0.46999998093E+01 0. -1.
       -5    1    3    3    0  502  0.68181734445E+03 -0.80467028556E+03 -0.73209705718E+03  0.12838836983E+04  0.46999998093E+01 0.  1.
</event>
<event>
 5   0  0.4120440E-07  0.3618792E+04  0.7818609E-02  0.8086201E-01
       -2   -1    0    0    0  501  0.00000000000E+00  0.00000000000E+00  0.12099889924E+04  0.12099889924E+04  0.25500000920E-02 0. -1.
        2   -1    0    0  501    0  0.00000000000E+00  0.00000000000E+00 -0.27057383313E+04  0.27057383313E+04  0.25500000920E-02 0.  1.
    10030    2    1    2    0    0  0.00000000000E+00  0.00000000000E+00 -0.14957493389E+04  0.39157273237E+04  0.36187918410E+04 0.  0.
        2    1    3    3  502    0  0.89683779811E+03 -0.57397823210E+03  0.83508697846E+03  0.13531959609E+04  0.25500000920E-02 0. -1.
       -2    1    3    3    0  502 -0.89683779811E+03  0.57397823210E+03 -0.23308363173E+04  0.25625313628E+04  0.25500000920E-02 0.  1.
</event>
<event>
 5   0  0.1370997E-07  0.3589989E+04  0.7818609E-02  0.8092789E-01
        1   -1    0    0  501    0  0.00000000000E+00  0.00000000000E+00  0.17086693166E+04  0.17086693166E+04  0.50400001928E-02 0. -1.
       -1   -1    0    0    0  501  0.00000000000E+00  0.00000000000E+00 -0.18856813985E+04  0.18856813985E+04  0.50400001928E-02 0.  1.
    10030    2    1    2    0    0  0.00000000000E+00  0.00000000000E+00 -0.17701208197E+03  0.35943507151E+04  0.35899893852E+04 0.  0.
        3    1    3    3  502    0 -0.96789916878E+02  0.10720862543E+04  0.13496472598E+04  0.17263501849E+04  0.10100000352E+00 0. -1.
       -3    1    3    3    0  502  0.96789916878E+02 -0.10720862543E+04 -0.15266593418E+04  0.18680005302E+04  0.10100000352E+00 0.  1.
</event>
<event>
 5   0  0.3993751E-07  0.3595969E+04  0.7818609E-02  0.8091416E-01
       -2   -1    0    0    0  501  0.00000000000E+00  0.00000000000E+00  0.14557479619E+04  0.14557479619E+04  0.25500000920E-02 0. -1.
        2   -1    0    0  501    0  0.00000000000E+00  0.00000000000E+00 -0.22206780841E+04  0.22206780841E+04  0.25500000920E-02 0.  1.
    10030    2    1    2    0    0  0.00000000000E+00  0.00000000000E+00 -0.76493012224E+03  0.36764260460E+04  0.35959686289E+04 0.  0.
        1    1    3    3  502    0 -0.74505695211E+03  0.47747015543E+03 -0.19826229755E+04  0.21711475017E+04  0.50400001928E-02 0.  1.
       -1    1    3    3    0  502  0.74505695211E+03 -0.47747015543E+03  0.12176928532E+04  0.15052785443E+04  0.50400001928E-02 0. -1.
</event>
<event>
 5   0  0.1298250E-07  0.3602530E+04  0.7818609E-02  0.8089912E-01
        1   -1    0    0  501    0  0.00000000000E+00  0.00000000000E+00  0.20396606862E+04  0.20396606862E+04  0.50400001928E-02 0.  1.
       -1   -1    0    0    0  501  0.00000000000E+00  0.00000000000E+00 -0.15907329408E+04  0.15907329409E+04  0.50400001928E-02 0. -1.
    10030    2    1    2    0    0  0.00000000000E+00  0.00000000000E+00  0.44892774535E+03  0.36303936271E+04  0.36025299120E+04 0.  0.
        2    1    3    3  502    0  0.16325372712E+04 -0.65969790916E+03 -0.15817832377E+03  0.17678799889E+04  0.25500000920E-02 0.  1.
       -2    1    3    3    0  502 -0.16325372712E+04  0.65969790916E+03  0.60710606912E+03  0.18625136381E+04  0.25500000920E-02 0. -1.
</event>
<event>
 5   0  0.1348226E-07  0.3672669E+04  0.7818609E-02  0.8074046E-01
        1   -1    0    0  501    0  0.00000000000E+00  0.00000000000E+00  0.28044882686E+04  0.28044882686E+04  0.50400001928E-02 0. -1.
       -1   -1    0    0    0  501  0.00000000000E+00  0.00000000000E+00 -0.12024026174E+04  0.12024026174E+04  0.50400001928E-02 0.  1.
    10030    2    1    2    0    0  0.00000000000E+00  0.00000000000E+00  0.16020856512E+04  0.40068908861E+04  0.36726688033E+04 0.  0.
        4    1    3    3  502    0 -0.12938739297E+03  0.14861067647E+04 -0.36733274902E+03  0.15362907846E+04  0.12699999809E+01 0.  1.
       -4    1    3    3    0  502  0.12938739297E+03 -0.14861067647E+04  0.19694184002E+04  0.24706001015E+04  0.12699999809E+01 0. -1.
</event>
<event>
 5   0  0.4115358E-07  0.3597288E+04  0.7818609E-02  0.8091113E-01
        2   -1    0    0  501    0  0.00000000000E+00  0.00000000000E+00  0.27543677588E+04  0.27543677588E+04  0.25500000920E-02 0. -1.
       -2   -1    0    0    0  501  0.00000000000E+00  0.00000000000E+00 -0.11745419906E+04  0.11745419906E+04  0.25500000920E-02 0.  1.
    10030    2    1    2    0    0  0.00000000000E+00  0.00000000000E+00  0.15798257682E+04  0.39289097494E+04  0.35972881954E+04 0.  0.
        3    1    3    3  502    0  0.56832251453E+03 -0.67888996554E+02 -0.10724240830E+04  0.12156038912E+04  0.10100000352E+00 0.  1.
       -3    1    3    3    0  502 -0.56832251453E+03  0.67888996554E+02  0.26522498512E+04  0.27133058582E+04  0.10100000352E+00 0. -1.
</event>
<event>
 5   0  0.3880259E-07  0.3632025E+04  0.7818609E-02  0.8083195E-01
        2   -1    0    0  501    0  0.00000000000E+00  0.00000000000E+00  0.14064637143E+04  0.14064637143E+04  0.25500000920E-02 0.  1.
       -2   -1    0    0    0  501  0.00000000000E+00  0.00000000000E+00 -0.23448177553E+04  0.23448177553E+04  0.25500000920E-02 0. -1.
    10030    2    1    2    0    0  0.00000000000E+00  0.00000000000E+00 -0.93835404099E+03  0.37512814697E+04  0.36320248290E+04 0.  0.
        5    1    3    3  502    0  0.10655353478E+04  0.17613884449E+03  0.10387222911E+04  0.14984513866E+04  0.46999998093E+01 0.  1.
       -5    1    3    3    0  502 -0.10655353478E+04 -0.17613884449E+03 -0.19770763321E+04  0.22528300830E+04  0.46999998093E+01 0. -1.
</event>
<event>
 5   0  0.3880259E-07  0.3327266E+04  0.7818609E-02  0.8155992E-01
        2   -1    0    0  501    0  0.00000000000E+00  0.00000000000E+00  0.16850382276E+04  0.16850382276E+04  0.25500000920E-02 0.  1.
       -2   -1    0    0    0  501  0.00000000000E+00  0.00000000000E+00 -0.16424993354E+04  0.16424993354E+04  0.25500000920E-02 0. -1.
    10030    2    1    2    0    0  0.00000000000E+00  0.00000000000E+00  0.42538892187E+02  0.33275375631E+04  0.33272656456E+04 0.  0.
        5    1    3    3  502    0 -0.91841964123E+03 -0.22238758186E+03 -0.13480397352E+04  0.16462636762E+04  0.46999998093E+01 0. -1.
       -5    1    3    3    0  502  0.91841964123E+03  0.22238758186E+03  0.13905786273E+04  0.16812738869E+04  0.46999998093E+01 0.  1.
</event>
<event>
 5   0  0.3993751E-07  0.3541226E+04  0.7818609E-02  0.8104089E-01
       -2   -1    0    0    0  501  0.00000000000E+00  0.00000000000E+00  0.11346531456E+04  0.11346531456E+04  0.25500000920E-02 0. -1.
        2   -1    0    0  501    0  0.00000000000E+00  0.00000000000E+00 -0.27630212723E+04  0.27630212723E+04  0.25500000920E-02 0.  1.
    10030    2    1    2    0    0  0.00000000000E+00  0.00000000000E+00 -0.16283681267E+04  0.38976744179E+04  0.35412262159E+04 0.  0.
        1    1    3    3  502    0 -0.86658683879E+03 -0.90462830648E+03  0.56306503175E+03  0.13734508918E+04  0.50400001928E-02 0. -1.
       -1    1    3    3    0  502  0.86658683879E+03  0.90462830648E+03 -0.21914331585E+04  0.25242235262E+04  0.50400001928E-02 0.  1.
</event>
<event>
 5   0  0.1348226E-07  0.3615786E+04  0.7818609E-02  0.8086885E-01
       -1   -1    0    0    0  501  0.00000000000E+00  0.00000000000E+00  0.16201587167E+04  0.16201587167E+04  0.50400001928E-02 0. -1.
        1   -1    0    0  501    0  0.00000000000E+00  0.00000000000E+00 -0.20173806218E+04  0.20173806218E+04  0.50400001928E-02 0.  1.
    10030    2    1    2    0    0  0.00000000000E+00  0.00000000000E+00 -0.39722190506E+03  0.36375393385E+04  0.36157858340E+04 0.  0.
        4    1    3    3  502    0 -0.35619866770E+03 -0.16184569926E+04 -0.92558885892E+03  0.18981561781E+04  0.12699999809E+01 0.  1.
       -4    1    3    3    0  502  0.35619866770E+03  0.16184569926E+04  0.52836695386E+03  0.17393831604E+04  0.12699999809E+01 0. -1.
</event>
<event>
 5   0  0.1298250E-07  0.3583309E+04  0.7818609E-02  0.8094326E-01
       -3   -1    0    0    0  501  0.00000000000E+00  0.00000000000E+00  0.16296307793E+04  0.16296307824E+04  0.10100000352E+00 0. -1.
        3   -1    0    0  501    0  0.00000000000E+00  0.00000000000E+00 -0.19697869402E+04  0.19697869428E+04  0.10100000352E+00 0.  1.
    10030    2    1    2    0    0  0.00000000000E+00  0.00000000000E+00 -0.34015616085E+03  0.35994177252E+04  0.35833087708E+04 0.  0.
        5    1    3    3  502    0  0.48190692689E+03 -0.16004852817E+04  0.47797020234E+03  0.17384662860E+04  0.46999998093E+01 0. -1.
       -5    1    3    3    0  502 -0.48190692689E+03  0.16004852817E+04 -0.81812636319E+03  0.18609514392E+04  0.46999998093E+01 0.  1.
</event>
<event>
 5   0  0.3880259E-07  0.3453443E+04  0.7818609E-02  0.8124913E-01
        2   -1    0    0  501    0  0.00000000000E+00  0.00000000000E+00  0.26091721825E+04  0.26091721825E+04  0.25500000920E-02 0. -1.
       -2   -1    0    0    0  501  0.00000000000E+00  0.00000000000E+00 -0.11427254658E+04  0.11427254658E+04  0.25500000920E-02 0.  1.
    10030    2    1    2    0    0  0.00000000000E+00  0.00000000000E+00  0.14664467167E+04  0.37518976483E+04  0.34534432080E+04 0.  0.
        5    1    3    3  502    0  0.37726483746E+03  0.65415749423E+03  0.24202572319E+04  0.25353338919E+04  0.46999998093E+01 0. -1.
       -5    1    3    3    0  502 -0.37726483746E+03 -0.65415749423E+03 -0.95381051513E+03  0.12165637565E+04  0.46999998093E+01 0.  1.
</event>
<event>
 5   0  0.4120440E-07  0.3577124E+04  0.7818609E-02  0.8095752E-01
        2   -1    0    0  501    0  0.00000000000E+00  0.00000000000E+00  0.30053045803E+04  0.30053045803E+04  0.25500000920E-02 0. -1.
       -2   -1    0    0    0  501  0.00000000000E+00  0.00000000000E+00 -0.10644359971E+04  0.10644359971E+04  0.25500000920E-02 0.  1.
    10030    2    1    2    0    0  0.00000000000E+00  0.00000000000E+00  0.19408685832E+04  0.40697405773E+04  0.35771241954E+04 0.  0.
        2    1    3    3  502    0 -0.61288311752E+02  0.20367782294E+03 -0.10499957792E+04  0.10713225700E+04  0.25500000920E-02 0.  1.
       -2    1    3    3    0  502  0.61288311752E+02 -0.20367782294E+03  0.29908643624E+04  0.29984180073E+04  0.25500000920E-02 0. -1.
</event>
<event>
 5   0  0.4115358E-07  0.3551850E+04  0.7818609E-02  0.8101611E-01
       -2   -1    0    0    0  501  0.00000000000E+00  0.00000000000E+00  0.17037654964E+04  0.17037654964E+04  0.25500000920E-02 0.  1.
        2   -1    0    0  501    0  0.00000000000E+00  0.00000000000E+00 -0.18511401902E+04  0.18511401902E+04  0.25500000920E-02 0. -1.
    10030    2    1    2    0    0  0.00000000000E+00  0.00000000000E+00 -0.14737469385E+03  0.35549056866E+04  0.35518495380E+04 0.  0.
        3    1    3    3  502    0 -0.11678488013E+04  0.55975687200E+03 -0.12899326046E+04  0.18278743702E+04  0.10100000352E+00 0.  1.
       -3    1    3    3    0  502  0.11678488013E+04 -0.55975687200E+03  0.11425579107E+04  0.17270313165E+04  0.10100000352E+00 0. -1.
</event>
<event>
 5   0  0.1298250E-07  0.3589961E+04  0.7818609E-02  0.8092795E-01
        1   -1    0    0  501    0  0.00000000000E+00  0.00000000000E+00  0.27092172673E+04  0.27092172673E+04  0.50400001928E-02 0.  1.
       -1   -1    0    0    0  501  0.00000000000E+00  0.00000000000E+00 -0.11892565604E+04  0.11892565604E+04  0.50400001928E-02 0. -1.
    10030    2    1    2    0    0  0.00000000000E+00  0.00000000000E+00  0.15199607069E+04  0.38984738277E+04  0.35899606731E+04 0.  0.
        1    1    3    3  502    0 -0.58303138195E+03  0.16976422154E+04  0.76682475943E+03  0.19519054525E+04  0.50400001928E-02 0.  1.
       -1    1    3    3    0  502  0.58303138195E+03 -0.16976422154E+04  0.75313594746E+03  0.19465683752E+04  0.50400001928E-02 0. -1.
</event>
<event>
 5   0  0.4115358E-07  0.3592443E+04  0.7818609E-02  0.8092225E-01
        2   -1    0    0  501    0  0.00000000000E+00  0.00000000000E+00  0.27353734602E+04  0.27353734602E+04  0.25500000920E-02 0. -1.
       -2   -1    0    0    0  501  0.00000000000E+00  0.00000000000E+00 -0.11795138713E+04  0.11795138713E+04  0.25500000920E-02 0.  1.
    10030    2    1    2    0    0  0.00000000000E+00  0.00000000000E+00  0.15558595889E+04  0.39148873315E+04  0.35924425894E+04 0.  0.
        3    1    3    3  502    0 -0.89669786706E+03 -0.21351443141E+03 -0.90211817005E+03  0.12897568298E+04  0.10100000352E+00 0.  1.
       -3    1    3    3    0  502  0.89669786706E+03  0.21351443141E+03  0.24579777589E+04  0.26251305017E+04  0.10100000352E+00 0. -1.
</event>
<event>
 5   0  0.3880259E-07  0.3579989E+04  0.7818609E-02  0.8095091E-01
       -2   -1    0    0    0  501  0.00000000000E+00  0.00000000000E+00  0.16574728735E+04  0.16574728735E+04  0.25500000920E-02 0. -1.
        2   -1    0    0  501    0  0.00000000000E+00  0.00000000000E+00 -0.19331113644E+04  0.19331113644E+04  0.25500000920E-02 0.  1.
    10030    2    1    2    0    0  0.00000000000E+00  0.00000000000E+00 -0.27563849094E+03  0.35905842379E+04  0.35799886301E+04 0.  0.
        5    1    3    3  502    0  0.49150258109E+03  0.11744781525E+04  0.11241112356E+04  0.16984174628E+04  0.46999998093E+01 0. -1.
       -5    1    3    3    0  502 -0.49150258109E+03 -0.11744781525E+04 -0.13997497265E+04  0.18921667751E+04  0.46999998093E+01 0.  1.
</event>
<event>
 5   0  0.1298250E-07  0.3597332E+04  0.7818609E-02  0.8091103E-01
       -1   -1    0    0    0  501  0.00000000000E+00  0.00000000000E+00  0.16538644300E+04  0.16538644300E+04  0.50400001928E-02 0. -1.
        1   -1    0    0  501    0  0.00000000000E+00  0.00000000000E+00 -0.19561451584E+04  0.19561451585E+04  0.50400001928E-02 0.  1.
    10030    2    1    2    0    0  0.00000000000E+00  0.00000000000E+00 -0.30228072848E+03  0.36100095884E+04  0.35973317319E+04 0.  0.
        1    1    3    3  502    0  0.10578037674E+04  0.11702449399E+04  0.71606767487E+03  0.17323899517E+04  0.50400001928E-02 0. -1.
       -1    1    3    3    0  502 -0.10578037674E+04 -0.11702449399E+04 -0.10183484033E+04  0.18776196367E+04  0.50400001928E-02 0.  1.
</event>
<event>
 5   0  0.1298250E-07  0.3565158E+04  0.7818609E-02  0.8098520E-01
       -1   -1    0    0    0  501  0.00000000000E+00  0.00000000000E+00  0.15491652571E+04  0.15491652571E+04  0.50400001928E-02 0.  1.
        1   -1    0    0  501    0  0.00000000000E+00  0.00000000000E+00 -0.20511615784E+04  0.20511615784E+04  0.50400001928E-02 0. -1.
    10030    2    1    2    0    0  0.00000000000E+00  0.00000000000E+00 -0.50199632122E+03  0.36003268355E+04  0.35651582035E+04 0.  0.
        2    1    3    3  502    0  0.94423024790E+03  0.11428898835E+04  0.74862501644E+03  0.16607851945E+04  0.25500000920E-02 0.  1.
       -2    1    3    3    0  502 -0.94423024790E+03 -0.11428898835E+04 -0.12506213377E+04  0.19395416410E+04  0.25500000920E-02 0. -1.
</event>
<event>
 5   0  0.4200635E-07  0.3614665E+04  0.7818609E-02  0.8087141E-01
        2   -1    0    0  501    0  0.00000000000E+00  0.00000000000E+00  0.17471266740E+04  0.17471266740E+04  0.25500000920E-02 0. -1.
       -2   -1    0    0    0  501  0.00000000000E+00  0.00000000000E+00 -0.18696132984E+04  0.18696132984E+04  0.25500000920E-02 0.  1.
    10030    2    1    2    0    0  0.00000000000E+00  0.00000000000E+00 -0.12248662446E+03  0.36167399724E+04  0.36146652756E+04 0.  0.
        4    1    3    3  502    0  0.88083998752E+03  0.31758359018E+03 -0.16079996751E+04  0.18607533389E+04  0.12699999809E+01 0.  1.
       -4    1    3    3    0  502 -0.88083998752E+03 -0.31758359018E+03  0.14855130506E+04  0.17559866335E+04  0.12699999809E+01 0. -1.
</event>
<event>
 5   0  0.4200635E-07  0.3677132E+04  0.7818609E-02  0.8073049E-01
        2   -1    0    0  501    0  0.00000000000E+00  0.00000000000E+00  0.18045601046E+04  0.18045601046E+04  0.25500000920E-02 0. -1.
       -2   -1    0    0    0  501  0.00000000000E+00  0.00000000000E+00 -0.18732127714E+04  0.18732127714E+04  0.25500000920E-02 0.  1.
    10030    2    1    2    0    0  0.00000000000E+00  0.00000000000E+00 -0.68652666852E+02  0.36777728760E+04  0.36771320535E+04 0.  0.
        4    1    3    3  502    0 -0.50852838634E+03  0.20521041584E+03 -0.17895142046E+04  0.18716503776E+04  0.12699999809E+01 0.  1.
       -4    1    3    3    0  502  0.50852838634E+03 -0.20521041584E+03  0.17208615378E+04  0.18061224985E+04  0.12699999809E+01 0. -1.
</event>
<event>
 5   0  0.4120440E-07  0.3601683E+04  0.7818609E-02  0.8090106E-01
       -2   -1    0    0    0  501  0.00000000000E+00  0.00000000000E+00  0.11759607848E+04  0.11759607848E+04  0.25500000920E-02 0. -1.
        2   -1    0    0  501    0  0.00000000000E+00  0.00000000000E+00 -0.27577699822E+04  0.27577699822E+04  0.25500000920E-02 0.  1.
    10030    2    1    2    0    0  0.00000000000E+00  0.00000000000E+00 -0.15818091974E+04  0.39337307670E+04  0.36016825805E+04 0.  0.
        2    1    3    3  502    0  0.82747737794E+03  0.15785769662E+04 -0.10723541621E+04  0.20800402637E+04  0.25500000920E-02 0. -1.
       -2    1    3    3    0  502 -0.82747737794E+03 -0.15785769662E+04 -0.50945503530E+03  0.18536905034E+04  0.25500000920E-02 0.  1.
</event>
<event>
 5   0  0.3993751E-07  0.3587179E+04  0.7818609E-02  0.8093435E-01
        2   -1    0    0  501    0  0.00000000000E+00  0.00000000000E+00  0.17817731558E+04  0.17817731558E+04  0.25500000920E-02 0. -1.
       -2   -1    0    0    0  501  0.00000000000E+00  0.00000000000E+00 -0.18054844887E+04  0.18054844887E+04  0.25500000920E-02 0.  1.
    10030    2    1    2    0    0  0.00000000000E+00  0.00000000000E+00 -0.23711332957E+02  0.35872576445E+04  0.35871792792E+04 0.  0.
        1    1    3    3  502    0 -0.55534039423E+03 -0.10533874958E+04 -0.13531290261E+04  0.18024944746E+04  0.50400001928E-02 0.  1.
       -1    1    3    3    0  502  0.55534039423E+03  0.10533874958E+04  0.13294176931E+04  0.17847631699E+04  0.50400001928E-02 0. -1.
</event>
<event>
 5   0  0.4200635E-07  0.3618724E+04  0.7818609E-02  0.8086216E-01
        2   -1    0    0  501    0  0.00000000000E+00  0.00000000000E+00  0.30203141543E+04  0.30203141543E+04  0.25500000920E-02 0.  1.
       -2   -1    0    0    0  501  0.00000000000E+00  0.00000000000E+00 -0.10839236848E+04  0.10839236848E+04  0.25500000920E-02 0. -1.
    10030    2    1    2    0    0  0.00000000000E+00  0.00000000000E+00  0.19363904695E+04  0.41042378390E+04  0.36187235580E+04 0.  0.
        4    1    3    3  502    0  0.64412781867E+01  0.16033924958E+04  0.19190573294E+04  0.25007382174E+04  0.12699999809E+01 0.  1.
       -4    1    3    3    0  502 -0.64412781867E+01 -0.16033924958E+04  0.17333140095E+02  0.16034996216E+04  0.12699999809E+01 0. -1.
</event>
<event>
 5   0  0.4115358E-07  0.3584530E+04  0.7818609E-02  0.8094044E-01
       -2   -1    0    0    0  501  0.00000000000E+00  0.00000000000E+00  0.24907067561E+04  0.24907067561E+04  0.25500000920E-02 0. -1.
        2   -1    0    0  501    0  0.00000000000E+00  0.00000000000E+00 -0.12896797440E+04  0.12896797440E+04  0.25500000920E-02 0.  1.
    10030    2    1    2    0    0  0.00000000000E+00  0.00000000000E+00  0.12010270122E+04  0.37803865001E+04  0.35845301235E+04 0.  0.
        3    1    3    3  502    0 -0.11109390222E+04 -0.13292506547E+04  0.11592855809E+03  0.17362408401E+04  0.10100000352E+00 0.  1.
       -3    1    3    3    0  502  0.11109390222E+04  0.13292506547E+04  0.10850984541E+04  0.20441456600E+04  0.10100000352E+00 0. -1.
</event>
<event>
 5   0  0.1370997E-07  0.3599918E+04  0.7818609E-02  0.8090511E-01
        1   -1    0    0  501    0  0.00000000000E+00  0.00000000000E+00  0.20622349416E+04  0.20622349416E+04  0.50400001928E-02 0. -1.
       -1   -1    0    0    0  501  0.00000000000E+00  0.00000000000E+00 -0.15710391763E+04  0.15710391763E+04  0.50400001928E-02 0.  1.
    10030    2    1    2    0    0  0.00000000000E+00  0.00000000000E+00  0.49119576524E+03  0.36332741179E+04  0.35999177124E+04 0.  0.
        3    1    3    3  502    0  0.30116031586E+03 -0.33036029347E+03  0.20053178246E+04  0.20545401060E+04  0.10100000352E+00 0. -1.
       -3    1    3    3    0  502 -0.30116031586E+03  0.33036029347E+03 -0.15141220594E+04  0.15787340119E+04  0.10100000352E+00 0.  1.
</event>
<event>
 5   0  0.1370997E-07  0.3600044E+04  0.7818609E-02  0.8090482E-01
       -1   -1    0    0    0  501  0.00000000000E+00  0.00000000000E+00  0.10836128437E+04  0.10836128437E+04  0.50400001928E-02 0. -1.
        1   -1    0    0  501    0  0.00000000000E+00  0.00000000000E+00 -0.29900706399E+04  0.29900706399E+04  0.50400001928E-02 0.  1.
    10030    2    1    2    0    0  0.00000000000E+00  0.00000000000E+00 -0.19064577962E+04  0.40736834836E+04  0.36000438602E+04 0.  0.
        3    1    3    3  502    0 -0.11416151630E+03  0.29653597107E+03  0.10516259302E+04  0.10985825145E+04  0.10100000352E+00 0. -1.
       -3    1    3    3    0  502  0.11416151630E+03 -0.29653597107E+03 -0.29580837263E+04  0.29751009691E+04  0.10100000352E+00 0.  1.
</event>
<event>
 5   0  0.1348226E-07  0.3604604E+04  0.7818609E-02  0.8089438E-01
       -1   -1    0    0    0  501  0.00000000000E+00  0.00000000000E+00  0.19236556980E+04  0.19236556980E+04  0.50400001928E-02 0.  1.
        1   -1    0    0  501    0  0.00000000000E+00  0.00000000000E+00 -0.16886040820E+04  0.16886040820E+04  0.50400001928E-02 0. -1.
    10030    2    1    2    0    0  0.00000000000E+00  0.00000000000E+00  0.23505161598E+03  0.36122597800E+04  0.36046042024E+04 0.  0.
        4    1    3    3  502    0 -0.74001416650E+03 -0.15088008061E+04 -0.53515646139E+03  0.17636595165E+04  0.12699999809E+01 0. -1.
       -4    1    3    3    0  502  0.74001416650E+03  0.15088008061E+04  0.77020807738E+03  0.18486002635E+04  0.12699999809E+01 0.  1.
</event>
<event>
 5   0  0.1298250E-07  0.3627326E+04  0.7818609E-02  0.8084261E-01
       -1   -1    0    0    0  501  0.00000000000E+00  0.00000000000E+00  0.27487579774E+04  0.27487579774E+04  0.50400001928E-02 0.  1.
        1   -1    0    0  501    0  0.00000000000E+00  0.00000000000E+00 -0.11966761198E+04  0.11966761198E+04  0.50400001928E-02 0. -1.
    10030    2    1    2    0    0  0.00000000000E+00  0.00000000000E+00  0.15520818576E+04  0.39454340972E+04  0.36273257536E+04 0.  0.
        1    1    3    3  502    0 -0.10075621903E+04  0.27173957417E+03 -0.83740355262E+03  0.13380092202E+04  0.50400001928E-02 0. -1.
       -1    1    3    3    0  502  0.10075621903E+04 -0.27173957417E+03  0.23894854102E+04  0.26074248770E+04  0.50400001928E-02 0.  1.
</event>
<event>
 5   0  0.3993751E-07  0.3597560E+04  0.7818609E-02  0.8091051E-01
       -2   -1    0    0    0  501  0.00000000000E+00  0.00000000000E+00  0.16189919075E+04  0.16189919075E+04  0.25500000920E-02 0. -1.
        2   -1    0    0  501    0  0.00000000000E+00  0.00000000000E+00 -0.19985331201E+04  0.19985331201E+04  0.25500000920E-02 0.  1.
    10030    2    1    2    0    0  0.00000000000E+00  0.00000000000E+00 -0.37954121256E+03  0.36175250276E+04  0.35975596997E+04 0.  0.
        1    1    3    3  502    0 -0.12820790956E+04 -0.11819534406E+04  0.25411803017E+03  0.17621908854E+04  0.50400001928E-02 0.  1.
       -1    1    3    3    0  502  0.12820790956E+04  0.11819534406E+04 -0.63365924273E+03  0.18553341422E+04  0.50400001928E-02 0. -1.
</event>
<event>
 5   0  0.4200635E-07  0.3599128E+04  0.7818609E-02  0.8090691E-01
        2   -1    0    0  501    0  0.00000000000E+00  0.00000000000E+00  0.18588643347E+04  0.18588643347E+04  0.25500000920E-02 0.  1.
       -2   -1    0    0    0  501  0.00000000000E+00  0.00000000000E+00 -0.17421559061E+04  0.17421559061E+04  0.25500000920E-02 0. -1.
    10030    2    1    2    0    0  0.00000000000E+00  0.00000000000E+00  0.11670842864E+03  0.36010202408E+04  0.35991284941E+04 0.  0.
        4    1    3    3  502    0  0.44887790176E+03 -0.13983320521E+04  0.10989037218E+04  0.18342341457E+04  0.12699999809E+01 0.  1.
       -4    1    3    3    0  502 -0.44887790176E+03  0.13983320521E+04 -0.98219529314E+03  0.17667860950E+04  0.12699999809E+01 0. -1.
</event>
<event>
 5   0  0.4120440E-07  0.3586282E+04  0.7818609E-02  0.8093641E-01
       -2   -1    0    0    0  501  0.00000000000E+00  0.00000000000E+00  0.23268922430E+04  0.23268922430E+04  0.25500000920E-02 0.  1.
        2   -1    0    0  501    0  0.00000000000E+00  0.00000000000E+00 -0.13818238678E+04  0.13818238678E+04  0.25500000920E-02 0. -1.
    10030    2    1    2    0    0  0.00000000000E+00  0.00000000000E+00  0.94506837525E+03  0.37087161108E+04  0.35862823309E+04 0.  0.
        2    1    3    3  502    0 -0.57631484431E+03  0.51731603659E+03  0.21450291758E+04  0.22805492423E+04  0.25500000920E-02 0.  1.
       -2    1    3    3    0  502  0.57631484431E+03 -0.51731603659E+03 -0.11999608006E+04  0.14281668685E+04  0.25500000920E-02 0. -1.
</event>
<event>
 5   0  0.1298250E-07  0.3601212E+04  0.7818609E-02  0.8090214E-01
        3   -1    0    0  501    0  0.00000000000E+00  0.00000000000E+00  0.25768104412E+04  0.25768104432E+04  0.10100000352E+00 0. -1.
       -3   -1    0    0    0  501  0.00000000000E+00  0.00000000000E+00 -0.12582153337E+04  0.12582153378E+04  0.10100000352E+00 0.  1.
    10030    2    1    2    0    0  0.00000000000E+00  0.00000000000E+00  0.13185951075E+04  0.38350257810E+04  0.36012122519E+04 0.  0.
        4    1    3    3  502    0 -0.36830017616E+02 -0.17748144123E+04  0.98029496981E+03  0.20278812808E+04  0.12699999809E+01 0.  1.
       -4    1    3    3    0  502  0.36830017616E+02  0.17748144123E+04  0.33830013769E+03  0.18071445002E+04  0.12699999809E+01 0. -1.
</event>
<event>
 5   0  0.1370997E-07  0.3589710E+04  0.7818609E-02  0.8092853E-01
       -1   -1    0    0    0  501  0.00000000000E+00  0.00000000000E+00  0.13006213200E+04  0.13006213200E+04  0.50400001928E-02 0. -1.
        1   -1    0    0  501    0  0.00000000000E+00  0.00000000000E+00 -0.24768967468E+04  0.24768967468E+04  0.50400001928E-02 0.  1.
    10030    2    1    2    0    0  0.00000000000E+00  0.00000000000E+00 -0.11762754268E+04  0.37775180668E+04  0.35897101367E+04 0.  0.
        3    1    3    3  502    0 -0.70500643123E+03 -0.11478797756E+04  0.66002134538E+03  0.15000967415E+04  0.10100000352E+00 0. -1.
       -3    1    3    3    0  502  0.70500643123E+03  0.11478797756E+04 -0.18362967722E+04  0.22774213253E+04  0.10100000352E+00 0.  1.
</event>
<event>
 5   0  0.3993751E-07  0.3603475E+04  0.7818609E-02  0.8089696E-01
       -2   -1    0    0    0  501  0.00000000000E+00  0.00000000000E+00  0.10878665237E+04  0.10878665237E+04  0.25500000920E-02 0.  1.
        2   -1    0    0  501    0  0.00000000000E+00  0.00000000000E+00 -0.29840588751E+04  0.29840588751E+04  0.25500000920E-02 0. -1.
    10030    2    1    2    0    0  0.00000000000E+00  0.00000000000E+00 -0.18961923514E+04  0.40719253988E+04  0.36034748535E+04 0.  0.
        1    1    3    3  502    0  0.69867721470E+02  0.42885460212E+02 -0.29819502772E+04  0.29830769545E+04  0.50400001928E-02 0. -1.
       -1    1    3    3    0  502 -0.69867721470E+02 -0.42885460212E+02  0.10857579258E+04  0.10888484443E+04  0.50400001928E-02 0.  1.
</event>
<event>
 5   0  0.1348226E-07  0.3593133E+04  0.7818609E-02  0.8092067E-01
        1   -1    0    0  501    0  0.00000000000E+00  0.00000000000E+00  0.26541894409E+04  0.26541894409E+04  0.50400001928E-02 0. -1.
       -1   -1    0    0    0  501  0.00000000000E+00  0.00000000000E+00 -0.12160589557E+04  0.12160589557E+04  0.50400001928E-02 0.  1.
    10030    2    1    2    0    0  0.00000000000E+00  0.00000000000E+00  0.14381304852E+04  0.38702483966E+04  0.35931328056E+04 0.  0.
        4    1    3    3  502    0 -0.96854473670E+03 -0.11910277460E+02 -0.91071522667E+03  0.13295204394E+04  0.12699999809E+01 0.  1.
       -4    1    3    3    0  502  0.96854473670E+03  0.11910277460E+02  0.23488457118E+04  0.25407279572E+04  0.12699999809E+01 0. -1.
</event>
<event>
 5   0  0.1370997E-07  0.3529820E+04  0.7818609E-02  0.8106759E-01
       -1   -1    0    0    0  501  0.00000000000E+00  0.00000000000E+00  0.21192424609E+04  0.21192424609E+04  0.50400001928E-02 0. -1.
        1   -1    0    0  501    0  0.00000000000E+00  0.00000000000E+00 -0.14698210977E+04  0.14698210977E+04  0.50400001928E-02 0.  1.
    10030    2    1    2    0    0  0.00000000000E+00  0.00000000000E+00  0.64942136318E+03  0.35890635586E+04  0.35298199842E+04 0.  0.
        3    1    3    3  502    0 -0.71846621130E+02 -0.16986542370E+04  0.80628324337E+03  0.18816696927E+04  0.10100000352E+00 0.  1.
       -3    1    3    3    0  502  0.71846621130E+02  0.16986542370E+04 -0.15686188019E+03  0.17073938659E+04  0.10100000352E+00 0. -1.
</event>
<event>
 5   0  0.1298250E-07  0.3569441E+04  0.7818609E-02  0.8097528E-01
       -1   -1    0    0    0  501  0.00000000000E+00  0.00000000000E+00  0.12936635949E+04  0.12936635949E+04  0.50400001928E-02 0.  1.
        1   -1    0    0  501    0  0.00000000000E+00  0.00000000000E+00 -0.24621756946E+04  0.24621756946E+04  0.50400001928E-02 0. -1.
    10030    2    1    2    0    0  0.00000000000E+00  0.00000000000E+00 -0.11685120997E+04  0.37558392895E+04  0.35694408864E+04 0.  0.
        1    1    3    3  502    0  0.21229990873E+03 -0.72814617086E+03 -0.22841571156E+04  0.24067907733E+04  0.50400001928E-02 0. -1.
       -1    1    3    3    0  502 -0.21229990873E+03  0.72814617086E+03  0.11156450160E+04  0.13490485162E+04  0.50400001928E-02 0.  1.
</event>
<event>
 5   0  0.1298250E-07  0.3596091E+04  0.7818609E-02  0.8091388E-01
        3   -1    0    0  501    0  0.00000000000E+00  0.00000000000E+00  0.16118739171E+04  0.16118739202E+04  0.10100000352E+00 0.  1.
       -3   -1    0    0    0  501  0.00000000000E+00  0.00000000000E+00 -0.20057197077E+04  0.20057197102E+04  0.10100000352E+00 0. -1.
    10030    2    1    2    0    0  0.00000000000E+00  0.00000000000E+00 -0.39384579063E+03  0.36175936304E+04  0.35960908176E+04 0.  0.
        4    1    3    3  502    0  0.12826554602E+04 -0.21503868177E+03  0.10520803658E+04  0.16728183922E+04  0.12699999809E+01 0.  1.
       -4    1    3    3    0  502 -0.12826554602E+04  0.21503868177E+03 -0.14459261565E+04  0.19447752382E+04  0.12699999809E+01 0. -1.
</event>
<event>
 5   0  0.1370997E-07  0.3616283E+04  0.7818609E-02  0.8086772E-01
       -1   -1    0    0    0  501  0.00000000000E+00  0.00000000000E+00  0.17805890734E+04  0.17805890734E+04  0.50400001928E-02 0. -1.
        1   -1    0    0  501    0  0.00000000000E+00  0.00000000000E+00 -0.18361199900E+04  0.18361199900E+04  0.50400001928E-02 0.  1.
    10030    2    1    2    0    0  0.00000000000E+00  0.00000000000E+00 -0.55530916563E+02  0.36167090635E+04  0.36162827278E+04 0.  0.
        3    1    3    3  502    0  0.10809466377E+04 -0.10903335946E+04  0.92738755284E+03  0.17936891215E+04  0.10100000352E+00 0. -1.
       -3    1    3    3    0  502 -0.10809466377E+04  0.10903335946E+04 -0.98291846941E+03  0.18230199420E+04  0.10100000352E+00 0.  1.
</event>
<event>
 5   0  0.4200635E-07  0.3406598E+04  0.7818609E-02  0.8136289E-01
       -2   -1    0    0    0  501  0.00000000000E+00  0.00000000000E+00  0.13730672820E+04  0.13730672820E+04  0.25500000920E-02 0. -1.
        2   -1    0    0  501    0  0.00000000000E+00  0.00000000000E+00 -0.21129540771E+04  0.21129540771E+04  0.25500000920E-02 0.  1.
    10030    2    1    2    0    0  0.00000000000E+00  0.00000000000E+00 -0.73988679515E+03  0.34860213591E+04  0.34065983688E+04 0.  0.
        4    1    3    3  502    0 -0.15409725112E+04 -0.23165413178E+03 -0.10737030063E+04  0.18923793689E+04  0.12699999809E+01 0.  1.
       -4    1    3    3    0  502  0.15409725112E+04  0.23165413178E+03  0.33381621117E+03  0.15936419902E+04  0.12699999809E+01 0. -1.
</event>
<event>
 5   0  0.3993751E-07  0.3587027E+04  0.7818609E-02  0.8093470E-01
       -2   -1    0    0    0  501  0.00000000000E+00  0.00000000000E+00  0.18719917252E+04  0.18719917252E+04  0.25500000920E-02 0. -1.
        2   -1    0    0  501    0  0.00000000000E+00  0.00000000000E+00 -0.17183255068E+04  0.17183255068E+04  0.25500000920E-02 0.  1.
    10030    2    1    2    0    0  0.00000000000E+00  0.00000000000E+00  0.15366621845E+03  0.35903172320E+04  0.35870272538E+04 0.  0.
        1    1    3    3  502    0  0.50745592589E+03 -0.18351304995E+03 -0.16351457183E+04  0.17218856165E+04  0.50400001928E-02 0.  1.
       -1    1    3    3    0  502 -0.50745592589E+03  0.18351304995E+03  0.17888119368E+04  0.18684316154E+04  0.50400001928E-02 0. -1.
</event>
<event>
 5   0  0.1348226E-07  0.3619117E+04  0.7818609E-02  0.8086127E-01
       -1   -1    0    0    0  501  0.00000000000E+00  0.00000000000E+00  0.20609593585E+04  0.20609593585E+04  0.50400001928E-02 0.  1.
        1   -1    0    0  501    0  0.00000000000E+00  0.00000000000E+00 -0.15888239734E+04  0.15888239734E+04  0.50400001928E-02 0. -1.
    10030    2    1    2    0    0  0.00000000000E+00  0.00000000000E+00  0.47213538519E+03  0.36497833319E+04  0.36191168188E+04 0.  0.
        4    1    3    3  502    0  0.17495164931E+04 -0.42898565177E+03  0.62377713842E+02  0.18024231582E+04  0.12699999809E+01 0. -1.
       -4    1    3    3    0  502 -0.17495164931E+04  0.42898565177E+03  0.40975767134E+03  0.18473601737E+04  0.12699999809E+01 0.  1.
</event>
<event>
 5   0  0.3880259E-07  0.3605585E+04  0.7818609E-02  0.8089214E-01
       -2   -1    0    0    0  501  0.00000000000E+00  0.00000000000E+00  0.16320999360E+04  0.16320999360E+04  0.25500000920E-02 0. -1.
        2   -1    0    0  501    0  0.00000000000E+00  0.00000000000E+00 -0.19913364457E+04  0.19913364457E+04  0.25500000920E-02 0.  1.
    10030    2    1    2    0    0  0.00000000000E+00  0.00000000000E+00 -0.35923650972E+03  0.36234363817E+04  0.36055846047E+04 0.  0.
        5    1    3    3  502    0 -0.88761781868E+03  0.96096236533E+03 -0.14262130369E+04  0.19353087031E+04  0.46999998093E+01 0.  1.
       -5    1    3    3    0  502  0.88761781868E+03 -0.96096236533E+03  0.10669765272E+04  0.16881276786E+04  0.46999998093E+01 0. -1.
</event>
<event>
 5   0  0.1348226E-07  0.3569979E+04  0.7818609E-02  0.8097403E-01
        1   -1    0    0  501    0  0.00000000000E+00  0.00000000000E+00  0.14268551722E+04  0.14268551722E+04  0.50400001928E-02 0. -1.
       -1   -1    0    0    0  501  0.00000000000E+00  0.00000000000E+00 -0.22330143606E+04  0.22330143606E+04  0.50400001928E-02 0.  1.
    10030    2    1    2    0    0  0.00000000000E+00  0.00000000000E+00 -0.80615918841E+03  0.36598695327E+04  0.35699793220E+04 0.  0.
        4    1    3    3  502    0 -0.77474077320E+03 -0.10224501353E+04 -0.16755247172E+04  0.21102161585E+04  0.12699999809E+01 0.  1.
       -4    1    3    3    0  502  0.77474077320E+03  0.10224501353E+04  0.86936552875E+03  0.15496533742E+04  0.12699999809E+01 0. -1.
</event>
<event>
 5   0  0.1298250E-07  0.3608175E+04  0.7818609E-02  0.8088622E-01
       -1   -1    0    0    0  501  0.00000000000E+00  0.00000000000E+00  0.13118475289E+04  0.13118475290E+04  0.50400001928E-02 0. -1.
        1   -1    0    0  501    0  0.00000000000E+00  0.00000000000E+00 -0.24810288838E+04  0.24810288838E+04  0.50400001928E-02 0.  1.
    10030    2    1    2    0    0  0.00000000000E+00  0.00000000000E+00 -0.11691813548E+04  0.37928764127E+04  0.36081749461E+04 0.  0.
        1    1    3    3  502    0 -0.57024393976E+02  0.12632496368E+04  0.76800915957E+03  0.14794896065E+04  0.50400001928E-02 0. -1.
       -1    1    3    3    0  502  0.57024393976E+02 -0.12632496368E+04 -0.19371905144E+04  0.23133868063E+04  0.50400001928E-02 0.  1.
</event>
<event>
 5   0  0.1298250E-07  0.3696129E+04  0.7818609E-02  0.8068820E-01
       -1   -1    0    0    0  501  0.00000000000E+00  0.00000000000E+00  0.17871826224E+04  0.17871826224E+04  0.50400001928E-02 0.  1.
        1   -1    0    0  501    0  0.00000000000E+00  0.00000000000E+00 -0.19110200214E+04  0.19110200214E+04  0.50400001928E-02 0. -1.
    10030    2    1    2    0    0  0.00000000000E+00  0.00000000000E+00 -0.12383739899E+03  0.36982026438E+04  0.36961286630E+04 0.  0.
        1    1    3    3  502    0 -0.20360079933E+03  0.13173454459E+04 -0.13426719023E+04  0.18919884108E+04  0.50400001928E-02 0. -1.
       -1    1    3    3    0  502  0.20360079933E+03 -0.13173454459E+04  0.12188345033E+04  0.18062142331E+04  0.50400001928E-02 0.  1.
</event>
<event>
 5   0  0.1370997E-07  0.3733352E+04  0.7818609E-02  0.8060611E-01
        1   -1    0    0  501    0  0.00000000000E+00  0.00000000000E+00  0.17413347834E+04  0.17413347834E+04  0.50400001928E-02 0. -1.
       -1   -1    0    0    0  501  0.00000000000E+00  0.00000000000E+00 -0.20010390354E+04  0.20010390354E+04  0.50400001928E-02 0.  1.
    10030    2    1    2    0    0  0.00000000000E+00  0.00000000000E+00 -0.25970425196E+03  0.37423738188E+04  0.37333517784E+04 0.  0.
        3    1    3    3  502    0 -0.28698683760E+03 -0.12472190549E+02 -0.19787502127E+04  0.19994922893E+04  0.10100000352E+00 0.  1.
       -3    1    3    3    0  502  0.28698683760E+03  0.12472190549E+02  0.17190459607E+04  0.17428815295E+04  0.10100000352E+00 0. -1.
</event>
<event>
 5   0  0.3880259E-07  0.3617143E+04  0.7818609E-02  0.8086576E-01
        2   -1    0    0  501    0  0.00000000000E+00  0.00000000000E+00  0.22503476953E+04  0.22503476953E+04  0.25500000920E-02 0. -1.
       -2   -1    0    0    0  501  0.00000000000E+00  0.00000000000E+00 -0.14535223315E+04  0.14535223315E+04  0.25500000920E-02 0.  1.
    10030    2    1    2    0    0  0.00000000000E+00  0.00000000000E+00  0.79682536379E+03  0.37038700269E+04  0.36171428664E+04 0.  0.
        5    1    3    3  502    0 -0.13859621482E+03 -0.33817496238E+03 -0.14153091638E+04  0.14617432521E+04  0.46999998093E+01 0.  1.
       -5    1    3    3    0  502  0.13859621482E+03  0.33817496238E+03  0.22121345276E+04  0.22421267748E+04  0.46999998093E+01 0. -1.
</event>
<event>
 5   0  0.3993751E-07  0.3616745E+04  0.7818609E-02  0.8086667E-01
       -2   -1    0    0    0  501  0.00000000000E+00  0.00000000000E+00  0.12151244408E+04  0.12151244408E+04  0.25500000920E-02 0. -1.
        2   -1    0    0  501    0  0.00000000000E+00  0.00000000000E+00 -0.26912559683E+04  0.26912559683E+04  0.25500000920E-02 0.  1.
    10030    2    1    2    0    0  0.00000000000E+00  0.00000000000E+00 -0.14761315275E+04  0.39063804090E+04  0.36167448920E+04 0.  0.
        1    1    3    3  502    0  0.36901114247E+03  0.93096145746E+03 -0.23644238497E+04  0.25677536096E+04  0.50400001928E-02 0.  1.
       -1    1    3    3    0  502 -0.36901114247E+03 -0.93096145746E+03  0.88829232221E+03  0.13386267995E+04  0.50400001928E-02 0. -1.
</event>
<event>
 5   0  0.1348226E-07  0.3637891E+04  0.7818609E-02  0.8081867E-01
        1   -1    0    0  501    0  0.00000000000E+00  0.00000000000E+00  0.23167236948E+04  0.23167236948E+04  0.50400001928E-02 0.  1.
       -1   -1    0    0    0  501  0.00000000000E+00  0.00000000000E+00 -0.14281215694E+04  0.14281215694E+04  0.50400001928E-02 0. -1.
    10030    2    1    2    0    0  0.00000000000E+00  0.00000000000E+00  0.88860212534E+03  0.37448452642E+04  0.36378911907E+04 0.  0.
        4    1    3    3  502    0  0.34300302391E+03 -0.26742942611E+03  0.22624068193E+04  0.23038350205E+04  0.12699999809E+01 0.  1.
       -4    1    3    3    0  502 -0.34300302391E+03  0.26742942611E+03 -0.13738046940E+04  0.14410102437E+04  0.12699999809E+01 0. -1.
</event>
<event>
 5   0  0.1370997E-07  0.3553242E+04  0.7818609E-02  0.8101287E-01
        1   -1    0    0  501    0  0.00000000000E+00  0.00000000000E+00  0.17276697775E+04  0.17276697775E+04  0.50400001928E-02 0. -1.
       -1   -1    0    0    0  501  0.00000000000E+00  0.00000000000E+00 -0.18269593962E+04  0.18269593963E+04  0.50400001928E-02 0.  1.
    10030    2    1    2    0    0  0.00000000000E+00  0.00000000000E+00 -0.99289618753E+02  0.35546291738E+04  0.35532422004E+04 0.  0.
        3    1    3    3  502    0 -0.61575192010E+03  0.93863201321E+03  0.13279192207E+04  0.17388358031E+04  0.10100000352E+00 0. -1.
       -3    1    3    3    0  502  0.61575192010E+03 -0.93863201321E+03 -0.14272088394E+04  0.18157933706E+04  0.10100000352E+00 0.  1.
</event>
<event>
 5   0  0.3880259E-07  0.3594735E+04  0.7818609E-02  0.8091699E-01
        2   -1    0    0  501    0  0.00000000000E+00  0.00000000000E+00  0.21455759147E+04  0.21455759147E+04  0.25500000920E-02 0. -1.
       -2   -1    0    0    0  501  0.00000000000E+00  0.00000000000E+00 -0.15056704205E+04  0.15056704205E+04  0.25500000920E-02 0.  1.
    10030    2    1    2    0    0  0.00000000000E+00  0.00000000000E+00  0.63990549411E+03  0.36512463352E+04  0.35947351445E+04 0.  0.
        5    1    3    3  502    0  0.23178922905E+03  0.15615539349E+04  0.11927227992E+04  0.19785819932E+04  0.46999998093E+01 0. -1.
       -5    1    3    3    0  502 -0.23178922905E+03 -0.15615539349E+04 -0.55281730505E+03  0.16726643420E+04  0.46999998093E+01 0.  1.
</event>
<event>
 5   0  0.1361743E-07  0.3607273E+04  0.7818609E-02  0.8088828E-01
        1   -1    0    0  501    0  0.00000000000E+00  0.00000000000E+00  0.20314746057E+04  0.20314746057E+04  0.50400001928E-02 0.  1.
       -1   -1    0    0    0  501  0.00000000000E+00  0.00000000000E+00 -0.16013509844E+04  0.16013509845E+04  0.50400001928E-02 0. -1.
    10030    2    1    2    0    0  0.00000000000E+00  0.00000000000E+00  0.43012362127E+03  0.36328255902E+04  0.36072725762E+04 0.  0.
        5    1    3    3  502    0  0.14442402995E+04 -0.78484596550E+03 -0.53267229717E+03  0.17278816795E+04  0.46999998093E+01 0. -1.
       -5    1    3    3    0  502 -0.14442402995E+04  0.78484596550E+03  0.96279591844E+03  0.19049439107E+04  0.46999998093E+01 0.  1.
</event>
<event>
 5   0  0.1370997E-07  0.3557223E+04  0.7818609E-02  0.8100361E-01
        1   -1    0    0  501    0  0.00000000000E+00  0.00000000000E+00  0.21670637744E+04  0.21670637744E+04  0.50400001928E-02 0. -1.
       -1   -1    0    0    0  501  0.00000000000E+00  0.00000000000E+00 -0.14597906491E+04  0.14597906491E+04  0.50400001928E-02 0.  1.
    10030    2    1    2    0    0  0.00000000000E+00  0.00000000000E+00  0.70727312536E+03  0.36268544235E+04  0.35572233182E+04 0.  0.
        3    1    3    3  502    0 -0.34910083937E+03 -0.16856613543E+03 -0.14161914389E+04  0.14682929340E+04  0.10100000352E+00 0.  1.
       -3    1    3    3    0  502  0.34910083937E+03  0.16856613543E+03  0.21234645643E+04  0.21585614895E+04  0.10100000352E+00 0. -1.
</event>
<event>
 5   0  0.4200635E-07  0.3602517E+04  0.7818609E-02  0.8089915E-01
       -2   -1    0    0    0  501  0.00000000000E+00  0.00000000000E+00  0.15640787300E+04  0.15640787300E+04  0.25500000920E-02 0. -1.
        2   -1    0    0  501    0  0.00000000000E+00  0.00000000000E+00 -0.20744045358E+04  0.20744045358E+04  0.25500000920E-02 0.  1.
    10030    2    1    2    0    0  0.00000000000E+00  0.00000000000E+00 -0.51032580579E+03  0.36384832659E+04  0.36025169046E+04 0.  0.
        4    1    3    3  502    0  0.31476662033E+03 -0.60628922932E+03  0.14281698768E+04  0.15831410123E+04  0.12699999809E+01 0. -1.
       -4    1    3    3    0  502 -0.31476662033E+03  0.60628922932E+03 -0.19384956826E+04  0.20553422536E+04  0.12699999809E+01 0.  1.
</event>
<event>
 5   0  0.4120440E-07  0.3383547E+04  0.7818609E-02  0.8141956E-01
       -2   -1    0    0    0  501  0.00000000000E+00  0.00000000000E+00  0.17552613315E+04  0.17552613315E+04  0.25500000920E-02 0. -1.
        2   -1    0    0  501    0  0.00000000000E+00  0.00000000000E+00 -0.16305818834E+04  0.16305818834E+04  0.25500000920E-02 0.  1.
    10030    2    1    2    0    0  0.00000000000E+00  0.00000000000E+00  0.12467944803E+03  0.33858432149E+04  0.33835468537E+04 0.  0.
        2    1    3    3  502    0  0.10602407747E+04  0.10653892582E+04  0.83935403255E+03  0.17215341890E+04  0.25500000920E-02 0.  1.
       -2    1    3    3    0  502 -0.10602407747E+04 -0.10653892582E+04 -0.71467458451E+03  0.16643090259E+04  0.25500000920E-02 0. -1.
</event>
<event>
 5   0  0.1298250E-07  0.3644360E+04  0.7818609E-02  0.8080405E-01
        1   -1    0    0  501    0  0.00000000000E+00  0.00000000000E+00  0.15762948281E+04  0.15762948281E+04  0.50400001928E-02 0.  1.
       -1   -1    0    0    0  501  0.00000000000E+00  0.00000000000E+00 -0.21064209414E+04  0.21064209414E+04  0.50400001928E-02 0. -1.
    10030    2    1    2    0    0  0.00000000000E+00  0.00000000000E+00 -0.53012611337E+03  0.36827157695E+04  0.36443602652E+04 0.  0.
        2    1    3    3  502    0  0.16410976412E+04  0.76228257556E+03 -0.48178381635E+02  0.18101373842E+04  0.25500000920E-02 0.  1.
       -2    1    3    3    0  502 -0.16410976412E+04 -0.76228257556E+03 -0.48194773174E+03  0.18725783853E+04  0.25500000920E-02 0. -1.
</event>
<event>
 5   0  0.4120440E-07  0.3609849E+04  0.7818609E-02  0.8088239E-01
       -2   -1    0    0    0  501  0.00000000000E+00  0.00000000000E+00  0.15167961205E+04  0.15167961205E+04  0.25500000920E-02 0. -1.
        2   -1    0    0  501    0  0.00000000000E+00  0.00000000000E+00 -0.21477847502E+04  0.21477847502E+04  0.25500000920E-02 0.  1.
    10030    2    1    2    0    0  0.00000000000E+00  0.00000000000E+00 -0.63098862969E+03  0.36645808707E+04  0.36098485158E+04 0.  0.
        2    1    3    3  502    0 -0.69007336850E+02 -0.12164748264E+03 -0.21422757689E+04  0.21468361821E+04  0.25500000920E-02 0.  1.
       -2    1    3    3    0  502  0.69007336850E+02  0.12164748264E+03  0.15112871392E+04  0.15177446886E+04  0.25500000920E-02 0. -1.
</event>
<event>
 5   0  0.1298250E-07  0.3601729E+04  0.7818609E-02  0.8090096E-01
       -1   -1    0    0    0  501  0.00000000000E+00  0.00000000000E+00  0.16504125446E+04  0.16504125446E+04  0.50400001928E-02 0. -1.
        1   -1    0    0  501    0  0.00000000000E+00  0.00000000000E+00 -0.19650321661E+04  0.19650321661E+04  0.50400001928E-02 0.  1.
    10030    2    1    2    0    0  0.00000000000E+00  0.00000000000E+00 -0.31461962157E+03  0.36154447107E+04  0.36017294387E+04 0.  0.
        2    1    3    3  502    0  0.12496063675E+04  0.12614610186E+04 -0.45897667344E+03  0.18339737080E+04  0.25500000920E-02 0.  1.
       -2    1    3    3    0  502 -0.12496063675E+04 -0.12614610186E+04  0.14435705186E+03  0.17814710027E+04  0.25500000920E-02 0. -1.
</event>
<event>
 5   0  0.1298250E-07  0.3586082E+04  0.7818609E-02  0.8093687E-01
        1   -1    0    0  501    0  0.00000000000E+00  0.00000000000E+00  0.22657135268E+04  0.22657135268E+04  0.50400001928E-02 0. -1.
       -1   -1    0    0    0  501  0.00000000000E+00  0.00000000000E+00 -0.14189772637E+04  0.14189772637E+04  0.50400001928E-02 0.  1.
    10030    2    1    2    0    0  0.00000000000E+00  0.00000000000E+00  0.84673626311E+03  0.36846907906E+04  0.35860819738E+04 0.  0.
        1    1    3    3  502    0  0.17673483876E+04  0.20584130677E+03  0.19567823759E+03  0.17900226087E+04  0.50400001928E-02 0. -1.
       -1    1    3    3    0  502 -0.17673483876E+04 -0.20584130677E+03  0.65105802552E+03  0.18946681819E+04  0.50400001928E-02 0.  1.
</event>
<event>
 5   0  0.4120440E-07  0.3597836E+04  0.7818609E-02  0.8090988E-01
        2   -1    0    0  501    0  0.00000000000E+00  0.00000000000E+00  0.20407571897E+04  0.20407571897E+04  0.25500000920E-02 0.  1.
       -2   -1    0    0    0  501  0.00000000000E+00  0.00000000000E+00 -0.15857378226E+04  0.15857378226E+04  0.25500000920E-02 0. -1.
    10030    2    1    2    0    0  0.00000000000E+00  0.00000000000E+00  0.45501936706E+03  0.36264950123E+04  0.35978359398E+04 0.  0.
        2    1    3    3  502    0  0.10031679796E+04  0.67561106957E+03  0.15697738775E+04  0.19816625190E+04  0.25500000920E-02 0.  1.
       -2    1    3    3    0  502 -0.10031679796E+04 -0.67561106957E+03 -0.11147545104E+04  0.16448324933E+04  0.25500000920E-02 0. -1.
</event>
<event>
 5   0  0.4200635E-07  0.3572623E+04  0.7818609E-02  0.8096792E-01
       -2   -1    0    0    0  501  0.00000000000E+00  0.00000000000E+00  0.17132369685E+04  0.17132369685E+04  0.25500000920E-02 0.  1.
        2   -1    0    0  501    0  0.00000000000E+00  0.00000000000E+00 -0.18625032449E+04  0.18625032449E+04  0.25500000920E-02 0. -1.
    10030    2    1    2    0    0  0.00000000000E+00  0.00000000000E+00 -0.14926627641E+03  0.35757402133E+04  0.35726233571E+04 0.  0.
        4    1    3    3  502    0 -0.46748210484E+03  0.36975507001E+03 -0.17600409309E+04  0.18582260415E+04  0.12699999809E+01 0. -1.
       -4    1    3    3    0  502  0.46748210484E+03 -0.36975507001E+03  0.16107746544E+04  0.17175141718E+04  0.12699999809E+01 0.  1.
</event>
<event>
 5   0  0.3993751E-07  0.3453000E+04  0.7818609E-02  0.8125019E-01
       -2   -1    0    0    0  501  0.00000000000E+00  0.00000000000E+00  0.16602787202E+04  0.16602787202E+04  0.25500000920E-02 0.  1.
        2   -1    0    0  501    0  0.00000000000E+00  0.00000000000E+00 -0.17953629757E+04  0.17953629757E+04  0.25500000920E-02 0. -1.
    10030    2    1    2    0    0  0.00000000000E+00  0.00000000000E+00 -0.13508425542E+03  0.34556416959E+04  0.34530004017E+04 0.  0.
        1    1    3    3  502    0 -0.66288735384E+03 -0.46857497469E+03 -0.15924598958E+04  0.17874313051E+04  0.50400001928E-02 0. -1.
       -1    1    3    3    0  502  0.66288735384E+03  0.46857497469E+03  0.14573756404E+04  0.16682103908E+04  0.50400001928E-02 0.  1.
</event>
<event>
 5   0  0.3993751E-07  0.3585459E+04  0.7818609E-02  0.8093831E-01
       -2   -1    0    0    0  501  0.00000000000E+00  0.00000000000E+00  0.11300014472E+04  0.11300014472E+04  0.25500000920E-02 0. -1.
        2   -1    0    0  501    0  0.00000000000E+00  0.00000000000E+00 -0.28441378363E+04  0.28441378363E+04  0.25500000920E-02 0.  1.
    10030    2    1    2    0    0  0.00000000000E+00  0.00000000000E+00 -0.17141363891E+04  0.39741392836E+04  0.35854594524E+04 0.  0.
        1    1    3    3  502    0  0.83462678980E+03  0.12605215050E+04 -0.19250338923E+04  0.24477074640E+04  0.50400001928E-02 0.  1.
       -1    1    3    3    0  502 -0.83462678980E+03 -0.12605215050E+04  0.21089750318E+03  0.15264318196E+04  0.50400001928E-02 0. -1.
</event>
<event>
 5   0  0.1298250E-07  0.3226547E+04  0.7818609E-02  0.8181841E-01
        1   -1    0    0  501    0  0.00000000000E+00  0.00000000000E+00  0.21650289132E+04  0.21650289132E+04  0.50400001928E-02 0.  1.
       -1   -1    0    0    0  501  0.00000000000E+00  0.00000000000E+00 -0.12021321899E+04  0.12021321899E+04  0.50400001928E-02 0. -1.
    10030    2    1    2    0    0  0.00000000000E+00  0.00000000000E+00  0.96289672329E+03  0.33671611030E+04  0.32265467290E+04 0.  0.
        2    1    3    3  502    0  0.17618585547E+03 -0.96178673347E+03 -0.85766331533E+03  0.13006388964E+04  0.25500000920E-02 0. -1.
       -2    1    3    3    0  502 -0.17618585547E+03  0.96178673347E+03  0.18205600386E+04  0.20665222066E+04  0.25500000920E-02 0.  1.
</event>
<event>
 5   0  0.1298250E-07  0.3576445E+04  0.7818609E-02  0.8095909E-01
        4   -1    0    0  501    0  0.00000000000E+00  0.00000000000E+00  0.19889673471E+04  0.19889677526E+04  0.12699999809E+01 0.  1.
       -4   -1    0    0    0  501  0.00000000000E+00  0.00000000000E+00 -0.16077378552E+04  0.16077383568E+04  0.12699999809E+01 0. -1.
    10030    2    1    2    0    0  0.00000000000E+00  0.00000000000E+00  0.38122949195E+03  0.35967061093E+04  0.35764450103E+04 0.  0.
        1    1    3    3  502    0  0.26448070814E+03  0.67716587454E+03 -0.14524205474E+04  0.16242010692E+04  0.50400001928E-02 0. -1.
       -1    1    3    3    0  502 -0.26448070814E+03 -0.67716587454E+03  0.18336500393E+04  0.19725050402E+04  0.50400001928E-02 0.  1.
</event>
<event>
 5   0  0.3993751E-07  0.3602986E+04  0.7818609E-02  0.8089808E-01
        2   -1    0    0  501    0  0.00000000000E+00  0.00000000000E+00  0.24745783755E+04  0.24745783755E+04  0.25500000920E-02 0.  1.
       -2   -1    0    0    0  501  0.00000000000E+00  0.00000000000E+00 -0.13114869586E+04  0.13114869586E+04  0.25500000920E-02 0. -1.
    10030    2    1    2    0    0  0.00000000000E+00  0.00000000000E+00  0.11630914169E+04  0.37860653341E+04  0.36029861324E+04 0.  0.
        1    1    3    3  502    0  0.11529758832E+04 -0.16970156757E+03 -0.86202274818E+03  0.14495638060E+04  0.50400001928E-02 0. -1.
       -1    1    3    3    0  502 -0.11529758832E+04  0.16970156757E+03  0.20251141651E+04  0.23365015281E+04  0.50400001928E-02 0.  1.
</event>
<event>
 5   0  0.3880259E-07  0.3589271E+04  0.7818609E-02  0.8092954E-01
        2   -1    0    0  501    0  0.00000000000E+00  0.00000000000E+00  0.15702647681E+04  0.15702647681E+04  0.25500000920E-02 0.  1.
       -2   -1    0    0    0  501  0.00000000000E+00  0.00000000000E+00 -0.20510664418E+04  0.20510664418E+04  0.25500000920E-02 0. -1.
    10030    2    1    2    0    0  0.00000000000E+00  0.00000000000E+00 -0.48080167365E+03  0.36213312099E+04  0.35892714417E+04 0.  0.
        5    1    3    3  502    0 -0.22224629740E+02  0.17910789349E+04 -0.12878906859E+03  0.17958469866E+04  0.46999998093E+01 0. -1.
       -5    1    3    3    0  502  0.22224629740E+02 -0.17910789349E+04 -0.35201260505E+03  0.18254842232E+04  0.46999998093E+01 0.  1.
</event>
<event>
 5   0  0.4200635E-07  0.3730772E+04  0.7818609E-02  0.8061176E-01
        2   -1    0    0  501    0  0.00000000000E+00  0.00000000000E+00  0.17951508351E+04  0.17951508351E+04  0.25500000920E-02 0. -1.
       -2   -1    0    0    0  501  0.00000000000E+00  0.00000000000E+00 -0.19383695243E+04  0.19383695243E+04  0.25500000920E-02 0.  1.
    10030    2    1    2    0    0  0.00000000000E+00  0.00000000000E+00 -0.14321868915E+03  0.37335203594E+04  0.37307723974E+04 0.  0.
        4    1    3    3  502    0  0.30757584912E+03  0.16203251077E+04  0.80058737349E+03  0.18333025154E+04  0.12699999809E+01 0. -1.
       -4    1    3    3    0  502 -0.30757584912E+03 -0.16203251077E+04 -0.94380606264E+03  0.19002178439E+04  0.12699999809E+01 0.  1.
</event>
<event>
 5   0  0.1298250E-07  0.3579095E+04  0.7818609E-02  0.8095297E-01
       -1   -1    0    0    0  501  0.00000000000E+00  0.00000000000E+00  0.19483916654E+04  0.19483916654E+04  0.50400001928E-02 0.  1.
        1   -1    0    0  501    0  0.00000000000E+00  0.00000000000E+00 -0.16436534523E+04  0.16436534523E+04  0.50400001928E-02 0. -1.
    10030    2    1    2    0    0  0.00000000000E+00  0.00000000000E+00  0.30473821304E+03  0.35920451177E+04  0.35790952417E+04 0.  0.
        1    1    3    3  502    0 -0.55446173081E+02  0.34096075808E+03 -0.16098747599E+04  0.16465191342E+04  0.50400001928E-02 0. -1.
       -1    1    3    3    0  502  0.55446173081E+02 -0.34096075808E+03  0.19146129729E+04  0.19455259836E+04  0.50400001928E-02 0.  1.
</event>
<event>
 5   0  0.4115358E-07  0.3618660E+04  0.7818609E-02  0.8086231E-01
        2   -1    0    0  501    0  0.00000000000E+00  0.00000000000E+00  0.29175583723E+04  0.29175583723E+04  0.25500000920E-02 0. -1.
       -2   -1    0    0    0  501  0.00000000000E+00  0.00000000000E+00 -0.11220596812E+04  0.11220596812E+04  0.25500000920E-02 0.  1.
    10030    2    1    2    0    0  0.00000000000E+00  0.00000000000E+00  0.17954986910E+04  0.40396180535E+04  0.36186597614E+04 0.  0.
        3    1    3    3  502    0 -0.65169717253E+02 -0.10489232838E+04  0.25418980545E+04  0.27505877330E+04  0.10100000352E+00 0. -1.
       -3    1    3    3    0  502  0.65169717253E+02  0.10489232838E+04 -0.74639936344E+03  0.12890303205E+04  0.10100000352E+00 0.  1.
</event>
<event>
 5   0  0.3993751E-07  0.3594285E+04  0.7818609E-02  0.8091802E-01
       -2   -1    0    0    0  501  0.00000000000E+00  0.00000000000E+00  0.11288826269E+04  0.11288826269E+04  0.25500000920E-02 0. -1.
        2   -1    0    0  501    0  0.00000000000E+00  0.00000000000E+00 -0.28609886453E+04  0.28609886453E+04  0.25500000920E-02 0.  1.
    10030    2    1    2    0    0  0.00000000000E+00  0.00000000000E+00 -0.17321060185E+04  0.39898712722E+04  0.35942845616E+04 0.  0.
        1    1    3    3  502    0  0.12249778638E+04 -0.10788444691E+04 -0.17006263206E+04  0.23572454343E+04  0.50400001928E-02 0. -1.
       -1    1    3    3    0  502 -0.12249778638E+04  0.10788444691E+04 -0.31479697865E+02  0.16326258379E+04  0.50400001928E-02 0.  1.
</event>
<event>
 5   0  0.1348226E-07  0.3596773E+04  0.7818609E-02  0.8091231E-01
        1   -1    0    0  501    0  0.00000000000E+00  0.00000000000E+00  0.26302355563E+04  0.26302355563E+04  0.50400001928E-02 0.  1.
       -1   -1    0    0    0  501  0.00000000000E+00  0.00000000000E+00 -0.12296214017E+04  0.12296214017E+04  0.50400001928E-02 0. -1.
    10030    2    1    2    0    0  0.00000000000E+00  0.00000000000E+00  0.14006141546E+04  0.38598569580E+04  0.35967729601E+04 0.  0.
        4    1    3    3  502    0  0.16946172813E+03  0.16399190033E+04 -0.70671375828E+02  0.16501659526E+04  0.12699999809E+01 0. -1.
       -4    1    3    3    0  502 -0.16946172813E+03 -0.16399190033E+04  0.14712855304E+04  0.22096910055E+04  0.12699999809E+01 0.  1.
</event>
<event>
 5   0  0.4115358E-07  0.3595628E+04  0.7818609E-02  0.8091494E-01
        2   -1    0    0  501    0  0.00000000000E+00  0.00000000000E+00  0.13245197648E+04  0.13245197648E+04  0.25500000920E-02 0. -1.
       -2   -1    0    0    0  501  0.00000000000E+00  0.00000000000E+00 -0.24402313094E+04  0.24402313094E+04  0.25500000920E-02 0.  1.
    10030    2    1    2    0    0  0.00000000000E+00  0.00000000000E+00 -0.11157115446E+04  0.37647510742E+04  0.35956276781E+04 0.  0.
        3    1    3    3  502    0  0.10557719576E+04  0.43000393684E+03  0.89770361452E+03  0.14510098559E+04  0.10100000352E+00 0. -1.
       -3    1    3    3    0  502 -0.10557719576E+04 -0.43000393684E+03 -0.20134151591E+04  0.23137412183E+04  0.10100000352E+00 0.  1.
</event>
<event>
 5   0  0.3993751E-07  0.3610958E+04  0.7818609E-02  0.8087986E-01
       -2   -1    0    0    0  501  0.00000000000E+00  0.00000000000E+00  0.15125055607E+04  0.15125055607E+04  0.25500000920E-02 0. -1.
        2   -1    0    0  501    0  0.00000000000E+00  0.00000000000E+00 -0.21552019053E+04  0.21552019053E+04  0.25500000920E-02 0.  1.
    10030    2    1    2    0    0  0.00000000000E+00  0.00000000000E+00 -0.64269634451E+03  0.36677074660E+04  0.36109582475E+04 0.  0.
        1    1    3    3  502    0  0.67105319006E+02 -0.71759166835E+03 -0.20027533578E+04  0.21284881815E+04  0.50400001928E-02 0.  1.
       -1    1    3    3    0  502 -0.67105319006E+02  0.71759166835E+03  0.13600570133E+04  0.15392192845E+04  0.50400001928E-02 0. -1.
</event>
<event>
 5   0  0.1298250E-07  0.3593421E+04  0.7818609E-02  0.8092000E-01
        1   -1    0    0  501    0  0.00000000000E+00  0.00000000000E+00  0.14242105710E+04  0.14242105710E+04  0.50400001928E-02 0. -1.
       -1   -1    0    0    0  501  0.00000000000E+00  0.00000000000E+00 -0.22666377881E+04  0.22666377882E+04  0.50400001928E-02 0.  1.
    10030    2    1    2    0    0  0.00000000000E+00  0.00000000000E+00 -0.84242721716E+03  0.36908483591E+04  0.35934214885E+04 0.  0.
        2    1    3    3  502    0 -0.12779465184E+04  0.48409724365E+03  0.77689109805E+03  0.15719596761E+04  0.25500000920E-02 0. -1.
       -2    1    3    3    0  502  0.12779465184E+04 -0.48409724365E+03 -0.16193183152E+04  0.21188886830E+04  0.25500000920E-02 0.  1.
</event>
<event>
 5   0  0.3880259E-07  0.3523246E+04  0.7818609E-02  0.8108303E-01
        2   -1    0    0  501    0  0.00000000000E+00  0.00000000000E+00  0.19141841854E+04  0.19141841854E+04  0.25500000920E-02 0.  1.
       -2   -1    0    0    0  501  0.00000000000E+00  0.00000000000E+00 -0.16212214199E+04  0.16212214199E+04  0.25500000920E-02 0. -1.
    10030    2    1    2    0    0  0.00000000000E+00  0.00000000000E+00  0.29296276543E+03  0.35354056053E+04  0.35232464591E+04 0.  0.
        5    1    3    3  502    0 -0.10217493611E+04  0.77367903957E+03  0.13592645860E+04  0.18682005562E+04  0.46999998093E+01 0.  1.
       -5    1    3    3    0  502  0.10217493611E+04 -0.77367903957E+03 -0.10663018206E+04  0.16672050491E+04  0.46999998093E+01 0. -1.
</event>
<event>
 5   0  0.1298250E-07  0.3526584E+04  0.7818609E-02  0.8107519E-01
        1   -1    0    0  501    0  0.00000000000E+00  0.00000000000E+00  0.13758937231E+04  0.13758937231E+04  0.50400001928E-02 0.  1.
       -1   -1    0    0    0  501  0.00000000000E+00  0.00000000000E+00 -0.22597669895E+04  0.22597669895E+04  0.50400001928E-02 0. -1.
    10030    2    1    2    0    0  0.00000000000E+00  0.00000000000E+00 -0.88387326644E+03  0.36356607126E+04  0.35265843058E+04 0.  0.
        1    1    3    3  502    0  0.42094258820E+03  0.16676280893E+04 -0.41299885976E+02  0.17204306982E+04  0.50400001928E-02 0. -1.
       -1    1    3    3    0  502 -0.42094258820E+03 -0.16676280893E+04 -0.84257338046E+03  0.19152300144E+04  0.50400001928E-02 0.  1.
</event>
<event>
 5   0  0.3993751E-07  0.3630000E+04  0.7818609E-02  0.8083654E-01
       -2   -1    0    0    0  501  0.00000000000E+00  0.00000000000E+00  0.15800051003E+04  0.15800051003E+04  0.25500000920E-02 0.  1.
        2   -1    0    0  501    0  0.00000000000E+00  0.00000000000E+00 -0.20849456005E+04  0.20849456005E+04  0.25500000920E-02 0. -1.
    10030    2    1    2    0    0  0.00000000000E+00  0.00000000000E+00 -0.50494050026E+03  0.36649507008E+04  0.36299998251E+04 0.  0.
        1    1    3    3  502    0  0.55178188013E+03 -0.17147141532E+04 -0.47713651846E+03  0.18634288630E+04  0.50400001928E-02 0. -1.
       -1    1    3    3    0  502 -0.55178188013E+03  0.17147141532E+04 -0.27803981797E+02  0.18015218377E+04  0.50400001928E-02 0.  1.
</event>
<event>
 5   0  0.4120440E-07  0.3619068E+04  0.7818609E-02  0.8086138E-01
        2   -1    0    0  501    0  0.00000000000E+00  0.00000000000E+00  0.20248981497E+04  0.20248981497E+04  0.25500000920E-02 0.  1.
       -2   -1    0    0    0  501  0.00000000000E+00  0.00000000000E+00 -0.16170751747E+04  0.16170751747E+04  0.25500000920E-02 0. -1.
    10030    2    1    2    0    0  0.00000000000E+00  0.00000000000E+00  0.40782297493E+03  0.36419733244E+04  0.36190675756E+04 0.  0.
        2    1    3    3  502    0 -0.26576985202E+03  0.81834375008E+03 -0.13980471306E+04  0.16416016225E+04  0.25500000920E-02 0. -1.
       -2    1    3    3    0  502  0.26576985202E+03 -0.81834375008E+03  0.18058701056E+04  0.20003717019E+04  0.25500000920E-02 0.  1.
</event>
<event>
 5   0  0.1298250E-07  0.3638336E+04  0.7818609E-02  0.8081766E-01
       -3   -1    0    0    0  501  0.00000000000E+00  0.00000000000E+00  0.15989994814E+04  0.15989994846E+04  0.10100000352E+00 0. -1.
        3   -1    0    0  501    0  0.00000000000E+00  0.00000000000E+00 -0.20696522199E+04  0.20696522224E+04  0.10100000352E+00 0.  1.
    10030    2    1    2    0    0  0.00000000000E+00  0.00000000000E+00 -0.47065273849E+03  0.36686517070E+04  0.36383363433E+04 0.  0.
        4    1    3    3  502    0  0.13286580290E+04 -0.41241661552E+03  0.94659709731E+03  0.16826964374E+04  0.12699999809E+01 0. -1.
       -4    1    3    3    0  502 -0.13286580290E+04  0.41241661552E+03 -0.14172498358E+04  0.19859552696E+04  0.12699999809E+01 0.  1.
</event>
<event>
 5   0  0.1370997E-07  0.3598061E+04  0.7818609E-02  0.8090936E-01
       -1   -1    0    0    0  501  0.00000000000E+00  0.00000000000E+00  0.18635075432E+04  0.18635075432E+04  0.50400001928E-02 0.  1.
        1   -1    0    0  501    0  0.00000000000E+00  0.00000000000E+00 -0.17367840155E+04  0.17367840156E+04  0.50400001928E-02 0. -1.
    10030    2    1    2    0    0  0.00000000000E+00  0.00000000000E+00  0.12672352764E+03  0.36002915588E+04  0.35980606520E+04 0.  0.
        3    1    3    3  502    0 -0.28544487783E+03 -0.35538803930E+03  0.18047656920E+04  0.18614399399E+04  0.10100000352E+00 0.  1.
       -3    1    3    3    0  502  0.28544487783E+03  0.35538803930E+03 -0.16780421643E+04  0.17388516188E+04  0.10100000352E+00 0. -1.
</event>
<event>
 5   0  0.4115358E-07  0.3590138E+04  0.7818609E-02  0.8092754E-01
        2   -1    0    0  501    0  0.00000000000E+00  0.00000000000E+00  0.21582521250E+04  0.21582521250E+04  0.25500000920E-02 0. -1.
       -2   -1    0    0    0  501  0.00000000000E+00  0.00000000000E+00 -0.14930010517E+04  0.14930010517E+04  0.25500000920E-02 0.  1.
    10030    2    1    2    0    0  0.00000000000E+00  0.00000000000E+00  0.66525107324E+03  0.36512531767E+04  0.35901379876E+04 0.  0.
        3    1    3    3  502    0  0.96016199576E+03  0.63284783235E+03 -0.10691943149E+04  0.15702177970E+04  0.10100000352E+00 0.  1.
       -3    1    3    3    0  502 -0.96016199576E+03 -0.63284783235E+03  0.17344453881E+04  0.20810353797E+04  0.10100000352E+00 0. -1.
</event>
<event>
 5   0  0.3880259E-07  0.3615489E+04  0.7818609E-02  0.8086953E-01
       -2   -1    0    0    0  501  0.00000000000E+00  0.00000000000E+00  0.13075492750E+04  0.13075492750E+04  0.25500000920E-02 0. -1.
        2   -1    0    0  501    0  0.00000000000E+00  0.00000000000E+00 -0.24992858556E+04  0.24992858556E+04  0.25500000920E-02 0.  1.
    10030    2    1    2    0    0  0.00000000000E+00  0.00000000000E+00 -0.11917365805E+04  0.38068351306E+04  0.36154885748E+04 0.  0.
        5    1    3    3  502    0  0.15978725518E+04  0.69383964474E+03 -0.11044504498E+04  0.20626301246E+04  0.46999998093E+01 0.  1.
       -5    1    3    3    0  502 -0.15978725518E+04 -0.69383964474E+03 -0.87286130681E+02  0.17442050061E+04  0.46999998093E+01 0. -1.
</event>
<event>
 5   0  0.1298250E-07  0.3609536E+04  0.7818609E-02  0.8088311E-01
       -3   -1    0    0    0  501  0.00000000000E+00  0.00000000000E+00  0.29806387663E+04  0.29806387680E+04  0.10100000352E+00 0. -1.
        3   -1    0    0  501    0  0.00000000000E+00  0.00000000000E+00 -0.10927817905E+04  0.10927817952E+04  0.10100000352E+00 0.  1.
    10030    2    1    2    0    0  0.00000000000E+00  0.00000000000E+00  0.18878569758E+04  0.40734205632E+04  0.36095361369E+04 0.  0.
        4    1    3    3  502    0 -0.80088453837E+03 -0.90476957357E+02  0.27662584461E+04  0.28812826184E+04  0.12699999809E+01 0. -1.
       -4    1    3    3    0  502  0.80088453837E+03  0.90476957357E+02 -0.87840147025E+03  0.11921379448E+04  0.12699999809E+01 0.  1.
</event>
<event>
 5   0  0.3993751E-07  0.3599819E+04  0.7818609E-02  0.8090533E-01
        2   -1    0    0  501    0  0.00000000000E+00  0.00000000000E+00  0.20766097694E+04  0.20766097694E+04  0.25500000920E-02 0.  1.
       -2   -1    0    0    0  501  0.00000000000E+00  0.00000000000E+00 -0.15600787353E+04  0.15600787353E+04  0.25500000920E-02 0. -1.
    10030    2    1    2    0    0  0.00000000000E+00  0.00000000000E+00  0.51653103408E+03  0.36366885047E+04  0.35998192970E+04 0.  0.
        1    1    3    3  502    0 -0.18838808621E+03  0.32191517858E+03  0.20371393354E+04  0.20710036516E+04  0.50400001928E-02 0.  1.
       -1    1    3    3    0  502  0.18838808621E+03 -0.32191517858E+03 -0.15206083013E+04  0.15656848531E+04  0.50400001928E-02 0. -1.
</event>
<event>
 5   0  0.1298250E-07  0.3643207E+04  0.7818609E-02  0.8080666E-01
        1   -1    0    0  501    0  0.00000000000E+00  0.00000000000E+00  0.19116117474E+04  0.19116117474E+04  0.50400001928E-02 0. -1.
       -1   -1    0    0    0  501  0.00000000000E+00  0.00000000000E+00 -0.17358337301E+04  0.17358337301E+04  0.50400001928E-02 0.  1.
    10030    2    1    2    0    0  0.00000000000E+00  0.00000000000E+00  0.17577801734E+03  0.36474454776E+04  0.36432074605E+04 0.  0.
        1    1    3    3  502    0  0.12010528856E+04  0.25042557863E+03 -0.12601538680E+04  0.17587577364E+04  0.50400001928E-02 0.  1.
       -1    1    3    3    0  502 -0.12010528856E+04 -0.25042557863E+03  0.14359318853E+04  0.18886877412E+04  0.50400001928E-02 0. -1.
</event>
<event>
 5   0  0.4115358E-07  0.3588639E+04  0.7818609E-02  0.8093099E-01
        2   -1    0    0  501    0  0.00000000000E+00  0.00000000000E+00  0.18225230054E+04  0.18225230054E+04  0.25500000920E-02 0. -1.
       -2   -1    0    0    0  501  0.00000000000E+00  0.00000000000E+00 -0.17665528227E+04  0.17665528227E+04  0.25500000920E-02 0.  1.
    10030    2    1    2    0    0  0.00000000000E+00  0.00000000000E+00  0.55970182730E+02  0.35890758281E+04  0.35886393855E+04 0.  0.
        3    1    3    3  502    0 -0.17737235940E+04  0.13525768575E+03  0.26294582364E+03  0.17982020315E+04  0.10100000352E+00 0.  1.
       -3    1    3    3    0  502  0.17737235940E+04 -0.13525768575E+03 -0.20697564091E+03  0.17908737967E+04  0.10100000352E+00 0. -1.
</event>
<event>
 5   0  0.4200635E-07  0.3619174E+04  0.7818609E-02  0.8086114E-01
        2   -1    0    0  501    0  0.00000000000E+00  0.00000000000E+00  0.17190918441E+04  0.17190918441E+04  0.25500000920E-02 0. -1.
       -2   -1    0    0    0  501  0.00000000000E+00  0.00000000000E+00 -0.19048462992E+04  0.19048462992E+04  0.25500000920E-02 0.  1.
    10030    2    1    2    0    0  0.00000000000E+00  0.00000000000E+00 -0.18575445514E+03  0.36239381433E+04  0.36191743463E+04 0.  0.
        4    1    3    3  502    0  0.28110836619E+02 -0.82972702282E+03 -0.17029013002E+04  0.18944950786E+04  0.12699999809E+01 0.  1.
       -4    1    3    3    0  502 -0.28110836619E+02  0.82972702282E+03  0.15171468451E+04  0.17294430647E+04  0.12699999809E+01 0. -1.
</event>
<event>
 5   0  0.4120440E-07  0.3566749E+04  0.7818609E-02  0.8098151E-01
        2   -1    0    0  501    0  0.00000000000E+00  0.00000000000E+00  0.20753706926E+04  0.20753706926E+04  0.25500000920E-02 0. -1.
       -2   -1    0    0    0  501  0.00000000000E+00  0.00000000000E+00 -0.15324610920E+04  0.15324610920E+04  0.25500000920E-02 0.  1.
    10030    2    1    2    0    0  0.00000000000E+00  0.00000000000E+00  0.54290960058E+03  0.36078317847E+04  0.35667491294E+04 0.  0.
        2    1    3    3  502    0  0.17660752753E+04  0.23062499052E+03  0.36313582377E+03  0.18177121309E+04  0.25500000920E-02 0. -1.
       -2    1    3    3    0  502 -0.17660752753E+04 -0.23062499052E+03  0.17977377682E+03  0.17901196538E+04  0.25500000920E-02 0.  1.
</event>
<event>
 5   0  0.4120440E-07  0.3612461E+04  0.7818609E-02  0.8087643E-01
       -2   -1    0    0    0  501  0.00000000000E+00  0.00000000000E+00  0.13680238104E+04  0.13680238104E+04  0.25500000920E-02 0. -1.
        2   -1    0    0  501    0  0.00000000000E+00  0.00000000000E+00 -0.23848036521E+04  0.23848036521E+04  0.25500000920E-02 0.  1.
    10030    2    1    2    0    0  0.00000000000E+00  0.00000000000E+00 -0.10167798418E+04  0.37528274625E+04  0.36124607564E+04 0.  0.
        2    1    3    3  502    0  0.13607417832E+04  0.80477935999E+03  0.39915680867E+03  0.16305257363E+04  0.25500000920E-02 0. -1.
       -2    1    3    3    0  502 -0.13607417832E+04 -0.80477935999E+03 -0.14159366504E+04  0.21223017262E+04  0.25500000920E-02 0.  1.
</event>
<event>
 5   0  0.3993751E-07  0.3548007E+04  0.7818609E-02  0.8102506E-01
        2   -1    0    0  501    0  0.00000000000E+00  0.00000000000E+00  0.12497718260E+04  0.12497718260E+04  0.25500000920E-02 0.  1.
       -2   -1    0    0    0  501  0.00000000000E+00  0.00000000000E+00 -0.25181310873E+04  0.25181310873E+04  0.25500000920E-02 0. -1.
    10030    2    1    2    0    0  0.00000000000E+00  0.00000000000E+00 -0.12683592612E+04  0.37679029133E+04  0.35480074899E+04 0.  0.
        1    1    3    3  502    0 -0.14779533981E+04 -0.67592897209E+03 -0.13895008080E+04  0.21382092315E+04  0.50400001928E-02 0. -1.
       -1    1    3    3    0  502  0.14779533981E+04  0.67592897209E+03  0.12114154678E+03  0.16296936818E+04  0.50400001928E-02 0.  1.
</event>
<event>
 5   0  0.1298250E-07  0.3607194E+04  0.7818609E-02  0.8088846E-01
       -3   -1    0    0    0  501  0.00000000000E+00  0.00000000000E+00  0.25456548591E+04  0.25456548611E+04  0.10100000352E+00 0. -1.
        3   -1    0    0  501    0  0.00000000000E+00  0.00000000000E+00 -0.12778485820E+04  0.12778485860E+04  0.10100000352E+00 0.  1.
    10030    2    1    2    0    0  0.00000000000E+00  0.00000000000E+00  0.12678062771E+04  0.38235034471E+04  0.36071936258E+04 0.  0.
        4    1    3    3  502    0  0.85929165220E+03 -0.83306212466E+03  0.20641056475E+04  0.23859816395E+04  0.12699999809E+01 0. -1.
       -4    1    3    3    0  502 -0.85929165220E+03  0.83306212466E+03 -0.79629937042E+03  0.14375218076E+04  0.12699999809E+01 0.  1.
</event>
<event>
 5   0  0.1298250E-07  0.3609445E+04  0.7818609E-02  0.8088332E-01
       -1   -1    0    0    0  501  0.00000000000E+00  0.00000000000E+00  0.32988081352E+04  0.32988081352E+04  0.50400001928E-02 0. -1.
        1   -1    0    0  501    0  0.00000000000E+00  0.00000000000E+00 -0.98733339844E+03  0.98733339845E+03  0.50400001928E-02 0.  1.
    10030    2    1    2    0    0  0.00000000000E+00  0.00000000000E+00  0.23114747368E+04  0.42861415336E+04  0.36094450803E+04 0.  0.
        1    1    3    3  502    0  0.15491028682E+03 -0.44916950498E+03 -0.91172967665E+03  0.10281057555E+04  0.50400001928E-02 0.  1.
       -1    1    3    3    0  502 -0.15491028682E+03  0.44916950498E+03  0.32232044134E+04  0.32580357782E+04  0.50400001928E-02 0. -1.
</event>
<event>
 5   0  0.3993751E-07  0.3590985E+04  0.7818609E-02  0.8092560E-01
        2   -1    0    0  501    0  0.00000000000E+00  0.00000000000E+00  0.23738485367E+04  0.23738485367E+04  0.25500000920E-02 0.  1.
       -2   -1    0    0    0  501  0.00000000000E+00  0.00000000000E+00 -0.13580451839E+04  0.13580451839E+04  0.25500000920E-02 0. -1.
    10030    2    1    2    0    0  0.00000000000E+00  0.00000000000E+00  0.10158033528E+04  0.37318937205E+04  0.35909851420E+04 0.  0.
        1    1    3    3  502    0 -0.66265078346E+03  0.39795928135E+03  0.21920841447E+04  0.23243731516E+04  0.50400001928E-02 0.  1.
       -1    1    3    3    0  502  0.66265078346E+03 -0.39795928135E+03 -0.11762807919E+04  0.14075205689E+04  0.50400001928E-02 0. -1.
</event>
<event>
 5   0  0.1298250E-07  0.3508565E+04  0.7818609E-02  0.8111763E-01
       -1   -1    0    0    0  501  0.00000000000E+00  0.00000000000E+00  0.18405135701E+04  0.18405135701E+04  0.50400001928E-02 0. -1.
        1   -1    0    0  501    0  0.00000000000E+00  0.00000000000E+00 -0.16720919018E+04  0.16720919018E+04  0.50400001928E-02 0.  1.
    10030    2    1    2    0    0  0.00000000000E+00  0.00000000000E+00  0.16842166831E+03  0.35126054720E+04  0.35085654253E+04 0.  0.
        2    1    3    3  502    0 -0.50268981104E+03  0.58482776780E+03 -0.14932898247E+04  0.16806650662E+04  0.25500000920E-02 0.  1.
       -2    1    3    3    0  502  0.50268981104E+03 -0.58482776780E+03  0.16617114930E+04  0.18319404058E+04  0.25500000920E-02 0. -1.
</event>
<event>
 5   0  0.1370997E-07  0.3591890E+04  0.7818609E-02  0.8092352E-01
       -1   -1    0    0    0  501  0.00000000000E+00  0.00000000000E+00  0.19314263606E+04  0.19314263606E+04  0.50400001928E-02 0. -1.
        1   -1    0    0  501    0  0.00000000000E+00  0.00000000000E+00 -0.16699668145E+04  0.16699668145E+04  0.50400001928E-02 0.  1.
    10030    2    1    2    0    0  0.00000000000E+00  0.00000000000E+00  0.26145954618E+03  0.36013931751E+04  0.35918897126E+04 0.  0.
        3    1    3    3  502    0 -0.11312405690E+04  0.10074907784E+03 -0.12641960779E+04  0.16994255899E+04  0.10100000352E+00 0.  1.
       -3    1    3    3    0  502  0.11312405690E+04 -0.10074907784E+03  0.15256556241E+04  0.19019675853E+04  0.10100000352E+00 0. -1.
</event>
<event>
 5   0  0.1348226E-07  0.3623319E+04  0.7818609E-02  0.8085171E-01
        1   -1    0    0  501    0  0.00000000000E+00  0.00000000000E+00  0.24221474153E+04  0.24221474153E+04  0.50400001928E-02 0. -1.
       -1   -1    0    0    0  501  0.00000000000E+00  0.00000000000E+00 -0.13550412202E+04  0.13550412202E+04  0.50400001928E-02 0.  1.
    10030    2    1    2    0    0  0.00000000000E+00  0.00000000000E+00  0.10671061951E+04  0.37771886355E+04  0.36233186938E+04 0.  0.
        4    1    3    3  502    0  0.12863529234E+03  0.17107559349E+04 -0.73297730816E+02  0.17171508605E+04  0.12699999809E+01 0.  1.
       -4    1    3    3    0  502 -0.12863529234E+03 -0.17107559349E+04  0.11404039259E+04  0.20600377750E+04  0.12699999809E+01 0. -1.
</event>
<event>
 5   0  0.3993751E-07  0.3606795E+04  0.7818609E-02  0.8088937E-01
        2   -1    0    0  501    0  0.00000000000E+00  0.00000000000E+00  0.17946941457E+04  0.17946941457E+04  0.25500000920E-02 0. -1.
       -2   -1    0    0    0  501  0.00000000000E+00  0.00000000000E+00 -0.18121435102E+04  0.18121435102E+04  0.25500000920E-02 0.  1.
    10030    2    1    2    0    0  0.00000000000E+00  0.00000000000E+00 -0.17449364485E+02  0.36068376558E+04  0.36067954468E+04 0.  0.
        1    1    3    3  502    0 -0.75227612362E+03 -0.68032252544E+03 -0.14998776877E+04  0.18106328128E+04  0.50400001928E-02 0.  1.
       -1    1    3    3    0  502  0.75227612362E+03  0.68032252544E+03  0.14824283232E+04  0.17962048430E+04  0.50400001928E-02 0. -1.
</event>
<event>
 5   0  0.1298250E-07  0.3607180E+04  0.7818609E-02  0.8088849E-01
       -1   -1    0    0    0  501  0.00000000000E+00  0.00000000000E+00  0.16825233449E+04  0.16825233449E+04  0.50400001928E-02 0.  1.
        1   -1    0    0  501    0  0.00000000000E+00  0.00000000000E+00 -0.19333684702E+04  0.19333684702E+04  0.50400001928E-02 0. -1.
    10030    2    1    2    0    0  0.00000000000E+00  0.00000000000E+00 -0.25084512532E+03  0.36158918151E+04  0.36071803866E+04 0.  0.
        2    1    3    3  502    0 -0.30888160219E+03 -0.17726079374E+04 -0.10631247894E+01  0.17993187250E+04  0.25500000920E-02 0.  1.
       -2    1    3    3    0  502  0.30888160219E+03  0.17726079374E+04 -0.24978200053E+03  0.18165730901E+04  0.25500000920E-02 0. -1.
</event>
<event>
 5   0  0.1361743E-07  0.3593577E+04  0.7818609E-02  0.8091965E-01
        1   -1    0    0  501    0  0.00000000000E+00  0.00000000000E+00  0.12407776244E+04  0.12407776244E+04  0.50400001928E-02 0. -1.
       -1   -1    0    0    0  501  0.00000000000E+00  0.00000000000E+00 -0.26019557515E+04  0.26019557515E+04  0.50400001928E-02 0.  1.
    10030    2    1    2    0    0  0.00000000000E+00  0.00000000000E+00 -0.13611781272E+04  0.38427333759E+04  0.35935767565E+04 0.  0.
        5    1    3    3  502    0 -0.38776466235E+02  0.24355722525E+03 -0.25837638510E+04  0.25955117923E+04  0.46999998093E+01 0.  1.
       -5    1    3    3    0  502  0.38776466235E+02 -0.24355722525E+03  0.12225857239E+04  0.12472215836E+04  0.46999998093E+01 0. -1.
</event>
<event>
 5   0  0.1361743E-07  0.3592458E+04  0.7818609E-02  0.8092222E-01
        1   -1    0    0  501    0  0.00000000000E+00  0.00000000000E+00  0.16324789526E+04  0.16324789526E+04  0.50400001928E-02 0. -1.
       -1   -1    0    0    0  501  0.00000000000E+00  0.00000000000E+00 -0.19764040357E+04  0.19764040357E+04  0.50400001928E-02 0.  1.
    10030    2    1    2    0    0  0.00000000000E+00  0.00000000000E+00 -0.34392508308E+03  0.36088829883E+04  0.35924576491E+04 0.  0.
        5    1    3    3  502    0 -0.14513337462E+04 -0.11039529530E+03  0.88539877016E+03  0.17036753906E+04  0.46999998093E+01 0. -1.
       -5    1    3    3    0  502  0.14513337462E+04  0.11039529530E+03 -0.12293238532E+04  0.19052075977E+04  0.46999998093E+01 0.  1.
</event>
<event>
 5   0  0.3993751E-07  0.3585704E+04  0.7818609E-02  0.8093774E-01
       -2   -1    0    0    0  501  0.00000000000E+00  0.00000000000E+00  0.21881728714E+04  0.21881728714E+04  0.25500000920E-02 0.  1.
        2   -1    0    0  501    0  0.00000000000E+00  0.00000000000E+00 -0.14689506857E+04  0.14689506857E+04  0.25500000920E-02 0. -1.
    10030    2    1    2    0    0  0.00000000000E+00  0.00000000000E+00  0.71922218568E+03  0.36571235570E+04  0.35857038583E+04 0.  0.
        1    1    3    3  502    0  0.80519942188E+03 -0.14890087341E+04  0.96198890507E+03  0.19470274196E+04  0.50400001928E-02 0.  1.
       -1    1    3    3    0  502 -0.80519942188E+03  0.14890087341E+04 -0.24276671940E+03  0.17100961374E+04  0.50400001928E-02 0. -1.
</event>
<event>
 5   0  0.1361743E-07  0.3611185E+04  0.7818609E-02  0.8087934E-01
       -1   -1    0    0    0  501  0.00000000000E+00  0.00000000000E+00  0.33953504778E+04  0.33953504778E+04  0.50400001928E-02 0. -1.
        1   -1    0    0  501    0  0.00000000000E+00  0.00000000000E+00 -0.96018496044E+03  0.96018496045E+03  0.50400001928E-02 0.  1.
    10030    2    1    2    0    0  0.00000000000E+00  0.00000000000E+00  0.24351655173E+04  0.43555354382E+04  0.36111851042E+04 0.  0.
        5    1    3    3  502    0  0.92959122171E+03 -0.15477298790E+04  0.11896913902E+04  0.21621737469E+04  0.46999998093E+01 0.  1.
       -5    1    3    3    0  502 -0.92959122171E+03  0.15477298790E+04  0.12454741271E+04  0.21933616913E+04  0.46999998093E+01 0. -1.
</event>
<event>
 5   0  0.4120440E-07  0.3566216E+04  0.7818609E-02  0.8098275E-01
       -2   -1    0    0    0  501  0.00000000000E+00  0.00000000000E+00  0.12292858966E+04  0.12292858966E+04  0.25500000920E-02 0.  1.
        2   -1    0    0  501    0  0.00000000000E+00  0.00000000000E+00 -0.25864395271E+04  0.25864395271E+04  0.25500000920E-02 0. -1.
    10030    2    1    2    0    0  0.00000000000E+00  0.00000000000E+00 -0.13571536305E+04  0.38157254237E+04  0.35662157159E+04 0.  0.
        2    1    3    3  502    0  0.17283235288E+03 -0.13662134096E+03  0.12146676064E+04  0.12344852397E+04  0.25500000920E-02 0.  1.
       -2    1    3    3    0  502 -0.17283235288E+03  0.13662134096E+03 -0.25718212369E+04  0.25812401840E+04  0.25500000920E-02 0. -1.
</event>
<event>
 5   0  0.1298250E-07  0.3396121E+04  0.7818609E-02  0.8138859E-01
        1   -1    0    0  501    0  0.00000000000E+00  0.00000000000E+00  0.17330600910E+04  0.17330600910E+04  0.50400001928E-02 0.  1.
       -1   -1    0    0    0  501  0.00000000000E+00  0.00000000000E+00 -0.16637677059E+04  0.16637677059E+04  0.50400001928E-02 0. -1.
    10030    2    1    2    0    0  0.00000000000E+00  0.00000000000E+00  0.69292385098E+02  0.33968277969E+04  0.33961209706E+04 0.  0.
        2    1    3    3  502    0 -0.72870676053E+02 -0.42006500085E+03 -0.16093639539E+04  0.16648774959E+04  0.25500000920E-02 0. -1.
       -2    1    3    3    0  502  0.72870676053E+02  0.42006500085E+03  0.16786563390E+04  0.17319503009E+04  0.25500000920E-02 0.  1.
</event>
<event>
 5   0  0.3880259E-07  0.3607874E+04  0.7818609E-02  0.8088690E-01
       -2   -1    0    0    0  501  0.00000000000E+00  0.00000000000E+00  0.15327441998E+04  0.15327441998E+04  0.25500000920E-02 0.  1.
        2   -1    0    0  501    0  0.00000000000E+00  0.00000000000E+00 -0.21231132314E+04  0.21231132314E+04  0.25500000920E-02 0. -1.
    10030    2    1    2    0    0  0.00000000000E+00  0.00000000000E+00 -0.59036903163E+03  0.36558574312E+04  0.36078744385E+04 0.  0.
        5    1    3    3  502    0  0.33576644347E+03  0.36597367980E+03  0.14620917567E+04  0.15441535655E+04  0.46999998093E+01 0.  1.
       -5    1    3    3    0  502 -0.33576644347E+03 -0.36597367980E+03 -0.20524607883E+04  0.21117038657E+04  0.46999998093E+01 0. -1.
</event>
<event>
 5   0  0.4200635E-07  0.3613223E+04  0.7818609E-02  0.8087469E-01
       -2   -1    0    0    0  501  0.00000000000E+00  0.00000000000E+00  0.21247847715E+04  0.21247847715E+04  0.25500000920E-02 0. -1.
        2   -1    0    0  501    0  0.00000000000E+00  0.00000000000E+00 -0.15360830180E+04  0.15360830180E+04  0.25500000920E-02 0.  1.
    10030    2    1    2    0    0  0.00000000000E+00  0.00000000000E+00  0.58870175346E+03  0.36608677895E+04  0.36132233833E+04 0.  0.
        4    1    3    3  502    0  0.13503374196E+04 -0.30561901865E+03 -0.88156939278E+03  0.16413349258E+04  0.12699999809E+01 0.  1.
       -4    1    3    3    0  502 -0.13503374196E+04  0.30561901865E+03  0.14702711462E+04  0.20195328637E+04  0.12699999809E+01 0. -1.
</event>
<event>
 5   0  0.4200635E-07  0.3626762E+04  0.7818609E-02  0.8084389E-01
       -2   -1    0    0    0  501  0.00000000000E+00  0.00000000000E+00  0.26914012134E+04  0.26914012134E+04  0.25500000920E-02 0.  1.
        2   -1    0    0  501    0  0.00000000000E+00  0.00000000000E+00 -0.12217990099E+04  0.12217990099E+04  0.25500000920E-02 0. -1.
    10030    2    1    2    0    0  0.00000000000E+00  0.00000000000E+00  0.14696022035E+04  0.39132002232E+04  0.36267623786E+04 0.  0.
        4    1    3    3  502    0 -0.15745965460E+03  0.11525763895E+03 -0.12104371964E+04  0.12260659385E+04  0.12699999809E+01 0. -1.
       -4    1    3    3    0  502  0.15745965460E+03 -0.11525763895E+03  0.26800393999E+04  0.26871342847E+04  0.12699999809E+01 0.  1.
</event>
<event>
 5   0  0.1298250E-07  0.3581913E+04  0.7818609E-02  0.8094647E-01
        3   -1    0    0  501    0  0.00000000000E+00  0.00000000000E+00  0.17660852517E+04  0.17660852546E+04  0.10100000352E+00 0. -1.
       -3   -1    0    0    0  501  0.00000000000E+00  0.00000000000E+00 -0.18161781257E+04  0.18161781285E+04  0.10100000352E+00 0.  1.
    10030    2    1    2    0    0  0.00000000000E+00  0.00000000000E+00 -0.50092873986E+02  0.35822633831E+04  0.35819131270E+04 0.  0.
        1    1    3    3  502    0 -0.49754870589E+03 -0.16786221084E+03 -0.17374617991E+04  0.18150773923E+04  0.50400001928E-02 0.  1.
       -1    1    3    3    0  502  0.49754870589E+03  0.16786221084E+03  0.16873689251E+04  0.17671859908E+04  0.50400001928E-02 0. -1.
</event>
<event>
 5   0  0.1361743E-07  0.3623252E+04  0.7818609E-02  0.8085186E-01
       -1   -1    0    0    0  501  0.00000000000E+00  0.00000000000E+00  0.12999036837E+04  0.12999036837E+04  0.50400001928E-02 0.  1.
        1   -1    0    0  501    0  0.00000000000E+00  0.00000000000E+00 -0.25247932236E+04  0.25247932236E+04  0.50400001928E-02 0. -1.
    10030    2    1    2    0    0  0.00000000000E+00  0.00000000000E+00 -0.12248895400E+04  0.38246969073E+04  0.36232515849E+04 0.  0.
        5    1    3    3  502    0  0.23977469758E+03  0.11181214830E+04 -0.20956550506E+04  0.23873583178E+04  0.46999998093E+01 0. -1.
       -5    1    3    3    0  502 -0.23977469758E+03 -0.11181214830E+04  0.87076551064E+03  0.14373385895E+04  0.46999998093E+01 0.  1.
</event>
<event>
 5   0  0.3993751E-07  0.3581307E+04  0.7818609E-02  0.8094787E-01
        2   -1    0    0  501    0  0.00000000000E+00  0.00000000000E+00  0.23360158594E+04  0.23360158594E+04  0.25500000920E-02 0.  1.
       -2   -1    0    0    0  501  0.00000000000E+00  0.00000000000E+00 -0.13726102597E+04  0.13726102597E+04  0.25500000920E-02 0. -1.
    10030    2    1    2    0    0  0.00000000000E+00  0.00000000000E+00  0.96340559965E+03  0.37086261191E+04  0.35813066528E+04 0.  0.
        1    1    3    3  502    0  0.10844870419E+04 -0.37115095026E+03 -0.94291378739E+03  0.14842343421E+04  0.50400001928E-02 0. -1.
       -1    1    3    3    0  502 -0.10844870419E+04  0.37115095026E+03  0.19063193870E+04  0.22243917769E+04  0.50400001928E-02 0.  1.
</event>
<event>
 5   0  0.3880259E-07  0.3576214E+04  0.7818609E-02  0.8095962E-01
       -2   -1    0    0    0  501  0.00000000000E+00  0.00000000000E+00  0.25616233953E+04  0.25616233953E+04  0.25500000920E-02 0. -1.
        2   -1    0    0  501    0  0.00000000000E+00  0.00000000000E+00 -0.12481641177E+04  0.12481641177E+04  0.25500000920E-02 0.  1.
    10030    2    1    2    0    0  0.00000000000E+00  0.00000000000E+00  0.13134592776E+04  0.38097875131E+04  0.35762138668E+04 0.  0.
        5    1    3    3  502    0  0.85688626761E+03  0.15233195274E+04  0.10589440413E+04  0.20435608703E+04  0.46999998093E+01 0.  1.
       -5    1    3    3    0  502 -0.85688626761E+03 -0.15233195274E+04  0.25451523633E+03  0.17662266428E+04  0.46999998093E+01 0. -1.
</event>
<event>
 5   0  0.1361743E-07  0.3566298E+04  0.7818609E-02  0.8098256E-01
       -1   -1    0    0    0  501  0.00000000000E+00  0.00000000000E+00  0.19139016553E+04  0.19139016553E+04  0.50400001928E-02 0.  1.
        1   -1    0    0  501    0  0.00000000000E+00  0.00000000000E+00 -0.16613287514E+04  0.16613287514E+04  0.50400001928E-02 0. -1.
    10030    2    1    2    0    0  0.00000000000E+00  0.00000000000E+00  0.25257290383E+03  0.35752304067E+04  0.35662977146E+04 0.  0.
        5    1    3    3  502    0  0.14057386843E+04  0.10575698196E+04 -0.16606460423E+03  0.17669620015E+04  0.46999998093E+01 0. -1.
       -5    1    3    3    0  502 -0.14057386843E+04 -0.10575698196E+04  0.41863750806E+03  0.18082684052E+04  0.46999998093E+01 0.  1.
</event>
<event>
 5   0  0.4200635E-07  0.3610100E+04  0.7818609E-02  0.8088182E-01
       -2   -1    0    0    0  501  0.00000000000E+00  0.00000000000E+00  0.22966929260E+04  0.22966929260E+04  0.25500000920E-02 0.  1.
        2   -1    0    0  501    0  0.00000000000E+00  0.00000000000E+00 -0.14186507933E+04  0.14186507933E+04  0.25500000920E-02 0. -1.
    10030    2    1    2    0    0  0.00000000000E+00  0.00000000000E+00  0.87804213272E+03  0.37153437193E+04  0.36100998554E+04 0.  0.
        4    1    3    3  502    0 -0.10023655920E+04  0.15006115804E+04  0.39744873451E+03  0.18478471270E+04  0.12699999809E+01 0.  1.
       -4    1    3    3    0  502  0.10023655920E+04 -0.15006115804E+04  0.48059339821E+03  0.18674965923E+04  0.12699999809E+01 0. -1.
</event>
<event>
 5   0  0.3993751E-07  0.3597904E+04  0.7818609E-02  0.8090972E-01
        2   -1    0    0  501    0  0.00000000000E+00  0.00000000000E+00  0.20639340513E+04  0.20639340513E+04  0.25500000920E-02 0.  1.
       -2   -1    0    0    0  501  0.00000000000E+00  0.00000000000E+00 -0.15679901046E+04  0.15679901046E+04  0.25500000920E-02 0. -1.
    10030    2    1    2    0    0  0.00000000000E+00  0.00000000000E+00  0.49594394673E+03  0.36319241559E+04  0.35979039281E+04 0.  0.
        1    1    3    3  502    0 -0.21877143751E+03  0.52147704780E+03  0.19718752929E+04  0.20513633086E+04  0.50400001928E-02 0.  1.
       -1    1    3    3    0  502  0.21877143751E+03 -0.52147704780E+03 -0.14759313461E+04  0.15805608472E+04  0.50400001928E-02 0. -1.
</event>
<event>
 5   0  0.1370997E-07  0.3598632E+04  0.7818609E-02  0.8090805E-01
        1   -1    0    0  501    0  0.00000000000E+00  0.00000000000E+00  0.24029936550E+04  0.24029936550E+04  0.50400001928E-02 0.  1.
       -1   -1    0    0    0  501  0.00000000000E+00  0.00000000000E+00 -0.13472938704E+04  0.13472938705E+04  0.50400001928E-02 0. -1.
    10030    2    1    2    0    0  0.00000000000E+00  0.00000000000E+00  0.10556997845E+04  0.37502875254E+04  0.35986323080E+04 0.  0.
        3    1    3    3  502    0  0.17205343918E+04  0.84436359661E+02 -0.13834184933E+02  0.17226605838E+04  0.10100000352E+00 0. -1.
       -3    1    3    3    0  502 -0.17205343918E+04 -0.84436359661E+02  0.10695339695E+04  0.20276269416E+04  0.10100000352E+00 0.  1.
</event>
<event>
 5   0  0.4115358E-07  0.3588403E+04  0.7818609E-02  0.8093153E-01
        2   -1    0    0  501    0  0.00000000000E+00  0.00000000000E+00  0.16143288498E+04  0.16143288498E+04  0.25500000920E-02 0. -1.
       -2   -1    0    0    0  501  0.00000000000E+00  0.00000000000E+00 -0.19941163260E+04  0.19941163260E+04  0.25500000920E-02 0.  1.
    10030    2    1    2    0    0  0.00000000000E+00  0.00000000000E+00 -0.37978747621E+03  0.36084451759E+04  0.35884032745E+04 0.  0.
        3    1    3    3  502    0  0.90204886226E+03 -0.48330351354E+03  0.12920690095E+04  0.16482465749E+04  0.10100000352E+00 0. -1.
       -3    1    3    3    0  502 -0.90204886226E+03  0.48330351354E+03 -0.16718564857E+04  0.19601986010E+04  0.10100000352E+00 0.  1.
</event>
<event>
 5   0  0.1370997E-07  0.3614857E+04  0.7818609E-02  0.8087097E-01
        1   -1    0    0  501    0  0.00000000000E+00  0.00000000000E+00  0.24079801852E+04  0.24079801852E+04  0.50400001928E-02 0. -1.
       -1   -1    0    0    0  501  0.00000000000E+00  0.00000000000E+00 -0.13566549377E+04  0.13566549377E+04  0.50400001928E-02 0.  1.
    10030    2    1    2    0    0  0.00000000000E+00  0.00000000000E+00  0.10513252475E+04  0.37646351229E+04  0.36148572354E+04 0.  0.
        3    1    3    3  502    0 -0.78176241166E+03  0.13022529652E+04 -0.49461474571E+03  0.15973913142E+04  0.10100000352E+00 0.  1.
       -3    1    3    3    0  502  0.78176241166E+03 -0.13022529652E+04  0.15459399932E+04  0.21672438087E+04  0.10100000352E+00 0. -1.
</event>
<event>
 5   0  0.1361743E-07  0.3611890E+04  0.7818609E-02  0.8087773E-01
       -1   -1    0    0    0  501  0.00000000000E+00  0.00000000000E+00  0.11458616544E+04  0.11458616544E+04  0.50400001928E-02 0. -1.
        1   -1    0    0  501    0  0.00000000000E+00  0.00000000000E+00 -0.28462755149E+04  0.28462755149E+04  0.50400001928E-02 0.  1.
    10030    2    1    2    0    0  0.00000000000E+00  0.00000000000E+00 -0.17004138605E+04  0.39921371693E+04  0.36118903474E+04 0.  0.
        5    1    3    3  502    0  0.23370856149E+03  0.11779135067E+04 -0.23410260798E+04  0.26310691966E+04  0.46999998093E+01 0.  1.
       -5    1    3    3    0  502 -0.23370856149E+03 -0.11779135067E+04  0.64061221927E+03  0.13610679727E+04  0.46999998093E+01 0. -1.
</event>
<event>
 5   0  0.1298250E-07  0.3598322E+04  0.7818609E-02  0.8090876E-01
       -1   -1    0    0    0  501  0.00000000000E+00  0.00000000000E+00  0.14947648194E+04  0.14947648194E+04  0.50400001928E-02 0. -1.
        1   -1    0    0  501    0  0.00000000000E+00  0.00000000000E+00 -0.21655448502E+04  0.21655448502E+04  0.50400001928E-02 0.  1.
    10030    2    1    2    0    0  0.00000000000E+00  0.00000000000E+00 -0.67078003078E+03  0.36603096696E+04  0.35983219739E+04 0.  0.
        1    1    3    3  502    0 -0.93735726416E+03  0.65338802474E+03 -0.17490885629E+04  0.20892260175E+04  0.50400001928E-02 0.  1.
       -1    1    3    3    0  502  0.93735726416E+03 -0.65338802474E+03  0.10783085321E+04  0.15710836521E+04  0.50400001928E-02 0. -1.
</event>
<event>
 5   0  0.1298250E-07  0.3623272E+04  0.7818609E-02  0.8085182E-01
       -1   -1    0    0    0  501  0.00000000000E+00  0.00000000000E+00  0.30772814244E+04  0.30772814244E+04  0.50400001928E-02 0.  1.
        1   -1    0    0  501    0  0.00000000000E+00  0.00000000000E+00 -0.10665341924E+04  0.10665341924E+04  0.50400001928E-02 0. -1.
    10030    2    1    2    0    0  0.00000000000E+00  0.00000000000E+00  0.20107472321E+04  0.41438156168E+04  0.36232724759E+04 0.  0.
        1    1    3    3  502    0  0.14856145277E+04 -0.49552197548E+03  0.20469476944E+04  0.25773217526E+04  0.50400001928E-02 0. -1.
       -1    1    3    3    0  502 -0.14856145277E+04  0.49552197548E+03 -0.36200462292E+02  0.15664938642E+04  0.50400001928E-02 0.  1.
</event>
<event>
 5   0  0.4115358E-07  0.3532696E+04  0.7818609E-02  0.8106085E-01
       -2   -1    0    0    0  501  0.00000000000E+00  0.00000000000E+00  0.11218468914E+04  0.11218468914E+04  0.25500000920E-02 0. -1.
        2   -1    0    0  501    0  0.00000000000E+00  0.00000000000E+00 -0.27811157613E+04  0.27811157613E+04  0.25500000920E-02 0.  1.
    10030    2    1    2    0    0  0.00000000000E+00  0.00000000000E+00 -0.16592688699E+04  0.39029626526E+04  0.35326964610E+04 0.  0.
        3    1    3    3  502    0  0.90738791316E+03 -0.12408503020E+04  0.13156640700E+03  0.15428454318E+04  0.10100000352E+00 0. -1.
       -3    1    3    3    0  502 -0.90738791316E+03  0.12408503020E+04 -0.17908352769E+04  0.23601172208E+04  0.10100000352E+00 0.  1.
</event>
<event>
 5   0  0.1298250E-07  0.3616728E+04  0.7818609E-02  0.8086671E-01
        1   -1    0    0  501    0  0.00000000000E+00  0.00000000000E+00  0.17796413697E+04  0.17796413697E+04  0.50400001928E-02 0. -1.
       -1   -1    0    0    0  501  0.00000000000E+00  0.00000000000E+00 -0.18375497721E+04  0.18375497721E+04  0.50400001928E-02 0.  1.
    10030    2    1    2    0    0  0.00000000000E+00  0.00000000000E+00 -0.57908402402E+02  0.36171911419E+04  0.36167275780E+04 0.  0.
        1    1    3    3  502    0  0.65574039668E+02  0.33452588703E+03 -0.18051244139E+04  0.18370306675E+04  0.50400001928E-02 0.  1.
       -1    1    3    3    0  502 -0.65574039668E+02 -0.33452588703E+03  0.17472160115E+04  0.17801604744E+04  0.50400001928E-02 0. -1.
</event>
<event>
 5   0  0.1298250E-07  0.3583356E+04  0.7818609E-02  0.8094315E-01
        1   -1    0    0  501    0  0.00000000000E+00  0.00000000000E+00  0.24700906523E+04  0.24700906523E+04  0.50400001928E-02 0. -1.
       -1   -1    0    0    0  501  0.00000000000E+00  0.00000000000E+00 -0.12995923617E+04  0.12995923617E+04  0.50400001928E-02 0.  1.
    10030    2    1    2    0    0  0.00000000000E+00  0.00000000000E+00  0.11704982907E+04  0.37696830140E+04  0.35833564960E+04 0.  0.
        2    1    3    3  502    0 -0.25602647492E+02 -0.13791355477E+04 -0.61764053120E+03  0.15113405243E+04  0.25500000920E-02 0.  1.
       -2    1    3    3    0  502  0.25602647492E+02  0.13791355477E+04  0.17881388219E+04  0.22583424897E+04  0.25500000920E-02 0. -1.
</event>
<event>
 5   0  0.1361743E-07  0.3566141E+04  0.7818609E-02  0.8098292E-01
       -1   -1    0    0    0  501  0.00000000000E+00  0.00000000000E+00  0.11866938328E+04  0.11866938328E+04  0.50400001928E-02 0.  1.
        1   -1    0    0  501    0  0.00000000000E+00  0.00000000000E+00 -0.26791586894E+04  0.26791586894E+04  0.50400001928E-02 0. -1.
    10030    2    1    2    0    0  0.00000000000E+00  0.00000000000E+00 -0.14924648566E+04  0.38658525222E+04  0.35661413847E+04 0.  0.
        5    1    3    3  502    0 -0.23940175684E+03 -0.17353754091E+04 -0.38591554578E+03  0.17938210363E+04  0.46999998093E+01 0. -1.
       -5    1    3    3    0  502  0.23940175684E+03  0.17353754091E+04 -0.11065493108E+04  0.20720314860E+04  0.46999998093E+01 0.  1.
</event>
<event>
 5   0  0.3993751E-07  0.3614367E+04  0.7818609E-02  0.8087209E-01
       -2   -1    0    0    0  501  0.00000000000E+00  0.00000000000E+00  0.13580310506E+04  0.13580310506E+04  0.25500000920E-02 0.  1.
        2   -1    0    0  501    0  0.00000000000E+00  0.00000000000E+00 -0.24048875090E+04  0.24048875090E+04  0.25500000920E-02 0. -1.
    10030    2    1    2    0    0  0.00000000000E+00  0.00000000000E+00 -0.10468564584E+04  0.37629185597E+04  0.36143668384E+04 0.  0.
        1    1    3    3  502    0 -0.12644149493E+04  0.11700347364E+04  0.45078779410E+02  0.17232987392E+04  0.50400001928E-02 0.  1.
       -1    1    3    3    0  502  0.12644149493E+04 -0.11700347364E+04 -0.10919352378E+04  0.20396198204E+04  0.50400001928E-02 0. -1.
</event>
<event>
 5   0  0.4115358E-07  0.3280420E+04  0.7818609E-02  0.8167895E-01
        2   -1    0    0  501    0  0.00000000000E+00  0.00000000000E+00  0.13811036712E+04  0.13811036712E+04  0.25500000920E-02 0. -1.
       -2   -1    0    0    0  501  0.00000000000E+00  0.00000000000E+00 -0.19479266670E+04  0.19479266670E+04  0.25500000920E-02 0.  1.
    10030    2    1    2    0    0  0.00000000000E+00  0.00000000000E+00 -0.56682299585E+03  0.33290303382E+04  0.32804198944E+04 0.  0.
        3    1    3    3  502    0  0.16075469482E+04  0.19806365540E+03 -0.21022054966E+02  0.16198389856E+04  0.10100000352E+00 0.  1.
       -3    1    3    3    0  502 -0.16075469482E+04 -0.19806365540E+03 -0.54580094089E+03  0.17091913525E+04  0.10100000352E+00 0. -1.
</event>
<event>
 5   0  0.1348226E-07  0.3594416E+04  0.7818609E-02  0.8091772E-01
        1   -1    0    0  501    0  0.00000000000E+00  0.00000000000E+00  0.19460992664E+04  0.19460992665E+04  0.50400001928E-02 0. -1.
       -1   -1    0    0    0  501  0.00000000000E+00  0.00000000000E+00 -0.16597079811E+04  0.16597079811E+04  0.50400001928E-02 0.  1.
    10030    2    1    2    0    0  0.00000000000E+00  0.00000000000E+00  0.28639128535E+03  0.36058072476E+04  0.35944159384E+04 0.  0.
        4    1    3    3  502    0  0.30343287452E+03 -0.41941609379E+02 -0.16333272458E+04  0.16618032713E+04  0.12699999809E+01 0.  1.
       -4    1    3    3    0  502 -0.30343287452E+03  0.41941609379E+02  0.19197185311E+04  0.19440039762E+04  0.12699999809E+01 0. -1.
</event>
<event>
 5   0  0.1298250E-07  0.3594537E+04  0.7818609E-02  0.8091744E-01
        1   -1    0    0  501    0  0.00000000000E+00  0.00000000000E+00  0.21910131002E+04  0.21910131003E+04  0.50400001928E-02 0.  1.
       -1   -1    0    0    0  501  0.00000000000E+00  0.00000000000E+00 -0.14742835855E+04  0.14742835855E+04  0.50400001928E-02 0. -1.
    10030    2    1    2    0    0  0.00000000000E+00  0.00000000000E+00  0.71672951478E+03  0.36652966857E+04  0.35945373273E+04 0.  0.
        2    1    3    3  502    0 -0.15002467435E+04 -0.90307085355E+03  0.77117660892E+03  0.19133715321E+04  0.25500000920E-02 0.  1.
       -2    1    3    3    0  502  0.15002467435E+04  0.90307085355E+03 -0.54447094141E+02  0.17519251536E+04  0.25500000920E-02 0. -1.
</event>
<event>
 5   0  0.1348226E-07  0.3588040E+04  0.7818609E-02  0.8093237E-01
       -1   -1    0    0    0  501  0.00000000000E+00  0.00000000000E+00  0.21476072225E+04  0.21476072225E+04  0.50400001928E-02 0. -1.
        1   -1    0    0  501    0  0.00000000000E+00  0.00000000000E+00 -0.14986484068E+04  0.14986484068E+04  0.50400001928E-02 0.  1.
    10030    2    1    2    0    0  0.00000000000E+00  0.00000000000E+00  0.64895881574E+03  0.36462556293E+04  0.35880402129E+04 0.  0.
        4    1    3    3  502    0  0.12763778608E+04 -0.36238993922E+02  0.16051053131E+04  0.20510529947E+04  0.12699999809E+01 0. -1.
       -4    1    3    3    0  502 -0.12763778608E+04  0.36238993922E+02 -0.95614649733E+03  0.15952026346E+04  0.12699999809E+01 0.  1.
</event>
<event>
 5   0  0.1370997E-07  0.3542932E+04  0.7818609E-02  0.8103690E-01
       -1   -1    0    0    0  501  0.00000000000E+00  0.00000000000E+00  0.18727857273E+04  0.18727857273E+04  0.50400001928E-02 0. -1.
        1   -1    0    0  501    0  0.00000000000E+00  0.00000000000E+00 -0.16756274950E+04  0.16756274950E+04  0.50400001928E-02 0.  1.
    10030    2    1    2    0    0  0.00000000000E+00  0.00000000000E+00  0.19715823230E+03  0.35484132223E+04  0.35429316996E+04 0.  0.
        3    1    3    3  502    0  0.11246140591E+04  0.49431465074E+03 -0.11797135093E+04  0.17031816491E+04  0.10100000352E+00 0.  1.
       -3    1    3    3    0  502 -0.11246140591E+04 -0.49431465074E+03  0.13768717416E+04  0.18452315732E+04  0.10100000352E+00 0. -1.
</event>
<event>
 5   0  0.1298250E-07  0.3607258E+04  0.7818609E-02  0.8088831E-01
       -1   -1    0    0    0  501  0.00000000000E+00  0.00000000000E+00  0.20339533328E+04  0.20339533328E+04  0.50400001928E-02 0.  1.
        1   -1    0    0  501    0  0.00000000000E+00  0.00000000000E+00 -0.15993867488E+04  0.15993867488E+04  0.50400001928E-02 0. -1.
    10030    2    1    2    0    0  0.00000000000E+00  0.00000000000E+00  0.43456658403E+03  0.36333400816E+04  0.36072582431E+04 0.  0.
        1    1    3    3  502    0 -0.88691566125E+03  0.11295171325E+04 -0.88177521575E+03  0.16852168626E+04  0.50400001928E-02 0. -1.
       -1    1    3    3    0  502  0.88691566125E+03 -0.11295171325E+04  0.13163417998E+04  0.19481232190E+04  0.50400001928E-02 0.  1.
</event>
<event>
 5   0  0.4200635E-07  0.3579771E+04  0.7818609E-02  0.8095141E-01
        2   -1    0    0  501    0  0.00000000000E+00  0.00000000000E+00  0.16408851974E+04  0.16408851974E+04  0.25500000920E-02 0.  1.
       -2   -1    0    0    0  501  0.00000000000E+00  0.00000000000E+00 -0.19524154330E+04  0.19524154330E+04  0.25500000920E-02 0. -1.
    10030    2    1    2    0    0  0.00000000000E+00  0.00000000000E+00 -0.31153023560E+03  0.35933006303E+04  0.35797707095E+04 0.  0.
        4    1    3    3  502    0 -0.17796756679E+04 -0.24178813825E+00 -0.34738563116E+03  0.18132633375E+04  0.12699999809E+01 0. -1.
       -4    1    3    3    0  502  0.17796756679E+04  0.24178813825E+00  0.35855395560E+02  0.17800372928E+04  0.12699999809E+01 0.  1.
</event>
<event>
 5   0  0.4200635E-07  0.3590607E+04  0.7818609E-02  0.8092647E-01
       -2   -1    0    0    0  501  0.00000000000E+00  0.00000000000E+00  0.21204007773E+04  0.21204007773E+04  0.25500000920E-02 0. -1.
        2   -1    0    0  501    0  0.00000000000E+00  0.00000000000E+00 -0.15200499240E+04  0.15200499240E+04  0.25500000920E-02 0.  1.
    10030    2    1    2    0    0  0.00000000000E+00  0.00000000000E+00  0.60035085332E+03  0.36404507013E+04  0.35906072135E+04 0.  0.
        4    1    3    3  502    0 -0.64376173170E+03  0.11788395039E+04  0.15079385669E+04  0.20193989397E+04  0.12699999809E+01 0. -1.
       -4    1    3    3    0  502  0.64376173170E+03 -0.11788395039E+04 -0.90758771362E+03  0.16210517616E+04  0.12699999809E+01 0.  1.
</event>
<event>
 5   0  0.1298250E-07  0.3611146E+04  0.7818609E-02  0.8087943E-01
        1   -1    0    0  501    0  0.00000000000E+00  0.00000000000E+00  0.11168782083E+04  0.11168782083E+04  0.50400001928E-02 0. -1.
       -1   -1    0    0    0  501  0.00000000000E+00  0.00000000000E+00 -0.29189341125E+04  0.29189341125E+04  0.50400001928E-02 0.  1.
    10030    2    1    2    0    0  0.00000000000E+00  0.00000000000E+00 -0.18020559042E+04  0.40358123208E+04  0.36111460240E+04 0.  0.
        1    1    3    3  502    0 -0.94440387973E+03  0.10045157434E+04  0.40189442024E+03  0.14361301096E+04  0.50400001928E-02 0. -1.
       -1    1    3    3    0  502  0.94440387973E+03 -0.10045157434E+04 -0.22039503244E+04  0.25996822112E+04  0.50400001928E-02 0.  1.
</event>
<event>
 5   0  0.1348226E-07  0.3603585E+04  0.7818609E-02  0.8089671E-01
       -1   -1    0    0    0  501  0.00000000000E+00  0.00000000000E+00  0.20822844063E+04  0.20822844063E+04  0.50400001928E-02 0. -1.
        1   -1    0    0  501    0  0.00000000000E+00  0.00000000000E+00 -0.15590835827E+04  0.15590835827E+04  0.50400001928E-02 0.  1.
    10030    2    1    2    0    0  0.00000000000E+00  0.00000000000E+00  0.52320082357E+03  0.36413679890E+04  0.36035845667E+04 0.  0.
        4    1    3    3  502    0  0.93041719042E+03 -0.66563525392E+02  0.18193038472E+04  0.20444987044E+04  0.12699999809E+01 0. -1.
       -4    1    3    3    0  502 -0.93041719042E+03  0.66563525392E+02 -0.12961030236E+04  0.15968692845E+04  0.12699999809E+01 0.  1.
</event>
<event>
 5   0  0.4200635E-07  0.3584800E+04  0.7818609E-02  0.8093982E-01
       -2   -1    0    0    0  501  0.00000000000E+00  0.00000000000E+00  0.14746680253E+04  0.14746680253E+04  0.25500000920E-02 0.  1.
        2   -1    0    0  501    0  0.00000000000E+00  0.00000000000E+00 -0.21785899781E+04  0.21785899781E+04  0.25500000920E-02 0. -1.
    10030    2    1    2    0    0  0.00000000000E+00  0.00000000000E+00 -0.70392195284E+03  0.36532580034E+04  0.35847995653E+04 0.  0.
        4    1    3    3  502    0  0.85560224653E+03 -0.13796309160E+04 -0.11262457330E+04  0.19758207745E+04  0.12699999809E+01 0. -1.
       -4    1    3    3    0  502 -0.85560224653E+03  0.13796309160E+04  0.42232378019E+03  0.16774372289E+04  0.12699999809E+01 0.  1.
</event>
<event>
 5   0  0.4200635E-07  0.3597908E+04  0.7818609E-02  0.8090971E-01
        2   -1    0    0  501    0  0.00000000000E+00  0.00000000000E+00  0.23557968864E+04  0.23557968864E+04  0.25500000920E-02 0.  1.
       -2   -1    0    0    0  501  0.00000000000E+00  0.00000000000E+00 -0.13737325742E+04  0.13737325742E+04  0.25500000920E-02 0. -1.
    10030    2    1    2    0    0  0.00000000000E+00  0.00000000000E+00  0.98206431223E+03  0.37295294606E+04  0.35979076814E+04 0.  0.
        4    1    3    3  502    0 -0.13959686505E+03  0.47906005575E+03  0.22826262772E+04  0.23365295111E+04  0.12699999809E+01 0.  1.
       -4    1    3    3    0  502  0.13959686505E+03 -0.47906005575E+03 -0.13005619650E+04  0.13929999495E+04  0.12699999809E+01 0. -1.
</event>
<event>
 5   0  0.3880259E-07  0.3605585E+04  0.7818609E-02  0.8089214E-01
        2   -1    0    0  501    0  0.00000000000E+00  0.00000000000E+00  0.20253797774E+04  0.20253797774E+04  0.25500000920E-02 0. -1.
       -2   -1    0    0    0  501  0.00000000000E+00  0.00000000000E+00 -0.16046672488E+04  0.16046672488E+04  0.25500000920E-02 0.  1.
    10030    2    1    2    0    0  0.00000000000E+00  0.00000000000E+00  0.42071252858E+03  0.36300470263E+04  0.36055848875E+04 0.  0.
        5    1    3    3  502    0 -0.11261297173E+04 -0.59228587816E+03  0.14961536370E+04  0.19640439143E+04  0.46999998093E+01 0. -1.
       -5    1    3    3    0  502  0.11261297173E+04  0.59228587816E+03 -0.10754411084E+04  0.16660031120E+04  0.46999998093E+01 0.  1.
</event>
<event>
 5   0  0.3993751E-07  0.3621057E+04  0.7818609E-02  0.8085685E-01
        2   -1    0    0  501    0  0.00000000000E+00  0.00000000000E+00  0.27207662027E+04  0.27207662027E+04  0.25500000920E-02 0. -1.
       -2   -1    0    0    0  501  0.00000000000E+00  0.00000000000E+00 -0.12048122932E+04  0.12048122932E+04  0.25500000920E-02 0.  1.
    10030    2    1    2    0    0  0.00000000000E+00  0.00000000000E+00  0.15159539095E+04  0.39255784959E+04  0.36210565132E+04 0.  0.
        1    1    3    3  502    0  0.53197516915E+03 -0.64495175744E+03  0.24989755905E+04  0.26351165727E+04  0.50400001928E-02 0. -1.
       -1    1    3    3    0  502 -0.53197516915E+03  0.64495175744E+03 -0.98302168097E+03  0.12904619232E+04  0.50400001928E-02 0.  1.
</event>
<event>
 5   0  0.1298250E-07  0.3598224E+04  0.7818609E-02  0.8090899E-01
        3   -1    0    0  501    0  0.00000000000E+00  0.00000000000E+00  0.20438310673E+04  0.20438310698E+04  0.10100000352E+00 0. -1.
       -3   -1    0    0    0  501  0.00000000000E+00  0.00000000000E+00 -0.15836944982E+04  0.15836945014E+04  0.10100000352E+00 0.  1.
    10030    2    1    2    0    0  0.00000000000E+00  0.00000000000E+00  0.46013656907E+03  0.36275255712E+04  0.35982240213E+04 0.  0.
        4    1    3    3  502    0 -0.14913992059E+04  0.84919188030E+03 -0.31414610199E+03  0.17447314485E+04  0.12699999809E+01 0. -1.
       -4    1    3    3    0  502  0.14913992059E+04 -0.84919188030E+03  0.77428267106E+03  0.18827941227E+04  0.12699999809E+01 0.  1.
</event>
<event>
 5   0  0.3880259E-07  0.3625699E+04  0.7818609E-02  0.8084630E-01
       -2   -1    0    0    0  501  0.00000000000E+00  0.00000000000E+00  0.16907667527E+04  0.16907667527E+04  0.25500000920E-02 0.  1.
        2   -1    0    0  501    0  0.00000000000E+00  0.00000000000E+00 -0.19437469479E+04  0.19437469479E+04  0.25500000920E-02 0. -1.
    10030    2    1    2    0    0  0.00000000000E+00  0.00000000000E+00 -0.25298019515E+03  0.36345137006E+04  0.36256986721E+04 0.  0.
        5    1    3    3  502    0  0.83392820106E+03  0.18740761484E+03  0.14760971008E+04  0.17057088261E+04  0.46999998093E+01 0.  1.
       -5    1    3    3    0  502 -0.83392820106E+03 -0.18740761484E+03 -0.17290772959E+04  0.19288048745E+04  0.46999998093E+01 0. -1.
</event>
<event>
 5   0  0.1298250E-07  0.3597714E+04  0.7818609E-02  0.8091016E-01
        1   -1    0    0  501    0  0.00000000000E+00  0.00000000000E+00  0.17249270175E+04  0.17249270175E+04  0.50400001928E-02 0. -1.
       -1   -1    0    0    0  501  0.00000000000E+00  0.00000000000E+00 -0.18759550952E+04  0.18759550952E+04  0.50400001928E-02 0.  1.
    10030    2    1    2    0    0  0.00000000000E+00  0.00000000000E+00 -0.15102807772E+03  0.36008821127E+04  0.35977135112E+04 0.  0.
        2    1    3    3  502    0 -0.13433210240E+04 -0.27771649249E+03 -0.12402604910E+04  0.18492928133E+04  0.25500000920E-02 0.  1.
       -2    1    3    3    0  502  0.13433210240E+04  0.27771649249E+03  0.10892324133E+04  0.17515892994E+04  0.25500000920E-02 0. -1.
</event>
<event>
 5   0  0.3880259E-07  0.3175648E+04  0.7818609E-02  0.8195278E-01
        2   -1    0    0  501    0  0.00000000000E+00  0.00000000000E+00  0.16421944359E+04  0.16421944359E+04  0.25500000920E-02 0. -1.
       -2   -1    0    0    0  501  0.00000000000E+00  0.00000000000E+00 -0.15352539797E+04  0.15352539797E+04  0.25500000920E-02 0.  1.
    10030    2    1    2    0    0  0.00000000000E+00  0.00000000000E+00  0.10694045627E+03  0.31774484156E+04  0.31756483075E+04 0.  0.
        5    1    3    3  502    0 -0.85575540452E+02  0.30369970732E+01  0.16398755300E+04  0.16421163907E+04  0.46999998093E+01 0. -1.
       -5    1    3    3    0  502  0.85575540452E+02 -0.30369970732E+01 -0.15329350738E+04  0.15353320250E+04  0.46999998093E+01 0.  1.
</event>
<event>
 5   0  0.1370997E-07  0.3589822E+04  0.7818609E-02  0.8092827E-01
       -1   -1    0    0    0  501  0.00000000000E+00  0.00000000000E+00  0.18987266005E+04  0.18987266005E+04  0.50400001928E-02 0. -1.
        1   -1    0    0  501    0  0.00000000000E+00  0.00000000000E+00 -0.16967714355E+04  0.16967714355E+04  0.50400001928E-02 0.  1.
    10030    2    1    2    0    0  0.00000000000E+00  0.00000000000E+00  0.20195516501E+03  0.35954980360E+04  0.35898217557E+04 0.  0.
        3    1    3    3  502    0  0.94980424541E+03  0.11164806236E+04  0.11384958156E+04  0.18560252745E+04  0.10100000352E+00 0. -1.
       -3    1    3    3    0  502 -0.94980424541E+03 -0.11164806236E+04 -0.93654065055E+03  0.17394727614E+04  0.10100000352E+00 0.  1.
</event>
<event>
 5   0  0.1348226E-07  0.3574309E+04  0.7818609E-02  0.8096402E-01
       -1   -1    0    0    0  501  0.00000000000E+00  0.00000000000E+00  0.11221546561E+04  0.11221546561E+04  0.50400001928E-02 0. -1.
        1   -1    0    0  501    0  0.00000000000E+00  0.00000000000E+00 -0.28462404077E+04  0.28462404077E+04  0.50400001928E-02 0.  1.
    10030    2    1    2    0    0  0.00000000000E+00  0.00000000000E+00 -0.17240857516E+04  0.39683950638E+04  0.35743094023E+04 0.  0.
        4    1    3    3  502    0 -0.14569949840E+04 -0.94677102677E+02  0.28217833842E+03  0.14870858632E+04  0.12699999809E+01 0. -1.
       -4    1    3    3    0  502  0.14569949840E+04  0.94677102677E+02 -0.20062640900E+04  0.24813092006E+04  0.12699999809E+01 0.  1.
</event>
<event>
 5   0  0.1370997E-07  0.3601928E+04  0.7818609E-02  0.8090050E-01
        1   -1    0    0  501    0  0.00000000000E+00  0.00000000000E+00  0.21465719026E+04  0.21465719026E+04  0.50400001928E-02 0. -1.
       -1   -1    0    0    0  501  0.00000000000E+00  0.00000000000E+00 -0.15110006629E+04  0.15110006629E+04  0.50400001928E-02 0.  1.
    10030    2    1    2    0    0  0.00000000000E+00  0.00000000000E+00  0.63557123974E+03  0.36575725655E+04  0.36019281324E+04 0.  0.
        3    1    3    3  502    0  0.13048537621E+04  0.26676797354E+03 -0.91323916776E+03  0.16148728370E+04  0.10100000352E+00 0.  1.
       -3    1    3    3    0  502 -0.13048537621E+04 -0.26676797354E+03  0.15488104075E+04  0.20426997285E+04  0.10100000352E+00 0. -1.
</event>
<event>
 5   0  0.1370997E-07  0.3603669E+04  0.7818609E-02  0.8089652E-01
       -1   -1    0    0    0  501  0.00000000000E+00  0.00000000000E+00  0.18926734862E+04  0.18926734862E+04  0.50400001928E-02 0.  1.
        1   -1    0    0  501    0  0.00000000000E+00  0.00000000000E+00 -0.17153551707E+04  0.17153551708E+04  0.50400001928E-02 0. -1.
    10030    2    1    2    0    0  0.00000000000E+00  0.00000000000E+00  0.17731831541E+03  0.36080286569E+04  0.36036688255E+04 0.  0.
        3    1    3    3  502    0  0.10590864390E+04 -0.73188713551E+03 -0.11735342644E+04  0.17419832216E+04  0.10100000352E+00 0. -1.
       -3    1    3    3    0  502 -0.10590864390E+04  0.73188713551E+03  0.13508525798E+04  0.18660454354E+04  0.10100000352E+00 0.  1.
</event>
<event>
 5   0  0.4120440E-07  0.3600690E+04  0.7818609E-02  0.8090334E-01
        2   -1    0    0  501    0  0.00000000000E+00  0.00000000000E+00  0.25466540164E+04  0.25466540164E+04  0.25500000920E-02 0. -1.
       -2   -1    0    0    0  501  0.00000000000E+00  0.00000000000E+00 -0.12727455824E+04  0.12727455824E+04  0.25500000920E-02 0.  1.
    10030    2    1    2    0    0  0.00000000000E+00  0.00000000000E+00  0.12739084341E+04  0.38193995988E+04  0.36006902945E+04 0.  0.
        2    1    3    3  502    0 -0.30502117756E+03  0.99032478313E+03  0.21986089850E+04  0.24305683623E+04  0.25500000920E-02 0. -1.
       -2    1    3    3    0  502  0.30502117756E+03 -0.99032478313E+03 -0.92470055087E+03  0.13888312366E+04  0.25500000920E-02 0.  1.
</event>
<event>
 5   0  0.1361743E-07  0.3606767E+04  0.7818609E-02  0.8088943E-01
       -1   -1    0    0    0  501  0.00000000000E+00  0.00000000000E+00  0.24346097021E+04  0.24346097021E+04  0.50400001928E-02 0.  1.
        1   -1    0    0  501    0  0.00000000000E+00  0.00000000000E+00 -0.13358167275E+04  0.13358167275E+04  0.50400001928E-02 0. -1.
    10030    2    1    2    0    0  0.00000000000E+00  0.00000000000E+00  0.10987929747E+04  0.37704264296E+04  0.36067671757E+04 0.  0.
        5    1    3    3  502    0 -0.11131572897E+04  0.33144845885E+03  0.19915576077E+04  0.23054936624E+04  0.46999998093E+01 0.  1.
       -5    1    3    3    0  502  0.11131572897E+04 -0.33144845885E+03 -0.89276463309E+03  0.14649327672E+04  0.46999998093E+01 0. -1.
</event>
<event>
 5   0  0.1298250E-07  0.3766561E+04  0.7818609E-02  0.8053369E-01
       -1   -1    0    0    0  501  0.00000000000E+00  0.00000000000E+00  0.14104506287E+04  0.14104506287E+04  0.50400001928E-02 0.  1.
        1   -1    0    0  501    0  0.00000000000E+00  0.00000000000E+00 -0.25146184213E+04  0.25146184213E+04  0.50400001928E-02 0. -1.
    10030    2    1    2    0    0  0.00000000000E+00  0.00000000000E+00 -0.11041677926E+04  0.39250690500E+04  0.37665608363E+04 0.  0.
        2    1    3    3  502    0  0.33704298670E+03  0.10414212526E+03  0.13757137848E+04  0.14202225089E+04  0.25500000920E-02 0.  1.
       -2    1    3    3    0  502 -0.33704298670E+03 -0.10414212526E+03 -0.24798815773E+04  0.25048465412E+04  0.25500000920E-02 0. -1.
</event>
<event>
 5   0  0.1370997E-07  0.3580494E+04  0.7818609E-02  0.8094975E-01
       -1   -1    0    0    0  501  0.00000000000E+00  0.00000000000E+00  0.14216901492E+04  0.14216901492E+04  0.50400001928E-02 0.  1.
        1   -1    0    0  501    0  0.00000000000E+00  0.00000000000E+00 -0.22543474242E+04  0.22543474242E+04  0.50400001928E-02 0. -1.
    10030    2    1    2    0    0  0.00000000000E+00  0.00000000000E+00 -0.83265727497E+03  0.36760375735E+04  0.35804935559E+04 0.  0.
        3    1    3    3  502    0 -0.47121453752E+03 -0.30952794127E+03 -0.21608264444E+04  0.22331640379E+04  0.10100000352E+00 0. -1.
       -3    1    3    3    0  502  0.47121453752E+03  0.30952794127E+03  0.13281691695E+04  0.14428735356E+04  0.10100000352E+00 0.  1.
</event>
<event>
 5   0  0.3993751E-07  0.3672812E+04  0.7818609E-02  0.8074014E-01
        2   -1    0    0  501    0  0.00000000000E+00  0.00000000000E+00  0.29478181439E+04  0.29478181439E+04  0.25500000920E-02 0.  1.
       -2   -1    0    0    0  501  0.00000000000E+00  0.00000000000E+00 -0.11440281075E+04  0.11440281075E+04  0.25500000920E-02 0. -1.
    10030    2    1    2    0    0  0.00000000000E+00  0.00000000000E+00  0.18037900364E+04  0.40918462514E+04  0.36728118996E+04 0.  0.
        1    1    3    3  502    0  0.15500395401E+04  0.30584572353E+03 -0.14096940717E+03  0.15862019279E+04  0.50400001928E-02 0. -1.
       -1    1    3    3    0  502 -0.15500395401E+04 -0.30584572353E+03  0.19447594435E+04  0.25056443234E+04  0.50400001928E-02 0.  1.
</event>
<event>
 5   0  0.4120440E-07  0.3840646E+04  0.7818609E-02  0.8037488E-01
        2   -1    0    0  501    0  0.00000000000E+00  0.00000000000E+00  0.14929667355E+04  0.14929667355E+04  0.25500000920E-02 0. -1.
       -2   -1    0    0    0  501  0.00000000000E+00  0.00000000000E+00 -0.24700082740E+04  0.24700082740E+04  0.25500000920E-02 0.  1.
    10030    2    1    2    0    0  0.00000000000E+00  0.00000000000E+00 -0.97704153849E+03  0.39629750096E+04  0.38406458778E+04 0.  0.
        2    1    3    3  502    0 -0.14744793905E+04 -0.52171413271E+02  0.77978715072E+03  0.16687957723E+04  0.25500000920E-02 0. -1.
       -2    1    3    3    0  502  0.14744793905E+04  0.52171413271E+02 -0.17568286892E+04  0.22941792372E+04  0.25500000920E-02 0.  1.
</event>
<event>
 5   0  0.1370997E-07  0.3619081E+04  0.7818609E-02  0.8086135E-01
        1   -1    0    0  501    0  0.00000000000E+00  0.00000000000E+00  0.14950190804E+04  0.14950190804E+04  0.50400001928E-02 0.  1.
       -1   -1    0    0    0  501  0.00000000000E+00  0.00000000000E+00 -0.21902312848E+04  0.21902312848E+04  0.50400001928E-02 0. -1.
    10030    2    1    2    0    0  0.00000000000E+00  0.00000000000E+00 -0.69521220439E+03  0.36852503653E+04  0.36190814091E+04 0.  0.
        3    1    3    3  502    0  0.62509265521E+03 -0.19218483858E+03  0.13704771465E+04  0.15185135690E+04  0.10100000352E+00 0.  1.
       -3    1    3    3    0  502 -0.62509265521E+03  0.19218483858E+03 -0.20656893509E+04  0.21667367963E+04  0.10100000352E+00 0. -1.
</event>
<event>
 5   0  0.3993751E-07  0.3605461E+04  0.7818609E-02  0.8089242E-01
        2   -1    0    0  501    0  0.00000000000E+00  0.00000000000E+00  0.22183761448E+04  0.22183761448E+04  0.25500000920E-02 0.  1.
       -2   -1    0    0    0  501  0.00000000000E+00  0.00000000000E+00 -0.14649623437E+04  0.14649623437E+04  0.25500000920E-02 0. -1.
    10030    2    1    2    0    0  0.00000000000E+00  0.00000000000E+00  0.75341380111E+03  0.36833384885E+04  0.36054611446E+04 0.  0.
        1    1    3    3  502    0 -0.29732484915E+03  0.69089816223E+03  0.20504151920E+04  0.21840203287E+04  0.50400001928E-02 0.  1.
       -1    1    3    3    0  502  0.29732484915E+03 -0.69089816223E+03 -0.12970013909E+04  0.14993181598E+04  0.50400001928E-02 0. -1.
</event>
<event>
 5   0  0.1298250E-07  0.3554748E+04  0.7818609E-02  0.8100937E-01
       -1   -1    0    0    0  501  0.00000000000E+00  0.00000000000E+00  0.20489846440E+04  0.20489846440E+04  0.50400001928E-02 0.  1.
        1   -1    0    0  501    0  0.00000000000E+00  0.00000000000E+00 -0.15417674493E+04  0.15417674494E+04  0.50400001928E-02 0. -1.
    10030    2    1    2    0    0  0.00000000000E+00  0.00000000000E+00  0.50721719469E+03  0.35907520934E+04  0.35547477145E+04 0.  0.
        1    1    3    3  502    0 -0.30785194922E+03  0.20536453133E+03 -0.15024208824E+04  0.15473254090E+04  0.50400001928E-02 0. -1.
       -1    1    3    3    0  502  0.30785194922E+03 -0.20536453133E+03  0.20096380771E+04  0.20434266844E+04  0.50400001928E-02 0.  1.
</event>
<event>
 5   0  0.1370997E-07  0.3599306E+04  0.7818609E-02  0.8090651E-01
       -1   -1    0    0    0  501  0.00000000000E+00  0.00000000000E+00  0.20035725189E+04  0.20035725189E+04  0.50400001928E-02 0.  1.
        1   -1    0    0  501    0  0.00000000000E+00  0.00000000000E+00 -0.16164883950E+04  0.16164883950E+04  0.50400001928E-02 0. -1.
    10030    2    1    2    0    0  0.00000000000E+00  0.00000000000E+00  0.38708412397E+03  0.36200609139E+04  0.35993064473E+04 0.  0.
        3    1    3    3  502    0  0.91505363945E+03  0.66719106238E+01 -0.13650335051E+04  0.16433758419E+04  0.10100000352E+00 0. -1.
       -3    1    3    3    0  502 -0.91505363945E+03 -0.66719106238E+01  0.17521176291E+04  0.19766850720E+04  0.10100000352E+00 0.  1.
</event>
<event>
 5   0  0.4200635E-07  0.3648245E+04  0.7818609E-02  0.8079529E-01
        2   -1    0    0  501    0  0.00000000000E+00  0.00000000000E+00  0.18769142343E+04  0.18769142343E+04  0.25500000920E-02 0. -1.
       -2   -1    0    0    0  501  0.00000000000E+00  0.00000000000E+00 -0.17728157966E+04  0.17728157966E+04  0.25500000920E-02 0.  1.
    10030    2    1    2    0    0  0.00000000000E+00  0.00000000000E+00  0.10409843775E+03  0.36497300309E+04  0.36482451691E+04 0.  0.
        4    1    3    3  502    0 -0.14432057713E+04 -0.10092861956E+04  0.52755316980E+03  0.18384274483E+04  0.12699999809E+01 0. -1.
       -4    1    3    3    0  502  0.14432057713E+04  0.10092861956E+04 -0.42345473205E+03  0.18113025826E+04  0.12699999809E+01 0.  1.
</event>
<event>
 5   0  0.3880259E-07  0.3586282E+04  0.7818609E-02  0.8093641E-01
       -2   -1    0    0    0  501  0.00000000000E+00  0.00000000000E+00  0.13519508164E+04  0.13519508164E+04  0.25500000920E-02 0.  1.
        2   -1    0    0  501    0  0.00000000000E+00  0.00000000000E+00 -0.23783075387E+04  0.23783075387E+04  0.25500000920E-02 0. -1.
    10030    2    1    2    0    0  0.00000000000E+00  0.00000000000E+00 -0.10263567224E+04  0.37302583551E+04  0.35862820963E+04 0.  0.
        5    1    3    3  502    0 -0.76329818309E+03  0.10825101556E+03 -0.21971205317E+04  0.23284550929E+04  0.46999998093E+01 0. -1.
       -5    1    3    3    0  502  0.76329818309E+03 -0.10825101556E+03  0.11707638094E+04  0.14018032622E+04  0.46999998093E+01 0.  1.
</event>
<event>
 5   0  0.3993751E-07  0.3530251E+04  0.7818609E-02  0.8106658E-01
       -2   -1    0    0    0  501  0.00000000000E+00  0.00000000000E+00  0.19967016355E+04  0.19967016355E+04  0.25500000920E-02 0.  1.
        2   -1    0    0  501    0  0.00000000000E+00  0.00000000000E+00 -0.15604077687E+04  0.15604077687E+04  0.25500000920E-02 0. -1.
    10030    2    1    2    0    0  0.00000000000E+00  0.00000000000E+00  0.43629386686E+03  0.35571094042E+04  0.35302514039E+04 0.  0.
        1    1    3    3  502    0 -0.73547668478E+03  0.51497991124E+03 -0.13131315838E+04  0.15907371937E+04  0.50400001928E-02 0. -1.
       -1    1    3    3    0  502  0.73547668478E+03 -0.51497991124E+03  0.17494254507E+04  0.19663722105E+04  0.50400001928E-02 0.  1.
</event>
<event>
 5   0  0.3880259E-07  0.3606352E+04  0.7818609E-02  0.8089038E-01
        2   -1    0    0  501    0  0.00000000000E+00  0.00000000000E+00  0.12823060326E+04  0.12823060327E+04  0.25500000920E-02 0. -1.
       -2   -1    0    0    0  501  0.00000000000E+00  0.00000000000E+00 -0.25356215369E+04  0.25356215369E+04  0.25500000920E-02 0.  1.
    10030    2    1    2    0    0  0.00000000000E+00  0.00000000000E+00 -0.12533155043E+04  0.38179275696E+04  0.36063515044E+04 0.  0.
        5    1    3    3  502    0  0.31022205552E+03 -0.17760866245E+04 -0.65465309532E+03  0.19181538485E+04  0.46999998093E+01 0. -1.
       -5    1    3    3    0  502 -0.31022205552E+03  0.17760866245E+04 -0.59866240896E+03  0.18997737211E+04  0.46999998093E+01 0.  1.
</event>
<event>
 5   0  0.4200635E-07  0.3622678E+04  0.7818609E-02  0.8085317E-01
       -2   -1    0    0    0  501  0.00000000000E+00  0.00000000000E+00  0.25979011241E+04  0.25979011241E+04  0.25500000920E-02 0.  1.
        2   -1    0    0  501    0  0.00000000000E+00  0.00000000000E+00 -0.12629231236E+04  0.12629231236E+04  0.25500000920E-02 0. -1.
    10030    2    1    2    0    0  0.00000000000E+00  0.00000000000E+00  0.13349780005E+04  0.38608242477E+04  0.36226782371E+04 0.  0.
        4    1    3    3  502    0  0.11409281941E+04  0.90656598047E+01  0.21667921601E+04  0.24488342550E+04  0.12699999809E+01 0.  1.
       -4    1    3    3    0  502 -0.11409281941E+04 -0.90656598047E+01 -0.83181415965E+03  0.14119899927E+04  0.12699999809E+01 0. -1.
</event>
<event>
 5   0  0.1370997E-07  0.3595349E+04  0.7818609E-02  0.8091558E-01
       -1   -1    0    0    0  501  0.00000000000E+00  0.00000000000E+00  0.17857756733E+04  0.17857756733E+04  0.50400001928E-02 0.  1.
        1   -1    0    0  501    0  0.00000000000E+00  0.00000000000E+00 -0.18096523968E+04  0.18096523968E+04  0.50400001928E-02 0. -1.
    10030    2    1    2    0    0  0.00000000000E+00  0.00000000000E+00 -0.23876723471E+02  0.35954280701E+04  0.35953487883E+04 0.  0.
        3    1    3    3  502    0 -0.38014882811E+03  0.17471205705E+04 -0.19819444257E+03  0.17989509350E+04  0.10100000352E+00 0.  1.
       -3    1    3    3    0  502  0.38014882811E+03 -0.17471205705E+04  0.17431771910E+03  0.17964771351E+04  0.10100000352E+00 0. -1.
</event>
<event>
 5   0  0.1370997E-07  0.3553050E+04  0.7818609E-02  0.8101332E-01
        1   -1    0    0  501    0  0.00000000000E+00  0.00000000000E+00  0.24885332360E+04  0.24885332360E+04  0.50400001928E-02 0.  1.
       -1   -1    0    0    0  501  0.00000000000E+00  0.00000000000E+00 -0.12682335125E+04  0.12682335125E+04  0.50400001928E-02 0. -1.
    10030    2    1    2    0    0  0.00000000000E+00  0.00000000000E+00  0.12202997236E+04  0.37567667485E+04  0.35530500964E+04 0.  0.
        3    1    3    3  502    0  0.55110309537E+03  0.12497745009E+04 -0.59093431969E+03  0.14882386587E+04  0.10100000352E+00 0. -1.
       -3    1    3    3    0  502 -0.55110309537E+03 -0.12497745009E+04  0.18112340433E+04  0.22685280899E+04  0.10100000352E+00 0.  1.
</event>
<event>
 5   0  0.4115358E-07  0.3770263E+04  0.7818609E-02  0.8052567E-01
        2   -1    0    0  501    0  0.00000000000E+00  0.00000000000E+00  0.31307587798E+04  0.31307587798E+04  0.25500000920E-02 0. -1.
       -2   -1    0    0    0  501  0.00000000000E+00  0.00000000000E+00 -0.11350986588E+04  0.11350986588E+04  0.25500000920E-02 0.  1.
    10030    2    1    2    0    0  0.00000000000E+00  0.00000000000E+00  0.19956601210E+04  0.42658574387E+04  0.37702626392E+04 0.  0.
        3    1    3    3  502    0  0.18287745959E+04 -0.43388933523E+03  0.11619626393E+04  0.22097134799E+04  0.10100000352E+00 0. -1.
       -3    1    3    3    0  502 -0.18287745959E+04  0.43388933523E+03  0.83369748167E+03  0.20561439587E+04  0.10100000352E+00 0.  1.
</event>
<event>
 5   0  0.4200635E-07  0.3621394E+04  0.7818609E-02  0.8085609E-01
       -2   -1    0    0    0  501  0.00000000000E+00  0.00000000000E+00  0.16664897356E+04  0.16664897356E+04  0.25500000920E-02 0. -1.
        2   -1    0    0  501    0  0.00000000000E+00  0.00000000000E+00 -0.19673828373E+04  0.19673828373E+04  0.25500000920E-02 0.  1.
    10030    2    1    2    0    0  0.00000000000E+00  0.00000000000E+00 -0.30089310169E+03  0.36338725729E+04  0.36213938225E+04 0.  0.
        4    1    3    3  502    0  0.13034786871E+04 -0.73530457249E+03  0.87232626923E+03  0.17322483179E+04  0.12699999809E+01 0. -1.
       -4    1    3    3    0  502 -0.13034786871E+04  0.73530457249E+03 -0.11732193709E+04  0.19016242550E+04  0.12699999809E+01 0.  1.
</event>
<event>
 5   0  0.1298250E-07  0.3619011E+04  0.7818609E-02  0.8086151E-01
       -1   -1    0    0    0  501  0.00000000000E+00  0.00000000000E+00  0.20129772273E+04  0.20129772273E+04  0.50400001928E-02 0. -1.
        1   -1    0    0  501    0  0.00000000000E+00  0.00000000000E+00 -0.16266005226E+04  0.16266005226E+04  0.50400001928E-02 0.  1.
    10030    2    1    2    0    0  0.00000000000E+00  0.00000000000E+00  0.38637670478E+03  0.36395777499E+04  0.36190108095E+04 0.  0.
        2    1    3    3  502    0  0.93908448480E+03  0.52542349602E+03 -0.12698507148E+04  0.16644729970E+04  0.25500000920E-02 0.  1.
       -2    1    3    3    0  502 -0.93908448480E+03 -0.52542349602E+03  0.16562274196E+04  0.19751047529E+04  0.25500000920E-02 0. -1.
</event>
<event>
 5   0  0.1298250E-07  0.3599312E+04  0.7818609E-02  0.8090649E-01
       -1   -1    0    0    0  501  0.00000000000E+00  0.00000000000E+00  0.16710374712E+04  0.16710374713E+04  0.50400001928E-02 0. -1.
        1   -1    0    0  501    0  0.00000000000E+00  0.00000000000E+00 -0.19381737805E+04  0.19381737805E+04  0.50400001928E-02 0.  1.
    10030    2    1    2    0    0  0.00000000000E+00  0.00000000000E+00 -0.26713630923E+03  0.36092112517E+04  0.35993116081E+04 0.  0.
        1    1    3    3  502    0 -0.62062271848E+03 -0.13892920083E+04  0.83004118174E+03  0.17332839371E+04  0.50400001928E-02 0. -1.
       -1    1    3    3    0  502  0.62062271848E+03  0.13892920083E+04 -0.10971774910E+04  0.18759273147E+04  0.50400001928E-02 0.  1.
</event>
<event>
 5   0  0.1298250E-07  0.3627193E+04  0.7818609E-02  0.8084291E-01
       -1   -1    0    0    0  501  0.00000000000E+00  0.00000000000E+00  0.18471871169E+04  0.18471871169E+04  0.50400001928E-02 0. -1.
        1   -1    0    0  501    0  0.00000000000E+00  0.00000000000E+00 -0.17806163160E+04  0.17806163160E+04  0.50400001928E-02 0.  1.
    10030    2    1    2    0    0  0.00000000000E+00  0.00000000000E+00  0.66570800948E+02  0.36278034329E+04  0.36271925888E+04 0.  0.
        2    1    3    3  502    0 -0.68912159738E+02  0.25404389638E+03 -0.17614092563E+04  0.17809687688E+04  0.25500000920E-02 0.  1.
       -2    1    3    3    0  502  0.68912159738E+02 -0.25404389638E+03  0.18279800573E+04  0.18468346642E+04  0.25500000920E-02 0. -1.
</event>
<event>
 5   0  0.4200635E-07  0.3614277E+04  0.7818609E-02  0.8087229E-01
        2   -1    0    0  501    0  0.00000000000E+00  0.00000000000E+00  0.15138930205E+04  0.15138930205E+04  0.25500000920E-02 0. -1.
       -2   -1    0    0    0  501  0.00000000000E+00  0.00000000000E+00 -0.21571870435E+04  0.21571870435E+04  0.25500000920E-02 0.  1.
    10030    2    1    2    0    0  0.00000000000E+00  0.00000000000E+00 -0.64329402292E+03  0.36710800640E+04  0.36142774709E+04 0.  0.
        4    1    3    3  502    0 -0.16241075741E+04 -0.27782752337E+03  0.43220001909E+03  0.17034412272E+04  0.12699999809E+01 0.  1.
       -4    1    3    3    0  502  0.16241075741E+04  0.27782752337E+03 -0.10754940420E+04  0.19676388368E+04  0.12699999809E+01 0. -1.
</event>
<event>
 5   0  0.4200635E-07  0.3607245E+04  0.7818609E-02  0.8088834E-01
       -2   -1    0    0    0  501  0.00000000000E+00  0.00000000000E+00  0.14611680210E+04  0.14611680210E+04  0.25500000920E-02 0.  1.
        2   -1    0    0  501    0  0.00000000000E+00  0.00000000000E+00 -0.22263379817E+04  0.22263379817E+04  0.25500000920E-02 0. -1.
    10030    2    1    2    0    0  0.00000000000E+00  0.00000000000E+00 -0.76516996073E+03  0.36875060026E+04  0.36072448559E+04 0.  0.
        4    1    3    3  502    0 -0.12938685515E+04 -0.85175762819E+03 -0.13269721184E+04  0.20397165248E+04  0.12699999809E+01 0. -1.
       -4    1    3    3    0  502  0.12938685515E+04  0.85175762819E+03  0.56180215768E+03  0.16477894778E+04  0.12699999809E+01 0.  1.
</event>
<event>
 5   0  0.3880259E-07  0.3632759E+04  0.7818609E-02  0.8083029E-01
        2   -1    0    0  501    0  0.00000000000E+00  0.00000000000E+00  0.22044186338E+04  0.22044186338E+04  0.25500000920E-02 0.  1.
       -2   -1    0    0    0  501  0.00000000000E+00  0.00000000000E+00 -0.14966458224E+04  0.14966458224E+04  0.25500000920E-02 0. -1.
    10030    2    1    2    0    0  0.00000000000E+00  0.00000000000E+00  0.70777281138E+03  0.37010644562E+04  0.36327586978E+04 0.  0.
        5    1    3    3  502    0 -0.56111779004E+03  0.17206889495E+04  0.51035876393E+03  0.18804552090E+04  0.46999998093E+01 0.  1.
       -5    1    3    3    0  502  0.56111779004E+03 -0.17206889495E+04  0.19741404746E+03  0.18206092473E+04  0.46999998093E+01 0. -1.
</event>
<event>
 5   0  0.1370997E-07  0.3595209E+04  0.7818609E-02  0.8091590E-01
       -1   -1    0    0    0  501  0.00000000000E+00  0.00000000000E+00  0.20341549364E+04  0.20341549364E+04  0.50400001928E-02 0.  1.
        1   -1    0    0  501    0  0.00000000000E+00  0.00000000000E+00 -0.15885625851E+04  0.15885625851E+04  0.50400001928E-02 0. -1.
    10030    2    1    2    0    0  0.00000000000E+00  0.00000000000E+00  0.44559235133E+03  0.36227175215E+04  0.35952092702E+04 0.  0.
        3    1    3    3  502    0 -0.28834540625E+02 -0.31812917108E+03  0.20053268269E+04  0.20306090941E+04  0.10100000352E+00 0.  1.
       -3    1    3    3    0  502  0.28834540625E+02  0.31812917108E+03 -0.15597344755E+04  0.15921084274E+04  0.10100000352E+00 0. -1.
</event>
<event>
 5   0  0.1298250E-07  0.3675266E+04  0.7818609E-02  0.8073465E-01
        1   -1    0    0  501    0  0.00000000000E+00  0.00000000000E+00  0.18021813626E+04  0.18021813626E+04  0.50400001928E-02 0.  1.
       -1   -1    0    0    0  501  0.00000000000E+00  0.00000000000E+00 -0.18737819011E+04  0.18737819011E+04  0.50400001928E-02 0. -1.
    10030    2    1    2    0    0  0.00000000000E+00  0.00000000000E+00 -0.71600538502E+02  0.36759632638E+04  0.36752658787E+04 0.  0.
        2    1    3    3  502    0 -0.90507163347E+03 -0.15342594464E+04 -0.48731489187E+03  0.18467762492E+04  0.25500000920E-02 0.  1.
       -2    1    3    3    0  502  0.90507163347E+03  0.15342594464E+04  0.41571435336E+03  0.18291870146E+04  0.25500000920E-02 0. -1.
</event>
<event>
 5   0  0.3993751E-07  0.3695525E+04  0.7818609E-02  0.8068954E-01
        2   -1    0    0  501    0  0.00000000000E+00  0.00000000000E+00  0.20595253939E+04  0.20595253939E+04  0.25500000920E-02 0. -1.
       -2   -1    0    0    0  501  0.00000000000E+00  0.00000000000E+00 -0.16577736435E+04  0.16577736435E+04  0.25500000920E-02 0.  1.
    10030    2    1    2    0    0  0.00000000000E+00  0.00000000000E+00  0.40175175043E+03  0.37172990374E+04  0.36955253571E+04 0.  0.
        1    1    3    3  502    0  0.16448999548E+04 -0.44488810918E+03 -0.51790102297E+03  0.17809668050E+04  0.50400001928E-02 0.  1.
       -1    1    3    3    0  502 -0.16448999548E+04  0.44488810918E+03  0.91965277339E+03  0.19363322325E+04  0.50400001928E-02 0. -1.
</event>
<event>
 5   0  0.1348226E-07  0.3575380E+04  0.7818609E-02  0.8096155E-01
        1   -1    0    0  501    0  0.00000000000E+00  0.00000000000E+00  0.18921604790E+04  0.18921604791E+04  0.50400001928E-02 0.  1.
       -1   -1    0    0    0  501  0.00000000000E+00  0.00000000000E+00 -0.16889875046E+04  0.16889875046E+04  0.50400001928E-02 0. -1.
    10030    2    1    2    0    0  0.00000000000E+00  0.00000000000E+00  0.20317297447E+03  0.35811479836E+04  0.35753799271E+04 0.  0.
        4    1    3    3  502    0 -0.13798768414E+03  0.41819922635E+03 -0.16338086195E+04  0.16921180254E+04  0.12699999809E+01 0. -1.
       -4    1    3    3    0  502  0.13798768414E+03 -0.41819922635E+03  0.18369815939E+04  0.18890299583E+04  0.12699999809E+01 0.  1.
</event>
<event>
 5   0  0.3993751E-07  0.3594168E+04  0.7818609E-02  0.8091829E-01
       -2   -1    0    0    0  501  0.00000000000E+00  0.00000000000E+00  0.20832312755E+04  0.20832312755E+04  0.25500000920E-02 0. -1.
        2   -1    0    0  501    0  0.00000000000E+00  0.00000000000E+00 -0.15502408168E+04  0.15502408168E+04  0.25500000920E-02 0.  1.
    10030    2    1    2    0    0  0.00000000000E+00  0.00000000000E+00  0.53299045875E+03  0.36334720923E+04  0.35941675833E+04 0.  0.
        1    1    3    3  502    0  0.11289158051E+04  0.48984386716E+03 -0.10574492706E+04  0.16225279255E+04  0.50400001928E-02 0.  1.
       -1    1    3    3    0  502 -0.11289158051E+04 -0.48984386716E+03  0.15904397293E+04  0.20109441668E+04  0.50400001928E-02 0. -1.
</event>
<event>
 5   0  0.4120440E-07  0.3617571E+04  0.7818609E-02  0.8086479E-01
        2   -1    0    0  501    0  0.00000000000E+00  0.00000000000E+00  0.24692884889E+04  0.24692884889E+04  0.25500000920E-02 0.  1.
       -2   -1    0    0    0  501  0.00000000000E+00  0.00000000000E+00 -0.13249583930E+04  0.13249583930E+04  0.25500000920E-02 0. -1.
    10030    2    1    2    0    0  0.00000000000E+00  0.00000000000E+00  0.11443300959E+04  0.37942468819E+04  0.36175707364E+04 0.  0.
        2    1    3    3  502    0  0.71438404723E+03  0.83184526058E+03 -0.93662942414E+03  0.14420768990E+04  0.25500000920E-02 0. -1.
       -2    1    3    3    0  502 -0.71438404723E+03 -0.83184526058E+03  0.20809595200E+04  0.23521699829E+04  0.25500000920E-02 0.  1.
</event>
<event>
 5   0  0.1348226E-07  0.3557853E+04  0.7818609E-02  0.8100215E-01
       -1   -1    0    0    0  501  0.00000000000E+00  0.00000000000E+00  0.27656203429E+04  0.27656203429E+04  0.50400001928E-02 0.  1.
        1   -1    0    0  501    0  0.00000000000E+00  0.00000000000E+00 -0.11442564130E+04  0.11442564131E+04  0.50400001928E-02 0. -1.
    10030    2    1    2    0    0  0.00000000000E+00  0.00000000000E+00  0.16213639298E+04  0.39098767559E+04  0.35578526183E+04 0.  0.
        4    1    3    3  502    0  0.12925549443E+04 -0.77761009759E+03 -0.22559345294E+03  0.15252113843E+04  0.12699999809E+01 0. -1.
       -4    1    3    3    0  502 -0.12925549443E+04  0.77761009759E+03  0.18469573828E+04  0.23846653716E+04  0.12699999809E+01 0.  1.
</event>
<event>
 5   0  0.4200635E-07  0.3594981E+04  0.7818609E-02  0.8091642E-01
        2   -1    0    0  501    0  0.00000000000E+00  0.00000000000E+00  0.16691584417E+04  0.16691584417E+04  0.25500000920E-02 0.  1.
       -2   -1    0    0    0  501  0.00000000000E+00  0.00000000000E+00 -0.19356891260E+04  0.19356891260E+04  0.25500000920E-02 0. -1.
    10030    2    1    2    0    0  0.00000000000E+00  0.00000000000E+00 -0.26653068431E+03  0.36048475676E+04  0.35949808595E+04 0.  0.
        4    1    3    3  502    0  0.14025595602E+04  0.58845047353E+03 -0.10937684874E+04  0.18734402570E+04  0.12699999809E+01 0. -1.
       -4    1    3    3    0  502 -0.14025595602E+04 -0.58845047353E+03  0.82723780308E+03  0.17314073107E+04  0.12699999809E+01 0.  1.
</event>
<event>
 5   0  0.1370997E-07  0.3731820E+04  0.7818609E-02  0.8060947E-01
       -1   -1    0    0    0  501  0.00000000000E+00  0.00000000000E+00  0.10291318522E+04  0.10291318522E+04  0.50400001928E-02 0.  1.
        1   -1    0    0  501    0  0.00000000000E+00  0.00000000000E+00 -0.33830643748E+04  0.33830643748E+04  0.50400001928E-02 0. -1.
    10030    2    1    2    0    0  0.00000000000E+00  0.00000000000E+00 -0.23539325226E+04  0.44121962270E+04  0.37318195596E+04 0.  0.
        3    1    3    3  502    0  0.15187341740E+04  0.48400096555E+03 -0.23237588669E+04  0.28179186836E+04  0.10100000352E+00 0. -1.
       -3    1    3    3    0  502 -0.15187341740E+04 -0.48400096555E+03 -0.30173655685E+02  0.15942775434E+04  0.10100000352E+00 0.  1.
</event>
<event>
 5   0  0.3880259E-07  0.3581103E+04  0.7818609E-02  0.8094834E-01
        2   -1    0    0  501    0  0.00000000000E+00  0.00000000000E+00  0.16985559702E+04  0.16985559702E+04  0.25500000920E-02 0.  1.
       -2   -1    0    0    0  501  0.00000000000E+00  0.00000000000E+00 -0.18875292883E+04  0.18875292884E+04  0.25500000920E-02 0. -1.
    10030    2    1    2    0    0  0.00000000000E+00  0.00000000000E+00 -0.18897331812E+03  0.35860852586E+04  0.35811027026E+04 0.  0.
        5    1    3    3  502    0  0.12520731509E+04 -0.14852752399E+03 -0.13675951620E+04  0.18601306991E+04  0.46999998093E+01 0. -1.
       -5    1    3    3    0  502 -0.12520731509E+04  0.14852752399E+03  0.11786218439E+04  0.17259545595E+04  0.46999998093E+01 0.  1.
</event>
<event>
 5   0  0.3880259E-07  0.3584361E+04  0.7818609E-02  0.8094084E-01
       -2   -1    0    0    0  501  0.00000000000E+00  0.00000000000E+00  0.12480883540E+04  0.12480883540E+04  0.25500000920E-02 0. -1.
        2   -1    0    0  501    0  0.00000000000E+00  0.00000000000E+00 -0.25734638046E+04  0.25734638046E+04  0.25500000920E-02 0.  1.
    10030    2    1    2    0    0  0.00000000000E+00  0.00000000000E+00 -0.13253754506E+04  0.38215521586E+04  0.35843605868E+04 0.  0.
        5    1    3    3  502    0  0.27270911553E+03 -0.10027494432E+04 -0.22194520126E+04  0.24506868493E+04  0.46999998093E+01 0.  1.
       -5    1    3    3    0  502 -0.27270911553E+03  0.10027494432E+04  0.89407656194E+03  0.13708653093E+04  0.46999998093E+01 0. -1.
</event>
<event>
 5   0  0.3993751E-07  0.3491505E+04  0.7818609E-02  0.8115806E-01
       -2   -1    0    0    0  501  0.00000000000E+00  0.00000000000E+00  0.11360462220E+04  0.11360462220E+04  0.25500000920E-02 0. -1.
        2   -1    0    0  501    0  0.00000000000E+00  0.00000000000E+00 -0.26826823464E+04  0.26826823464E+04  0.25500000920E-02 0.  1.
    10030    2    1    2    0    0  0.00000000000E+00  0.00000000000E+00 -0.15466361244E+04  0.38187285684E+04  0.34915046295E+04 0.  0.
        1    1    3    3  502    0  0.42754699724E+03  0.14778457829E+04  0.12913455814E+03  0.15438589077E+04  0.50400001928E-02 0. -1.
       -1    1    3    3    0  502 -0.42754699724E+03 -0.14778457829E+04 -0.16757706825E+04  0.22748696607E+04  0.50400001928E-02 0.  1.
</event>
<event>
 5   0  0.1348226E-07  0.3617422E+04  0.7818609E-02  0.8086513E-01
        1   -1    0    0  501    0  0.00000000000E+00  0.00000000000E+00  0.20369005169E+04  0.20369005169E+04  0.50400001928E-02 0. -1.
       -1   -1    0    0    0  501  0.00000000000E+00  0.00000000000E+00 -0.16060849552E+04  0.16060849553E+04  0.50400001928E-02 0.  1.
    10030    2    1    2    0    0  0.00000000000E+00  0.00000000000E+00  0.43081556165E+03  0.36429854722E+04  0.36174218861E+04 0.  0.
        4    1    3    3  502    0  0.15127740777E+04  0.98956827728E+03  0.15412648710E+03  0.18142456759E+04  0.12699999809E+01 0. -1.
       -4    1    3    3    0  502 -0.15127740777E+04 -0.98956827728E+03  0.27668907455E+03  0.18287397963E+04  0.12699999809E+01 0.  1.
</event>
<event>
 5   0  0.1370997E-07  0.3601578E+04  0.7818609E-02  0.8090130E-01
       -1   -1    0    0    0  501  0.00000000000E+00  0.00000000000E+00  0.24143264159E+04  0.24143264159E+04  0.50400001928E-02 0. -1.
        1   -1    0    0  501    0  0.00000000000E+00  0.00000000000E+00 -0.13431656165E+04  0.13431656165E+04  0.50400001928E-02 0.  1.
    10030    2    1    2    0    0  0.00000000000E+00  0.00000000000E+00  0.10711607993E+04  0.37574920324E+04  0.36015775593E+04 0.  0.
        3    1    3    3  502    0  0.87664440046E+03  0.15248542479E+04  0.93850449468E+03  0.19936089333E+04  0.10100000352E+00 0. -1.
       -3    1    3    3    0  502 -0.87664440046E+03 -0.15248542479E+04  0.13265630464E+03  0.17638830991E+04  0.10100000352E+00 0.  1.
</event>
<event>
 5   0  0.1370997E-07  0.3597145E+04  0.7818609E-02  0.8091146E-01
        1   -1    0    0  501    0  0.00000000000E+00  0.00000000000E+00  0.20472201054E+04  0.20472201054E+04  0.50400001928E-02 0. -1.
       -1   -1    0    0    0  501  0.00000000000E+00  0.00000000000E+00 -0.15801244222E+04  0.15801244222E+04  0.50400001928E-02 0.  1.
    10030    2    1    2    0    0  0.00000000000E+00  0.00000000000E+00  0.46709568312E+03  0.36273445276E+04  0.35971446933E+04 0.  0.
        3    1    3    3  502    0  0.17484504399E+04 -0.38720975074E+03  0.40183858026E+03  0.18353431795E+04  0.10100000352E+00 0.  1.
       -3    1    3    3    0  502 -0.17484504399E+04  0.38720975074E+03  0.65257102857E+02  0.17920013481E+04  0.10100000352E+00 0. -1.
</event>
<event>
 5   0  0.4200635E-07  0.3729417E+04  0.7818609E-02  0.8061474E-01
        2   -1    0    0  501    0  0.00000000000E+00  0.00000000000E+00  0.20326706043E+04  0.20326706043E+04  0.25500000920E-02 0.  1.
       -2   -1    0    0    0  501  0.00000000000E+00  0.00000000000E+00 -0.17106253528E+04  0.17106253528E+04  0.25500000920E-02 0. -1.
    10030    2    1    2    0    0  0.00000000000E+00  0.00000000000E+00  0.32204525150E+03  0.37432959570E+04  0.37294170426E+04 0.  0.
        4    1    3    3  502    0  0.15619504783E+04  0.91742111177E+03  0.60514580077E+03  0.19098570224E+04  0.12699999809E+01 0.  1.
       -4    1    3    3    0  502 -0.15619504783E+04 -0.91742111177E+03 -0.28310054927E+03  0.18334389346E+04  0.12699999809E+01 0. -1.
</event>
<event>
 5   0  0.1361743E-07  0.3618631E+04  0.7818609E-02  0.8086237E-01
        1   -1    0    0  501    0  0.00000000000E+00  0.00000000000E+00  0.16380004086E+04  0.16380004086E+04  0.50400001928E-02 0. -1.
       -1   -1    0    0    0  501  0.00000000000E+00  0.00000000000E+00 -0.19985486276E+04  0.19985486276E+04  0.50400001928E-02 0.  1.
    10030    2    1    2    0    0  0.00000000000E+00  0.00000000000E+00 -0.36054821905E+03  0.36365490362E+04  0.36186314919E+04 0.  0.
        5    1    3    3  502    0  0.12384993800E+03 -0.13746292587E+04 -0.13559629523E+04  0.19348390176E+04  0.46999998093E+01 0.  1.
       -5    1    3    3    0  502 -0.12384993800E+03  0.13746292587E+04  0.99541473324E+03  0.17017100186E+04  0.46999998093E+01 0. -1.
</event>
<event>
 5   0  0.1348226E-07  0.3524052E+04  0.7818609E-02  0.8108113E-01
       -1   -1    0    0    0  501  0.00000000000E+00  0.00000000000E+00  0.30116529634E+04  0.30116529634E+04  0.50400001928E-02 0. -1.
        1   -1    0    0  501    0  0.00000000000E+00  0.00000000000E+00 -0.10309077673E+04  0.10309077673E+04  0.50400001928E-02 0.  1.
    10030    2    1    2    0    0  0.00000000000E+00  0.00000000000E+00  0.19807451961E+04  0.40425607308E+04  0.35240524585E+04 0.  0.
        4    1    3    3  502    0 -0.16860811125E+04  0.20180759839E+03  0.15298172029E+04  0.22855936016E+04  0.12699999809E+01 0. -1.
       -4    1    3    3    0  502  0.16860811125E+04 -0.20180759839E+03  0.45092799325E+03  0.17569671291E+04  0.12699999809E+01 0.  1.
</event>
<event>
 5   0  0.1298250E-07  0.3520268E+04  0.7818609E-02  0.8109003E-01
       -1   -1    0    0    0  501  0.00000000000E+00  0.00000000000E+00  0.23998618265E+04  0.23998618265E+04  0.50400001928E-02 0. -1.
        1   -1    0    0  501    0  0.00000000000E+00  0.00000000000E+00 -0.12909373469E+04  0.12909373469E+04  0.50400001928E-02 0.  1.
    10030    2    1    2    0    0  0.00000000000E+00  0.00000000000E+00  0.11089244797E+04  0.36907991734E+04  0.35202677507E+04 0.  0.
        2    1    3    3  502    0 -0.18413617066E+03 -0.16760463341E+04  0.24989503812E+02  0.16863160791E+04  0.25500000920E-02 0.  1.
       -2    1    3    3    0  502  0.18413617066E+03  0.16760463341E+04  0.10839349759E+04  0.20044830943E+04  0.25500000920E-02 0. -1.
</event>
<event>
 5   0  0.4115358E-07  0.3574378E+04  0.7818609E-02  0.8096386E-01
       -2   -1    0    0    0  501  0.00000000000E+00  0.00000000000E+00  0.15043566408E+04  0.15043566408E+04  0.25500000920E-02 0. -1.
        2   -1    0    0  501    0  0.00000000000E+00  0.00000000000E+00 -0.21231960582E+04  0.21231960582E+04  0.25500000920E-02 0.  1.
    10030    2    1    2    0    0  0.00000000000E+00  0.00000000000E+00 -0.61883941740E+03  0.36275526990E+04  0.35743777584E+04 0.  0.
        3    1    3    3  502    0  0.10562589357E+04  0.10112886266E+03 -0.17689147653E+04  0.20627577277E+04  0.10100000352E+00 0.  1.
       -3    1    3    3    0  502 -0.10562589357E+04 -0.10112886266E+03  0.11500753479E+04  0.15647949713E+04  0.10100000352E+00 0. -1.
</event>
<event>
 5   0  0.4200635E-07  0.3603925E+04  0.7818609E-02  0.8089593E-01
        2   -1    0    0  501    0  0.00000000000E+00  0.00000000000E+00  0.14385329054E+04  0.14385329054E+04  0.25500000920E-02 0. -1.
       -2   -1    0    0    0  501  0.00000000000E+00  0.00000000000E+00 -0.22572084845E+04  0.22572084845E+04  0.25500000920E-02 0.  1.
    10030    2    1    2    0    0  0.00000000000E+00  0.00000000000E+00 -0.81867557916E+03  0.36957413899E+04  0.36039249044E+04 0.  0.
        4    1    3    3  502    0 -0.65713371661E+03 -0.93981498138E+03 -0.18347100227E+04  0.21636172030E+04  0.12699999809E+01 0.  1.
       -4    1    3    3    0  502  0.65713371661E+03  0.93981498138E+03  0.10160344435E+04  0.15321241869E+04  0.12699999809E+01 0. -1.
</event>
<event>
 5   0  0.3993751E-07  0.3406899E+04  0.7818609E-02  0.8136215E-01
        2   -1    0    0  501    0  0.00000000000E+00  0.00000000000E+00  0.21140613485E+04  0.21140613485E+04  0.25500000920E-02 0.  1.
       -2   -1    0    0    0  501  0.00000000000E+00  0.00000000000E+00 -0.13725903593E+04  0.13725903593E+04  0.25500000920E-02 0. -1.
    10030    2    1    2    0    0  0.00000000000E+00  0.00000000000E+00  0.74147098920E+03  0.34866517078E+04  0.34068990157E+04 0.  0.
        1    1    3    3  502    0 -0.15521747005E+04  0.98432795312E+02 -0.34037181812E+03  0.15921018468E+04  0.50400001928E-02 0. -1.
       -1    1    3    3    0  502  0.15521747005E+04 -0.98432795312E+02  0.10818428073E+04  0.18945498610E+04  0.50400001928E-02 0.  1.
</event>
<event>
 5   0  0.4115358E-07  0.3617442E+04  0.7818609E-02  0.8086508E-01
        2   -1    0    0  501    0  0.00000000000E+00  0.00000000000E+00  0.29075246371E+04  0.29075246371E+04  0.25500000920E-02 0. -1.
       -2   -1    0    0    0  501  0.00000000000E+00  0.00000000000E+00 -0.11251743250E+04  0.11251743250E+04  0.25500000920E-02 0.  1.
    10030    2    1    2    0    0  0.00000000000E+00  0.00000000000E+00  0.17823503121E+04  0.40326989621E+04  0.36174422295E+04 0.  0.
        3    1    3    3  502    0 -0.16802284835E+03 -0.77558132578E+03  0.27030871399E+04  0.28171684661E+04  0.10100000352E+00 0. -1.
       -3    1    3    3    0  502  0.16802284835E+03  0.77558132578E+03 -0.92073682778E+03  0.12155304960E+04  0.10100000352E+00 0.  1.
</event>
<event>
 5   0  0.1361743E-07  0.3601542E+04  0.7818609E-02  0.8090138E-01
        1   -1    0    0  501    0  0.00000000000E+00  0.00000000000E+00  0.17058401683E+04  0.17058401683E+04  0.50400001928E-02 0.  1.
       -1   -1    0    0    0  501  0.00000000000E+00  0.00000000000E+00 -0.19009851780E+04  0.19009851780E+04  0.50400001928E-02 0. -1.
    10030    2    1    2    0    0  0.00000000000E+00  0.00000000000E+00 -0.19514500971E+03  0.36068253464E+04  0.36015423785E+04 0.  0.
        5    1    3    3  502    0 -0.78014081359E+03 -0.10627412541E+04 -0.13260405692E+04  0.18698781627E+04  0.46999998093E+01 0. -1.
       -5    1    3    3    0  502  0.78014081359E+03  0.10627412541E+04  0.11308955595E+04  0.17369471836E+04  0.46999998093E+01 0.  1.
</event>
<event>
 5   0  0.1348226E-07  0.3609858E+04  0.7818609E-02  0.8088237E-01
        1   -1    0    0  501    0  0.00000000000E+00  0.00000000000E+00  0.14268592466E+04  0.14268592466E+04  0.50400001928E-02 0.  1.
       -1   -1    0    0    0  501  0.00000000000E+00  0.00000000000E+00 -0.22831747713E+04  0.22831747713E+04  0.50400001928E-02 0. -1.
    10030    2    1    2    0    0  0.00000000000E+00  0.00000000000E+00 -0.85631552475E+03  0.37100340179E+04  0.36098581878E+04 0.  0.
        4    1    3    3  502    0  0.16451195727E+04 -0.52292947028E+03  0.11362747251E+03  0.17299671831E+04  0.12699999809E+01 0.  1.
       -4    1    3    3    0  502 -0.16451195727E+04  0.52292947028E+03 -0.96994299726E+03  0.19800668348E+04  0.12699999809E+01 0. -1.
</event>
<event>
 5   0  0.1361743E-07  0.3521474E+04  0.7818609E-02  0.8108720E-01
        1   -1    0    0  501    0  0.00000000000E+00  0.00000000000E+00  0.98467715344E+03  0.98467715345E+03  0.50400001928E-02 0. -1.
       -1   -1    0    0    0  501  0.00000000000E+00  0.00000000000E+00 -0.31484383456E+04  0.31484383456E+04  0.50400001928E-02 0.  1.
    10030    2    1    2    0    0  0.00000000000E+00  0.00000000000E+00 -0.21637611921E+04  0.41331154990E+04  0.35214742980E+04 0.  0.
        5    1    3    3  502    0  0.12716630034E+02  0.13083017097E+03  0.97890297505E+03  0.98770004094E+03  0.46999998093E+01 0. -1.
       -5    1    3    3    0  502 -0.12716630034E+02 -0.13083017097E+03 -0.31426641672E+04  0.31454154581E+04  0.46999998093E+01 0.  1.
</event>
<event>
 5   0  0.1298250E-07  0.3654110E+04  0.7818609E-02  0.8078208E-01
       -1   -1    0    0    0  501  0.00000000000E+00  0.00000000000E+00  0.24533225811E+04  0.24533225811E+04  0.50400001928E-02 0. -1.
        1   -1    0    0  501    0  0.00000000000E+00  0.00000000000E+00 -0.13606569539E+04  0.13606569539E+04  0.50400001928E-02 0.  1.
    10030    2    1    2    0    0  0.00000000000E+00  0.00000000000E+00  0.10926656272E+04  0.38139795350E+04  0.36541102502E+04 0.  0.
        1    1    3    3  502    0 -0.17601957024E+04  0.47104221760E+03  0.68621387784E+03  0.19470642434E+04  0.50400001928E-02 0.  1.
       -1    1    3    3    0  502  0.17601957024E+04 -0.47104221760E+03  0.40645174937E+03  0.18669152917E+04  0.50400001928E-02 0. -1.
</event>
<event>
 5   0  0.4200635E-07  0.3609516E+04  0.7818609E-02  0.8088315E-01
        2   -1    0    0  501    0  0.00000000000E+00  0.00000000000E+00  0.25520033544E+04  0.25520033544E+04  0.25500000920E-02 0. -1.
       -2   -1    0    0    0  501  0.00000000000E+00  0.00000000000E+00 -0.12763115871E+04  0.12763115871E+04  0.25500000920E-02 0.  1.
    10030    2    1    2    0    0  0.00000000000E+00  0.00000000000E+00  0.12756917673E+04  0.38283149415E+04  0.36095160072E+04 0.  0.
        4    1    3    3  502    0  0.15080451254E+03 -0.94955626033E+03  0.22577632257E+04  0.24539550706E+04  0.12699999809E+01 0. -1.
       -4    1    3    3    0  502 -0.15080451254E+03  0.94955626033E+03 -0.98207145837E+03  0.13743598709E+04  0.12699999809E+01 0.  1.
</event>
<event>
 5   0  0.3993751E-07  0.3644141E+04  0.7818609E-02  0.8080455E-01
       -2   -1    0    0    0  501  0.00000000000E+00  0.00000000000E+00  0.13242962123E+04  0.13242962123E+04  0.25500000920E-02 0.  1.
        2   -1    0    0  501    0  0.00000000000E+00  0.00000000000E+00 -0.25069477715E+04  0.25069477715E+04  0.25500000920E-02 0. -1.
    10030    2    1    2    0    0  0.00000000000E+00  0.00000000000E+00 -0.11826515591E+04  0.38312439838E+04  0.36441412916E+04 0.  0.
        1    1    3    3  502    0  0.15617944812E+04  0.92168514484E+03 -0.40551460602E+03  0.18582646753E+04  0.50400001928E-02 0.  1.
       -1    1    3    3    0  502 -0.15617944812E+04 -0.92168514484E+03 -0.77713695312E+03  0.19729793085E+04  0.50400001928E-02 0. -1.
</event>
<event>
 5   0  0.4120440E-07  0.3625088E+04  0.7818609E-02  0.8084769E-01
        2   -1    0    0  501    0  0.00000000000E+00  0.00000000000E+00  0.20264177977E+04  0.20264177977E+04  0.25500000920E-02 0. -1.
       -2   -1    0    0    0  501  0.00000000000E+00  0.00000000000E+00 -0.16212429229E+04  0.16212429229E+04  0.25500000920E-02 0.  1.
    10030    2    1    2    0    0  0.00000000000E+00  0.00000000000E+00  0.40517487481E+03  0.36476607206E+04  0.36250878684E+04 0.  0.
        2    1    3    3  502    0  0.10917938751E+04 -0.82223521276E+03 -0.99530053798E+03  0.16907713541E+04  0.25500000920E-02 0.  1.
       -2    1    3    3    0  502 -0.10917938751E+04  0.82223521276E+03  0.14004754128E+04  0.19568893665E+04  0.25500000920E-02 0. -1.
</event>
<event>
 5   0  0.1370997E-07  0.3581910E+04  0.7818609E-02  0.8094648E-01
       -1   -1    0    0    0  501  0.00000000000E+00  0.00000000000E+00  0.20623767454E+04  0.20623767454E+04  0.50400001928E-02 0.  1.
        1   -1    0    0  501    0  0.00000000000E+00  0.00000000000E+00 -0.15552538692E+04  0.15552538692E+04  0.50400001928E-02 0. -1.
    10030    2    1    2    0    0  0.00000000000E+00  0.00000000000E+00  0.50712287618E+03  0.36176306146E+04  0.35819097772E+04 0.  0.
        3    1    3    3  502    0  0.84058136770E+03 -0.10715637623E+04 -0.92109070305E+03  0.16441514608E+04  0.10100000352E+00 0. -1.
       -3    1    3    3    0  502 -0.84058136770E+03  0.10715637623E+04  0.14282135792E+04  0.19734791538E+04  0.10100000352E+00 0.  1.
</event>
<event>
 5   0  0.4115358E-07  0.3608383E+04  0.7818609E-02  0.8088574E-01
        2   -1    0    0  501    0  0.00000000000E+00  0.00000000000E+00  0.25198335212E+04  0.25198335212E+04  0.25500000920E-02 0.  1.
       -2   -1    0    0    0  501  0.00000000000E+00  0.00000000000E+00 -0.12917943279E+04  0.12917943279E+04  0.25500000920E-02 0. -1.
    10030    2    1    2    0    0  0.00000000000E+00  0.00000000000E+00  0.12280391933E+04  0.38116278491E+04  0.36083828234E+04 0.  0.
        3    1    3    3  502    0 -0.15669321772E+03 -0.14711858615E+04  0.17047321369E+04  0.22572222470E+04  0.10100000352E+00 0. -1.
       -3    1    3    3    0  502  0.15669321772E+03  0.14711858615E+04 -0.47669294356E+03  0.15544056022E+04  0.10100000352E+00 0.  1.
</event>
<event>
 5   0  0.3880259E-07  0.3626666E+04  0.7818609E-02  0.8084411E-01
       -2   -1    0    0    0  501  0.00000000000E+00  0.00000000000E+00  0.13197779265E+04  0.13197779265E+04  0.25500000920E-02 0. -1.
        2   -1    0    0  501    0  0.00000000000E+00  0.00000000000E+00 -0.24914626537E+04  0.24914626537E+04  0.25500000920E-02 0.  1.
    10030    2    1    2    0    0  0.00000000000E+00  0.00000000000E+00 -0.11716847272E+04  0.38112405802E+04  0.36266664666E+04 0.  0.
        5    1    3    3  502    0 -0.14585265505E+04 -0.10648193689E+04 -0.41311388361E+03  0.18525185985E+04  0.46999998093E+01 0.  1.
       -5    1    3    3    0  502  0.14585265505E+04  0.10648193689E+04 -0.75857084357E+03  0.19587219817E+04  0.46999998093E+01 0. -1.
</event>
<event>
 5   0  0.3993751E-07  0.3593161E+04  0.7818609E-02  0.8092060E-01
        2   -1    0    0  501    0  0.00000000000E+00  0.00000000000E+00  0.12681148266E+04  0.12681148266E+04  0.25500000920E-02 0. -1.
       -2   -1    0    0    0  501  0.00000000000E+00  0.00000000000E+00 -0.25452748812E+04  0.25452748812E+04  0.25500000920E-02 0.  1.
    10030    2    1    2    0    0  0.00000000000E+00  0.00000000000E+00 -0.12771600546E+04  0.38133897078E+04  0.35931606224E+04 0.  0.
        1    1    3    3  502    0  0.11876242841E+04  0.11760039222E+04  0.60797297280E+02  0.16724631465E+04  0.50400001928E-02 0. -1.
       -1    1    3    3    0  502 -0.11876242841E+04 -0.11760039222E+04 -0.13379573519E+04  0.21409265612E+04  0.50400001928E-02 0.  1.
</event>
<event>
 5   0  0.1370997E-07  0.3613144E+04  0.7818609E-02  0.8087487E-01
       -1   -1    0    0    0  501  0.00000000000E+00  0.00000000000E+00  0.15078330760E+04  0.15078330760E+04  0.50400001928E-02 0.  1.
        1   -1    0    0  501    0  0.00000000000E+00  0.00000000000E+00 -0.21644989184E+04  0.21644989184E+04  0.50400001928E-02 0. -1.
    10030    2    1    2    0    0  0.00000000000E+00  0.00000000000E+00 -0.65666584240E+03  0.36723319944E+04  0.36131443714E+04 0.  0.
        3    1    3    3  502    0  0.14193913418E+04  0.45830168885E+03 -0.13643394185E+04  0.20214188775E+04  0.10100000352E+00 0. -1.
       -3    1    3    3    0  502 -0.14193913418E+04 -0.45830168885E+03  0.70767357605E+03  0.16509131170E+04  0.10100000352E+00 0.  1.
</event>
<event>
 5   0  0.1348226E-07  0.3619346E+04  0.7818609E-02  0.8086074E-01
        1   -1    0    0  501    0  0.00000000000E+00  0.00000000000E+00  0.26524443291E+04  0.26524443291E+04  0.50400001928E-02 0.  1.
       -1   -1    0    0    0  501  0.00000000000E+00  0.00000000000E+00 -0.12346789253E+04  0.12346789253E+04  0.50400001928E-02 0. -1.
    10030    2    1    2    0    0  0.00000000000E+00  0.00000000000E+00  0.14177654038E+04  0.38871232544E+04  0.36193464127E+04 0.  0.
        4    1    3    3  502    0 -0.60656804458E+02  0.10504710318E+04 -0.87237423202E+03  0.13668237085E+04  0.12699999809E+01 0. -1.
       -4    1    3    3    0  502  0.60656804458E+02 -0.10504710318E+04  0.22901396358E+04  0.25202995459E+04  0.12699999809E+01 0.  1.
</event>
<event>
 5   0  0.1370997E-07  0.3590048E+04  0.7818609E-02  0.8092775E-01
       -1   -1    0    0    0  501  0.00000000000E+00  0.00000000000E+00  0.12752049326E+04  0.12752049326E+04  0.50400001928E-02 0. -1.
        1   -1    0    0  501    0  0.00000000000E+00  0.00000000000E+00 -0.25267397950E+04  0.25267397950E+04  0.50400001928E-02 0.  1.
    10030    2    1    2    0    0  0.00000000000E+00  0.00000000000E+00 -0.12515348625E+04  0.38019447276E+04  0.35900479384E+04 0.  0.
        3    1    3    3  502    0 -0.67852866592E+03 -0.72277051857E+03  0.95899044683E+03  0.13792973067E+04  0.10100000352E+00 0. -1.
       -3    1    3    3    0  502  0.67852866592E+03  0.72277051857E+03 -0.22105253093E+04  0.24226474209E+04  0.10100000352E+00 0.  1.
</event>
<event>
 5   0  0.3993751E-07  0.3615101E+04  0.7818609E-02  0.8087041E-01
        2   -1    0    0  501    0  0.00000000000E+00  0.00000000000E+00  0.18038307173E+04  0.18038307173E+04  0.25500000920E-02 0.  1.
       -2   -1    0    0    0  501  0.00000000000E+00  0.00000000000E+00 -0.18112777515E+04  0.18112777515E+04  0.25500000920E-02 0. -1.
    10030    2    1    2    0    0  0.00000000000E+00  0.00000000000E+00 -0.74470341800E+01  0.36151084688E+04  0.36151007984E+04 0.  0.
        1    1    3    3  502    0  0.15996562925E+04  0.54473388600E+03  0.63784092363E+03  0.18062326275E+04  0.50400001928E-02 0.  1.
       -1    1    3    3    0  502 -0.15996562925E+04 -0.54473388600E+03 -0.64528795781E+03  0.18088758413E+04  0.50400001928E-02 0. -1.
</event>
<event>
 5   0  0.3880259E-07  0.3484050E+04  0.7818609E-02  0.8117580E-01
        2   -1    0    0  501    0  0.00000000000E+00  0.00000000000E+00  0.10840276445E+04  0.10840276445E+04  0.25500000920E-02 0. -1.
       -2   -1    0    0    0  501  0.00000000000E+00  0.00000000000E+00 -0.27994217133E+04  0.27994217133E+04  0.25500000920E-02 0.  1.
    10030    2    1    2    0    0  0.00000000000E+00  0.00000000000E+00 -0.17153940688E+04  0.38834493577E+04  0.34840496700E+04 0.  0.
        5    1    3    3  502    0  0.80399065568E+02 -0.11015305366E+03 -0.27934555988E+04  0.27967863661E+04  0.46999998093E+01 0.  1.
       -5    1    3    3    0  502 -0.80399065568E+02  0.11015305366E+03  0.10780615300E+04  0.10866629916E+04  0.46999998093E+01 0. -1.
</event>
<event>
 5   0  0.4120440E-07  0.3641420E+04  0.7818609E-02  0.8081069E-01
       -2   -1    0    0    0  501  0.00000000000E+00  0.00000000000E+00  0.28610793721E+04  0.28610793721E+04  0.25500000920E-02 0.  1.
        2   -1    0    0  501    0  0.00000000000E+00  0.00000000000E+00 -0.11586482529E+04  0.11586482529E+04  0.25500000920E-02 0. -1.
    10030    2    1    2    0    0  0.00000000000E+00  0.00000000000E+00  0.17024311191E+04  0.40197276250E+04  0.36414198417E+04 0.  0.
        2    1    3    3  502    0 -0.11821925898E+04  0.13764574824E+04  0.68464114283E+03  0.19393163781E+04  0.25500000920E-02 0. -1.
       -2    1    3    3    0  502  0.11821925898E+04 -0.13764574824E+04  0.10177899763E+04  0.20804112468E+04  0.25500000920E-02 0.  1.
</event>
<event>
 5   0  0.4115358E-07  0.3601252E+04  0.7818609E-02  0.8090205E-01
       -2   -1    0    0    0  501  0.00000000000E+00  0.00000000000E+00  0.22437283448E+04  0.22437283448E+04  0.25500000920E-02 0. -1.
        2   -1    0    0  501    0  0.00000000000E+00  0.00000000000E+00 -0.14450298314E+04  0.14450298314E+04  0.25500000920E-02 0.  1.
    10030    2    1    2    0    0  0.00000000000E+00  0.00000000000E+00  0.79869851344E+03  0.36887581762E+04  0.36012522221E+04 0.  0.
        3    1    3    3  502    0  0.15768680263E+04 -0.28563415073E+03 -0.44167097317E+03  0.16622794288E+04  0.10100000352E+00 0.  1.
       -3    1    3    3    0  502 -0.15768680263E+04  0.28563415073E+03  0.12403694866E+04  0.20264787475E+04  0.10100000352E+00 0. -1.
</event>
<event>
 5   0  0.4120440E-07  0.3604582E+04  0.7818609E-02  0.8089443E-01
       -2   -1    0    0    0  501  0.00000000000E+00  0.00000000000E+00  0.29442772087E+04  0.29442772087E+04  0.25500000920E-02 0. -1.
        2   -1    0    0  501    0  0.00000000000E+00  0.00000000000E+00 -0.11032429206E+04  0.11032429206E+04  0.25500000920E-02 0.  1.
    10030    2    1    2    0    0  0.00000000000E+00  0.00000000000E+00  0.18410342881E+04  0.40475201293E+04  0.36045820766E+04 0.  0.
        2    1    3    3  502    0 -0.14124539027E+04  0.10869286013E+04  0.61960746107E+03  0.18868898265E+04  0.25500000920E-02 0.  1.
       -2    1    3    3    0  502  0.14124539027E+04 -0.10869286013E+04  0.12214268271E+04  0.21606303028E+04  0.25500000920E-02 0. -1.
</event>
<event>
 5   0  0.4115358E-07  0.3624278E+04  0.7818609E-02  0.8084953E-01
        2   -1    0    0  501    0  0.00000000000E+00  0.00000000000E+00  0.15889278704E+04  0.15889278704E+04  0.25500000920E-02 0.  1.
       -2   -1    0    0    0  501  0.00000000000E+00  0.00000000000E+00 -0.20667063204E+04  0.20667063204E+04  0.25500000920E-02 0. -1.
    10030    2    1    2    0    0  0.00000000000E+00  0.00000000000E+00 -0.47777844999E+03  0.36556341908E+04  0.36242777335E+04 0.  0.
        3    1    3    3  502    0  0.11510659472E+04 -0.73189205467E+03  0.96442366995E+03  0.16705483590E+04  0.10100000352E+00 0.  1.
       -3    1    3    3    0  502 -0.11510659472E+04  0.73189205467E+03 -0.14422021199E+04  0.19850858318E+04  0.10100000352E+00 0. -1.
</event>
<event>
 5   0  0.4115358E-07  0.3610469E+04  0.7818609E-02  0.8088098E-01
       -2   -1    0    0    0  501  0.00000000000E+00  0.00000000000E+00  0.16477478464E+04  0.16477478465E+04  0.25500000920E-02 0. -1.
        2   -1    0    0  501    0  0.00000000000E+00  0.00000000000E+00 -0.19777734262E+04  0.19777734262E+04  0.25500000920E-02 0.  1.
    10030    2    1    2    0    0  0.00000000000E+00  0.00000000000E+00 -0.33002557974E+03  0.36255212726E+04  0.36104691683E+04 0.  0.
        3    1    3    3  502    0 -0.10760451665E+04  0.14354659229E+04  0.36913284226E+02  0.17943796189E+04  0.10100000352E+00 0.  1.
       -3    1    3    3    0  502  0.10760451665E+04 -0.14354659229E+04 -0.36693886397E+03  0.18311416537E+04  0.10100000352E+00 0. -1.
</event>
<event>
 5   0  0.4200635E-07  0.3551802E+04  0.7818609E-02  0.8101622E-01
       -2   -1    0    0    0  501  0.00000000000E+00  0.00000000000E+00  0.14832033817E+04  0.14832033817E+04  0.25500000920E-02 0. -1.
        2   -1    0    0  501    0  0.00000000000E+00  0.00000000000E+00 -0.21263599745E+04  0.21263599745E+04  0.25500000920E-02 0.  1.
    10030    2    1    2    0    0  0.00000000000E+00  0.00000000000E+00 -0.64315659277E+03  0.36095633562E+04  0.35518019679E+04 0.  0.
        4    1    3    3  502    0  0.32391834918E+03  0.31825545143E+03 -0.20663602546E+04  0.21156691480E+04  0.12699999809E+01 0.  1.
       -4    1    3    3    0  502 -0.32391834918E+03 -0.31825545143E+03  0.14232036618E+04  0.14938942082E+04  0.12699999809E+01 0. -1.
</event>
<event>
 5   0  0.1361743E-07  0.3586119E+04  0.7818609E-02  0.8093679E-01
       -1   -1    0    0    0  501  0.00000000000E+00  0.00000000000E+00  0.27812520978E+04  0.27812520978E+04  0.50400001928E-02 0. -1.
        1   -1    0    0  501    0  0.00000000000E+00  0.00000000000E+00 -0.11559767974E+04  0.11559767974E+04  0.50400001928E-02 0.  1.
    10030    2    1    2    0    0  0.00000000000E+00  0.00000000000E+00  0.16252753004E+04  0.39372288952E+04  0.35861192912E+04 0.  0.
        5    1    3    3  502    0 -0.32160489699E+03 -0.39659839303E+03 -0.10744616701E+04  0.11896259772E+04  0.46999998093E+01 0.  1.
       -5    1    3    3    0  502  0.32160489699E+03  0.39659839303E+03  0.26997369705E+04  0.27476029180E+04  0.46999998093E+01 0. -1.
</event>
<event>
 5   0  0.1298250E-07  0.3592887E+04  0.7818609E-02  0.8092123E-01
        1   -1    0    0  501    0  0.00000000000E+00  0.00000000000E+00  0.26119295552E+04  0.26119295552E+04  0.50400001928E-02 0.  1.
       -1   -1    0    0    0  501  0.00000000000E+00  0.00000000000E+00 -0.12355650118E+04  0.12355650118E+04  0.50400001928E-02 0. -1.
    10030    2    1    2    0    0  0.00000000000E+00  0.00000000000E+00  0.13763645435E+04  0.38474945670E+04  0.35928867345E+04 0.  0.
        2    1    3    3  502    0  0.16156799377E+04 -0.66554928286E+03  0.24170595032E+03  0.17640292728E+04  0.25500000920E-02 0. -1.
       -2    1    3    3    0  502 -0.16156799377E+04  0.66554928286E+03  0.11346585931E+04  0.20834652942E+04  0.25500000920E-02 0.  1.
</event>
<event>
 5   0  0.1298250E-07  0.3798653E+04  0.7818609E-02  0.8046444E-01
        1   -1    0    0  501    0  0.00000000000E+00  0.00000000000E+00  0.16604264935E+04  0.16604264935E+04  0.50400001928E-02 0. -1.
       -1   -1    0    0    0  501  0.00000000000E+00  0.00000000000E+00 -0.21725992636E+04  0.21725992636E+04  0.50400001928E-02 0.  1.
    10030    2    1    2    0    0  0.00000000000E+00  0.00000000000E+00 -0.51217277009E+03  0.38330257571E+04  0.37986531177E+04 0.  0.
        2    1    3    3  502    0 -0.18622484750E+03 -0.15929918267E+04 -0.12827103039E+04  0.20536914027E+04  0.25500000920E-02 0.  1.
       -2    1    3    3    0  502  0.18622484750E+03  0.15929918267E+04  0.77053753382E+03  0.17793343544E+04  0.25500000920E-02 0. -1.
</event>
<event>
 5   0  0.1370997E-07  0.3586173E+04  0.7818609E-02  0.8093666E-01
       -1   -1    0    0    0  501  0.00000000000E+00  0.00000000000E+00  0.15903054713E+04  0.15903054713E+04  0.50400001928E-02 0.  1.
        1   -1    0    0  501    0  0.00000000000E+00  0.00000000000E+00 -0.20217247204E+04  0.20217247204E+04  0.50400001928E-02 0. -1.
    10030    2    1    2    0    0  0.00000000000E+00  0.00000000000E+00 -0.43141924909E+03  0.36120301916E+04  0.35861733835E+04 0.  0.
        3    1    3    3  502    0  0.17804029933E+04  0.74495569643E+01 -0.43001014343E+03  0.18316110527E+04  0.10100000352E+00 0. -1.
       -3    1    3    3    0  502 -0.17804029933E+04 -0.74495569643E+01 -0.14091056688E+01  0.17804191390E+04  0.10100000352E+00 0.  1.
</event>
<event>
 5   0  0.3993751E-07  0.3537108E+04  0.7818609E-02  0.8105052E-01
       -2   -1    0    0    0  501  0.00000000000E+00  0.00000000000E+00  0.28176798493E+04  0.28176798493E+04  0.25500000920E-02 0. -1.
        2   -1    0    0  501    0  0.00000000000E+00  0.00000000000E+00 -0.11100562038E+04  0.11100562038E+04  0.25500000920E-02 0.  1.
    10030    2    1    2    0    0  0.00000000000E+00  0.00000000000E+00  0.17076236455E+04  0.39277360531E+04  0.35371078565E+04 0.  0.
        1    1    3    3  502    0 -0.10178065077E+04 -0.86048316911E+03 -0.43707873576E+03  0.14026400796E+04  0.50400001928E-02 0.  1.
       -1    1    3    3    0  502  0.10178065077E+04  0.86048316911E+03  0.21447023812E+04  0.25250959735E+04  0.50400001928E-02 0. -1.
</event>
<event>
 5   0  0.1370997E-07  0.3609360E+04  0.7818609E-02  0.8088351E-01
        1   -1    0    0  501    0  0.00000000000E+00  0.00000000000E+00  0.17158449396E+04  0.17158449396E+04  0.50400001928E-02 0. -1.
       -1   -1    0    0    0  501  0.00000000000E+00  0.00000000000E+00 -0.18981146651E+04  0.18981146651E+04  0.50400001928E-02 0.  1.
    10030    2    1    2    0    0  0.00000000000E+00  0.00000000000E+00 -0.18226972552E+03  0.36139596047E+04  0.36093602995E+04 0.  0.
        3    1    3    3  502    0 -0.71410977195E+02 -0.10399890712E+04 -0.15661697752E+04  0.18813730546E+04  0.10100000352E+00 0.  1.
       -3    1    3    3    0  502  0.71410977195E+02  0.10399890712E+04  0.13839000497E+04  0.17325865501E+04  0.10100000352E+00 0. -1.
</event>
<event>
 5   0  0.4115358E-07  0.3584141E+04  0.7818609E-02  0.8094134E-01
        2   -1    0    0  501    0  0.00000000000E+00  0.00000000000E+00  0.18898485921E+04  0.18898485921E+04  0.25500000920E-02 0. -1.
       -2   -1    0    0    0  501  0.00000000000E+00  0.00000000000E+00 -0.16993508632E+04  0.16993508632E+04  0.25500000920E-02 0.  1.
    10030    2    1    2    0    0  0.00000000000E+00  0.00000000000E+00  0.19049772884E+03  0.35891994553E+04  0.35841405309E+04 0.  0.
        3    1    3    3  502    0 -0.11085875268E+04 -0.10733724062E+04 -0.81731186825E+03  0.17461653207E+04  0.10100000352E+00 0.  1.
       -3    1    3    3    0  502  0.11085875268E+04  0.10733724062E+04  0.10078095971E+04  0.18430341346E+04  0.10100000352E+00 0. -1.
</event>
<event>
 5   0  0.1298250E-07  0.3601899E+04  0.7818609E-02  0.8090057E-01
       -1   -1    0    0    0  501  0.00000000000E+00  0.00000000000E+00  0.23017707061E+04  0.23017707061E+04  0.50400001928E-02 0.  1.
        1   -1    0    0  501    0  0.00000000000E+00  0.00000000000E+00 -0.14090970309E+04  0.14090970309E+04  0.50400001928E-02 0. -1.
    10030    2    1    2    0    0  0.00000000000E+00  0.00000000000E+00  0.89267367519E+03  0.37108677370E+04  0.36018985370E+04 0.  0.
        1    1    3    3  502    0  0.59062497351E+03 -0.12574655403E+04 -0.73435355487E+03  0.15714110182E+04  0.50400001928E-02 0. -1.
       -1    1    3    3    0  502 -0.59062497351E+03  0.12574655403E+04  0.16270272301E+04  0.21394567188E+04  0.50400001928E-02 0.  1.
</event>
<event>
 5   0  0.4200635E-07  0.3598021E+04  0.7818609E-02  0.8090945E-01
       -2   -1    0    0    0  501  0.00000000000E+00  0.00000000000E+00  0.14083544164E+04  0.14083544164E+04  0.25500000920E-02 0. -1.
        2   -1    0    0  501    0  0.00000000000E+00  0.00000000000E+00 -0.22980291499E+04  0.22980291499E+04  0.25500000920E-02 0.  1.
    10030    2    1    2    0    0  0.00000000000E+00  0.00000000000E+00 -0.88967473351E+03  0.37063835663E+04  0.35980214020E+04 0.  0.
        4    1    3    3  502    0 -0.14261377001E+04  0.10317184514E+04 -0.61990911287E+02  0.17612938961E+04  0.12699999809E+01 0. -1.
       -4    1    3    3    0  502  0.14261377001E+04 -0.10317184514E+04 -0.82768382223E+03  0.19450896702E+04  0.12699999809E+01 0.  1.
</event>
<event>
 5   0  0.4200635E-07  0.3595974E+04  0.7818609E-02  0.8091415E-01
       -2   -1    0    0    0  501  0.00000000000E+00  0.00000000000E+00  0.97740149876E+03  0.97740149876E+03  0.25500000920E-02 0.  1.
        2   -1    0    0  501    0  0.00000000000E+00  0.00000000000E+00 -0.33075018600E+04  0.33075018600E+04  0.25500000920E-02 0. -1.
    10030    2    1    2    0    0  0.00000000000E+00  0.00000000000E+00 -0.23301003613E+04  0.42849033588E+04  0.35959740128E+04 0.  0.
        4    1    3    3  502    0 -0.17528735601E+04 -0.37715434137E+03 -0.13246714424E+04  0.22292526008E+04  0.12699999809E+01 0. -1.
       -4    1    3    3    0  502  0.17528735601E+04  0.37715434137E+03 -0.10054289189E+04  0.20556507580E+04  0.12699999809E+01 0.  1.
</event>
<event>
 5   0  0.1361743E-07  0.3614309E+04  0.7818609E-02  0.8087222E-01
        1   -1    0    0  501    0  0.00000000000E+00  0.00000000000E+00  0.31730378340E+04  0.31730378340E+04  0.50400001928E-02 0.  1.
       -1   -1    0    0    0  501  0.00000000000E+00  0.00000000000E+00 -0.10292367583E+04  0.10292367583E+04  0.50400001928E-02 0. -1.
    10030    2    1    2    0    0  0.00000000000E+00  0.00000000000E+00  0.21438010757E+04  0.42022745923E+04  0.36143088823E+04 0.  0.
        5    1    3    3  502    0 -0.12431066905E+04 -0.77463526254E+03  0.23025882210E+04  0.27289757491E+04  0.46999998093E+01 0.  1.
       -5    1    3    3    0  502  0.12431066905E+04  0.77463526254E+03 -0.15878714531E+03  0.14732988432E+04  0.46999998093E+01 0. -1.
</event>
<event>
 5   0  0.1370997E-07  0.3613398E+04  0.7818609E-02  0.8087430E-01
        1   -1    0    0  501    0  0.00000000000E+00  0.00000000000E+00  0.19556483176E+04  0.19556483176E+04  0.50400001928E-02 0. -1.
       -1   -1    0    0    0  501  0.00000000000E+00  0.00000000000E+00 -0.16690941057E+04  0.16690941058E+04  0.50400001928E-02 0.  1.
    10030    2    1    2    0    0  0.00000000000E+00  0.00000000000E+00  0.28655421185E+03  0.36247424234E+04  0.36133978911E+04 0.  0.
        3    1    3    3  502    0  0.48884902787E+03 -0.28637722953E+03 -0.15776776961E+04  0.16763210351E+04  0.10100000352E+00 0.  1.
       -3    1    3    3    0  502 -0.48884902787E+03  0.28637722953E+03  0.18642319079E+04  0.19484213883E+04  0.10100000352E+00 0. -1.
</event>
<event>
 5   0  0.1298250E-07  0.3622328E+04  0.7818609E-02  0.8085396E-01
        1   -1    0    0  501    0  0.00000000000E+00  0.00000000000E+00  0.20109472249E+04  0.20109472249E+04  0.50400001928E-02 0.  1.
       -1   -1    0    0    0  501  0.00000000000E+00  0.00000000000E+00 -0.16312286181E+04  0.16312286182E+04  0.50400001928E-02 0. -1.
    10030    2    1    2    0    0  0.00000000000E+00  0.00000000000E+00  0.37971860677E+03  0.36421758431E+04  0.36223277946E+04 0.  0.
        2    1    3    3  502    0  0.52363743989E+03 -0.83916903985E+02  0.19311325578E+04  0.20026260687E+04  0.25500000920E-02 0.  1.
       -2    1    3    3    0  502 -0.52363743989E+03  0.83916903985E+02 -0.15514139510E+04  0.16395497744E+04  0.25500000920E-02 0. -1.
</event>
<event>
 5   0  0.4200635E-07  0.3423244E+04  0.7818609E-02  0.8132225E-01
        2   -1    0    0  501    0  0.00000000000E+00  0.00000000000E+00  0.17767747920E+04  0.17767747920E+04  0.25500000920E-02 0.  1.
       -2   -1    0    0    0  501  0.00000000000E+00  0.00000000000E+00 -0.16488587311E+04  0.16488587311E+04  0.25500000920E-02 0. -1.
    10030    2    1    2    0    0  0.00000000000E+00  0.00000000000E+00  0.12791606090E+03  0.34256335232E+04  0.34232444430E+04 0.  0.
        4    1    3    3  502    0 -0.79913485612E+03  0.10087155247E+04  0.11932514793E+04  0.17549855367E+04  0.12699999809E+01 0.  1.
       -4    1    3    3    0  502  0.79913485612E+03 -0.10087155247E+04 -0.10653354184E+04  0.16706479865E+04  0.12699999809E+01 0. -1.
</event>
<event>
 5   0  0.1370997E-07  0.3533944E+04  0.7818609E-02  0.8105792E-01
       -1   -1    0    0    0  501  0.00000000000E+00  0.00000000000E+00  0.32794483904E+04  0.32794483904E+04  0.50400001928E-02 0. -1.
        1   -1    0    0  501    0  0.00000000000E+00  0.00000000000E+00 -0.95204746913E+03  0.95204746914E+03  0.50400001928E-02 0.  1.
    10030    2    1    2    0    0  0.00000000000E+00  0.00000000000E+00  0.23274009212E+04  0.42314958595E+04  0.35339442781E+04 0.  0.
        3    1    3    3  502    0 -0.95465382230E+03  0.15413958093E+03 -0.60708246672E+03  0.11417845955E+04  0.10100000352E+00 0.  1.
       -3    1    3    3    0  502  0.95465382230E+03 -0.15413958093E+03  0.29344833880E+04  0.30897112641E+04  0.10100000352E+00 0. -1.
</event>
<event>
 5   0  0.4120440E-07  0.3607249E+04  0.7818609E-02  0.8088833E-01
        2   -1    0    0  501    0  0.00000000000E+00  0.00000000000E+00  0.21523602932E+04  0.21523602932E+04  0.25500000920E-02 0.  1.
       -2   -1    0    0    0  501  0.00000000000E+00  0.00000000000E+00 -0.15113924110E+04  0.15113924110E+04  0.25500000920E-02 0. -1.
    10030    2    1    2    0    0  0.00000000000E+00  0.00000000000E+00  0.64096788228E+03  0.36637527042E+04  0.36072488203E+04 0.  0.
        2    1    3    3  502    0 -0.85815620168E+03  0.74584495537E+03  0.17425383836E+04  0.20806625825E+04  0.25500000920E-02 0.  1.
       -2    1    3    3    0  502  0.85815620168E+03 -0.74584495537E+03 -0.11015705013E+04  0.15830901217E+04  0.25500000920E-02 0. -1.
</event>
<event>
 5   0  0.4200635E-07  0.3617941E+04  0.7818609E-02  0.8086394E-01
       -2   -1    0    0    0  501  0.00000000000E+00  0.00000000000E+00  0.21679286609E+04  0.21679286609E+04  0.25500000920E-02 0.  1.
        2   -1    0    0  501    0  0.00000000000E+00  0.00000000000E+00 -0.15094471225E+04  0.15094471225E+04  0.25500000920E-02 0. -1.
    10030    2    1    2    0    0  0.00000000000E+00  0.00000000000E+00  0.65848153838E+03  0.36773757833E+04  0.36179406733E+04 0.  0.
        4    1    3    3  502    0 -0.57216105525E+03  0.14029438149E+04 -0.67530290757E+03  0.16588113970E+04  0.12699999809E+01 0. -1.
       -4    1    3    3    0  502  0.57216105525E+03 -0.14029438149E+04  0.13337844459E+04  0.20185643864E+04  0.12699999809E+01 0.  1.
</event>
<event>
 5   0  0.1361743E-07  0.3611369E+04  0.7818609E-02  0.8087893E-01
        1   -1    0    0  501    0  0.00000000000E+00  0.00000000000E+00  0.22583065849E+04  0.22583065849E+04  0.50400001928E-02 0. -1.
       -1   -1    0    0    0  501  0.00000000000E+00  0.00000000000E+00 -0.14437792027E+04  0.14437792027E+04  0.50400001928E-02 0.  1.
    10030    2    1    2    0    0  0.00000000000E+00  0.00000000000E+00  0.81452738223E+03  0.37020857877E+04  0.36113687603E+04 0.  0.
        5    1    3    3  502    0 -0.87102296235E+03  0.87572303856E+03  0.17575073114E+04  0.21481214772E+04  0.46999998093E+01 0. -1.
       -5    1    3    3    0  502  0.87102296235E+03 -0.87572303856E+03 -0.94297992921E+03  0.15539643104E+04  0.46999998093E+01 0.  1.
</event>
<event>
 5   0  0.1298250E-07  0.3633522E+04  0.7818609E-02  0.8082856E-01
        1   -1    0    0  501    0  0.00000000000E+00  0.00000000000E+00  0.32324503854E+04  0.32324503854E+04  0.50400001928E-02 0.  1.
       -1   -1    0    0    0  501  0.00000000000E+00  0.00000000000E+00 -0.10210891201E+04  0.10210891201E+04  0.50400001928E-02 0. -1.
    10030    2    1    2    0    0  0.00000000000E+00  0.00000000000E+00  0.22113612653E+04  0.42535395055E+04  0.36335216635E+04 0.  0.
        2    1    3    3  502    0 -0.13434366188E+04 -0.52245822930E+03 -0.18883325176E+03  0.14537683952E+04  0.25500000920E-02 0. -1.
       -2    1    3    3    0  502  0.13434366188E+04  0.52245822930E+03  0.24001945171E+04  0.27997711103E+04  0.25500000920E-02 0.  1.
</event>
<event>
 5   0  0.4120440E-07  0.3623269E+04  0.7818609E-02  0.8085182E-01
        2   -1    0    0  501    0  0.00000000000E+00  0.00000000000E+00  0.21588004955E+04  0.21588004955E+04  0.25500000920E-02 0. -1.
       -2   -1    0    0    0  501  0.00000000000E+00  0.00000000000E+00 -0.15202979813E+04  0.15202979813E+04  0.25500000920E-02 0.  1.
    10030    2    1    2    0    0  0.00000000000E+00  0.00000000000E+00  0.63850251424E+03  0.36790984768E+04  0.36232692615E+04 0.  0.
        2    1    3    3  502    0 -0.17009106934E+04  0.45826997544E+03 -0.11024551531E+03  0.17650106603E+04  0.25500000920E-02 0. -1.
       -2    1    3    3    0  502  0.17009106934E+04 -0.45826997544E+03  0.74874802954E+03  0.19140878165E+04  0.25500000920E-02 0.  1.
</event>
<event>
 5   0  0.4115358E-07  0.3604411E+04  0.7818609E-02  0.8089482E-01
        2   -1    0    0  501    0  0.00000000000E+00  0.00000000000E+00  0.27979652474E+04  0.27979652474E+04  0.25500000920E-02 0. -1.
       -2   -1    0    0    0  501  0.00000000000E+00  0.00000000000E+00 -0.11608238905E+04  0.11608238905E+04  0.25500000920E-02 0.  1.
    10030    2    1    2    0    0  0.00000000000E+00  0.00000000000E+00  0.16371413570E+04  0.39587891379E+04  0.36044111330E+04 0.  0.
        3    1    3    3  502    0  0.15243556175E+04  0.40483429225E+03  0.17763101797E+04  0.23754638952E+04  0.10100000352E+00 0. -1.
       -3    1    3    3    0  502 -0.15243556175E+04 -0.40483429225E+03 -0.13916882277E+03  0.15833252427E+04  0.10100000352E+00 0.  1.
</event>
<event>
 5   0  0.3880259E-07  0.3577787E+04  0.7818609E-02  0.8095599E-01
        2   -1    0    0  501    0  0.00000000000E+00  0.00000000000E+00  0.24685934472E+04  0.24685934472E+04  0.25500000920E-02 0. -1.
       -2   -1    0    0    0  501  0.00000000000E+00  0.00000000000E+00 -0.12963413948E+04  0.12963413948E+04  0.25500000920E-02 0.  1.
    10030    2    1    2    0    0  0.00000000000E+00  0.00000000000E+00  0.11722520524E+04  0.37649348420E+04  0.35777869543E+04 0.  0.
        5    1    3    3  502    0  0.13180675350E+02  0.17025258813E+04  0.11637940824E+04  0.20623304447E+04  0.46999998093E+01 0. -1.
       -5    1    3    3    0  502 -0.13180675350E+02 -0.17025258813E+04  0.84579699912E+01  0.17026043974E+04  0.46999998093E+01 0.  1.
</event>
<event>
 5   0  0.1298250E-07  0.3598059E+04  0.7818609E-02  0.8090936E-01
       -1   -1    0    0    0  501  0.00000000000E+00  0.00000000000E+00  0.14455619507E+04  0.14455619507E+04  0.50400001928E-02 0.  1.
        1   -1    0    0  501    0  0.00000000000E+00  0.00000000000E+00 -0.22389263678E+04  0.22389263678E+04  0.50400001928E-02 0. -1.
    10030    2    1    2    0    0  0.00000000000E+00  0.00000000000E+00 -0.79336441708E+03  0.36844883184E+04  0.35980587920E+04 0.  0.
        2    1    3    3  502    0  0.11497176270E+04 -0.12613512182E+04  0.18588526231E+03  0.17168025071E+04  0.25500000920E-02 0.  1.
       -2    1    3    3    0  502 -0.11497176270E+04  0.12613512182E+04 -0.97924967939E+03  0.19676858114E+04  0.25500000920E-02 0. -1.
</event>
<event>
 5   0  0.4120440E-07  0.3610815E+04  0.7818609E-02  0.8088019E-01
        2   -1    0    0  501    0  0.00000000000E+00  0.00000000000E+00  0.17248856452E+04  0.17248856452E+04  0.25500000920E-02 0. -1.
       -2   -1    0    0    0  501  0.00000000000E+00  0.00000000000E+00 -0.18896888045E+04  0.18896888045E+04  0.25500000920E-02 0.  1.
    10030    2    1    2    0    0  0.00000000000E+00  0.00000000000E+00 -0.16480315927E+03  0.36145744497E+04  0.36108154717E+04 0.  0.
        2    1    3    3  502    0  0.66380773711E+03 -0.71544360961E+03 -0.16028629050E+04  0.18766112444E+04  0.25500000920E-02 0.  1.
       -2    1    3    3    0  502 -0.66380773711E+03  0.71544360961E+03  0.14380597458E+04  0.17379632052E+04  0.25500000920E-02 0. -1.
</event>
<event>
 5   0  0.1298250E-07  0.3610797E+04  0.7818609E-02  0.8088023E-01
        1   -1    0    0  501    0  0.00000000000E+00  0.00000000000E+00  0.18140346725E+04  0.18140346725E+04  0.50400001928E-02 0. -1.
       -1   -1    0    0    0  501  0.00000000000E+00  0.00000000000E+00 -0.17968038999E+04  0.17968038999E+04  0.50400001928E-02 0.  1.
    10030    2    1    2    0    0  0.00000000000E+00  0.00000000000E+00  0.17230772569E+02  0.36108385724E+04  0.36107974599E+04 0.  0.
        2    1    3    3  502    0 -0.75175151388E+03  0.82141966130E+03  0.14297592798E+04  0.18122009262E+04  0.25500000920E-02 0. -1.
       -2    1    3    3    0  502  0.75175151388E+03 -0.82141966130E+03 -0.14125285073E+04  0.17986376462E+04  0.25500000920E-02 0.  1.
</event>
<event>
 5   0  0.3880259E-07  0.3598764E+04  0.7818609E-02  0.8090775E-01
       -2   -1    0    0    0  501  0.00000000000E+00  0.00000000000E+00  0.18585009590E+04  0.18585009590E+04  0.25500000920E-02 0.  1.
        2   -1    0    0  501    0  0.00000000000E+00  0.00000000000E+00 -0.17421433825E+04  0.17421433825E+04  0.25500000920E-02 0. -1.
    10030    2    1    2    0    0  0.00000000000E+00  0.00000000000E+00  0.11635757643E+03  0.36006443415E+04  0.35987637584E+04 0.  0.
        5    1    3    3  502    0 -0.43154721382E+03  0.43808619641E+03 -0.16337402321E+04  0.17456465133E+04  0.46999998093E+01 0. -1.
       -5    1    3    3    0  502  0.43154721382E+03 -0.43808619641E+03  0.17500978086E+04  0.18549978282E+04  0.46999998093E+01 0.  1.
</event>
<event>
 5   0  0.1298250E-07  0.3590940E+04  0.7818609E-02  0.8092570E-01
       -1   -1    0    0    0  501  0.00000000000E+00  0.00000000000E+00  0.35258945063E+04  0.35258945063E+04  0.50400001928E-02 0. -1.
        1   -1    0    0  501    0  0.00000000000E+00  0.00000000000E+00 -0.91429659569E+03  0.91429659570E+03  0.50400001928E-02 0.  1.
    10030    2    1    2    0    0  0.00000000000E+00  0.00000000000E+00  0.26115979106E+04  0.44401911020E+04  0.35909404584E+04 0.  0.
        1    1    3    3  502    0 -0.54175348045E+03  0.19411114943E+02 -0.81068699173E+03  0.97523690637E+03  0.50400001928E-02 0.  1.
       -1    1    3    3    0  502  0.54175348045E+03 -0.19411114943E+02  0.34222849023E+04  0.34649541956E+04  0.50400001928E-02 0. -1.
</event>
<event>
 5   0  0.1298250E-07  0.3601399E+04  0.7818609E-02  0.8090171E-01
       -1   -1    0    0    0  501  0.00000000000E+00  0.00000000000E+00  0.29976412751E+04  0.29976412751E+04  0.50400001928E-02 0. -1.
        1   -1    0    0  501    0  0.00000000000E+00  0.00000000000E+00 -0.10816898922E+04  0.10816898922E+04  0.50400001928E-02 0.  1.
    10030    2    1    2    0    0  0.00000000000E+00  0.00000000000E+00  0.19159513829E+04  0.40793311673E+04  0.36013987659E+04 0.  0.
        2    1    3    3  502    0 -0.80261247424E+03 -0.13521135854E+04 -0.36048715326E+02  0.15727992375E+04  0.25500000920E-02 0.  1.
       -2    1    3    3    0  502  0.80261247424E+03  0.13521135854E+04  0.19520000982E+04  0.25065319298E+04  0.25500000920E-02 0. -1.
</event>
<event>
 5   0  0.1298250E-07  0.3597565E+04  0.7818609E-02  0.8091050E-01
       -1   -1    0    0    0  501  0.00000000000E+00  0.00000000000E+00  0.13727862825E+04  0.13727862825E+04  0.50400001928E-02 0. -1.
        1   -1    0    0  501    0  0.00000000000E+00  0.00000000000E+00 -0.23569716564E+04  0.23569716564E+04  0.50400001928E-02 0.  1.
    10030    2    1    2    0    0  0.00000000000E+00  0.00000000000E+00 -0.98418537393E+03  0.37297579390E+04  0.35975649310E+04 0.  0.
        1    1    3    3  502    0  0.34019544189E+03  0.43151352942E+03  0.12836436696E+04  0.13963086819E+04  0.50400001928E-02 0. -1.
       -1    1    3    3    0  502 -0.34019544189E+03 -0.43151352942E+03 -0.22678290435E+04  0.23334492571E+04  0.50400001928E-02 0.  1.
</event>
<event>
 5   0  0.3880259E-07  0.3600642E+04  0.7818609E-02  0.8090345E-01
       -2   -1    0    0    0  501  0.00000000000E+00  0.00000000000E+00  0.13977364016E+04  0.13977364016E+04  0.25500000920E-02 0.  1.
        2   -1    0    0  501    0  0.00000000000E+00  0.00000000000E+00 -0.23188608065E+04  0.23188608065E+04  0.25500000920E-02 0. -1.
    10030    2    1    2    0    0  0.00000000000E+00  0.00000000000E+00 -0.92112440486E+03  0.37165972081E+04  0.36006422535E+04 0.  0.
        5    1    3    3  502    0 -0.37741738115E+03 -0.48253761162E+03 -0.22079611582E+04  0.22913753495E+04  0.46999998093E+01 0. -1.
       -5    1    3    3    0  502  0.37741738115E+03  0.48253761162E+03  0.12868367534E+04  0.14252218585E+04  0.46999998093E+01 0.  1.
</event>
<event>
 5   0  0.1361743E-07  0.3616084E+04  0.7818609E-02  0.8086817E-01
        1   -1    0    0  501    0  0.00000000000E+00  0.00000000000E+00  0.19952339442E+04  0.19952339442E+04  0.50400001928E-02 0. -1.
       -1   -1    0    0    0  501  0.00000000000E+00  0.00000000000E+00 -0.16384126338E+04  0.16384126338E+04  0.50400001928E-02 0.  1.
    10030    2    1    2    0    0  0.00000000000E+00  0.00000000000E+00  0.35682131045E+03  0.36336465780E+04  0.36160843472E+04 0.  0.
        5    1    3    3  502    0  0.13810781560E+04  0.11077114811E+04  0.54706135885E+03  0.18530245057E+04  0.46999998093E+01 0. -1.
       -5    1    3    3    0  502 -0.13810781560E+04 -0.11077114811E+04 -0.19024004840E+03  0.17806220723E+04  0.46999998093E+01 0.  1.
</event>
<event>
 5   0  0.1370997E-07  0.3628232E+04  0.7818609E-02  0.8084055E-01
        1   -1    0    0  501    0  0.00000000000E+00  0.00000000000E+00  0.24459597731E+04  0.24459597731E+04  0.50400001928E-02 0.  1.
       -1   -1    0    0    0  501  0.00000000000E+00  0.00000000000E+00 -0.13454906904E+04  0.13454906904E+04  0.50400001928E-02 0. -1.
    10030    2    1    2    0    0  0.00000000000E+00  0.00000000000E+00  0.11004690827E+04  0.37914504635E+04  0.36282315823E+04 0.  0.
        3    1    3    3  502    0 -0.15787317369E+04  0.28910715259E+03 -0.33340537923E+03  0.16392486083E+04  0.10100000352E+00 0. -1.
       -3    1    3    3    0  502  0.15787317369E+04 -0.28910715259E+03  0.14338744619E+04  0.21522018552E+04  0.10100000352E+00 0.  1.
</event>
<event>
 5   0  0.3993751E-07  0.3581872E+04  0.7818609E-02  0.8094657E-01
        2   -1    0    0  501    0  0.00000000000E+00  0.00000000000E+00  0.18205560802E+04  0.18205560803E+04  0.25500000920E-02 0. -1.
       -2   -1    0    0    0  501  0.00000000000E+00  0.00000000000E+00 -0.17617980736E+04  0.17617980736E+04  0.25500000920E-02 0.  1.
    10030    2    1    2    0    0  0.00000000000E+00  0.00000000000E+00  0.58758006675E+02  0.35823541538E+04  0.35818722451E+04 0.  0.
        1    1    3    3  502    0 -0.67286701317E+03 -0.15980282776E+04 -0.41902025284E+03  0.17838224030E+04  0.50400001928E-02 0.  1.
       -1    1    3    3    0  502  0.67286701317E+03  0.15980282776E+04  0.47777825951E+03  0.17985317508E+04  0.50400001928E-02 0. -1.
</event>
<event>
 5   0  0.1370997E-07  0.3858177E+04  0.7818609E-02  0.8033784E-01
        1   -1    0    0  501    0  0.00000000000E+00  0.00000000000E+00  0.15061279161E+04  0.15061279162E+04  0.50400001928E-02 0.  1.
       -1   -1    0    0    0  501  0.00000000000E+00  0.00000000000E+00 -0.24708273429E+04  0.24708273429E+04  0.50400001928E-02 0. -1.
    10030    2    1    2    0    0  0.00000000000E+00  0.00000000000E+00 -0.96469942671E+03  0.39769552590E+04  0.38581767907E+04 0.  0.
        3    1    3    3  502    0 -0.85480829551E+03  0.16014664862E+04  0.19042278715E+03  0.18252816157E+04  0.10100000352E+00 0.  1.
       -3    1    3    3    0  502  0.85480829551E+03 -0.16014664862E+04 -0.11551222139E+04  0.21516736434E+04  0.10100000352E+00 0. -1.
</event>
<event>
 5   0  0.4115358E-07  0.3578194E+04  0.7818609E-02  0.8095505E-01
        2   -1    0    0  501    0  0.00000000000E+00  0.00000000000E+00  0.18103257042E+04  0.18103257042E+04  0.25500000920E-02 0. -1.
       -2   -1    0    0    0  501  0.00000000000E+00  0.00000000000E+00 -0.17681175696E+04  0.17681175696E+04  0.25500000920E-02 0.  1.
    10030    2    1    2    0    0  0.00000000000E+00  0.00000000000E+00  0.42208134589E+02  0.35784432738E+04  0.35781943403E+04 0.  0.
        3    1    3    3  502    0  0.55244434055E+03  0.63778182400E+03 -0.15566331054E+04  0.17706120523E+04  0.10100000352E+00 0.  1.
       -3    1    3    3    0  502 -0.55244434055E+03 -0.63778182400E+03  0.15988412400E+04  0.18078312215E+04  0.10100000352E+00 0. -1.
</event>
<event>
 5   0  0.1298250E-07  0.3564972E+04  0.7818609E-02  0.8098563E-01
        1   -1    0    0  501    0  0.00000000000E+00  0.00000000000E+00  0.19823497685E+04  0.19823497685E+04  0.50400001928E-02 0. -1.
       -1   -1    0    0    0  501  0.00000000000E+00  0.00000000000E+00 -0.16027726520E+04  0.16027726520E+04  0.50400001928E-02 0.  1.
    10030    2    1    2    0    0  0.00000000000E+00  0.00000000000E+00  0.37957711658E+03  0.35851224205E+04  0.35649718067E+04 0.  0.
        1    1    3    3  502    0  0.15402357381E+04  0.55874577888E+03  0.89570569429E+03  0.18673006360E+04  0.50400001928E-02 0. -1.
       -1    1    3    3    0  502 -0.15402357381E+04 -0.55874577888E+03 -0.51612857771E+03  0.17178217845E+04  0.50400001928E-02 0.  1.
</event>
<event>
 5   0  0.1298250E-07  0.3597402E+04  0.7818609E-02  0.8091087E-01
        1   -1    0    0  501    0  0.00000000000E+00  0.00000000000E+00  0.19855043138E+04  0.19855043138E+04  0.50400001928E-02 0.  1.
       -1   -1    0    0    0  501  0.00000000000E+00  0.00000000000E+00 -0.16294726360E+04  0.16294726360E+04  0.50400001928E-02 0. -1.
    10030    2    1    2    0    0  0.00000000000E+00  0.00000000000E+00  0.35603167772E+03  0.36149769498E+04  0.35974018113E+04 0.  0.
        1    1    3    3  502    0  0.13987634142E+04  0.93543315832E+03  0.81653393339E+03  0.18703748146E+04  0.50400001928E-02 0.  1.
       -1    1    3    3    0  502 -0.13987634142E+04 -0.93543315832E+03 -0.46050225567E+03  0.17446021352E+04  0.50400001928E-02 0. -1.
</event>
<event>
 5   0  0.3993751E-07  0.3563744E+04  0.7818609E-02  0.8098847E-01
        2   -1    0    0  501    0  0.00000000000E+00  0.00000000000E+00  0.16035501968E+04  0.16035501968E+04  0.25500000920E-02 0.  1.
       -2   -1    0    0    0  501  0.00000000000E+00  0.00000000000E+00 -0.19800241974E+04  0.19800241974E+04  0.25500000920E-02 0. -1.
    10030    2    1    2    0    0  0.00000000000E+00  0.00000000000E+00 -0.37647400056E+03  0.35835743942E+04  0.35637442060E+04 0.  0.
        1    1    3    3  502    0 -0.14265284607E+03 -0.81925547679E+03 -0.17729308667E+04  0.19582679155E+04  0.50400001928E-02 0. -1.
       -1    1    3    3    0  502  0.14265284607E+03  0.81925547679E+03  0.13964568661E+04  0.16253064787E+04  0.50400001928E-02 0.  1.
</event>
<event>
 5   0  0.1370997E-07  0.3598326E+04  0.7818609E-02  0.8090875E-01
       -1   -1    0    0    0  501  0.00000000000E+00  0.00000000000E+00  0.19124521064E+04  0.19124521064E+04  0.50400001928E-02 0. -1.
        1   -1    0    0  501    0  0.00000000000E+00  0.00000000000E+00 -0.16925846725E+04  0.16925846725E+04  0.50400001928E-02 0.  1.
    10030    2    1    2    0    0  0.00000000000E+00  0.00000000000E+00  0.21986743395E+03  0.36050367789E+04  0.35983257897E+04 0.  0.
        3    1    3    3  502    0 -0.12088852713E+04  0.13259507109E+04 -0.22366438964E+02  0.17944495409E+04  0.10100000352E+00 0. -1.
       -3    1    3    3    0  502  0.12088852713E+04 -0.13259507109E+04  0.24223387291E+03  0.18105872380E+04  0.10100000352E+00 0.  1.
</event>
<event>
 5   0  0.1298250E-07  0.3579689E+04  0.7818609E-02  0.8095160E-01
       -1   -1    0    0    0  501  0.00000000000E+00  0.00000000000E+00  0.13547667244E+04  0.13547667244E+04  0.50400001928E-02 0.  1.
        1   -1    0    0  501    0  0.00000000000E+00  0.00000000000E+00 -0.23646461546E+04  0.23646461546E+04  0.50400001928E-02 0. -1.
    10030    2    1    2    0    0  0.00000000000E+00  0.00000000000E+00 -0.10098794302E+04  0.37194128790E+04  0.35796893303E+04 0.  0.
        1    1    3    3  502    0 -0.12077249622E+04 -0.13177860842E+04 -0.40980056243E+03  0.18338746547E+04  0.50400001928E-02 0. -1.
       -1    1    3    3    0  502  0.12077249622E+04  0.13177860842E+04 -0.60007886773E+03  0.18855382244E+04  0.50400001928E-02 0.  1.
</event>
<event>
 5   0  0.4115358E-07  0.3435448E+04  0.7818609E-02  0.8129261E-01
        2   -1    0    0  501    0  0.00000000000E+00  0.00000000000E+00  0.13057073304E+04  0.13057073304E+04  0.25500000920E-02 0. -1.
       -2   -1    0    0    0  501  0.00000000000E+00  0.00000000000E+00 -0.22597532248E+04  0.22597532248E+04  0.25500000920E-02 0.  1.
    10030    2    1    2    0    0  0.00000000000E+00  0.00000000000E+00 -0.95404589446E+03  0.35654605552E+04  0.34354483553E+04 0.  0.
        3    1    3    3  502    0 -0.69518601377E+03  0.13823132366E+04 -0.12512456698E+04  0.19898967848E+04  0.10100000352E+00 0.  1.
       -3    1    3    3    0  502  0.69518601377E+03 -0.13823132366E+04  0.29719977533E+03  0.15755637704E+04  0.10100000352E+00 0. -1.
</event>
<event>
 5   0  0.3880259E-07  0.3730478E+04  0.7818609E-02  0.8061241E-01
       -2   -1    0    0    0  501  0.00000000000E+00  0.00000000000E+00  0.13423422257E+04  0.13423422257E+04  0.25500000920E-02 0.  1.
        2   -1    0    0  501    0  0.00000000000E+00  0.00000000000E+00 -0.25918254981E+04  0.25918254981E+04  0.25500000920E-02 0. -1.
    10030    2    1    2    0    0  0.00000000000E+00  0.00000000000E+00 -0.12494832724E+04  0.39341677239E+04  0.37304781505E+04 0.  0.
        5    1    3    3  502    0  0.27167951226E+03  0.17902831875E+04 -0.10965754105E+04  0.21169372616E+04  0.46999998093E+01 0.  1.
       -5    1    3    3    0  502 -0.27167951226E+03 -0.17902831875E+04 -0.15290786189E+03  0.18172304623E+04  0.46999998093E+01 0. -1.
</event>
<event>
 5   0  0.4120440E-07  0.3503237E+04  0.7818609E-02  0.8113023E-01
        2   -1    0    0  501    0  0.00000000000E+00  0.00000000000E+00  0.21752115014E+04  0.21752115014E+04  0.25500000920E-02 0.  1.
       -2   -1    0    0    0  501  0.00000000000E+00  0.00000000000E+00 -0.14105143129E+04  0.14105143129E+04  0.25500000920E-02 0. -1.
    10030    2    1    2    0    0  0.00000000000E+00  0.00000000000E+00  0.76469718855E+03  0.35857258143E+04  0.35032367641E+04 0.  0.
        2    1    3    3  502    0 -0.45136417058E+03 -0.16571130460E+04  0.73456416697E+03  0.18679769209E+04  0.25500000920E-02 0.  1.
       -2    1    3    3    0  502  0.45136417058E+03  0.16571130460E+04  0.30133021581E+02  0.17177488934E+04  0.25500000920E-02 0. -1.
</event>
<event>
 5   0  0.4120440E-07  0.3604488E+04  0.7818609E-02  0.8089464E-01
        2   -1    0    0  501    0  0.00000000000E+00  0.00000000000E+00  0.25029772406E+04  0.25029772406E+04  0.25500000920E-02 0.  1.
       -2   -1    0    0    0  501  0.00000000000E+00  0.00000000000E+00 -0.12976877983E+04  0.12976877983E+04  0.25500000920E-02 0. -1.
    10030    2    1    2    0    0  0.00000000000E+00  0.00000000000E+00  0.12052894423E+04  0.38006650389E+04  0.36044877719E+04 0.  0.
        2    1    3    3  502    0 -0.10891470761E+04 -0.14273248531E+04  0.76797598537E+03  0.19527633507E+04  0.25500000920E-02 0.  1.
       -2    1    3    3    0  502  0.10891470761E+04  0.14273248531E+04  0.43731345695E+03  0.18479016882E+04  0.25500000920E-02 0. -1.
</event>
<event>
 5   0  0.4115358E-07  0.3612789E+04  0.7818609E-02  0.8087569E-01
       -2   -1    0    0    0  501  0.00000000000E+00  0.00000000000E+00  0.34996073975E+04  0.34996073975E+04  0.25500000920E-02 0.  1.
        2   -1    0    0  501    0  0.00000000000E+00  0.00000000000E+00 -0.93240754209E+03  0.93240754209E+03  0.25500000920E-02 0. -1.
    10030    2    1    2    0    0  0.00000000000E+00  0.00000000000E+00  0.25671998554E+04  0.44320149396E+04  0.36127885805E+04 0.  0.
        3    1    3    3  502    0 -0.10101374286E+04 -0.74381681885E+03  0.28781104359E+04  0.31396115645E+04  0.10100000352E+00 0.  1.
       -3    1    3    3    0  502  0.10101374286E+04  0.74381681885E+03 -0.31091058046E+03  0.12924033751E+04  0.10100000352E+00 0. -1.
</event>
<event>
 5   0  0.1298250E-07  0.3169759E+04  0.7818609E-02  0.8196850E-01
        1   -1    0    0  501    0  0.00000000000E+00  0.00000000000E+00  0.13156476772E+04  0.13156476772E+04  0.50400001928E-02 0.  1.
       -1   -1    0    0    0  501  0.00000000000E+00  0.00000000000E+00 -0.19092060898E+04  0.19092060898E+04  0.50400001928E-02 0. -1.
    10030    2    1    2    0    0  0.00000000000E+00  0.00000000000E+00 -0.59355841269E+03  0.32248537670E+04  0.31697587021E+04 0.  0.
        2    1    3    3  502    0  0.25622042148E+03 -0.15629370987E+04 -0.23727083888E+03  0.16014739242E+04  0.25500000920E-02 0. -1.
       -2    1    3    3    0  502 -0.25622042148E+03  0.15629370987E+04 -0.35628757380E+03  0.16233798428E+04  0.25500000920E-02 0.  1.
</event>
<event>
 5   0  0.3993751E-07  0.3597588E+04  0.7818609E-02  0.8091044E-01
        2   -1    0    0  501    0  0.00000000000E+00  0.00000000000E+00  0.24993063666E+04  0.24993063666E+04  0.25500000920E-02 0. -1.
       -2   -1    0    0    0  501  0.00000000000E+00  0.00000000000E+00 -0.12946230624E+04  0.12946230624E+04  0.25500000920E-02 0.  1.
    10030    2    1    2    0    0  0.00000000000E+00  0.00000000000E+00  0.12046833042E+04  0.37939294289E+04  0.35975878931E+04 0.  0.
        1    1    3    3  502    0 -0.64308876133E+03 -0.32923145451E+03  0.23395783908E+04  0.24485880733E+04  0.50400001928E-02 0. -1.
       -1    1    3    3    0  502  0.64308876133E+03  0.32923145451E+03 -0.11348950866E+04  0.13453413557E+04  0.50400001928E-02 0.  1.
</event>
<event>
 5   0  0.1370997E-07  0.3532281E+04  0.7818609E-02  0.8106182E-01
        1   -1    0    0  501    0  0.00000000000E+00  0.00000000000E+00  0.12158894906E+04  0.12158894906E+04  0.50400001928E-02 0.  1.
       -1   -1    0    0    0  501  0.00000000000E+00  0.00000000000E+00 -0.25654075959E+04  0.25654075959E+04  0.50400001928E-02 0. -1.
    10030    2    1    2    0    0  0.00000000000E+00  0.00000000000E+00 -0.13495181052E+04  0.37812970865E+04  0.35322809260E+04 0.  0.
        3    1    3    3  502    0 -0.94615862479E+03 -0.47362784703E+03 -0.21885620479E+04  0.24309140932E+04  0.10100000352E+00 0. -1.
       -3    1    3    3    0  502  0.94615862479E+03  0.47362784703E+03  0.83904394267E+03  0.13503829933E+04  0.10100000352E+00 0.  1.
</event>
<event>
 5   0  0.1370997E-07  0.3610876E+04  0.7818609E-02  0.8088005E-01
        1   -1    0    0  501    0  0.00000000000E+00  0.00000000000E+00  0.21398849589E+04  0.21398849589E+04  0.50400001928E-02 0.  1.
       -1   -1    0    0    0  501  0.00000000000E+00  0.00000000000E+00 -0.15232626122E+04  0.15232626122E+04  0.50400001928E-02 0. -1.
    10030    2    1    2    0    0  0.00000000000E+00  0.00000000000E+00  0.61662234672E+03  0.36631475712E+04  0.36108762108E+04 0.  0.
        3    1    3    3  502    0 -0.52805520398E+03 -0.12870009829E+04  0.14757932954E+04  0.20280975543E+04  0.10100000352E+00 0.  1.
       -3    1    3    3    0  502  0.52805520398E+03  0.12870009829E+04 -0.85917094872E+03  0.16350500169E+04  0.10100000352E+00 0. -1.
</event>
<event>
 5   0  0.1348226E-07  0.3629477E+04  0.7818609E-02  0.8083773E-01
       -1   -1    0    0    0  501  0.00000000000E+00  0.00000000000E+00  0.20885497940E+04  0.20885497940E+04  0.50400001928E-02 0.  1.
        1   -1    0    0  501    0  0.00000000000E+00  0.00000000000E+00 -0.15768239718E+04  0.15768239718E+04  0.50400001928E-02 0. -1.
    10030    2    1    2    0    0  0.00000000000E+00  0.00000000000E+00  0.51172582218E+03  0.36653737659E+04  0.36294767565E+04 0.  0.
        4    1    3    3  502    0  0.14162375667E+04 -0.76628932069E+02 -0.88744406529E+03  0.16730688631E+04  0.12699999809E+01 0. -1.
       -4    1    3    3    0  502 -0.14162375667E+04  0.76628932069E+02  0.13991698875E+04  0.19923049028E+04  0.12699999809E+01 0.  1.
</event>
<event>
 5   0  0.4200635E-07  0.3933553E+04  0.7818609E-02  0.8018087E-01
        2   -1    0    0  501    0  0.00000000000E+00  0.00000000000E+00  0.27844613889E+04  0.27844613889E+04  0.25500000920E-02 0.  1.
       -2   -1    0    0    0  501  0.00000000000E+00  0.00000000000E+00 -0.13892127725E+04  0.13892127725E+04  0.25500000920E-02 0. -1.
    10030    2    1    2    0    0  0.00000000000E+00  0.00000000000E+00  0.13952486164E+04  0.41736741614E+04  0.39335527585E+04 0.  0.
        4    1    3    3  502    0 -0.11079082741E+04  0.15005106863E+04  0.13595788257E+04  0.23081267859E+04  0.12699999809E+01 0.  1.
       -4    1    3    3    0  502  0.11079082741E+04 -0.15005106863E+04  0.35669790701E+02  0.18655473755E+04  0.12699999809E+01 0. -1.
</event>
<event>
 5   0  0.1370997E-07  0.3497151E+04  0.7818609E-02  0.8114465E-01
        1   -1    0    0  501    0  0.00000000000E+00  0.00000000000E+00  0.16163936319E+04  0.16163936319E+04  0.50400001928E-02 0.  1.
       -1   -1    0    0    0  501  0.00000000000E+00  0.00000000000E+00 -0.18915666720E+04  0.18915666720E+04  0.50400001928E-02 0. -1.
    10030    2    1    2    0    0  0.00000000000E+00  0.00000000000E+00 -0.27517304006E+03  0.35079603039E+04  0.34971510250E+04 0.  0.
        3    1    3    3  502    0 -0.65493576122E+03 -0.62911255220E+03  0.13612853173E+04  0.16364049560E+04  0.10100000352E+00 0.  1.
       -3    1    3    3    0  502  0.65493576122E+03  0.62911255220E+03 -0.16364583574E+04  0.18715553479E+04  0.10100000352E+00 0. -1.
</event>
<event>
 5   0  0.3880259E-07  0.3567742E+04  0.7818609E-02  0.8097921E-01
        2   -1    0    0  501    0  0.00000000000E+00  0.00000000000E+00  0.24689738359E+04  0.24689738359E+04  0.25500000920E-02 0. -1.
       -2   -1    0    0    0  501  0.00000000000E+00  0.00000000000E+00 -0.12888741068E+04  0.12888741068E+04  0.25500000920E-02 0.  1.
    10030    2    1    2    0    0  0.00000000000E+00  0.00000000000E+00  0.11800997291E+04  0.37578479427E+04  0.35677423939E+04 0.  0.
        5    1    3    3  502    0 -0.14903499615E+04 -0.94556768552E+03  0.86254966561E+03  0.19644987328E+04  0.46999998093E+01 0. -1.
       -5    1    3    3    0  502  0.14903499615E+04  0.94556768552E+03  0.31755006349E+03  0.17933492098E+04  0.46999998093E+01 0.  1.
</event>
<event>
 5   0  0.1370997E-07  0.3694252E+04  0.7818609E-02  0.8069237E-01
        1   -1    0    0  501    0  0.00000000000E+00  0.00000000000E+00  0.18353109747E+04  0.18353109747E+04  0.50400001928E-02 0.  1.
       -1   -1    0    0    0  501  0.00000000000E+00  0.00000000000E+00 -0.18590169974E+04  0.18590169974E+04  0.50400001928E-02 0. -1.
    10030    2    1    2    0    0  0.00000000000E+00  0.00000000000E+00 -0.23706022685E+02  0.36943279721E+04  0.36942519121E+04 0.  0.
        3    1    3    3  502    0  0.10340761210E+04 -0.15268465834E+04 -0.11815841710E+03  0.18478461340E+04  0.10100000352E+00 0.  1.
       -3    1    3    3    0  502 -0.10340761210E+04  0.15268465834E+04  0.94452394418E+02  0.18464818381E+04  0.10100000352E+00 0. -1.
</event>
<event>
 5   0  0.3993751E-07  0.3599021E+04  0.7818609E-02  0.8090716E-01
        2   -1    0    0  501    0  0.00000000000E+00  0.00000000000E+00  0.22543929241E+04  0.22543929241E+04  0.25500000920E-02 0.  1.
       -2   -1    0    0    0  501  0.00000000000E+00  0.00000000000E+00 -0.14364128313E+04  0.14364128313E+04  0.25500000920E-02 0. -1.
    10030    2    1    2    0    0  0.00000000000E+00  0.00000000000E+00  0.81798009279E+03  0.36908057554E+04  0.35990214909E+04 0.  0.
        1    1    3    3  502    0  0.73182712928E+03 -0.42418804841E+02 -0.12763536414E+04  0.14718861777E+04  0.50400001928E-02 0. -1.
       -1    1    3    3    0  502 -0.73182712928E+03  0.42418804841E+02  0.20943337342E+04  0.22189195777E+04  0.50400001928E-02 0.  1.
</event>
<event>
 5   0  0.1370997E-07  0.3765802E+04  0.7818609E-02  0.8053534E-01
       -1   -1    0    0    0  501  0.00000000000E+00  0.00000000000E+00  0.26330393370E+04  0.26330393370E+04  0.50400001928E-02 0.  1.
        1   -1    0    0  501    0  0.00000000000E+00  0.00000000000E+00 -0.13464726086E+04  0.13464726086E+04  0.50400001928E-02 0. -1.
    10030    2    1    2    0    0  0.00000000000E+00  0.00000000000E+00  0.12865667284E+04  0.39795119456E+04  0.37658015586E+04 0.  0.
        3    1    3    3  502    0 -0.15984832798E+04  0.40211312936E+03  0.16051418629E+04  0.23007225332E+04  0.10100000352E+00 0. -1.
       -3    1    3    3    0  502  0.15984832798E+04 -0.40211312936E+03 -0.31857513448E+03  0.16787894124E+04  0.10100000352E+00 0.  1.
</event>
<event>
 5   0  0.3880259E-07  0.3625033E+04  0.7818609E-02  0.8084782E-01
        2   -1    0    0  501    0  0.00000000000E+00  0.00000000000E+00  0.14543767849E+04  0.14543767849E+04  0.25500000920E-02 0. -1.
       -2   -1    0    0    0  501  0.00000000000E+00  0.00000000000E+00 -0.22588480869E+04  0.22588480869E+04  0.25500000920E-02 0.  1.
    10030    2    1    2    0    0  0.00000000000E+00  0.00000000000E+00 -0.80447130200E+03  0.37132248717E+04  0.36250330857E+04 0.  0.
        5    1    3    3  502    0  0.16569393832E+04 -0.18142837076E+03 -0.11314753913E+04  0.20146024482E+04  0.46999998093E+01 0.  1.
       -5    1    3    3    0  502 -0.16569393832E+04  0.18142837076E+03  0.32700408926E+03  0.16986224235E+04  0.46999998093E+01 0. -1.
</event>
<event>
 5   0  0.4115358E-07  0.3601502E+04  0.7818609E-02  0.8090148E-01
        2   -1    0    0  501    0  0.00000000000E+00  0.00000000000E+00  0.19744233751E+04  0.19744233751E+04  0.25500000920E-02 0.  1.
       -2   -1    0    0    0  501  0.00000000000E+00  0.00000000000E+00 -0.16423546026E+04  0.16423546026E+04  0.25500000920E-02 0. -1.
    10030    2    1    2    0    0  0.00000000000E+00  0.00000000000E+00  0.33206877251E+03  0.36167779777E+04  0.36015015299E+04 0.  0.
        3    1    3    3  502    0 -0.14121934681E+04 -0.55067403132E+03  0.11423572196E+04  0.18980285318E+04  0.10100000352E+00 0.  1.
       -3    1    3    3    0  502  0.14121934681E+04  0.55067403132E+03 -0.81028844712E+03  0.17187494459E+04  0.10100000352E+00 0. -1.
</event>
<event>
 5   0  0.4115358E-07  0.3596120E+04  0.7818609E-02  0.8091381E-01
        2   -1    0    0  501    0  0.00000000000E+00  0.00000000000E+00  0.24224234853E+04  0.24224234853E+04  0.25500000920E-02 0.  1.
       -2   -1    0    0    0  501  0.00000000000E+00  0.00000000000E+00 -0.13346223047E+04  0.13346223047E+04  0.25500000920E-02 0. -1.
    10030    2    1    2    0    0  0.00000000000E+00  0.00000000000E+00  0.10878011806E+04  0.37570457899E+04  0.35961203621E+04 0.  0.
        3    1    3    3  502    0  0.11991142684E+04  0.12041523744E+04 -0.69895377635E+02  0.17008066743E+04  0.10100000352E+00 0. -1.
       -3    1    3    3    0  502 -0.11991142684E+04 -0.12041523744E+04  0.11576965582E+04  0.20562391156E+04  0.10100000352E+00 0.  1.
</event>
<event>
 5   0  0.1298250E-07  0.3610152E+04  0.7818609E-02  0.8088170E-01
       -1   -1    0    0    0  501  0.00000000000E+00  0.00000000000E+00  0.21004139388E+04  0.21004139388E+04  0.50400001928E-02 0.  1.
        1   -1    0    0  501    0  0.00000000000E+00  0.00000000000E+00 -0.15512651837E+04  0.15512651837E+04  0.50400001928E-02 0. -1.
    10030    2    1    2    0    0  0.00000000000E+00  0.00000000000E+00  0.54914875505E+03  0.36516791225E+04  0.36101518054E+04 0.  0.
        1    1    3    3  502    0  0.10387097151E+04  0.97241143099E+03 -0.84896688295E+03  0.16568785809E+04  0.50400001928E-02 0. -1.
       -1    1    3    3    0  502 -0.10387097151E+04 -0.97241143099E+03  0.13981156380E+04  0.19948005416E+04  0.50400001928E-02 0.  1.
</event>
<event>
 5   0  0.1348226E-07  0.3620930E+04  0.7818609E-02  0.8085714E-01
       -1   -1    0    0    0  501  0.00000000000E+00  0.00000000000E+00  0.19049927296E+04  0.19049927296E+04  0.50400001928E-02 0.  1.
        1   -1    0    0  501    0  0.00000000000E+00  0.00000000000E+00 -0.17206282353E+04  0.17206282353E+04  0.50400001928E-02 0. -1.
    10030    2    1    2    0    0  0.00000000000E+00  0.00000000000E+00  0.18436449429E+03  0.36256209650E+04  0.36209304212E+04 0.  0.
        4    1    3    3  502    0 -0.17416041961E+04  0.39200101722E+03 -0.20975886109E+03  0.17974566382E+04  0.12699999809E+01 0. -1.
       -4    1    3    3    0  502  0.17416041961E+04 -0.39200101722E+03  0.39412335538E+03  0.18281643268E+04  0.12699999809E+01 0.  1.
</event>
<event>
 5   0  0.1298250E-07  0.3697614E+04  0.7818609E-02  0.8068491E-01
       -1   -1    0    0    0  501  0.00000000000E+00  0.00000000000E+00  0.20374624594E+04  0.20374624594E+04  0.50400001928E-02 0.  1.
        1   -1    0    0  501    0  0.00000000000E+00  0.00000000000E+00 -0.16776198664E+04  0.16776198664E+04  0.50400001928E-02 0. -1.
    10030    2    1    2    0    0  0.00000000000E+00  0.00000000000E+00  0.35984259294E+03  0.37150823258E+04  0.36976140951E+04 0.  0.
        1    1    3    3  502    0  0.53015293125E+03  0.63167060303E+03 -0.14825914266E+04  0.16965103064E+04  0.50400001928E-02 0. -1.
       -1    1    3    3    0  502 -0.53015293125E+03 -0.63167060303E+03  0.18424340196E+04  0.20185720195E+04  0.50400001928E-02 0.  1.
</event>
<event>
 5   0  0.1361743E-07  0.3609285E+04  0.7818609E-02  0.8088368E-01
       -1   -1    0    0    0  501  0.00000000000E+00  0.00000000000E+00  0.18353298223E+04  0.18353298223E+04  0.50400001928E-02 0.  1.
        1   -1    0    0  501    0  0.00000000000E+00  0.00000000000E+00 -0.17744687170E+04  0.17744687170E+04  0.50400001928E-02 0. -1.
    10030    2    1    2    0    0  0.00000000000E+00  0.00000000000E+00  0.60861105302E+02  0.36097985392E+04  0.36092854445E+04 0.  0.
        5    1    3    3  502    0 -0.15513424117E+04 -0.89790557555E+03 -0.17892088055E+03  0.18013696101E+04  0.46999998093E+01 0.  1.
       -5    1    3    3    0  502  0.15513424117E+04  0.89790557555E+03  0.23978198585E+03  0.18084289291E+04  0.46999998093E+01 0. -1.
</event>
<event>
 5   0  0.1348226E-07  0.3610752E+04  0.7818609E-02  0.8088033E-01
        1   -1    0    0  501    0  0.00000000000E+00  0.00000000000E+00  0.10736144512E+04  0.10736144512E+04  0.50400001928E-02 0.  1.
       -1   -1    0    0    0  501  0.00000000000E+00  0.00000000000E+00 -0.30358965375E+04  0.30358965375E+04  0.50400001928E-02 0. -1.
    10030    2    1    2    0    0  0.00000000000E+00  0.00000000000E+00 -0.19622820863E+04  0.41095109887E+04  0.36107519411E+04 0.  0.
        4    1    3    3  502    0 -0.16639261982E+04  0.53558114697E+02 -0.17760931265E+04  0.24343432937E+04  0.12699999809E+01 0. -1.
       -4    1    3    3    0  502  0.16639261982E+04 -0.53558114697E+02 -0.18618895976E+03  0.16751676950E+04  0.12699999809E+01 0.  1.
</event>
<event>
 5   0  0.1298250E-07  0.3221271E+04  0.7818609E-02  0.8183222E-01
        1   -1    0    0  501    0  0.00000000000E+00  0.00000000000E+00  0.18037141824E+04  0.18037141824E+04  0.50400001928E-02 0. -1.
       -1   -1    0    0    0  501  0.00000000000E+00  0.00000000000E+00 -0.14382245933E+04  0.14382245933E+04  0.50400001928E-02 0.  1.
    10030    2    1    2    0    0  0.00000000000E+00  0.00000000000E+00  0.36548958904E+03  0.32419387757E+04  0.32212706167E+04 0.  0.
        2    1    3    3  502    0 -0.13864356660E+04  0.26473121000E+03  0.96351854429E+03  0.17089922337E+04  0.25500000920E-02 0. -1.
       -2    1    3    3    0  502  0.13864356660E+04 -0.26473121000E+03 -0.59802895525E+03  0.15329465421E+04  0.25500000920E-02 0.  1.
</event>
<event>
 5   0  0.4120440E-07  0.3611173E+04  0.7818609E-02  0.8087937E-01
        2   -1    0    0  501    0  0.00000000000E+00  0.00000000000E+00  0.23136234810E+04  0.23136234810E+04  0.25500000920E-02 0. -1.
       -2   -1    0    0    0  501  0.00000000000E+00  0.00000000000E+00 -0.14091067774E+04  0.14091067774E+04  0.25500000920E-02 0.  1.
    10030    2    1    2    0    0  0.00000000000E+00  0.00000000000E+00  0.90451670362E+03  0.37227302584E+04  0.36111729549E+04 0.  0.
        2    1    3    3  502    0 -0.62296424050E+03 -0.14508804338E+04 -0.45058438480E+03  0.16420002332E+04  0.25500000920E-02 0.  1.
       -2    1    3    3    0  502  0.62296424050E+03  0.14508804338E+04  0.13551010884E+04  0.20807300252E+04  0.25500000920E-02 0. -1.
</event>
<event>
 5   0  0.1361743E-07  0.3179510E+04  0.7818609E-02  0.8194250E-01
        1   -1    0    0  501    0  0.00000000000E+00  0.00000000000E+00  0.15978712486E+04  0.15978712486E+04  0.50400001928E-02 0. -1.
       -1   -1    0    0    0  501  0.00000000000E+00  0.00000000000E+00 -0.15816796783E+04  0.15816796783E+04  0.50400001928E-02 0.  1.
    10030    2    1    2    0    0  0.00000000000E+00  0.00000000000E+00  0.16191570278E+02  0.31795509269E+04  0.31795096996E+04 0.  0.
        5    1    3    3  502    0  0.90969716028E+03 -0.74592523611E+03  0.10773827728E+04  0.15952207090E+04  0.46999998093E+01 0. -1.
       -5    1    3    3    0  502 -0.90969716028E+03  0.74592523611E+03 -0.10611912025E+04  0.15843302180E+04  0.46999998093E+01 0.  1.
</event>
<event>
 5   0  0.1370997E-07  0.3599966E+04  0.7818609E-02  0.8090499E-01
        1   -1    0    0  501    0  0.00000000000E+00  0.00000000000E+00  0.20145833757E+04  0.20145833757E+04  0.50400001928E-02 0. -1.
       -1   -1    0    0    0  501  0.00000000000E+00  0.00000000000E+00 -0.16082427459E+04  0.16082427459E+04  0.50400001928E-02 0.  1.
    10030    2    1    2    0    0  0.00000000000E+00  0.00000000000E+00  0.40634062979E+03  0.36228261217E+04  0.35999661666E+04 0.  0.
        3    1    3    3  502    0  0.15151671855E+04 -0.19280591636E+03  0.11616009866E+04  0.19189118228E+04  0.10100000352E+00 0. -1.
       -3    1    3    3    0  502 -0.15151671855E+04  0.19280591636E+03 -0.75526035681E+03  0.17039142989E+04  0.10100000352E+00 0.  1.
</event>
<event>
 5   0  0.4120440E-07  0.3619279E+04  0.7818609E-02  0.8086090E-01
        2   -1    0    0  501    0  0.00000000000E+00  0.00000000000E+00  0.20588452106E+04  0.20588452106E+04  0.25500000920E-02 0.  1.
       -2   -1    0    0    0  501  0.00000000000E+00  0.00000000000E+00 -0.15905978090E+04  0.15905978090E+04  0.25500000920E-02 0. -1.
    10030    2    1    2    0    0  0.00000000000E+00  0.00000000000E+00  0.46824740159E+03  0.36494430195E+04  0.36192787574E+04 0.  0.
        2    1    3    3  502    0 -0.10192980645E+04 -0.77440482483E+01  0.17418334505E+04  0.20181705289E+04  0.25500000920E-02 0.  1.
       -2    1    3    3    0  502  0.10192980645E+04  0.77440482483E+01 -0.12735860489E+04  0.16312724906E+04  0.25500000920E-02 0. -1.
</event>
<event>
 5   0  0.1298250E-07  0.3598210E+04  0.7818609E-02  0.8090902E-01
       -1   -1    0    0    0  501  0.00000000000E+00  0.00000000000E+00  0.16978618422E+04  0.16978618422E+04  0.50400001928E-02 0.  1.
        1   -1    0    0  501    0  0.00000000000E+00  0.00000000000E+00 -0.19063854618E+04  0.19063854618E+04  0.50400001928E-02 0. -1.
    10030    2    1    2    0    0  0.00000000000E+00  0.00000000000E+00 -0.20852361965E+03  0.36042473040E+04  0.35982101840E+04 0.  0.
        2    1    3    3  502    0  0.20408762493E+02  0.39010595733E+03 -0.18633917045E+04  0.19038980593E+04  0.25500000920E-02 0. -1.
       -2    1    3    3    0  502 -0.20408762493E+02 -0.39010595733E+03  0.16548680849E+04  0.17003492447E+04  0.25500000920E-02 0.  1.
</event>
<event>
 5   0  0.1361743E-07  0.3587010E+04  0.7818609E-02  0.8093474E-01
       -1   -1    0    0    0  501  0.00000000000E+00  0.00000000000E+00  0.20096884152E+04  0.20096884152E+04  0.50400001928E-02 0. -1.
        1   -1    0    0  501    0  0.00000000000E+00  0.00000000000E+00 -0.16005765933E+04  0.16005765933E+04  0.50400001928E-02 0.  1.
    10030    2    1    2    0    0  0.00000000000E+00  0.00000000000E+00  0.40911182191E+03  0.36102650085E+04  0.35870100291E+04 0.  0.
        5    1    3    3  502    0  0.60326443640E+03 -0.16668919207E+04  0.47868446321E+03  0.18361964929E+04  0.46999998093E+01 0.  1.
       -5    1    3    3    0  502 -0.60326443640E+03  0.16668919207E+04 -0.69572641305E+02  0.17740685155E+04  0.46999998093E+01 0. -1.
</event>
<event>
 5   0  0.3993751E-07  0.3623951E+04  0.7818609E-02  0.8085027E-01
       -2   -1    0    0    0  501  0.00000000000E+00  0.00000000000E+00  0.18256987715E+04  0.18256987715E+04  0.25500000920E-02 0.  1.
        2   -1    0    0  501    0  0.00000000000E+00  0.00000000000E+00 -0.17983557493E+04  0.17983557493E+04  0.25500000920E-02 0. -1.
    10030    2    1    2    0    0  0.00000000000E+00  0.00000000000E+00  0.27343022161E+02  0.36240545207E+04  0.36239513695E+04 0.  0.
        1    1    3    3  502    0  0.12370094398E+04  0.53869973557E+03  0.12231959637E+04  0.18211529658E+04  0.50400001928E-02 0.  1.
       -1    1    3    3    0  502 -0.12370094398E+04 -0.53869973557E+03 -0.11958529415E+04  0.18029015550E+04  0.50400001928E-02 0. -1.
</event>
<event>
 5   0  0.4120440E-07  0.3612678E+04  0.7818609E-02  0.8087594E-01
       -2   -1    0    0    0  501  0.00000000000E+00  0.00000000000E+00  0.15068373077E+04  0.15068373077E+04  0.25500000920E-02 0.  1.
        2   -1    0    0  501    0  0.00000000000E+00  0.00000000000E+00 -0.21653705791E+04  0.21653705791E+04  0.25500000920E-02 0. -1.
    10030    2    1    2    0    0  0.00000000000E+00  0.00000000000E+00 -0.65853327144E+03  0.36722078868E+04  0.36126783270E+04 0.  0.
        2    1    3    3  502    0  0.55528392522E+02  0.13437631229E+04  0.89645508716E+03  0.16162965248E+04  0.25500000920E-02 0.  1.
       -2    1    3    3    0  502 -0.55528392522E+02 -0.13437631229E+04 -0.15549883586E+04  0.20559113620E+04  0.25500000920E-02 0. -1.
</event>
<event>
 5   0  0.4200635E-07  0.3618769E+04  0.7818609E-02  0.8086206E-01
       -2   -1    0    0    0  501  0.00000000000E+00  0.00000000000E+00  0.16545777491E+04  0.16545777491E+04  0.25500000920E-02 0. -1.
        2   -1    0    0  501    0  0.00000000000E+00  0.00000000000E+00 -0.19786755945E+04  0.19786755945E+04  0.25500000920E-02 0.  1.
    10030    2    1    2    0    0  0.00000000000E+00  0.00000000000E+00 -0.32409784543E+03  0.36332533437E+04  0.36187691894E+04 0.  0.
        4    1    3    3  502    0  0.57424530764E+03 -0.14410931766E+04 -0.10971002253E+04  0.19000362455E+04  0.12699999809E+01 0.  1.
       -4    1    3    3    0  502 -0.57424530764E+03  0.14410931766E+04  0.77300237986E+03  0.17332170981E+04  0.12699999809E+01 0. -1.
</event>
<event>
 5   0  0.3880259E-07  0.3578602E+04  0.7818609E-02  0.8095411E-01
       -2   -1    0    0    0  501  0.00000000000E+00  0.00000000000E+00  0.18603613995E+04  0.18603613995E+04  0.25500000920E-02 0. -1.
        2   -1    0    0  501    0  0.00000000000E+00  0.00000000000E+00 -0.17209547915E+04  0.17209547915E+04  0.25500000920E-02 0.  1.
    10030    2    1    2    0    0  0.00000000000E+00  0.00000000000E+00  0.13940660800E+03  0.35813161911E+04  0.35786018860E+04 0.  0.
        5    1    3    3  502    0 -0.14942652645E+04 -0.96291719369E+03  0.27366557229E+03  0.17985975475E+04  0.46999998093E+01 0. -1.
       -5    1    3    3    0  502  0.14942652645E+04  0.96291719369E+03 -0.13425896429E+03  0.17827186435E+04  0.46999998093E+01 0.  1.
</event>
<event>
 5   0  0.4200635E-07  0.3627423E+04  0.7818609E-02  0.8084239E-01
       -2   -1    0    0    0  501  0.00000000000E+00  0.00000000000E+00  0.13425311772E+04  0.13425311772E+04  0.25500000920E-02 0.  1.
        2   -1    0    0  501    0  0.00000000000E+00  0.00000000000E+00 -0.24502598595E+04  0.24502598595E+04  0.25500000920E-02 0. -1.
    10030    2    1    2    0    0  0.00000000000E+00  0.00000000000E+00 -0.11077286823E+04  0.37927910368E+04  0.36274234678E+04 0.  0.
        4    1    3    3  502    0 -0.11098219579E+04  0.10712946373E+04  0.44365726827E+03  0.16050577444E+04  0.12699999809E+01 0.  1.
       -4    1    3    3    0  502  0.11098219579E+04 -0.10712946373E+04 -0.15513859505E+04  0.21877332924E+04  0.12699999809E+01 0. -1.
</event>
<event>
 5   0  0.3993751E-07  0.3556903E+04  0.7818609E-02  0.8100436E-01
       -2   -1    0    0    0  501  0.00000000000E+00  0.00000000000E+00  0.14735930754E+04  0.14735930754E+04  0.25500000920E-02 0. -1.
        2   -1    0    0  501    0  0.00000000000E+00  0.00000000000E+00 -0.21463788933E+04  0.21463788934E+04  0.25500000920E-02 0.  1.
    10030    2    1    2    0    0  0.00000000000E+00  0.00000000000E+00 -0.67278581793E+03  0.36199719688E+04  0.35569026270E+04 0.  0.
        1    1    3    3  502    0  0.11341912064E+04 -0.10796574342E+04  0.52166958266E+03  0.16505117453E+04  0.50400001928E-02 0. -1.
       -1    1    3    3    0  502 -0.11341912064E+04  0.10796574342E+04 -0.11944554006E+04  0.19694602235E+04  0.50400001928E-02 0.  1.
</event>
<event>
 5   0  0.1298250E-07  0.3614012E+04  0.7818609E-02  0.8087290E-01
       -1   -1    0    0    0  501  0.00000000000E+00  0.00000000000E+00  0.23771440494E+04  0.23771440494E+04  0.50400001928E-02 0.  1.
        1   -1    0    0  501    0  0.00000000000E+00  0.00000000000E+00 -0.13736104609E+04  0.13736104609E+04  0.50400001928E-02 0. -1.
    10030    2    1    2    0    0  0.00000000000E+00  0.00000000000E+00  0.10035335885E+04  0.37507545103E+04  0.36140115846E+04 0.  0.
        2    1    3    3  502    0 -0.51945403108E+03 -0.17166186742E+04  0.27283547935E+03  0.18141255088E+04  0.25500000920E-02 0. -1.
       -2    1    3    3    0  502  0.51945403108E+03  0.17166186742E+04  0.73069810914E+03  0.19366290015E+04  0.25500000920E-02 0.  1.
</event>
<event>
 5   0  0.4120440E-07  0.3668187E+04  0.7818609E-02  0.8075049E-01
       -2   -1    0    0    0  501  0.00000000000E+00  0.00000000000E+00  0.18202058888E+04  0.18202058888E+04  0.25500000920E-02 0.  1.
        2   -1    0    0  501    0  0.00000000000E+00  0.00000000000E+00 -0.18480868293E+04  0.18480868293E+04  0.25500000920E-02 0. -1.
    10030    2    1    2    0    0  0.00000000000E+00  0.00000000000E+00 -0.27880940533E+02  0.36682927181E+04  0.36681867617E+04 0.  0.
        2    1    3    3  502    0  0.11865514116E+04 -0.20877909783E+03 -0.13968779409E+04  0.18446574061E+04  0.25500000920E-02 0. -1.
       -2    1    3    3    0  502 -0.11865514116E+04  0.20877909783E+03  0.13689970004E+04  0.18236353120E+04  0.25500000920E-02 0.  1.
</event>
<event>
 5   0  0.4115358E-07  0.3582732E+04  0.7818609E-02  0.8094459E-01
        2   -1    0    0  501    0  0.00000000000E+00  0.00000000000E+00  0.18652514060E+04  0.18652514060E+04  0.25500000920E-02 0. -1.
       -2   -1    0    0    0  501  0.00000000000E+00  0.00000000000E+00 -0.17204076140E+04  0.17204076140E+04  0.25500000920E-02 0.  1.
    10030    2    1    2    0    0  0.00000000000E+00  0.00000000000E+00  0.14484379199E+03  0.35856590199E+04  0.35827323209E+04 0.  0.
        3    1    3    3  502    0  0.79468808425E+03  0.12737091324E+04 -0.90568326867E+03  0.17533186529E+04  0.10100000352E+00 0.  1.
       -3    1    3    3    0  502 -0.79468808425E+03 -0.12737091324E+04  0.10505270607E+04  0.18323403670E+04  0.10100000352E+00 0. -1.
</event>
<event>
 5   0  0.3880259E-07  0.3599617E+04  0.7818609E-02  0.8090579E-01
        2   -1    0    0  501    0  0.00000000000E+00  0.00000000000E+00  0.26602432137E+04  0.26602432137E+04  0.25500000920E-02 0. -1.
       -2   -1    0    0    0  501  0.00000000000E+00  0.00000000000E+00 -0.12176747156E+04  0.12176747156E+04  0.25500000920E-02 0.  1.
    10030    2    1    2    0    0  0.00000000000E+00  0.00000000000E+00  0.14425684981E+04  0.38779179293E+04  0.35996171456E+04 0.  0.
        5    1    3    3  502    0 -0.60283437956E+03  0.87359364390E+03 -0.84461069724E+03  0.13564528977E+04  0.46999998093E+01 0.  1.
       -5    1    3    3    0  502  0.60283437956E+03 -0.87359364390E+03  0.22871791954E+04  0.25214650316E+04  0.46999998093E+01 0. -1.
</event>
<event>
 5   0  0.3993751E-07  0.3453422E+04  0.7818609E-02  0.8124918E-01
       -2   -1    0    0    0  501  0.00000000000E+00  0.00000000000E+00  0.13621970512E+04  0.13621970512E+04  0.25500000920E-02 0. -1.
        2   -1    0    0  501    0  0.00000000000E+00  0.00000000000E+00 -0.21887659094E+04  0.21887659094E+04  0.25500000920E-02 0.  1.
    10030    2    1    2    0    0  0.00000000000E+00  0.00000000000E+00 -0.82656885815E+03  0.35509629606E+04  0.34534217626E+04 0.  0.
        1    1    3    3  502    0 -0.15413431985E+04 -0.26187569094E+03 -0.11669343715E+04  0.19509109565E+04  0.50400001928E-02 0.  1.
       -1    1    3    3    0  502  0.15413431985E+04  0.26187569094E+03  0.34036551336E+03  0.16000520040E+04  0.50400001928E-02 0. -1.
</event>
<event>
 5   0  0.1298250E-07  0.3551106E+04  0.7818609E-02  0.8101784E-01
       -1   -1    0    0    0  501  0.00000000000E+00  0.00000000000E+00  0.14889330969E+04  0.14889330969E+04  0.50400001928E-02 0. -1.
        1   -1    0    0  501    0  0.00000000000E+00  0.00000000000E+00 -0.21173473966E+04  0.21173473966E+04  0.50400001928E-02 0.  1.
    10030    2    1    2    0    0  0.00000000000E+00  0.00000000000E+00 -0.62841429969E+03  0.36062804935E+04  0.35511060904E+04 0.  0.
        1    1    3    3  502    0  0.73251563023E+03 -0.12862186909E+04 -0.13100815932E+04  0.19766768704E+04  0.50400001928E-02 0.  1.
       -1    1    3    3    0  502 -0.73251563023E+03  0.12862186909E+04  0.68166729347E+03  0.16296036231E+04  0.50400001928E-02 0. -1.
</event>
<event>
 5   0  0.4120440E-07  0.3700641E+04  0.7818609E-02  0.8067820E-01
       -2   -1    0    0    0  501  0.00000000000E+00  0.00000000000E+00  0.18231170365E+04  0.18231170365E+04  0.25500000920E-02 0. -1.
        2   -1    0    0  501    0  0.00000000000E+00  0.00000000000E+00 -0.18779302535E+04  0.18779302535E+04  0.25500000920E-02 0.  1.
    10030    2    1    2    0    0  0.00000000000E+00  0.00000000000E+00 -0.54813217017E+02  0.37010472900E+04  0.37006413706E+04 0.  0.
        2    1    3    3  502    0  0.55161581780E+03 -0.16190495089E+04  0.67842240094E+03  0.18400701826E+04  0.25500000920E-02 0. -1.
       -2    1    3    3    0  502 -0.55161581780E+03  0.16190495089E+04 -0.73323561796E+03  0.18609771074E+04  0.25500000920E-02 0.  1.
</event>
<event>
 5   0  0.1361743E-07  0.3621823E+04  0.7818609E-02  0.8085511E-01
       -1   -1    0    0    0  501  0.00000000000E+00  0.00000000000E+00  0.31866235482E+04  0.31866235482E+04  0.50400001928E-02 0. -1.
        1   -1    0    0  501    0  0.00000000000E+00  0.00000000000E+00 -0.10291144733E+04  0.10291144733E+04  0.50400001928E-02 0.  1.
    10030    2    1    2    0    0  0.00000000000E+00  0.00000000000E+00  0.21575090748E+04  0.42157380215E+04  0.36218229744E+04 0.  0.
        5    1    3    3  502    0  0.54885764920E+03 -0.11777575388E+04 -0.38944242796E+03  0.13564825962E+04  0.46999998093E+01 0.  1.
       -5    1    3    3    0  502 -0.54885764920E+03  0.11777575388E+04  0.25469515028E+04  0.28592554253E+04  0.46999998093E+01 0. -1.
</event>
<event>
 5   0  0.3880259E-07  0.3604257E+04  0.7818609E-02  0.8089517E-01
        2   -1    0    0  501    0  0.00000000000E+00  0.00000000000E+00  0.14266205157E+04  0.14266205157E+04  0.25500000920E-02 0.  1.
       -2   -1    0    0    0  501  0.00000000000E+00  0.00000000000E+00 -0.22764757453E+04  0.22764757453E+04  0.25500000920E-02 0. -1.
    10030    2    1    2    0    0  0.00000000000E+00  0.00000000000E+00 -0.84985522961E+03  0.37030962610E+04  0.36042569285E+04 0.  0.
        5    1    3    3  502    0  0.37872355128E+03 -0.11785687506E+04  0.92063918078E+03  0.15427424994E+04  0.46999998093E+01 0.  1.
       -5    1    3    3    0  502 -0.37872355128E+03  0.11785687506E+04 -0.17704944104E+04  0.21603537616E+04  0.46999998093E+01 0. -1.
</event>
<event>
 5   0  0.1348226E-07  0.3234287E+04  0.7818609E-02  0.8179820E-01
        1   -1    0    0  501    0  0.00000000000E+00  0.00000000000E+00  0.18505862379E+04  0.18505862379E+04  0.50400001928E-02 0. -1.
       -1   -1    0    0    0  501  0.00000000000E+00  0.00000000000E+00 -0.14131488129E+04  0.14131488129E+04  0.50400001928E-02 0.  1.
    10030    2    1    2    0    0  0.00000000000E+00  0.00000000000E+00  0.43743742496E+03  0.32637350509E+04  0.32342873993E+04 0.  0.
        4    1    3    3  502    0 -0.11919743114E+04  0.73751708830E+03  0.10325465391E+04  0.17409446237E+04  0.12699999809E+01 0. -1.
       -4    1    3    3    0  502  0.11919743114E+04 -0.73751708830E+03 -0.59510911411E+03  0.15227904272E+04  0.12699999809E+01 0.  1.
</event>
<event>
 5   0  0.4200635E-07  0.3614806E+04  0.7818609E-02  0.8087109E-01
       -2   -1    0    0    0  501  0.00000000000E+00  0.00000000000E+00  0.14868415419E+04  0.14868415420E+04  0.25500000920E-02 0.  1.
        2   -1    0    0  501    0  0.00000000000E+00  0.00000000000E+00 -0.21970766781E+04  0.21970766781E+04  0.25500000920E-02 0. -1.
    10030    2    1    2    0    0  0.00000000000E+00  0.00000000000E+00 -0.71023513613E+03  0.36839182200E+04  0.36148055969E+04 0.  0.
        4    1    3    3  502    0 -0.36233929997E+03 -0.99061810359E+03  0.11406251014E+04  0.15535897883E+04  0.12699999809E+01 0.  1.
       -4    1    3    3    0  502  0.36233929997E+03  0.99061810359E+03 -0.18508602375E+04  0.21303284318E+04  0.12699999809E+01 0. -1.
</event>
<event>
 5   0  0.1298250E-07  0.3609468E+04  0.7818609E-02  0.8088326E-01
       -1   -1    0    0    0  501  0.00000000000E+00  0.00000000000E+00  0.14453309278E+04  0.14453309278E+04  0.50400001928E-02 0. -1.
        1   -1    0    0  501    0  0.00000000000E+00  0.00000000000E+00 -0.22535074491E+04  0.22535074491E+04  0.50400001928E-02 0.  1.
    10030    2    1    2    0    0  0.00000000000E+00  0.00000000000E+00 -0.80817652130E+03  0.36988383769E+04  0.36094675576E+04 0.  0.
        1    1    3    3  502    0 -0.44543556385E+03  0.52500724420E+03  0.13054556641E+04  0.14758929293E+04  0.50400001928E-02 0. -1.
       -1    1    3    3    0  502  0.44543556385E+03 -0.52500724420E+03 -0.21136321854E+04  0.22229454476E+04  0.50400001928E-02 0.  1.
</event>
<event>
 5   0  0.3993751E-07  0.3586094E+04  0.7818609E-02  0.8093685E-01
       -2   -1    0    0    0  501  0.00000000000E+00  0.00000000000E+00  0.11633048038E+04  0.11633048038E+04  0.25500000920E-02 0. -1.
        2   -1    0    0  501    0  0.00000000000E+00  0.00000000000E+00 -0.27636927803E+04  0.27636927803E+04  0.25500000920E-02 0.  1.
    10030    2    1    2    0    0  0.00000000000E+00  0.00000000000E+00 -0.16003879765E+04  0.39269975841E+04  0.35860937453E+04 0.  0.
        1    1    3    3  502    0  0.68395947826E+03  0.15993481818E+04 -0.12766430732E+04  0.21576683505E+04  0.50400001928E-02 0.  1.
       -1    1    3    3    0  502 -0.68395947826E+03 -0.15993481818E+04 -0.32374490330E+03  0.17693292336E+04  0.50400001928E-02 0. -1.
</event>
<event>
 5   0  0.1348226E-07  0.3601361E+04  0.7818609E-02  0.8090180E-01
        1   -1    0    0  501    0  0.00000000000E+00  0.00000000000E+00  0.28737090672E+04  0.28737090672E+04  0.50400001928E-02 0.  1.
       -1   -1    0    0    0  501  0.00000000000E+00  0.00000000000E+00 -0.11283157123E+04  0.11283157123E+04  0.50400001928E-02 0. -1.
    10030    2    1    2    0    0  0.00000000000E+00  0.00000000000E+00  0.17453933549E+04  0.40020247794E+04  0.36013614609E+04 0.  0.
        4    1    3    3  502    0 -0.85551268362E+02  0.15354340540E+04 -0.16831264658E+03  0.15469995196E+04  0.12699999809E+01 0. -1.
       -4    1    3    3    0  502  0.85551268362E+02 -0.15354340540E+04  0.19137060015E+04  0.24550252599E+04  0.12699999809E+01 0.  1.
</event>
<event>
 5   0  0.4115358E-07  0.3604351E+04  0.7818609E-02  0.8089496E-01
        2   -1    0    0  501    0  0.00000000000E+00  0.00000000000E+00  0.17658107148E+04  0.17658107148E+04  0.25500000920E-02 0. -1.
       -2   -1    0    0    0  501  0.00000000000E+00  0.00000000000E+00 -0.18392893129E+04  0.18392893129E+04  0.25500000920E-02 0.  1.
    10030    2    1    2    0    0  0.00000000000E+00  0.00000000000E+00 -0.73478598142E+02  0.36051000277E+04  0.36043511352E+04 0.  0.
        3    1    3    3  502    0  0.15793207654E+04 -0.10165985274E+02 -0.90495153070E+03  0.18202457830E+04  0.10100000352E+00 0.  1.
       -3    1    3    3    0  502 -0.15793207654E+04  0.10165985274E+02  0.83147293256E+03  0.17848542448E+04  0.10100000352E+00 0. -1.
</event>
<event>
 5   0  0.1370997E-07  0.3584368E+04  0.7818609E-02  0.8094082E-01
       -1   -1    0    0    0  501  0.00000000000E+00  0.00000000000E+00  0.18411225368E+04  0.18411225368E+04  0.50400001928E-02 0. -1.
        1   -1    0    0  501    0  0.00000000000E+00  0.00000000000E+00 -0.17445463848E+04  0.17445463848E+04  0.50400001928E-02 0.  1.
    10030    2    1    2    0    0  0.00000000000E+00  0.00000000000E+00  0.96576152039E+02  0.35856689216E+04  0.35843680981E+04 0.  0.
        3    1    3    3  502    0 -0.15607475111E+04  0.51634578822E+03 -0.66567808475E+03  0.17736045470E+04  0.10100000352E+00 0.  1.
       -3    1    3    3    0  502  0.15607475111E+04 -0.51634578822E+03  0.76225423679E+03  0.18120643747E+04  0.10100000352E+00 0. -1.
</event>
<event>
 5   0  0.3993751E-07  0.3604337E+04  0.7818609E-02  0.8089499E-01
       -2   -1    0    0    0  501  0.00000000000E+00  0.00000000000E+00  0.15896332650E+04  0.15896332650E+04  0.25500000920E-02 0.  1.
        2   -1    0    0  501    0  0.00000000000E+00  0.00000000000E+00 -0.20431198157E+04  0.20431198157E+04  0.25500000920E-02 0. -1.
    10030    2    1    2    0    0  0.00000000000E+00  0.00000000000E+00 -0.45348655074E+03  0.36327530807E+04  0.36043369562E+04 0.  0.
        1    1    3    3  502    0 -0.34320246472E+01 -0.10130075108E+04  0.12755160781E+04  0.16288453767E+04  0.50400001928E-02 0.  1.
       -1    1    3    3    0  502  0.34320246472E+01  0.10130075108E+04 -0.17290026288E+04  0.20039077040E+04  0.50400001928E-02 0. -1.
</event>
<event>
 5   0  0.1348226E-07  0.3534267E+04  0.7818609E-02  0.8105717E-01
        1   -1    0    0  501    0  0.00000000000E+00  0.00000000000E+00  0.14604018205E+04  0.14604018205E+04  0.50400001928E-02 0. -1.
       -1   -1    0    0    0  501  0.00000000000E+00  0.00000000000E+00 -0.21382882243E+04  0.21382882244E+04  0.50400001928E-02 0.  1.
    10030    2    1    2    0    0  0.00000000000E+00  0.00000000000E+00 -0.67788640383E+03  0.35986900449E+04  0.35342665523E+04 0.  0.
        4    1    3    3  502    0 -0.17402420441E+04 -0.13269890064E+03 -0.56934354917E+02  0.17462229250E+04  0.12699999809E+01 0. -1.
       -4    1    3    3    0  502  0.17402420441E+04  0.13269890064E+03 -0.62095204891E+03  0.18524671199E+04  0.12699999809E+01 0.  1.
</event>
<event>
 5   0  0.4115358E-07  0.3581870E+04  0.7818609E-02  0.8094657E-01
       -2   -1    0    0    0  501  0.00000000000E+00  0.00000000000E+00  0.14995175476E+04  0.14995175476E+04  0.25500000920E-02 0.  1.
        2   -1    0    0  501    0  0.00000000000E+00  0.00000000000E+00 -0.21389872275E+04  0.21389872275E+04  0.25500000920E-02 0. -1.
    10030    2    1    2    0    0  0.00000000000E+00  0.00000000000E+00 -0.63946967987E+03  0.36385047751E+04  0.35818703951E+04 0.  0.
        3    1    3    3  502    0  0.92341914783E+03 -0.16345780712E+03 -0.18696471738E+04  0.20916505305E+04  0.10100000352E+00 0. -1.
       -3    1    3    3    0  502 -0.92341914783E+03  0.16345780712E+03  0.12301774939E+04  0.15468542446E+04  0.10100000352E+00 0.  1.
</event>
<event>
 5   0  0.1348226E-07  0.3604174E+04  0.7818609E-02  0.8089536E-01
       -1   -1    0    0    0  501  0.00000000000E+00  0.00000000000E+00  0.11516007311E+04  0.11516007311E+04  0.50400001928E-02 0. -1.
        1   -1    0    0  501    0  0.00000000000E+00  0.00000000000E+00 -0.28200023679E+04  0.28200023679E+04  0.50400001928E-02 0.  1.
    10030    2    1    2    0    0  0.00000000000E+00  0.00000000000E+00 -0.16684016368E+04  0.39716030990E+04  0.36041735744E+04 0.  0.
        4    1    3    3  502    0 -0.16269215384E+04  0.70180611224E+03 -0.47188073931E+03  0.18335971630E+04  0.12699999809E+01 0. -1.
       -4    1    3    3    0  502  0.16269215384E+04 -0.70180611224E+03 -0.11965208975E+04  0.21380059360E+04  0.12699999809E+01 0.  1.
</event>
<event>
 5   0  0.1348226E-07  0.3597990E+04  0.7818609E-02  0.8090952E-01
        1   -1    0    0  501    0  0.00000000000E+00  0.00000000000E+00  0.28013320550E+04  0.28013320550E+04  0.50400001928E-02 0.  1.
       -1   -1    0    0    0  501  0.00000000000E+00  0.00000000000E+00 -0.11553014324E+04  0.11553014324E+04  0.50400001928E-02 0. -1.
    10030    2    1    2    0    0  0.00000000000E+00  0.00000000000E+00  0.16460306226E+04  0.39566334874E+04  0.35979899587E+04 0.  0.
        4    1    3    3  502    0  0.93958123201E+03  0.33380428205E+03  0.24696510687E+04  0.26633468051E+04  0.12699999809E+01 0.  1.
       -4    1    3    3    0  502 -0.93958123201E+03 -0.33380428205E+03 -0.82362044616E+03  0.12932866823E+04  0.12699999809E+01 0. -1.
</event>
<event>
 5   0  0.1361743E-07  0.3602489E+04  0.7818609E-02  0.8089922E-01
       -1   -1    0    0    0  501  0.00000000000E+00  0.00000000000E+00  0.14456347266E+04  0.14456347266E+04  0.50400001928E-02 0. -1.
        1   -1    0    0  501    0  0.00000000000E+00  0.00000000000E+00 -0.22443296779E+04  0.22443296779E+04  0.50400001928E-02 0.  1.
    10030    2    1    2    0    0  0.00000000000E+00  0.00000000000E+00 -0.79869495135E+03  0.36899644045E+04  0.36024885400E+04 0.  0.
        5    1    3    3  502    0 -0.30785906047E+03  0.17746769689E+04 -0.41395149654E+03  0.18481432511E+04  0.46999998093E+01 0.  1.
       -5    1    3    3    0  502  0.30785906047E+03 -0.17746769689E+04 -0.38474345482E+03  0.18418211534E+04  0.46999998093E+01 0. -1.
</event>
<event>
 5   0  0.4120440E-07  0.3695654E+04  0.7818609E-02  0.8068926E-01
       -2   -1    0    0    0  501  0.00000000000E+00  0.00000000000E+00  0.16410738458E+04  0.16410738458E+04  0.25500000920E-02 0. -1.
        2   -1    0    0  501    0  0.00000000000E+00  0.00000000000E+00 -0.20806281576E+04  0.20806281576E+04  0.25500000920E-02 0.  1.
    10030    2    1    2    0    0  0.00000000000E+00  0.00000000000E+00 -0.43955431188E+03  0.37217020034E+04  0.36956539082E+04 0.  0.
        2    1    3    3  502    0 -0.17532659902E+04  0.50114797894E+03 -0.52083832356E+03  0.18964080491E+04  0.25500000920E-02 0. -1.
       -2    1    3    3    0  502  0.17532659902E+04 -0.50114797894E+03  0.81284011683E+02  0.18252939544E+04  0.25500000920E-02 0.  1.
</event>
<event>
 5   0  0.4200635E-07  0.3526661E+04  0.7818609E-02  0.8107500E-01
        2   -1    0    0  501    0  0.00000000000E+00  0.00000000000E+00  0.23919805987E+04  0.23919805987E+04  0.25500000920E-02 0.  1.
       -2   -1    0    0    0  501  0.00000000000E+00  0.00000000000E+00 -0.12998998721E+04  0.12998998721E+04  0.25500000920E-02 0. -1.
    10030    2    1    2    0    0  0.00000000000E+00  0.00000000000E+00  0.10920807266E+04  0.36918804709E+04  0.35266614663E+04 0.  0.
        4    1    3    3  502    0  0.92841957118E+03 -0.13750720697E+04  0.11711304281E+04  0.20308456834E+04  0.12699999809E+01 0.  1.
       -4    1    3    3    0  502 -0.92841957118E+03  0.13750720697E+04 -0.79049701489E+02  0.16610347875E+04  0.12699999809E+01 0. -1.
</event>
<event>
 5   0  0.3880259E-07  0.3582980E+04  0.7818609E-02  0.8094402E-01
        2   -1    0    0  501    0  0.00000000000E+00  0.00000000000E+00  0.21100261111E+04  0.21100261111E+04  0.25500000920E-02 0. -1.
       -2   -1    0    0    0  501  0.00000000000E+00  0.00000000000E+00 -0.15210408765E+04  0.15210408765E+04  0.25500000920E-02 0.  1.
    10030    2    1    2    0    0  0.00000000000E+00  0.00000000000E+00  0.58898523459E+03  0.36310669875E+04  0.35829797462E+04 0.  0.
        5    1    3    3  502    0 -0.38116735409E+02  0.65988518465E+03 -0.13929408831E+04  0.15418196186E+04  0.46999998093E+01 0.  1.
       -5    1    3    3    0  502  0.38116735409E+02 -0.65988518465E+03  0.19819261177E+04  0.20892473689E+04  0.46999998093E+01 0. -1.
</event>
<event>
 5   0  0.3880259E-07  0.3605282E+04  0.7818609E-02  0.8089283E-01
        2   -1    0    0  501    0  0.00000000000E+00  0.00000000000E+00  0.23486282785E+04  0.23486282785E+04  0.25500000920E-02 0.  1.
       -2   -1    0    0    0  501  0.00000000000E+00  0.00000000000E+00 -0.13835801318E+04  0.13835801318E+04  0.25500000920E-02 0. -1.
    10030    2    1    2    0    0  0.00000000000E+00  0.00000000000E+00  0.96504814662E+03  0.37322084103E+04  0.36052824706E+04 0.  0.
        5    1    3    3  502    0  0.13316016551E+04  0.81008166193E+03  0.14199986181E+04  0.21085097657E+04  0.46999998093E+01 0.  1.
       -5    1    3    3    0  502 -0.13316016551E+04 -0.81008166193E+03 -0.45495047144E+03  0.16236986446E+04  0.46999998093E+01 0. -1.
</event>
<event>
 5   0  0.1348226E-07  0.3415678E+04  0.7818609E-02  0.8134069E-01
        1   -1    0    0  501    0  0.00000000000E+00  0.00000000000E+00  0.23717994201E+04  0.23717994201E+04  0.50400001928E-02 0.  1.
       -1   -1    0    0    0  501  0.00000000000E+00  0.00000000000E+00 -0.12297473026E+04  0.12297473026E+04  0.50400001928E-02 0. -1.
    10030    2    1    2    0    0  0.00000000000E+00  0.00000000000E+00  0.11420521175E+04  0.36015467228E+04  0.34156779352E+04 0.  0.
        4    1    3    3  502    0 -0.80553974543E+02 -0.15705849686E+04  0.12732121352E+04  0.20234368883E+04  0.12699999809E+01 0.  1.
       -4    1    3    3    0  502  0.80553974543E+02  0.15705849686E+04 -0.13116001777E+03  0.15781098345E+04  0.12699999809E+01 0. -1.
</event>
<event>
 5   0  0.1298250E-07  0.3609771E+04  0.7818609E-02  0.8088257E-01
        1   -1    0    0  501    0  0.00000000000E+00  0.00000000000E+00  0.22699018617E+04  0.22699018617E+04  0.50400001928E-02 0.  1.
       -1   -1    0    0    0  501  0.00000000000E+00  0.00000000000E+00 -0.14351336520E+04  0.14351336520E+04  0.50400001928E-02 0. -1.
    10030    2    1    2    0    0  0.00000000000E+00  0.00000000000E+00  0.83476820969E+03  0.37050355137E+04  0.36097714878E+04 0.  0.
        1    1    3    3  502    0 -0.98994907511E+03  0.13555220215E+04 -0.26358055696E+03  0.16990920611E+04  0.50400001928E-02 0. -1.
       -1    1    3    3    0  502  0.98994907511E+03 -0.13555220215E+04  0.10983487666E+04  0.20059434526E+04  0.50400001928E-02 0.  1.
</event>
<event>
 5   0  0.4115358E-07  0.3584669E+04  0.7818609E-02  0.8094013E-01
        2   -1    0    0  501    0  0.00000000000E+00  0.00000000000E+00  0.15291252147E+04  0.15291252147E+04  0.25500000920E-02 0. -1.
       -2   -1    0    0    0  501  0.00000000000E+00  0.00000000000E+00 -0.21008497624E+04  0.21008497624E+04  0.25500000920E-02 0.  1.
    10030    2    1    2    0    0  0.00000000000E+00  0.00000000000E+00 -0.57172454772E+03  0.36299749770E+04  0.35846686563E+04 0.  0.
        3    1    3    3  502    0  0.11114875672E+04 -0.17975968675E+03 -0.16980286044E+04  0.20374050428E+04  0.10100000352E+00 0.  1.
       -3    1    3    3    0  502 -0.11114875672E+04  0.17975968675E+03  0.11263040567E+04  0.15925699342E+04  0.10100000352E+00 0. -1.
</event>
<event>
 5   0  0.3993751E-07  0.3592908E+04  0.7818609E-02  0.8092118E-01
        2   -1    0    0  501    0  0.00000000000E+00  0.00000000000E+00  0.14769351889E+04  0.14769351889E+04  0.25500000920E-02 0. -1.
       -2   -1    0    0    0  501  0.00000000000E+00  0.00000000000E+00 -0.21850976247E+04  0.21850976247E+04  0.25500000920E-02 0.  1.
    10030    2    1    2    0    0  0.00000000000E+00  0.00000000000E+00 -0.70816243574E+03  0.36620328136E+04  0.35929083334E+04 0.  0.
        1    1    3    3  502    0  0.31759284902E+03  0.41938390909E+03 -0.21048301353E+04  0.21695755298E+04  0.50400001928E-02 0.  1.
       -1    1    3    3    0  502 -0.31759284902E+03 -0.41938390909E+03  0.13966676996E+04  0.14924572838E+04  0.50400001928E-02 0. -1.
</event>
<event>
 5   0  0.3880259E-07  0.3606183E+04  0.7818609E-02  0.8089077E-01
       -2   -1    0    0    0  501  0.00000000000E+00  0.00000000000E+00  0.19820006830E+04  0.19820006830E+04  0.25500000920E-02 0. -1.
        2   -1    0    0  501    0  0.00000000000E+00  0.00000000000E+00 -0.16403323006E+04  0.16403323006E+04  0.25500000920E-02 0.  1.
    10030    2    1    2    0    0  0.00000000000E+00  0.00000000000E+00  0.34166838238E+03  0.36223329836E+04  0.36061834341E+04 0.  0.
        5    1    3    3  502    0  0.28376805683E+03  0.70558786757E+03  0.18130069367E+04  0.19660607293E+04  0.46999998093E+01 0. -1.
       -5    1    3    3    0  502 -0.28376805683E+03 -0.70558786757E+03 -0.14713385543E+04  0.16562722543E+04  0.46999998093E+01 0.  1.
</event>
<event>
 5   0  0.1370997E-07  0.3594890E+04  0.7818609E-02  0.8091663E-01
       -1   -1    0    0    0  501  0.00000000000E+00  0.00000000000E+00  0.12031267952E+04  0.12031267953E+04  0.50400001928E-02 0.  1.
        1   -1    0    0  501    0  0.00000000000E+00  0.00000000000E+00 -0.26853429481E+04  0.26853429481E+04  0.50400001928E-02 0. -1.
    10030    2    1    2    0    0  0.00000000000E+00  0.00000000000E+00 -0.14822161528E+04  0.38884697433E+04  0.35948897370E+04 0.  0.
        3    1    3    3  502    0  0.74620229985E+03  0.62717043366E+03  0.89240353110E+03  0.13215690287E+04  0.10100000352E+00 0.  1.
       -3    1    3    3    0  502 -0.74620229985E+03 -0.62717043366E+03 -0.23746196839E+04  0.25669007146E+04  0.10100000352E+00 0. -1.
</event>
<event>
 5   0  0.4120440E-07  0.3613411E+04  0.7818609E-02  0.8087427E-01
       -2   -1    0    0    0  501  0.00000000000E+00  0.00000000000E+00  0.17532736910E+04  0.17532736910E+04  0.25500000920E-02 0. -1.
        2   -1    0    0  501    0  0.00000000000E+00  0.00000000000E+00 -0.18617660203E+04  0.18617660203E+04  0.25500000920E-02 0.  1.
    10030    2    1    2    0    0  0.00000000000E+00  0.00000000000E+00 -0.10849232929E+03  0.36150397113E+04  0.36134113423E+04 0.  0.
        2    1    3    3  502    0  0.56574168634E+03 -0.15507914155E+04  0.68036514002E+03  0.17854731569E+04  0.25500000920E-02 0. -1.
       -2    1    3    3    0  502 -0.56574168634E+03  0.15507914155E+04 -0.78885746931E+03  0.18295665544E+04  0.25500000920E-02 0.  1.
</event>
<event>
 5   0  0.1298250E-07  0.3602125E+04  0.7818609E-02  0.8090005E-01
       -1   -1    0    0    0  501  0.00000000000E+00  0.00000000000E+00  0.27205233028E+04  0.27205233028E+04  0.50400001928E-02 0.  1.
        1   -1    0    0  501    0  0.00000000000E+00  0.00000000000E+00 -0.11923539446E+04  0.11923539446E+04  0.50400001928E-02 0. -1.
    10030    2    1    2    0    0  0.00000000000E+00  0.00000000000E+00  0.15281693582E+04  0.39128772474E+04  0.36021253124E+04 0.  0.
        1    1    3    3  502    0  0.61723126782E+03 -0.16769157380E+04  0.10089314130E+04  0.20520632121E+04  0.50400001928E-02 0. -1.
       -1    1    3    3    0  502 -0.61723126782E+03  0.16769157380E+04  0.51923794519E+03  0.18608140353E+04  0.50400001928E-02 0.  1.
</event>
<event>
 5   0  0.4115358E-07  0.3994474E+04  0.7818609E-02  0.8005662E-01
       -2   -1    0    0    0  501  0.00000000000E+00  0.00000000000E+00  0.30369112263E+04  0.30369112263E+04  0.25500000920E-02 0.  1.
        2   -1    0    0  501    0  0.00000000000E+00  0.00000000000E+00 -0.13134911941E+04  0.13134911941E+04  0.25500000920E-02 0. -1.
    10030    2    1    2    0    0  0.00000000000E+00  0.00000000000E+00  0.17234200322E+04  0.43504024204E+04  0.39944742597E+04 0.  0.
        3    1    3    3  502    0 -0.80708122473E+03  0.69931756738E+03  0.26998571798E+04  0.29033866372E+04  0.10100000352E+00 0.  1.
       -3    1    3    3    0  502  0.80708122473E+03 -0.69931756738E+03 -0.97643714758E+03  0.14470157832E+04  0.10100000352E+00 0. -1.
</event>
<event>
 5   0  0.4120440E-07  0.3556353E+04  0.7818609E-02  0.8100563E-01
       -2   -1    0    0    0  501  0.00000000000E+00  0.00000000000E+00  0.10166981733E+04  0.10166981733E+04  0.25500000920E-02 0.  1.
        2   -1    0    0  501    0  0.00000000000E+00  0.00000000000E+00 -0.31099800656E+04  0.31099800656E+04  0.25500000920E-02 0. -1.
    10030    2    1    2    0    0  0.00000000000E+00  0.00000000000E+00 -0.20932818923E+04  0.41266782389E+04  0.35563526550E+04 0.  0.
        2    1    3    3  502    0  0.56196142959E+03  0.16839672296E+04 -0.11647751565E+04  0.21232633949E+04  0.25500000920E-02 0.  1.
       -2    1    3    3    0  502 -0.56196142959E+03 -0.16839672296E+04 -0.92850673584E+03  0.20034148440E+04  0.25500000920E-02 0. -1.
</event>
<event>
 5   0  0.1298250E-07  0.3599111E+04  0.7818609E-02  0.8090695E-01
        1   -1    0    0  501    0  0.00000000000E+00  0.00000000000E+00  0.21430454964E+04  0.21430454964E+04  0.50400001928E-02 0. -1.
       -1   -1    0    0    0  501  0.00000000000E+00  0.00000000000E+00 -0.15111208145E+04  0.15111208145E+04  0.50400001928E-02 0.  1.
    10030    2    1    2    0    0  0.00000000000E+00  0.00000000000E+00  0.63192468189E+03  0.36541663108E+04  0.35991113658E+04 0.  0.
        1    1    3    3  502    0  0.10533380119E+04  0.30865582903E+03 -0.11318990728E+04  0.15767006371E+04  0.50400001928E-02 0.  1.
       -1    1    3    3    0  502 -0.10533380119E+04 -0.30865582903E+03  0.17638237547E+04  0.20774656737E+04  0.50400001928E-02 0. -1.
</event>
<event>
 5   0  0.3880259E-07  0.3608531E+04  0.7818609E-02  0.8088540E-01
       -2   -1    0    0    0  501  0.00000000000E+00  0.00000000000E+00  0.20207005032E+04  0.20207005032E+04  0.25500000920E-02 0. -1.
        2   -1    0    0  501    0  0.00000000000E+00  0.00000000000E+00 -0.16110129338E+04  0.16110129338E+04  0.25500000920E-02 0.  1.
    10030    2    1    2    0    0  0.00000000000E+00  0.00000000000E+00  0.40968756943E+03  0.36317134371E+04  0.36085313611E+04 0.  0.
        5    1    3    3  502    0 -0.87771310528E+03 -0.81131248263E+03  0.15650976581E+04  0.19693047019E+04  0.46999998093E+01 0. -1.
       -5    1    3    3    0  502  0.87771310528E+03  0.81131248263E+03 -0.11554100887E+04  0.16624087351E+04  0.46999998093E+01 0.  1.
</event>
<event>
 5   0  0.4120440E-07  0.3537671E+04  0.7818609E-02  0.8104920E-01
        2   -1    0    0  501    0  0.00000000000E+00  0.00000000000E+00  0.15145678552E+04  0.15145678552E+04  0.25500000920E-02 0. -1.
       -2   -1    0    0    0  501  0.00000000000E+00  0.00000000000E+00 -0.20657895033E+04  0.20657895033E+04  0.25500000920E-02 0.  1.
    10030    2    1    2    0    0  0.00000000000E+00  0.00000000000E+00 -0.55122164814E+03  0.35803573585E+04  0.35376706332E+04 0.  0.
        2    1    3    3  502    0 -0.15155995466E+03  0.27939904844E+03  0.14854265176E+04  0.15190543727E+04  0.25500000920E-02 0. -1.
       -2    1    3    3    0  502  0.15155995466E+03 -0.27939904844E+03 -0.20366481657E+04  0.20613029858E+04  0.25500000920E-02 0.  1.
</event>
<event>
 5   0  0.3880259E-07  0.3599815E+04  0.7818609E-02  0.8090534E-01
       -2   -1    0    0    0  501  0.00000000000E+00  0.00000000000E+00  0.17361674102E+04  0.17361674102E+04  0.25500000920E-02 0.  1.
        2   -1    0    0  501    0  0.00000000000E+00  0.00000000000E+00 -0.18659877817E+04  0.18659877817E+04  0.25500000920E-02 0. -1.
    10030    2    1    2    0    0  0.00000000000E+00  0.00000000000E+00 -0.12982037156E+03  0.36021551919E+04  0.35998150922E+04 0.  0.
        5    1    3    3  502    0  0.75681927338E+03  0.11134999610E+04 -0.12602525510E+04  0.18441573029E+04  0.46999998093E+01 0. -1.
       -5    1    3    3    0  502 -0.75681927338E+03 -0.11134999610E+04  0.11304321794E+04  0.17579978890E+04  0.46999998093E+01 0.  1.
</event>
<event>
 5   0  0.1298250E-07  0.3585974E+04  0.7818609E-02  0.8093712E-01
        1   -1    0    0  501    0  0.00000000000E+00  0.00000000000E+00  0.16514053892E+04  0.16514053892E+04  0.50400001928E-02 0. -1.
       -1   -1    0    0    0  501  0.00000000000E+00  0.00000000000E+00 -0.19467071070E+04  0.19467071070E+04  0.50400001928E-02 0.  1.
    10030    2    1    2    0    0  0.00000000000E+00  0.00000000000E+00 -0.29530171776E+03  0.35981124962E+04  0.35859741258E+04 0.  0.
        1    1    3    3  502    0  0.93910900925E+03 -0.13100530911E+04  0.64027009256E+03  0.17343905628E+04  0.50400001928E-02 0. -1.
       -1    1    3    3    0  502 -0.93910900925E+03  0.13100530911E+04 -0.93557181033E+03  0.18637219334E+04  0.50400001928E-02 0.  1.
</event>
<event>
 5   0  0.4200635E-07  0.3581871E+04  0.7818609E-02  0.8094657E-01
       -2   -1    0    0    0  501  0.00000000000E+00  0.00000000000E+00  0.14248081649E+04  0.14248081649E+04  0.25500000920E-02 0.  1.
        2   -1    0    0  501    0  0.00000000000E+00  0.00000000000E+00 -0.22511452394E+04  0.22511452394E+04  0.25500000920E-02 0. -1.
    10030    2    1    2    0    0  0.00000000000E+00  0.00000000000E+00 -0.82633707450E+03  0.36759534043E+04  0.35818710851E+04 0.  0.
        4    1    3    3  502    0 -0.17434423001E+04  0.38826131212E+03 -0.27892520569E+03  0.18077994312E+04  0.12699999809E+01 0.  1.
       -4    1    3    3    0  502  0.17434423001E+04 -0.38826131212E+03 -0.54741186882E+03  0.18681539731E+04  0.12699999809E+01 0. -1.
</event>
<event>
 5   0  0.4115358E-07  0.3606698E+04  0.7818609E-02  0.8088959E-01
       -2   -1    0    0    0  501  0.00000000000E+00  0.00000000000E+00  0.18483277952E+04  0.18483277952E+04  0.25500000920E-02 0. -1.
        2   -1    0    0  501    0  0.00000000000E+00  0.00000000000E+00 -0.17594649445E+04  0.17594649445E+04  0.25500000920E-02 0.  1.
    10030    2    1    2    0    0  0.00000000000E+00  0.00000000000E+00  0.88862850663E+02  0.36077927396E+04  0.36066981917E+04 0.  0.
        3    1    3    3  502    0 -0.16991209187E+04  0.56899517251E+03  0.24771846387E+03  0.18089034939E+04  0.10100000352E+00 0.  1.
       -3    1    3    3    0  502  0.16991209187E+04 -0.56899517251E+03 -0.15885561321E+03  0.17988892458E+04  0.10100000352E+00 0. -1.
</event>
<event>
 5   0  0.3880259E-07  0.3731427E+04  0.7818609E-02  0.8061033E-01
       -2   -1    0    0    0  501  0.00000000000E+00  0.00000000000E+00  0.16332645069E+04  0.16332645069E+04  0.25500000920E-02 0.  1.
        2   -1    0    0  501    0  0.00000000000E+00  0.00000000000E+00 -0.21312447354E+04  0.21312447354E+04  0.25500000920E-02 0. -1.
    10030    2    1    2    0    0  0.00000000000E+00  0.00000000000E+00 -0.49798022855E+03  0.37645092423E+04  0.37314267415E+04 0.  0.
        5    1    3    3  502    0  0.91229347334E+03  0.90614016986E+02  0.13903390784E+04  0.16653993889E+04  0.46999998093E+01 0.  1.
       -5    1    3    3    0  502 -0.91229347334E+03 -0.90614016986E+02 -0.18883193070E+04  0.20991098534E+04  0.46999998093E+01 0. -1.
</event>
<event>
 5   0  0.4115358E-07  0.3578228E+04  0.7818609E-02  0.8095497E-01
        2   -1    0    0  501    0  0.00000000000E+00  0.00000000000E+00  0.26527373360E+04  0.26527373360E+04  0.25500000920E-02 0. -1.
       -2   -1    0    0    0  501  0.00000000000E+00  0.00000000000E+00 -0.12066514808E+04  0.12066514808E+04  0.25500000920E-02 0.  1.
    10030    2    1    2    0    0  0.00000000000E+00  0.00000000000E+00  0.14460858552E+04  0.38593888168E+04  0.35782282960E+04 0.  0.
        3    1    3    3  502    0 -0.11359039992E+04  0.11906969739E+03  0.22083762613E+04  0.24862383655E+04  0.10100000352E+00 0. -1.
       -3    1    3    3    0  502  0.11359039992E+04 -0.11906969739E+03 -0.76229040616E+03  0.13731504513E+04  0.10100000352E+00 0.  1.
</event>
<event>
 5   0  0.1370997E-07  0.3631348E+04  0.7818609E-02  0.8083349E-01
        1   -1    0    0  501    0  0.00000000000E+00  0.00000000000E+00  0.20572952402E+04  0.20572952402E+04  0.50400001928E-02 0. -1.
       -1   -1    0    0    0  501  0.00000000000E+00  0.00000000000E+00 -0.16024302376E+04  0.16024302376E+04  0.50400001928E-02 0.  1.
    10030    2    1    2    0    0  0.00000000000E+00  0.00000000000E+00  0.45486500260E+03  0.36597254777E+04  0.36313480144E+04 0.  0.
        3    1    3    3  502    0 -0.96266711253E+03 -0.23917450951E+03 -0.13052211098E+04  0.16393701751E+04  0.10100000352E+00 0.  1.
       -3    1    3    3    0  502  0.96266711253E+03  0.23917450951E+03  0.17600861124E+04  0.20203553026E+04  0.10100000352E+00 0. -1.
</event>
<event>
 5   0  0.1370997E-07  0.3605792E+04  0.7818609E-02  0.8089166E-01
       -1   -1    0    0    0  501  0.00000000000E+00  0.00000000000E+00  0.22014630509E+04  0.22014630509E+04  0.50400001928E-02 0.  1.
        1   -1    0    0  501    0  0.00000000000E+00  0.00000000000E+00 -0.14764878456E+04  0.14764878456E+04  0.50400001928E-02 0. -1.
    10030    2    1    2    0    0  0.00000000000E+00  0.00000000000E+00  0.72497520526E+03  0.36779508965E+04  0.36057916952E+04 0.  0.
        3    1    3    3  502    0 -0.82797064666E+03  0.75111602208E+02 -0.12692945609E+04  0.15173285198E+04  0.10100000352E+00 0. -1.
       -3    1    3    3    0  502  0.82797064666E+03 -0.75111602208E+02  0.19942697661E+04  0.21606223767E+04  0.10100000352E+00 0.  1.
</event>
<event>
 5   0  0.4200635E-07  0.3333518E+04  0.7818609E-02  0.8154419E-01
        2   -1    0    0  501    0  0.00000000000E+00  0.00000000000E+00  0.20815836840E+04  0.20815836840E+04  0.25500000920E-02 0.  1.
       -2   -1    0    0    0  501  0.00000000000E+00  0.00000000000E+00 -0.13346017829E+04  0.13346017829E+04  0.25500000920E-02 0. -1.
    10030    2    1    2    0    0  0.00000000000E+00  0.00000000000E+00  0.74698190102E+03  0.34161854669E+04  0.33335178391E+04 0.  0.
        4    1    3    3  502    0 -0.34718660354E+03 -0.10547920914E+04  0.16472788148E+04  0.19866187355E+04  0.12699999809E+01 0.  1.
       -4    1    3    3    0  502  0.34718660354E+03  0.10547920914E+04 -0.90029691377E+03  0.14295667314E+04  0.12699999809E+01 0. -1.
</event>
<event>
 5   0  0.1361743E-07  0.3609992E+04  0.7818609E-02  0.8088207E-01
       -1   -1    0    0    0  501  0.00000000000E+00  0.00000000000E+00  0.23756571955E+04  0.23756571955E+04  0.50400001928E-02 0. -1.
        1   -1    0    0  501    0  0.00000000000E+00  0.00000000000E+00 -0.13714142773E+04  0.13714142773E+04  0.50400001928E-02 0.  1.
    10030    2    1    2    0    0  0.00000000000E+00  0.00000000000E+00  0.10042429182E+04  0.37470714727E+04  0.36099917982E+04 0.  0.
        5    1    3    3  502    0  0.37944001488E+03 -0.11661931786E+04 -0.87255787711E+03  0.15051114887E+04  0.46999998093E+01 0.  1.
       -5    1    3    3    0  502 -0.37944001488E+03  0.11661931786E+04  0.18768007953E+04  0.22419599840E+04  0.46999998093E+01 0. -1.
</event>
<event>
 5   0  0.1361743E-07  0.3571617E+04  0.7818609E-02  0.8097024E-01
       -1   -1    0    0    0  501  0.00000000000E+00  0.00000000000E+00  0.14046684687E+04  0.14046684687E+04  0.50400001928E-02 0. -1.
        1   -1    0    0  501    0  0.00000000000E+00  0.00000000000E+00 -0.22703665284E+04  0.22703665284E+04  0.50400001928E-02 0.  1.
    10030    2    1    2    0    0  0.00000000000E+00  0.00000000000E+00 -0.86569805972E+03  0.36750349971E+04  0.35716171546E+04 0.  0.
        5    1    3    3  502    0 -0.44691887258E+03  0.16535891560E+04 -0.95244261619E+03  0.19599139274E+04  0.46999998093E+01 0.  1.
       -5    1    3    3    0  502  0.44691887258E+03 -0.16535891560E+04  0.86744556470E+02  0.17151210697E+04  0.46999998093E+01 0. -1.
</event>
<event>
 5   0  0.1370997E-07  0.3604086E+04  0.7818609E-02  0.8089556E-01
       -1   -1    0    0    0  501  0.00000000000E+00  0.00000000000E+00  0.13893132895E+04  0.13893132896E+04  0.50400001928E-02 0. -1.
        1   -1    0    0  501    0  0.00000000000E+00  0.00000000000E+00 -0.23373838414E+04  0.23373838414E+04  0.50400001928E-02 0.  1.
    10030    2    1    2    0    0  0.00000000000E+00  0.00000000000E+00 -0.94807055189E+03  0.37266971310E+04  0.36040857003E+04 0.  0.
        3    1    3    3  502    0  0.69568137953E+03 -0.16434486854E+04 -0.21560830481E+03  0.17976048271E+04  0.10100000352E+00 0.  1.
       -3    1    3    3    0  502 -0.69568137953E+03  0.16434486854E+04 -0.73246224708E+03  0.19290923039E+04  0.10100000352E+00 0. -1.
</event>
<event>
 5   0  0.3993751E-07  0.3320507E+04  0.7818609E-02  0.8157697E-01
        2   -1    0    0  501    0  0.00000000000E+00  0.00000000000E+00  0.31117235553E+04  0.31117235553E+04  0.25500000920E-02 0.  1.
       -2   -1    0    0    0  501  0.00000000000E+00  0.00000000000E+00 -0.88582473058E+03  0.88582473058E+03  0.25500000920E-02 0. -1.
    10030    2    1    2    0    0  0.00000000000E+00  0.00000000000E+00  0.22258988247E+04  0.39975482859E+04  0.33205069975E+04 0.  0.
        1    1    3    3  502    0  0.30075421672E+02 -0.26653068474E+03  0.30854670933E+04  0.30971035373E+04  0.50400001928E-02 0.  1.
       -1    1    3    3    0  502 -0.30075421672E+02  0.26653068474E+03 -0.85956826857E+03  0.90044474859E+03  0.50400001928E-02 0. -1.
</event>
<event>
 5   0  0.1298250E-07  0.3605580E+04  0.7818609E-02  0.8089215E-01
        1   -1    0    0  501    0  0.00000000000E+00  0.00000000000E+00  0.18291829641E+04  0.18291829641E+04  0.50400001928E-02 0.  1.
       -1   -1    0    0    0  501  0.00000000000E+00  0.00000000000E+00 -0.17767779233E+04  0.17767779233E+04  0.50400001928E-02 0. -1.
    10030    2    1    2    0    0  0.00000000000E+00  0.00000000000E+00  0.52405040817E+02  0.36059608874E+04  0.36055800689E+04 0.  0.
        2    1    3    3  502    0  0.31294713392E+03  0.44322135169E+03 -0.16931855153E+04  0.17779927628E+04  0.25500000920E-02 0. -1.
       -2    1    3    3    0  502 -0.31294713392E+03 -0.44322135169E+03  0.17455905561E+04  0.18279681247E+04  0.25500000920E-02 0.  1.
</event>
<event>
 5   0  0.1370997E-07  0.3310562E+04  0.7818609E-02  0.8160213E-01
       -1   -1    0    0    0  501  0.00000000000E+00  0.00000000000E+00  0.29297418641E+04  0.29297418641E+04  0.50400001928E-02 0.  1.
        1   -1    0    0  501    0  0.00000000000E+00  0.00000000000E+00 -0.93522072489E+03  0.93522072490E+03  0.50400001928E-02 0. -1.
    10030    2    1    2    0    0  0.00000000000E+00  0.00000000000E+00  0.19945211392E+04  0.38649625890E+04  0.33105620731E+04 0.  0.
        3    1    3    3  502    0  0.12381247520E+04 -0.99373183197E+03  0.45029464414E+03  0.16502185104E+04  0.10100000352E+00 0. -1.
       -3    1    3    3    0  502 -0.12381247520E+04  0.99373183197E+03  0.15442264951E+04  0.22147440786E+04  0.10100000352E+00 0.  1.
</event>
<event>
 5   0  0.1298250E-07  0.3586256E+04  0.7818609E-02  0.8093647E-01
        1   -1    0    0  501    0  0.00000000000E+00  0.00000000000E+00  0.18439520816E+04  0.18439520816E+04  0.50400001928E-02 0. -1.
       -1   -1    0    0    0  501  0.00000000000E+00  0.00000000000E+00 -0.17437049332E+04  0.17437049332E+04  0.50400001928E-02 0.  1.
    10030    2    1    2    0    0  0.00000000000E+00  0.00000000000E+00  0.10024714831E+03  0.35876570148E+04  0.35862561767E+04 0.  0.
        2    1    3    3  502    0  0.79591267550E+03 -0.12419937890E+04  0.10699739825E+04  0.18223254052E+04  0.25500000920E-02 0. -1.
       -2    1    3    3    0  502 -0.79591267550E+03  0.12419937890E+04 -0.96972683419E+03  0.17653316096E+04  0.25500000920E-02 0.  1.
</event>
<event>
 5   0  0.1370997E-07  0.3629563E+04  0.7818609E-02  0.8083753E-01
        1   -1    0    0  501    0  0.00000000000E+00  0.00000000000E+00  0.30672372150E+04  0.30672372150E+04  0.50400001928E-02 0.  1.
       -1   -1    0    0    0  501  0.00000000000E+00  0.00000000000E+00 -0.10737453827E+04  0.10737453827E+04  0.50400001928E-02 0. -1.
    10030    2    1    2    0    0  0.00000000000E+00  0.00000000000E+00  0.19934918323E+04  0.41409825977E+04  0.36295629474E+04 0.  0.
        3    1    3    3  502    0  0.81763498217E+03  0.16024418003E+04  0.12693362520E+04  0.22017177880E+04  0.10100000352E+00 0.  1.
       -3    1    3    3    0  502 -0.81763498217E+03 -0.16024418003E+04  0.72415558035E+03  0.19392648097E+04  0.10100000352E+00 0. -1.
</event>
<event>
 5   0  0.3880259E-07  0.3606606E+04  0.7818609E-02  0.8088980E-01
       -2   -1    0    0    0  501  0.00000000000E+00  0.00000000000E+00  0.11130216927E+04  0.11130216927E+04  0.25500000920E-02 0. -1.
        2   -1    0    0  501    0  0.00000000000E+00  0.00000000000E+00 -0.29216882115E+04  0.29216882115E+04  0.25500000920E-02 0.  1.
    10030    2    1    2    0    0  0.00000000000E+00  0.00000000000E+00 -0.18086665188E+04  0.40347099042E+04  0.36066063599E+04 0.  0.
        5    1    3    3  502    0  0.16055442075E+04  0.12578992903E+03 -0.18119877000E+04  0.24242353069E+04  0.46999998093E+01 0.  1.
       -5    1    3    3    0  502 -0.16055442075E+04 -0.12578992903E+03  0.33211811232E+01  0.16104745973E+04  0.46999998093E+01 0. -1.
</event>
<event>
 5   0  0.3993751E-07  0.3633808E+04  0.7818609E-02  0.8082791E-01
       -2   -1    0    0    0  501  0.00000000000E+00  0.00000000000E+00  0.22509870355E+04  0.22509870355E+04  0.25500000920E-02 0.  1.
        2   -1    0    0  501    0  0.00000000000E+00  0.00000000000E+00 -0.14665300394E+04  0.14665300395E+04  0.25500000920E-02 0. -1.
    10030    2    1    2    0    0  0.00000000000E+00  0.00000000000E+00  0.78445699601E+03  0.37175170749E+04  0.36338079784E+04 0.  0.
        1    1    3    3  502    0 -0.10080261132E+04 -0.71169370248E+03  0.17565597561E+04  0.21466547808E+04  0.50400001928E-02 0.  1.
       -1    1    3    3    0  502  0.10080261132E+04  0.71169370248E+03 -0.97210276010E+03  0.15708622941E+04  0.50400001928E-02 0. -1.
</event>
<event>
 5   0  0.1298250E-07  0.3627480E+04  0.7818609E-02  0.8084226E-01
       -1   -1    0    0    0  501  0.00000000000E+00  0.00000000000E+00  0.27114901710E+04  0.27114901710E+04  0.50400001928E-02 0.  1.
        1   -1    0    0  501    0  0.00000000000E+00  0.00000000000E+00 -0.12132271211E+04  0.12132271211E+04  0.50400001928E-02 0. -1.
    10030    2    1    2    0    0  0.00000000000E+00  0.00000000000E+00  0.14982630499E+04  0.39247172921E+04  0.36274803454E+04 0.  0.
        1    1    3    3  502    0  0.10291511601E+03 -0.15831873552E+04 -0.20185629505E+03  0.15993185070E+04  0.50400001928E-02 0. -1.
       -1    1    3    3    0  502 -0.10291511601E+03  0.15831873552E+04  0.17001193450E+04  0.23253987852E+04  0.50400001928E-02 0.  1.
</event>
<event>
 5   0  0.4120440E-07  0.3233364E+04  0.7818609E-02  0.8180061E-01
        2   -1    0    0  501    0  0.00000000000E+00  0.00000000000E+00  0.14943153509E+04  0.14943153509E+04  0.25500000920E-02 0.  1.
       -2   -1    0    0    0  501  0.00000000000E+00  0.00000000000E+00 -0.17490694940E+04  0.17490694940E+04  0.25500000920E-02 0. -1.
    10030    2    1    2    0    0  0.00000000000E+00  0.00000000000E+00 -0.25475414318E+03  0.32433848449E+04  0.32333644364E+04 0.  0.
        2    1    3    3  502    0 -0.86170441386E+03  0.59837932041E+03 -0.13612578678E+04  0.17186085333E+04  0.25500000920E-02 0. -1.
       -2    1    3    3    0  502  0.86170441386E+03 -0.59837932041E+03  0.11065037246E+04  0.15247763117E+04  0.25500000920E-02 0.  1.
</event>
<event>
 5   0  0.3880259E-07  0.3596867E+04  0.7818609E-02  0.8091210E-01
       -2   -1    0    0    0  501  0.00000000000E+00  0.00000000000E+00  0.17787508781E+04  0.17787508781E+04  0.25500000920E-02 0. -1.
        2   -1    0    0  501    0  0.00000000000E+00  0.00000000000E+00 -0.18183337808E+04  0.18183337808E+04  0.25500000920E-02 0.  1.
    10030    2    1    2    0    0  0.00000000000E+00  0.00000000000E+00 -0.39582902678E+02  0.35970846590E+04  0.35968668640E+04 0.  0.
        5    1    3    3  502    0  0.18706273129E+03 -0.12827197158E+04  0.12268707247E+04  0.17848238568E+04  0.46999998093E+01 0. -1.
       -5    1    3    3    0  502 -0.18706273129E+03  0.12827197158E+04 -0.12664536274E+04  0.18122608021E+04  0.46999998093E+01 0.  1.
</event>
<event>
 5   0  0.1298250E-07  0.3579705E+04  0.7818609E-02  0.8095156E-01
       -1   -1    0    0    0  501  0.00000000000E+00  0.00000000000E+00  0.95673631094E+03  0.95673631095E+03  0.50400001928E-02 0. -1.
        1   -1    0    0  501    0  0.00000000000E+00  0.00000000000E+00 -0.33484376840E+04  0.33484376840E+04  0.50400001928E-02 0.  1.
    10030    2    1    2    0    0  0.00000000000E+00  0.00000000000E+00 -0.23917013731E+04  0.43051739950E+04  0.35797049695E+04 0.  0.
        2    1    3    3  502    0 -0.15003121275E+04 -0.48184197612E+03 -0.22166715558E+04  0.27196950116E+04  0.25500000920E-02 0. -1.
       -2    1    3    3    0  502  0.15003121275E+04  0.48184197612E+03 -0.17502981727E+03  0.15854789834E+04  0.25500000920E-02 0.  1.
</event>
<event>
 5   0  0.4120440E-07  0.3599039E+04  0.7818609E-02  0.8090712E-01
        2   -1    0    0  501    0  0.00000000000E+00  0.00000000000E+00  0.15304421513E+04  0.15304421513E+04  0.25500000920E-02 0.  1.
       -2   -1    0    0    0  501  0.00000000000E+00  0.00000000000E+00 -0.21159057361E+04  0.21159057361E+04  0.25500000920E-02 0. -1.
    10030    2    1    2    0    0  0.00000000000E+00  0.00000000000E+00 -0.58546358475E+03  0.36463478874E+04  0.35990394978E+04 0.  0.
        2    1    3    3  502    0 -0.84927460056E+03  0.46654629417E+03  0.12435573000E+04  0.15765048526E+04  0.25500000920E-02 0.  1.
       -2    1    3    3    0  502  0.84927460056E+03 -0.46654629417E+03 -0.18290208848E+04  0.20698430348E+04  0.25500000920E-02 0. -1.
</event>
<event>
 5   0  0.4115358E-07  0.3568795E+04  0.7818609E-02  0.8097677E-01
       -2   -1    0    0    0  501  0.00000000000E+00  0.00000000000E+00  0.16856807136E+04  0.16856807136E+04  0.25500000920E-02 0.  1.
        2   -1    0    0  501    0  0.00000000000E+00  0.00000000000E+00 -0.18888951039E+04  0.18888951039E+04  0.25500000920E-02 0. -1.
    10030    2    1    2    0    0  0.00000000000E+00  0.00000000000E+00 -0.20321439040E+03  0.35745758175E+04  0.35687947807E+04 0.  0.
        3    1    3    3  502    0 -0.14683705306E+04 -0.63331346663E+03  0.69143041645E+03  0.17422037748E+04  0.10100000352E+00 0.  1.
       -3    1    3    3    0  502  0.14683705306E+04  0.63331346663E+03 -0.89464480685E+03  0.18323720427E+04  0.10100000352E+00 0. -1.
</event>
<event>
 5   0  0.1361743E-07  0.3227565E+04  0.7818609E-02  0.8181575E-01
       -1   -1    0    0    0  501  0.00000000000E+00  0.00000000000E+00  0.12587042087E+04  0.12587042087E+04  0.50400001928E-02 0. -1.
        1   -1    0    0  501    0  0.00000000000E+00  0.00000000000E+00 -0.20690284061E+04  0.20690284061E+04  0.50400001928E-02 0.  1.
    10030    2    1    2    0    0  0.00000000000E+00  0.00000000000E+00 -0.81032419742E+03  0.33277326147E+04  0.32275654990E+04 0.  0.
        5    1    3    3  502    0 -0.52518268436E+03  0.99647693450E+03  0.78633668712E+03  0.13737287245E+04  0.46999998093E+01 0. -1.
       -5    1    3    3    0  502  0.52518268436E+03 -0.99647693450E+03 -0.15966608845E+04  0.19540038903E+04  0.46999998093E+01 0.  1.
</event>
<event>
 5   0  0.3993751E-07  0.3481554E+04  0.7818609E-02  0.8118175E-01
       -2   -1    0    0    0  501  0.00000000000E+00  0.00000000000E+00  0.13353400199E+04  0.13353400199E+04  0.25500000920E-02 0. -1.
        2   -1    0    0  501    0  0.00000000000E+00  0.00000000000E+00 -0.22693129178E+04  0.22693129178E+04  0.25500000920E-02 0.  1.
    10030    2    1    2    0    0  0.00000000000E+00  0.00000000000E+00 -0.93397289799E+03  0.36046529377E+04  0.34815538811E+04 0.  0.
        1    1    3    3  502    0 -0.11553901982E+03 -0.41265669762E+03  0.12798766183E+04  0.13497106999E+04  0.50400001928E-02 0. -1.
       -1    1    3    3    0  502  0.11553901982E+03  0.41265669762E+03 -0.22138495163E+04  0.22549422378E+04  0.50400001928E-02 0.  1.
</event>
<event>
 5   0  0.1348226E-07  0.3598996E+04  0.7818609E-02  0.8090722E-01
        1   -1    0    0  501    0  0.00000000000E+00  0.00000000000E+00  0.11255648414E+04  0.11255648414E+04  0.50400001928E-02 0.  1.
       -1   -1    0    0    0  501  0.00000000000E+00  0.00000000000E+00 -0.28769499938E+04  0.28769499938E+04  0.50400001928E-02 0. -1.
    10030    2    1    2    0    0  0.00000000000E+00  0.00000000000E+00 -0.17513851525E+04  0.40025148352E+04  0.35989963954E+04 0.  0.
        4    1    3    3  502    0  0.10766102696E+04  0.43933652221E+03 -0.24030204321E+04  0.26695720747E+04  0.12699999809E+01 0. -1.
       -4    1    3    3    0  502 -0.10766102696E+04 -0.43933652221E+03  0.65163527958E+03  0.13329427605E+04  0.12699999809E+01 0.  1.
</event>
<event>
 5   0  0.1298250E-07  0.3603135E+04  0.7818609E-02  0.8089774E-01
        1   -1    0    0  501    0  0.00000000000E+00  0.00000000000E+00  0.18418411906E+04  0.18418411906E+04  0.50400001928E-02 0.  1.
       -1   -1    0    0    0  501  0.00000000000E+00  0.00000000000E+00 -0.17621747660E+04  0.17621747660E+04  0.50400001928E-02 0. -1.
    10030    2    1    2    0    0  0.00000000000E+00  0.00000000000E+00  0.79666424642E+02  0.36040159566E+04  0.36031353397E+04 0.  0.
        2    1    3    3  502    0  0.10196358942E+04  0.37945028389E+03 -0.13964864730E+04  0.17702582704E+04  0.25500000920E-02 0. -1.
       -2    1    3    3    0  502 -0.10196358942E+04 -0.37945028389E+03  0.14761528976E+04  0.18337576862E+04  0.25500000920E-02 0.  1.
</event>
<event>
 5   0  0.4200635E-07  0.3685723E+04  0.7818609E-02  0.8071133E-01
        2   -1    0    0  501    0  0.00000000000E+00  0.00000000000E+00  0.13444600151E+04  0.13444600151E+04  0.25500000920E-02 0.  1.
       -2   -1    0    0    0  501  0.00000000000E+00  0.00000000000E+00 -0.25260247611E+04  0.25260247611E+04  0.25500000920E-02 0. -1.
    10030    2    1    2    0    0  0.00000000000E+00  0.00000000000E+00 -0.11815647460E+04  0.38704847762E+04  0.36857234234E+04 0.  0.
        4    1    3    3  502    0  0.14415762243E+04 -0.89843429062E+03 -0.13413208297E+04  0.21643635014E+04  0.12699999809E+01 0. -1.
       -4    1    3    3    0  502 -0.14415762243E+04  0.89843429062E+03  0.15975608375E+03  0.17061212748E+04  0.12699999809E+01 0.  1.
</event>
<event>
 5   0  0.4120440E-07  0.3580134E+04  0.7818609E-02  0.8095057E-01
        2   -1    0    0  501    0  0.00000000000E+00  0.00000000000E+00  0.22476946215E+04  0.22476946216E+04  0.25500000920E-02 0.  1.
       -2   -1    0    0    0  501  0.00000000000E+00  0.00000000000E+00 -0.14256119305E+04  0.14256119305E+04  0.25500000920E-02 0. -1.
    10030    2    1    2    0    0  0.00000000000E+00  0.00000000000E+00  0.82208269101E+03  0.36733065521E+04  0.35801342258E+04 0.  0.
        2    1    3    3  502    0 -0.92374905849E+03 -0.13156604303E+04  0.12189768163E+04  0.20174685052E+04  0.25500000920E-02 0.  1.
       -2    1    3    3    0  502  0.92374905849E+03  0.13156604303E+04 -0.39689412529E+03  0.16558380469E+04  0.25500000920E-02 0. -1.
</event>
<event>
 5   0  0.4115358E-07  0.3596763E+04  0.7818609E-02  0.8091234E-01
        2   -1    0    0  501    0  0.00000000000E+00  0.00000000000E+00  0.17302809677E+04  0.17302809677E+04  0.25500000920E-02 0. -1.
       -2   -1    0    0    0  501  0.00000000000E+00  0.00000000000E+00 -0.18691625409E+04  0.18691625409E+04  0.25500000920E-02 0.  1.
    10030    2    1    2    0    0  0.00000000000E+00  0.00000000000E+00 -0.13888157311E+03  0.35994435086E+04  0.35967631949E+04 0.  0.
        3    1    3    3  502    0  0.55406428574E+03 -0.89907694847E+03 -0.15261524550E+04  0.18559277783E+04  0.10100000352E+00 0.  1.
       -3    1    3    3    0  502 -0.55406428574E+03  0.89907694847E+03  0.13872708819E+04  0.17435157303E+04  0.10100000352E+00 0. -1.
</event>
<event>
 5   0  0.1298250E-07  0.3604861E+04  0.7818609E-02  0.8089379E-01
       -1   -1    0    0    0  501  0.00000000000E+00  0.00000000000E+00  0.17180107036E+04  0.17180107036E+04  0.50400001928E-02 0. -1.
        1   -1    0    0  501    0  0.00000000000E+00  0.00000000000E+00 -0.18909981624E+04  0.18909981625E+04  0.50400001928E-02 0.  1.
    10030    2    1    2    0    0  0.00000000000E+00  0.00000000000E+00 -0.17298745887E+03  0.36090088660E+04  0.36048606539E+04 0.  0.
        2    1    3    3  502    0  0.38541390781E+03  0.77485357828E+02  0.16745663201E+04  0.17200930851E+04  0.25500000920E-02 0. -1.
       -2    1    3    3    0  502 -0.38541390781E+03 -0.77485357828E+02 -0.18475537790E+04  0.18889157809E+04  0.25500000920E-02 0.  1.
</event>
<event>
 5   0  0.4200635E-07  0.3592364E+04  0.7818609E-02  0.8092243E-01
        2   -1    0    0  501    0  0.00000000000E+00  0.00000000000E+00  0.14065080198E+04  0.14065080198E+04  0.25500000920E-02 0. -1.
       -2   -1    0    0    0  501  0.00000000000E+00  0.00000000000E+00 -0.22938152738E+04  0.22938152738E+04  0.25500000920E-02 0.  1.
    10030    2    1    2    0    0  0.00000000000E+00  0.00000000000E+00 -0.88730725405E+03  0.37003232936E+04  0.35923638895E+04 0.  0.
        4    1    3    3  502    0 -0.13518176675E+04  0.34518010094E+03  0.72158462152E+03  0.15707470475E+04  0.12699999809E+01 0. -1.
       -4    1    3    3    0  502  0.13518176675E+04 -0.34518010094E+03 -0.16088918756E+04  0.21295762462E+04  0.12699999809E+01 0.  1.
</event>
<event>
 5   0  0.4115358E-07  0.3629372E+04  0.7818609E-02  0.8083797E-01
        2   -1    0    0  501    0  0.00000000000E+00  0.00000000000E+00  0.17347877372E+04  0.17347877372E+04  0.25500000920E-02 0. -1.
       -2   -1    0    0    0  501  0.00000000000E+00  0.00000000000E+00 -0.18982636561E+04  0.18982636561E+04  0.25500000920E-02 0.  1.
    10030    2    1    2    0    0  0.00000000000E+00  0.00000000000E+00 -0.16347591890E+03  0.36330513934E+04  0.36293715779E+04 0.  0.
        3    1    3    3  502    0  0.95092705302E+02  0.10926421645E+04 -0.15289475436E+04  0.18816455893E+04  0.10100000352E+00 0.  1.
       -3    1    3    3    0  502 -0.95092705302E+02 -0.10926421645E+04  0.13654716247E+04  0.17514058041E+04  0.10100000352E+00 0. -1.
</event>
<event>
 5   0  0.1370997E-07  0.3873473E+04  0.7818609E-02  0.8030569E-01
       -1   -1    0    0    0  501  0.00000000000E+00  0.00000000000E+00  0.23745467151E+04  0.23745467151E+04  0.50400001928E-02 0. -1.
        1   -1    0    0  501    0  0.00000000000E+00  0.00000000000E+00 -0.15796483392E+04  0.15796483392E+04  0.50400001928E-02 0.  1.
    10030    2    1    2    0    0  0.00000000000E+00  0.00000000000E+00  0.79489837592E+03  0.39541950544E+04  0.38734732605E+04 0.  0.
        3    1    3    3  502    0 -0.13434348045E+04 -0.11648674814E+04 -0.38615109892E+03  0.18195730281E+04  0.10100000352E+00 0.  1.
       -3    1    3    3    0  502  0.13434348045E+04  0.11648674814E+04  0.11810494748E+04  0.21346220263E+04  0.10100000352E+00 0. -1.
</event>
<event>
 5   0  0.4115358E-07  0.3619957E+04  0.7818609E-02  0.8085935E-01
        2   -1    0    0  501    0  0.00000000000E+00  0.00000000000E+00  0.28365978539E+04  0.28365978539E+04  0.25500000920E-02 0. -1.
       -2   -1    0    0    0  501  0.00000000000E+00  0.00000000000E+00 -0.11549126549E+04  0.11549126549E+04  0.25500000920E-02 0.  1.
    10030    2    1    2    0    0  0.00000000000E+00  0.00000000000E+00  0.16816851991E+04  0.39915105088E+04  0.36199573248E+04 0.  0.
        3    1    3    3  502    0 -0.66552186597E+03 -0.65631142048E+03 -0.86819947268E+03  0.12757093593E+04  0.10100000352E+00 0.  1.
       -3    1    3    3    0  502  0.66552186597E+03  0.65631142048E+03  0.25498846717E+04  0.27158011496E+04  0.10100000352E+00 0. -1.
</event>
<event>
 5   0  0.1298250E-07  0.3550259E+04  0.7818609E-02  0.8101981E-01
        1   -1    0    0  501    0  0.00000000000E+00  0.00000000000E+00  0.21471123474E+04  0.21471123474E+04  0.50400001928E-02 0.  1.
       -1   -1    0    0    0  501  0.00000000000E+00  0.00000000000E+00 -0.14675917873E+04  0.14675917873E+04  0.50400001928E-02 0. -1.
    10030    2    1    2    0    0  0.00000000000E+00  0.00000000000E+00  0.67952056012E+03  0.36147041347E+04  0.35502588342E+04 0.  0.
        2    1    3    3  502    0 -0.94024250450E+03 -0.72774384687E+03  0.16817982985E+04  0.20596389467E+04  0.25500000920E-02 0.  1.
       -2    1    3    3    0  502  0.94024250450E+03  0.72774384687E+03 -0.10022777384E+04  0.15550651880E+04  0.25500000920E-02 0. -1.
</event>
<event>
 5   0  0.1298250E-07  0.3578649E+04  0.7818609E-02  0.8095400E-01
       -1   -1    0    0    0  501  0.00000000000E+00  0.00000000000E+00  0.16924571187E+04  0.16924571187E+04  0.50400001928E-02 0.  1.
        1   -1    0    0  501    0  0.00000000000E+00  0.00000000000E+00 -0.18917362412E+04  0.18917362412E+04  0.50400001928E-02 0. -1.
    10030    2    1    2    0    0  0.00000000000E+00  0.00000000000E+00 -0.19927912243E+03  0.35841933599E+04  0.35786491687E+04 0.  0.
        1    1    3    3  502    0 -0.12155436239E+04 -0.13130047871E+04 -0.87186643678E+02  0.17914043048E+04  0.50400001928E-02 0. -1.
       -1    1    3    3    0  502  0.12155436239E+04  0.13130047871E+04 -0.11209247875E+03  0.17927890551E+04  0.50400001928E-02 0.  1.
</event>
<event>
 5   0  0.4200635E-07  0.3615236E+04  0.7818609E-02  0.8087011E-01
        2   -1    0    0  501    0  0.00000000000E+00  0.00000000000E+00  0.15979236233E+04  0.15979236233E+04  0.25500000920E-02 0.  1.
       -2   -1    0    0    0  501  0.00000000000E+00  0.00000000000E+00 -0.20448300360E+04  0.20448300360E+04  0.25500000920E-02 0. -1.
    10030    2    1    2    0    0  0.00000000000E+00  0.00000000000E+00 -0.44690641270E+03  0.36427536593E+04  0.36152356604E+04 0.  0.
        4    1    3    3  502    0  0.13619754442E+04 -0.10999854843E+04  0.23001171295E+03  0.17657440860E+04  0.12699999809E+01 0.  1.
       -4    1    3    3    0  502 -0.13619754442E+04  0.10999854843E+04 -0.67691812565E+03  0.18770095732E+04  0.12699999809E+01 0. -1.
</event>
<event>
 5   0  0.4200635E-07  0.3614015E+04  0.7818609E-02  0.8087289E-01
       -2   -1    0    0    0  501  0.00000000000E+00  0.00000000000E+00  0.15641748585E+04  0.15641748585E+04  0.25500000920E-02 0. -1.
        2   -1    0    0  501    0  0.00000000000E+00  0.00000000000E+00 -0.20875393760E+04  0.20875393760E+04  0.25500000920E-02 0.  1.
    10030    2    1    2    0    0  0.00000000000E+00  0.00000000000E+00 -0.52336451749E+03  0.36517142344E+04  0.36140152783E+04 0.  0.
        4    1    3    3  502    0  0.46943600370E+03  0.32477222812E+03  0.14706779563E+04  0.15775748558E+04  0.12699999809E+01 0. -1.
       -4    1    3    3    0  502 -0.46943600370E+03 -0.32477222812E+03 -0.19940424738E+04  0.20741393786E+04  0.12699999809E+01 0.  1.
</event>
<event>
 5   0  0.4200635E-07  0.3587343E+04  0.7818609E-02  0.8093397E-01
       -2   -1    0    0    0  501  0.00000000000E+00  0.00000000000E+00  0.15838597809E+04  0.15838597809E+04  0.25500000920E-02 0.  1.
        2   -1    0    0  501    0  0.00000000000E+00  0.00000000000E+00 -0.20312765325E+04  0.20312765325E+04  0.25500000920E-02 0. -1.
    10030    2    1    2    0    0  0.00000000000E+00  0.00000000000E+00 -0.44741675164E+03  0.36151363134E+04  0.35873428628E+04 0.  0.
        4    1    3    3  502    0  0.98133112011E+03  0.16315134451E+03  0.12803786847E+04  0.16214192294E+04  0.12699999809E+01 0.  1.
       -4    1    3    3    0  502 -0.98133112011E+03 -0.16315134451E+03 -0.17277954363E+04  0.19937170840E+04  0.12699999809E+01 0. -1.
</event>
<event>
 5   0  0.1298250E-07  0.3594506E+04  0.7818609E-02  0.8091751E-01
       -1   -1    0    0    0  501  0.00000000000E+00  0.00000000000E+00  0.21030828845E+04  0.21030828845E+04  0.50400001928E-02 0. -1.
        1   -1    0    0  501    0  0.00000000000E+00  0.00000000000E+00 -0.15358966908E+04  0.15358966908E+04  0.50400001928E-02 0.  1.
    10030    2    1    2    0    0  0.00000000000E+00  0.00000000000E+00  0.56718619370E+03  0.36389795753E+04  0.35945058312E+04 0.  0.
        1    1    3    3  502    0  0.48805733734E+03  0.48412094629E+03 -0.13975385694E+04  0.15574617517E+04  0.50400001928E-02 0.  1.
       -1    1    3    3    0  502 -0.48805733734E+03 -0.48412094629E+03  0.19647247631E+04  0.20815178236E+04  0.50400001928E-02 0. -1.
</event>
<event>
 5   0  0.4115358E-07  0.3609069E+04  0.7818609E-02  0.8088417E-01
       -2   -1    0    0    0  501  0.00000000000E+00  0.00000000000E+00  0.10443488308E+04  0.10443488308E+04  0.25500000920E-02 0. -1.
        2   -1    0    0  501    0  0.00000000000E+00  0.00000000000E+00 -0.31180626342E+04  0.31180626342E+04  0.25500000920E-02 0.  1.
    10030    2    1    2    0    0  0.00000000000E+00  0.00000000000E+00 -0.20737138033E+04  0.41624114650E+04  0.36090691689E+04 0.  0.
        3    1    3    3  502    0  0.14698759648E+04 -0.10325785757E+04 -0.12352520349E+04  0.21800462075E+04  0.10100000352E+00 0. -1.
       -3    1    3    3    0  502 -0.14698759648E+04  0.10325785757E+04 -0.83846176839E+03  0.19823652575E+04  0.10100000352E+00 0.  1.
</event>
<event>
 5   0  0.3993751E-07  0.3578624E+04  0.7818609E-02  0.8095406E-01
       -2   -1    0    0    0  501  0.00000000000E+00  0.00000000000E+00  0.11055471845E+04  0.11055471845E+04  0.25500000920E-02 0.  1.
        2   -1    0    0  501    0  0.00000000000E+00  0.00000000000E+00 -0.28959754932E+04  0.28959754932E+04  0.25500000920E-02 0. -1.
    10030    2    1    2    0    0  0.00000000000E+00  0.00000000000E+00 -0.17904283087E+04  0.40015226777E+04  0.35786240669E+04 0.  0.
        1    1    3    3  502    0  0.18014514332E+03 -0.13319270366E+04  0.42553558979E+03  0.14098093636E+04  0.50400001928E-02 0.  1.
       -1    1    3    3    0  502 -0.18014514332E+03  0.13319270366E+04 -0.22159638984E+04  0.25917133141E+04  0.50400001928E-02 0. -1.
</event>
<event>
 5   0  0.1298250E-07  0.3587265E+04  0.7818609E-02  0.8093415E-01
        1   -1    0    0  501    0  0.00000000000E+00  0.00000000000E+00  0.98301039412E+03  0.98301039413E+03  0.50400001928E-02 0.  1.
       -1   -1    0    0    0  501  0.00000000000E+00  0.00000000000E+00 -0.32727196599E+04  0.32727196599E+04  0.50400001928E-02 0. -1.
    10030    2    1    2    0    0  0.00000000000E+00  0.00000000000E+00 -0.22897092658E+04  0.42557300541E+04  0.35872649430E+04 0.  0.
        2    1    3    3  502    0 -0.14224571419E+04  0.64494773098E+03 -0.21911101506E+04  0.26907815943E+04  0.25500000920E-02 0.  1.
       -2    1    3    3    0  502  0.14224571419E+04 -0.64494773098E+03 -0.98599115173E+02  0.15649484597E+04  0.25500000920E-02 0. -1.
</event>
<event>
 5   0  0.1298250E-07  0.3615238E+04  0.7818609E-02  0.8087010E-01
        1   -1    0    0  501    0  0.00000000000E+00  0.00000000000E+00  0.16758004480E+04  0.16758004480E+04  0.50400001928E-02 0. -1.
       -1   -1    0    0    0  501  0.00000000000E+00  0.00000000000E+00 -0.19498065085E+04  0.19498065085E+04  0.50400001928E-02 0.  1.
    10030    2    1    2    0    0  0.00000000000E+00  0.00000000000E+00 -0.27400606051E+03  0.36256069566E+04  0.36152380948E+04 0.  0.
        1    1    3    3  502    0 -0.56258442488E+03  0.15363611234E+04 -0.90769909581E+03  0.18710490066E+04  0.50400001928E-02 0.  1.
       -1    1    3    3    0  502  0.56258442488E+03 -0.15363611234E+04  0.63369303530E+03  0.17545579499E+04  0.50400001928E-02 0. -1.
</event>
<event>
 5   0  0.1298250E-07  0.3568423E+04  0.7818609E-02  0.8097763E-01
       -1   -1    0    0    0  501  0.00000000000E+00  0.00000000000E+00  0.17078306159E+04  0.17078306159E+04  0.50400001928E-02 0.  1.
        1   -1    0    0  501    0  0.00000000000E+00  0.00000000000E+00 -0.18640088276E+04  0.18640088276E+04  0.50400001928E-02 0. -1.
    10030    2    1    2    0    0  0.00000000000E+00  0.00000000000E+00 -0.15617821165E+03  0.35718394435E+04  0.35684233741E+04 0.  0.
        2    1    3    3  502    0  0.95060258917E+03 -0.77151956243E+03  0.12210453660E+04  0.17291152372E+04  0.25500000920E-02 0.  1.
       -2    1    3    3    0  502 -0.95060258917E+03  0.77151956243E+03 -0.13772235776E+04  0.18427242063E+04  0.25500000920E-02 0. -1.
</event>
<event>
 5   0  0.4115358E-07  0.3610683E+04  0.7818609E-02  0.8088049E-01
       -2   -1    0    0    0  501  0.00000000000E+00  0.00000000000E+00  0.23400936182E+04  0.23400936182E+04  0.25500000920E-02 0.  1.
        2   -1    0    0  501    0  0.00000000000E+00  0.00000000000E+00 -0.13927896427E+04  0.13927896427E+04  0.25500000920E-02 0. -1.
    10030    2    1    2    0    0  0.00000000000E+00  0.00000000000E+00  0.94730397552E+03  0.37328832609E+04  0.36106831234E+04 0.  0.
        3    1    3    3  502    0  0.10363530326E+04 -0.74501371320E+03 -0.84634667860E+03  0.15314619654E+04  0.10100000352E+00 0. -1.
       -3    1    3    3    0  502 -0.10363530326E+04  0.74501371320E+03  0.17936506541E+04  0.22014212955E+04  0.10100000352E+00 0.  1.
</event>
<event>
 5   0  0.1298250E-07  0.3600296E+04  0.7818609E-02  0.8090424E-01
        1   -1    0    0  501    0  0.00000000000E+00  0.00000000000E+00  0.14278695681E+04  0.14278695681E+04  0.50400001928E-02 0.  1.
       -1   -1    0    0    0  501  0.00000000000E+00  0.00000000000E+00 -0.22694873878E+04  0.22694873878E+04  0.50400001928E-02 0. -1.
    10030    2    1    2    0    0  0.00000000000E+00  0.00000000000E+00 -0.84161781968E+03  0.36973569559E+04  0.36002955303E+04 0.  0.
        2    1    3    3  502    0 -0.15365963097E+04 -0.85377167245E+03 -0.22436469870E+02  0.17579982033E+04  0.25500000920E-02 0.  1.
       -2    1    3    3    0  502  0.15365963097E+04  0.85377167245E+03 -0.81918134981E+03  0.19393587526E+04  0.25500000920E-02 0. -1.
</event>
<event>
 5   0  0.4200635E-07  0.3635207E+04  0.7818609E-02  0.8082474E-01
       -2   -1    0    0    0  501  0.00000000000E+00  0.00000000000E+00  0.17755398345E+04  0.17755398345E+04  0.25500000920E-02 0.  1.
        2   -1    0    0  501    0  0.00000000000E+00  0.00000000000E+00 -0.18606637776E+04  0.18606637776E+04  0.25500000920E-02 0. -1.
    10030    2    1    2    0    0  0.00000000000E+00  0.00000000000E+00 -0.85123943065E+02  0.36362036121E+04  0.36352070949E+04 0.  0.
        4    1    3    3  502    0  0.17184342128E+04 -0.48080107336E+03  0.30321360618E+03  0.18100071602E+04  0.12699999809E+01 0. -1.
       -4    1    3    3    0  502 -0.17184342128E+04  0.48080107336E+03 -0.38833754924E+03  0.18261964519E+04  0.12699999809E+01 0.  1.
</event>
<event>
 5   0  0.1370997E-07  0.3607895E+04  0.7818609E-02  0.8088686E-01
       -1   -1    0    0    0  501  0.00000000000E+00  0.00000000000E+00  0.19762813627E+04  0.19762813627E+04  0.50400001928E-02 0.  1.
        1   -1    0    0  501    0  0.00000000000E+00  0.00000000000E+00 -0.16466417092E+04  0.16466417092E+04  0.50400001928E-02 0. -1.
    10030    2    1    2    0    0  0.00000000000E+00  0.00000000000E+00  0.32963965350E+03  0.36229230719E+04  0.36078954092E+04 0.  0.
        3    1    3    3  502    0  0.15330886692E+04 -0.56682449304E+03 -0.60162629484E+03  0.17417247436E+04  0.10100000352E+00 0. -1.
       -3    1    3    3    0  502 -0.15330886692E+04  0.56682449304E+03  0.93126594834E+03  0.18811983283E+04  0.10100000352E+00 0.  1.
</event>
<event>
 5   0  0.1298250E-07  0.3612047E+04  0.7818609E-02  0.8087738E-01
        1   -1    0    0  501    0  0.00000000000E+00  0.00000000000E+00  0.17398847991E+04  0.17398847991E+04  0.50400001928E-02 0.  1.
       -1   -1    0    0    0  501  0.00000000000E+00  0.00000000000E+00 -0.18746761404E+04  0.18746761404E+04  0.50400001928E-02 0. -1.
    10030    2    1    2    0    0  0.00000000000E+00  0.00000000000E+00 -0.13479134136E+03  0.36145609395E+04  0.36120467992E+04 0.  0.
        1    1    3    3  502    0 -0.37208848251E+03 -0.88862406006E+03  0.14612860127E+04  0.17502740842E+04  0.50400001928E-02 0.  1.
       -1    1    3    3    0  502  0.37208848251E+03  0.88862406006E+03 -0.15960773540E+04  0.18642868553E+04  0.50400001928E-02 0. -1.
</event>
<event>
 5   0  0.4200635E-07  0.3605153E+04  0.7818609E-02  0.8089312E-01
       -2   -1    0    0    0  501  0.00000000000E+00  0.00000000000E+00  0.13649364216E+04  0.13649364216E+04  0.25500000920E-02 0. -1.
        2   -1    0    0  501    0  0.00000000000E+00  0.00000000000E+00 -0.23805372826E+04  0.23805372826E+04  0.25500000920E-02 0.  1.
    10030    2    1    2    0    0  0.00000000000E+00  0.00000000000E+00 -0.10156008609E+04  0.37454737042E+04  0.36051530009E+04 0.  0.
        4    1    3    3  502    0 -0.21449708232E+03 -0.90563714422E+03  0.10960118265E+04  0.14378564504E+04  0.12699999809E+01 0. -1.
       -4    1    3    3    0  502  0.21449708232E+03  0.90563714422E+03 -0.21116126874E+04  0.23076172538E+04  0.12699999809E+01 0.  1.
</event>
<event>
 5   0  0.3880259E-07  0.3609429E+04  0.7818609E-02  0.8088335E-01
       -2   -1    0    0    0  501  0.00000000000E+00  0.00000000000E+00  0.21728635452E+04  0.21728635452E+04  0.25500000920E-02 0. -1.
        2   -1    0    0  501    0  0.00000000000E+00  0.00000000000E+00 -0.14989413688E+04  0.14989413688E+04  0.25500000920E-02 0.  1.
    10030    2    1    2    0    0  0.00000000000E+00  0.00000000000E+00  0.67392217644E+03  0.36718049141E+04  0.36094293492E+04 0.  0.
        5    1    3    3  502    0  0.12509785736E+03 -0.16235840591E+04 -0.45449309502E+03  0.16906391497E+04  0.46999998093E+01 0.  1.
       -5    1    3    3    0  502 -0.12509785736E+03  0.16235840591E+04  0.11284152715E+04  0.19811657644E+04  0.46999998093E+01 0. -1.
</event>
<event>
 5   0  0.1298250E-07  0.3591505E+04  0.7818609E-02  0.8092440E-01
       -1   -1    0    0    0  501  0.00000000000E+00  0.00000000000E+00  0.16936240763E+04  0.16936240763E+04  0.50400001928E-02 0. -1.
        1   -1    0    0  501    0  0.00000000000E+00  0.00000000000E+00 -0.19040389928E+04  0.19040389928E+04  0.50400001928E-02 0.  1.
    10030    2    1    2    0    0  0.00000000000E+00  0.00000000000E+00 -0.21041491654E+03  0.35976630691E+04  0.35915045763E+04 0.  0.
        2    1    3    3  502    0  0.14166437073E+04  0.45013686754E+03  0.90410337581E+03  0.17398004216E+04  0.25500000920E-02 0. -1.
       -2    1    3    3    0  502 -0.14166437073E+04 -0.45013686754E+03 -0.11145182924E+04  0.18578626475E+04  0.25500000920E-02 0.  1.
</event>
<event>
 5   0  0.1298250E-07  0.3387130E+04  0.7818609E-02  0.8141072E-01
       -1   -1    0    0    0  501  0.00000000000E+00  0.00000000000E+00  0.13968445471E+04  0.13968445471E+04  0.50400001928E-02 0. -1.
        1   -1    0    0  501    0  0.00000000000E+00  0.00000000000E+00 -0.20533148562E+04  0.20533148562E+04  0.50400001928E-02 0.  1.
    10030    2    1    2    0    0  0.00000000000E+00  0.00000000000E+00 -0.65647030909E+03  0.34501594033E+04  0.33871295578E+04 0.  0.
        2    1    3    3  502    0  0.10490029013E+04 -0.31857342840E+03 -0.16430949886E+04  0.19752613138E+04  0.25500000920E-02 0.  1.
       -2    1    3    3    0  502 -0.10490029013E+04  0.31857342840E+03  0.98662467949E+03  0.14748980895E+04  0.25500000920E-02 0. -1.
</event>
<event>
 5   0  0.1298250E-07  0.3583396E+04  0.7818609E-02  0.8094306E-01
        1   -1    0    0  501    0  0.00000000000E+00  0.00000000000E+00  0.22677390749E+04  0.22677390749E+04  0.50400001928E-02 0.  1.
       -1   -1    0    0    0  501  0.00000000000E+00  0.00000000000E+00 -0.14155867949E+04  0.14155867949E+04  0.50400001928E-02 0. -1.
    10030    2    1    2    0    0  0.00000000000E+00  0.00000000000E+00  0.85215228004E+03  0.36833258698E+04  0.35833958691E+04 0.  0.
        1    1    3    3  502    0 -0.74741653379E+03  0.48060405736E+03  0.20252812017E+04  0.22116454691E+04  0.50400001928E-02 0.  1.
       -1    1    3    3    0  502  0.74741653379E+03 -0.48060405736E+03 -0.11731289217E+04  0.14716804007E+04  0.50400001928E-02 0. -1.
</event>
<event>
 5   0  0.1361743E-07  0.3601623E+04  0.7818609E-02  0.8090120E-01
        1   -1    0    0  501    0  0.00000000000E+00  0.00000000000E+00  0.26503885270E+04  0.26503885270E+04  0.50400001928E-02 0.  1.
       -1   -1    0    0    0  501  0.00000000000E+00  0.00000000000E+00 -0.12235651101E+04  0.12235651101E+04  0.50400001928E-02 0. -1.
    10030    2    1    2    0    0  0.00000000000E+00  0.00000000000E+00  0.14268234169E+04  0.38739536371E+04  0.36016234839E+04 0.  0.
        5    1    3    3  502    0  0.99575608618E+03  0.13996067902E+04  0.12951101200E+04  0.21512232946E+04  0.46999998093E+01 0.  1.
       -5    1    3    3    0  502 -0.99575608618E+03 -0.13996067902E+04  0.13171329688E+03  0.17227303425E+04  0.46999998093E+01 0. -1.
</event>
<event>
 5   0  0.1370997E-07  0.3461823E+04  0.7818609E-02  0.8122898E-01
        1   -1    0    0  501    0  0.00000000000E+00  0.00000000000E+00  0.23155245996E+04  0.23155245996E+04  0.50400001928E-02 0. -1.
       -1   -1    0    0    0  501  0.00000000000E+00  0.00000000000E+00 -0.12938986712E+04  0.12938986712E+04  0.50400001928E-02 0.  1.
    10030    2    1    2    0    0  0.00000000000E+00  0.00000000000E+00  0.10216259285E+04  0.36094232708E+04  0.34618227584E+04 0.  0.
        3    1    3    3  502    0  0.92972447534E+03 -0.83850891942E+03 -0.73537529294E+03  0.14519854130E+04  0.10100000352E+00 0.  1.
       -3    1    3    3    0  502 -0.92972447534E+03  0.83850891942E+03  0.17570012214E+04  0.21574378578E+04  0.10100000352E+00 0. -1.
</event>
<event>
 5   0  0.3993751E-07  0.3360306E+04  0.7818609E-02  0.8147718E-01
       -2   -1    0    0    0  501  0.00000000000E+00  0.00000000000E+00  0.15508918909E+04  0.15508918909E+04  0.25500000920E-02 0. -1.
        2   -1    0    0  501    0  0.00000000000E+00  0.00000000000E+00 -0.18201880063E+04  0.18201880063E+04  0.25500000920E-02 0.  1.
    10030    2    1    2    0    0  0.00000000000E+00  0.00000000000E+00 -0.26929611539E+03  0.33710798971E+04  0.33603064258E+04 0.  0.
        1    1    3    3  502    0  0.10048927049E+04 -0.42849518566E+03  0.11459622468E+04  0.15832393829E+04  0.50400001928E-02 0. -1.
       -1    1    3    3    0  502 -0.10048927049E+04  0.42849518566E+03 -0.14152583622E+04  0.17878405142E+04  0.50400001928E-02 0.  1.
</event>
<event>
 5   0  0.1361743E-07  0.3600880E+04  0.7818609E-02  0.8090290E-01
        1   -1    0    0  501    0  0.00000000000E+00  0.00000000000E+00  0.23240352209E+04  0.23240352209E+04  0.50400001928E-02 0. -1.
       -1   -1    0    0    0  501  0.00000000000E+00  0.00000000000E+00 -0.13948083287E+04  0.13948083287E+04  0.50400001928E-02 0.  1.
    10030    2    1    2    0    0  0.00000000000E+00  0.00000000000E+00  0.92922689218E+03  0.37188435496E+04  0.36008797161E+04 0.  0.
        5    1    3    3  502    0 -0.68534244940E+03 -0.11876630400E+03  0.21796669619E+04  0.22879619452E+04  0.46999998093E+01 0. -1.
       -5    1    3    3    0  502  0.68534244940E+03  0.11876630400E+03 -0.12504400697E+04  0.14308816044E+04  0.46999998093E+01 0.  1.
</event>
<event>
 5   0  0.1298250E-07  0.3676860E+04  0.7818609E-02  0.8073109E-01
        1   -1    0    0  501    0  0.00000000000E+00  0.00000000000E+00  0.17059978088E+04  0.17059978088E+04  0.50400001928E-02 0. -1.
       -1   -1    0    0    0  501  0.00000000000E+00  0.00000000000E+00 -0.19811423308E+04  0.19811423308E+04  0.50400001928E-02 0.  1.
    10030    2    1    2    0    0  0.00000000000E+00  0.00000000000E+00 -0.27514452203E+03  0.36871401396E+04  0.36768597881E+04 0.  0.
        1    1    3    3  502    0  0.41902934355E+03 -0.17716103598E+04  0.11933853981E+03  0.18243986804E+04  0.50400001928E-02 0. -1.
       -1    1    3    3    0  502 -0.41902934355E+03  0.17716103598E+04 -0.39448306184E+03  0.18627414592E+04  0.50400001928E-02 0.  1.
</event>
<event>
 5   0  0.1370997E-07  0.3598116E+04  0.7818609E-02  0.8090923E-01
       -1   -1    0    0    0  501  0.00000000000E+00  0.00000000000E+00  0.36390685580E+04  0.36390685580E+04  0.50400001928E-02 0.  1.
        1   -1    0    0  501    0  0.00000000000E+00  0.00000000000E+00 -0.88940604832E+03  0.88940604834E+03  0.50400001928E-02 0. -1.
    10030    2    1    2    0    0  0.00000000000E+00  0.00000000000E+00  0.27496625097E+04  0.45284746064E+04  0.35981159436E+04 0.  0.
        3    1    3    3  502    0  0.11516364083E+04  0.13302667866E+04  0.18469762901E+04  0.25509209252E+04  0.10100000352E+00 0. -1.
       -3    1    3    3    0  502 -0.11516364083E+04 -0.13302667866E+04  0.90268621965E+03  0.19775536811E+04  0.10100000352E+00 0.  1.
</event>
<event>
 5   0  0.1348226E-07  0.3588875E+04  0.7818609E-02  0.8093045E-01
        1   -1    0    0  501    0  0.00000000000E+00  0.00000000000E+00  0.32189980618E+04  0.32189980618E+04  0.50400001928E-02 0.  1.
       -1   -1    0    0    0  501  0.00000000000E+00  0.00000000000E+00 -0.10003130943E+04  0.10003130943E+04  0.50400001928E-02 0. -1.
    10030    2    1    2    0    0  0.00000000000E+00  0.00000000000E+00  0.22186849675E+04  0.42193111561E+04  0.35888749835E+04 0.  0.
        4    1    3    3  502    0  0.24020029653E+03 -0.27362206619E+03 -0.95642968635E+03  0.10233887704E+04  0.12699999809E+01 0. -1.
       -4    1    3    3    0  502 -0.24020029653E+03  0.27362206619E+03  0.31751146538E+04  0.31959223857E+04  0.12699999809E+01 0.  1.
</event>
<event>
 5   0  0.1370997E-07  0.3613502E+04  0.7818609E-02  0.8087406E-01
       -1   -1    0    0    0  501  0.00000000000E+00  0.00000000000E+00  0.20856908186E+04  0.20856908186E+04  0.50400001928E-02 0.  1.
        1   -1    0    0  501    0  0.00000000000E+00  0.00000000000E+00 -0.15651168296E+04  0.15651168296E+04  0.50400001928E-02 0. -1.
    10030    2    1    2    0    0  0.00000000000E+00  0.00000000000E+00  0.52057398898E+03  0.36508076482E+04  0.36135023462E+04 0.  0.
        3    1    3    3  502    0  0.10036630322E+04 -0.11105718118E+04  0.12824834095E+04  0.19711603023E+04  0.10100000352E+00 0.  1.
       -3    1    3    3    0  502 -0.10036630322E+04  0.11105718118E+04 -0.76190942053E+03  0.16796473459E+04  0.10100000352E+00 0. -1.
</event>
<event>
 5   0  0.3993751E-07  0.3594790E+04  0.7818609E-02  0.8091686E-01
       -2   -1    0    0    0  501  0.00000000000E+00  0.00000000000E+00  0.15316430512E+04  0.15316430512E+04  0.25500000920E-02 0. -1.
        2   -1    0    0  501    0  0.00000000000E+00  0.00000000000E+00 -0.21092565302E+04  0.21092565302E+04  0.25500000920E-02 0.  1.
    10030    2    1    2    0    0  0.00000000000E+00  0.00000000000E+00 -0.57761347899E+03  0.36408995815E+04  0.35947896227E+04 0.  0.
        1    1    3    3  502    0 -0.84487131525E+02 -0.31213839505E+03 -0.20795521730E+04  0.21045440583E+04  0.50400001928E-02 0.  1.
       -1    1    3    3    0  502  0.84487131525E+02  0.31213839505E+03  0.15019386940E+04  0.15363555232E+04  0.50400001928E-02 0. -1.
</event>
<event>
 5   0  0.4115358E-07  0.3594823E+04  0.7818609E-02  0.8091679E-01
       -2   -1    0    0    0  501  0.00000000000E+00  0.00000000000E+00  0.13238075911E+04  0.13238075911E+04  0.25500000920E-02 0.  1.
        2   -1    0    0  501    0  0.00000000000E+00  0.00000000000E+00 -0.24404516477E+04  0.24404516477E+04  0.25500000920E-02 0. -1.
    10030    2    1    2    0    0  0.00000000000E+00  0.00000000000E+00 -0.11166440566E+04  0.37642592388E+04  0.35948231762E+04 0.  0.
        3    1    3    3  502    0  0.17783042778E+04 -0.17784096244E+03 -0.35773409093E+03  0.18226264572E+04  0.10100000352E+00 0. -1.
       -3    1    3    3    0  502 -0.17783042778E+04  0.17784096244E+03 -0.75890996571E+03  0.19416327816E+04  0.10100000352E+00 0.  1.
</event>
<event>
 5   0  0.1370997E-07  0.3586354E+04  0.7818609E-02  0.8093625E-01
       -1   -1    0    0    0  501  0.00000000000E+00  0.00000000000E+00  0.16019565147E+04  0.16019565147E+04  0.50400001928E-02 0.  1.
        1   -1    0    0  501    0  0.00000000000E+00  0.00000000000E+00 -0.20072225797E+04  0.20072225797E+04  0.50400001928E-02 0. -1.
    10030    2    1    2    0    0  0.00000000000E+00  0.00000000000E+00 -0.40526606500E+03  0.36091790944E+04  0.35863537405E+04 0.  0.
        3    1    3    3  502    0  0.11395688734E+04  0.41260711283E+03  0.11273763399E+04  0.16552459844E+04  0.10100000352E+00 0.  1.
       -3    1    3    3    0  502 -0.11395688734E+04 -0.41260711283E+03 -0.15326424049E+04  0.19539331100E+04  0.10100000352E+00 0. -1.
</event>
<event>
 5   0  0.3880259E-07  0.3612627E+04  0.7818609E-02  0.8087605E-01
       -2   -1    0    0    0  501  0.00000000000E+00  0.00000000000E+00  0.21014921584E+04  0.21014921584E+04  0.25500000920E-02 0.  1.
        2   -1    0    0  501    0  0.00000000000E+00  0.00000000000E+00 -0.15525961714E+04  0.15525961714E+04  0.25500000920E-02 0. -1.
    10030    2    1    2    0    0  0.00000000000E+00  0.00000000000E+00  0.54889598705E+03  0.36540883298E+04  0.36126271213E+04 0.  0.
        5    1    3    3  502    0  0.10938093317E+04  0.89273577431E+03  0.14140329169E+04  0.19982260124E+04  0.46999998093E+01 0.  1.
       -5    1    3    3    0  502 -0.10938093317E+04 -0.89273577431E+03 -0.86513692982E+03  0.16558623174E+04  0.46999998093E+01 0. -1.
</event>
<event>
 5   0  0.1348226E-07  0.3597188E+04  0.7818609E-02  0.8091136E-01
        1   -1    0    0  501    0  0.00000000000E+00  0.00000000000E+00  0.14201949348E+04  0.14201949348E+04  0.50400001928E-02 0.  1.
       -1   -1    0    0    0  501  0.00000000000E+00  0.00000000000E+00 -0.22778147387E+04  0.22778147387E+04  0.50400001928E-02 0. -1.
    10030    2    1    2    0    0  0.00000000000E+00  0.00000000000E+00 -0.85761980386E+03  0.36980096735E+04  0.35971883211E+04 0.  0.
        4    1    3    3  502    0 -0.16641428169E+04 -0.67159955542E+03 -0.55269498999E+03  0.18777355093E+04  0.12699999809E+01 0. -1.
       -4    1    3    3    0  502  0.16641428169E+04  0.67159955542E+03 -0.30492481387E+03  0.18202741642E+04  0.12699999809E+01 0.  1.
</event>
<event>
 5   0  0.1298250E-07  0.3599810E+04  0.7818609E-02  0.8090535E-01
        1   -1    0    0  501    0  0.00000000000E+00  0.00000000000E+00  0.26827338276E+04  0.26827338276E+04  0.50400001928E-02 0.  1.
       -1   -1    0    0    0  501  0.00000000000E+00  0.00000000000E+00 -0.12075954751E+04  0.12075954751E+04  0.50400001928E-02 0. -1.
    10030    2    1    2    0    0  0.00000000000E+00  0.00000000000E+00  0.14751383524E+04  0.38903293027E+04  0.35998095678E+04 0.  0.
        2    1    3    3  502    0 -0.14236563030E+04 -0.10999031898E+04  0.67766135371E+03  0.19224487526E+04  0.25500000920E-02 0. -1.
       -2    1    3    3    0  502  0.14236563030E+04  0.10999031898E+04  0.79747699873E+03  0.19678805501E+04  0.25500000920E-02 0.  1.
</event>
<event>
 5   0  0.1298250E-07  0.3596530E+04  0.7818609E-02  0.8091287E-01
       -1   -1    0    0    0  501  0.00000000000E+00  0.00000000000E+00  0.16355210825E+04  0.16355210825E+04  0.50400001928E-02 0.  1.
        1   -1    0    0  501    0  0.00000000000E+00  0.00000000000E+00 -0.19772028724E+04  0.19772028724E+04  0.50400001928E-02 0. -1.
    10030    2    1    2    0    0  0.00000000000E+00  0.00000000000E+00 -0.34168178990E+03  0.36127239548E+04  0.35965299843E+04 0.  0.
        1    1    3    3  502    0 -0.12390194309E+04 -0.11205996856E+04 -0.83930264607E+03  0.18695833058E+04  0.50400001928E-02 0. -1.
       -1    1    3    3    0  502  0.12390194309E+04  0.11205996856E+04  0.49762085617E+03  0.17431406490E+04  0.50400001928E-02 0.  1.
</event>
<event>
 5   0  0.1361743E-07  0.3592688E+04  0.7818609E-02  0.8092169E-01
       -1   -1    0    0    0  501  0.00000000000E+00  0.00000000000E+00  0.12329038854E+04  0.12329038854E+04  0.50400001928E-02 0.  1.
        1   -1    0    0  501    0  0.00000000000E+00  0.00000000000E+00 -0.26172782323E+04  0.26172782323E+04  0.50400001928E-02 0. -1.
    10030    2    1    2    0    0  0.00000000000E+00  0.00000000000E+00 -0.13843743469E+04  0.38501821178E+04  0.35926884095E+04 0.  0.
        5    1    3    3  502    0  0.11645512401E+04  0.38272201815E+03 -0.20993759122E+04  0.24310608888E+04  0.46999998093E+01 0. -1.
       -5    1    3    3    0  502 -0.11645512401E+04 -0.38272201815E+03  0.71500156536E+03  0.14191212290E+04  0.46999998093E+01 0.  1.
</event>
<event>
 5   0  0.3880259E-07  0.3600381E+04  0.7818609E-02  0.8090404E-01
        2   -1    0    0  501    0  0.00000000000E+00  0.00000000000E+00  0.23425733800E+04  0.23425733800E+04  0.25500000920E-02 0.  1.
       -2   -1    0    0    0  501  0.00000000000E+00  0.00000000000E+00 -0.13833872466E+04  0.13833872466E+04  0.25500000920E-02 0. -1.
    10030    2    1    2    0    0  0.00000000000E+00  0.00000000000E+00  0.95918613342E+03  0.37259606266E+04  0.36003811676E+04 0.  0.
        5    1    3    3  502    0  0.13702879490E+04  0.95653398138E+03 -0.21309447900E+03  0.16846595109E+04  0.46999998093E+01 0. -1.
       -5    1    3    3    0  502 -0.13702879490E+04 -0.95653398138E+03  0.11722806124E+04  0.20413011157E+04  0.46999998093E+01 0.  1.
</event>
<event>
 5   0  0.4200635E-07  0.3504204E+04  0.7818609E-02  0.8112794E-01
       -2   -1    0    0    0  501  0.00000000000E+00  0.00000000000E+00  0.18906384741E+04  0.18906384741E+04  0.25500000920E-02 0.  1.
        2   -1    0    0  501    0  0.00000000000E+00  0.00000000000E+00 -0.16237170547E+04  0.16237170547E+04  0.25500000920E-02 0. -1.
    10030    2    1    2    0    0  0.00000000000E+00  0.00000000000E+00  0.26692141941E+03  0.35143555288E+04  0.35042042947E+04 0.  0.
        4    1    3    3  502    0 -0.16849338939E+04  0.38628649112E+03 -0.15309562561E+03  0.17354133120E+04  0.12699999809E+01 0. -1.
       -4    1    3    3    0  502  0.16849338939E+04 -0.38628649112E+03  0.42001704502E+03  0.17789422169E+04  0.12699999809E+01 0.  1.
</event>
<event>
 5   0  0.1361743E-07  0.3549223E+04  0.7818609E-02  0.8102223E-01
        1   -1    0    0  501    0  0.00000000000E+00  0.00000000000E+00  0.97541763420E+03  0.97541763422E+03  0.50400001928E-02 0.  1.
       -1   -1    0    0    0  501  0.00000000000E+00  0.00000000000E+00 -0.32286135211E+04  0.32286135211E+04  0.50400001928E-02 0. -1.
    10030    2    1    2    0    0  0.00000000000E+00  0.00000000000E+00 -0.22531958869E+04  0.42040311553E+04  0.35492233306E+04 0.  0.
        5    1    3    3  502    0  0.59438833772E+02 -0.58444053206E+03  0.85689634701E+03  0.10389403977E+04  0.46999998093E+01 0.  1.
       -5    1    3    3    0  502 -0.59438833772E+02  0.58444053206E+03 -0.31100922339E+04  0.31650907576E+04  0.46999998093E+01 0. -1.
</event>
<event>
 5   0  0.3993751E-07  0.3807588E+04  0.7818609E-02  0.8044529E-01
        2   -1    0    0  501    0  0.00000000000E+00  0.00000000000E+00  0.22919567335E+04  0.22919567335E+04  0.25500000920E-02 0.  1.
       -2   -1    0    0    0  501  0.00000000000E+00  0.00000000000E+00 -0.15813696484E+04  0.15813696484E+04  0.25500000920E-02 0. -1.
    10030    2    1    2    0    0  0.00000000000E+00  0.00000000000E+00  0.71058708513E+03  0.38733263819E+04  0.38075875900E+04 0.  0.
        1    1    3    3  502    0  0.64183439663E+03 -0.11752001909E+04 -0.10213575731E+04  0.16841075302E+04  0.50400001928E-02 0. -1.
       -1    1    3    3    0  502 -0.64183439663E+03  0.11752001909E+04  0.17319446582E+04  0.21892188517E+04  0.50400001928E-02 0.  1.
</event>
<event>
 5   0  0.4200635E-07  0.3598375E+04  0.7818609E-02  0.8090864E-01
       -2   -1    0    0    0  501  0.00000000000E+00  0.00000000000E+00  0.16555877536E+04  0.16555877536E+04  0.25500000920E-02 0. -1.
        2   -1    0    0  501    0  0.00000000000E+00  0.00000000000E+00 -0.19552424801E+04  0.19552424801E+04  0.25500000920E-02 0.  1.
    10030    2    1    2    0    0  0.00000000000E+00  0.00000000000E+00 -0.29965472649E+03  0.36108302338E+04  0.35983749140E+04 0.  0.
        4    1    3    3  502    0 -0.17256159005E+04  0.11333284763E+03  0.34835793307E+03  0.17640718332E+04  0.12699999809E+01 0. -1.
       -4    1    3    3    0  502  0.17256159005E+04 -0.11333284763E+03 -0.64801265955E+03  0.18467584006E+04  0.12699999809E+01 0.  1.
</event>
<event>
 5   0  0.4200635E-07  0.3610139E+04  0.7818609E-02  0.8088173E-01
        2   -1    0    0  501    0  0.00000000000E+00  0.00000000000E+00  0.24433749371E+04  0.24433749371E+04  0.25500000920E-02 0.  1.
       -2   -1    0    0    0  501  0.00000000000E+00  0.00000000000E+00 -0.13335141605E+04  0.13335141605E+04  0.25500000920E-02 0. -1.
    10030    2    1    2    0    0  0.00000000000E+00  0.00000000000E+00  0.11098607766E+04  0.37768890976E+04  0.36101385448E+04 0.  0.
        4    1    3    3  502    0  0.28060104041E+03  0.17704179243E+04  0.33261352928E+03  0.18231154498E+04  0.12699999809E+01 0.  1.
       -4    1    3    3    0  502 -0.28060104041E+03 -0.17704179243E+04  0.77724724735E+03  0.19537736478E+04  0.12699999809E+01 0. -1.
</event>
<event>
 5   0  0.1298250E-07  0.3386474E+04  0.7818609E-02  0.8141234E-01
        1   -1    0    0  501    0  0.00000000000E+00  0.00000000000E+00  0.16398353973E+04  0.16398353973E+04  0.50400001928E-02 0. -1.
       -1   -1    0    0    0  501  0.00000000000E+00  0.00000000000E+00 -0.17483775395E+04  0.17483775395E+04  0.50400001928E-02 0.  1.
    10030    2    1    2    0    0  0.00000000000E+00  0.00000000000E+00 -0.10854214220E+03  0.33882129368E+04  0.33864739049E+04 0.  0.
        1    1    3    3  502    0 -0.12652345033E+04 -0.94486779625E+03 -0.66569689086E+03  0.17136936282E+04  0.50400001928E-02 0.  1.
       -1    1    3    3    0  502  0.12652345033E+04  0.94486779625E+03  0.55715474866E+03  0.16745193086E+04  0.50400001928E-02 0. -1.
</event>
<event>
 5   0  0.1361743E-07  0.3572983E+04  0.7818609E-02  0.8096709E-01
       -1   -1    0    0    0  501  0.00000000000E+00  0.00000000000E+00  0.16519349636E+04  0.16519349636E+04  0.50400001928E-02 0.  1.
        1   -1    0    0  501    0  0.00000000000E+00  0.00000000000E+00 -0.19320077274E+04  0.19320077274E+04  0.50400001928E-02 0. -1.
    10030    2    1    2    0    0  0.00000000000E+00  0.00000000000E+00 -0.28007276376E+03  0.35839426910E+04  0.35729825720E+04 0.  0.
        5    1    3    3  502    0 -0.41460845938E+03 -0.25171755851E+03 -0.18646904425E+04  0.19267471137E+04  0.46999998093E+01 0. -1.
       -5    1    3    3    0  502  0.41460845938E+03  0.25171755851E+03  0.15846176787E+04  0.16571955773E+04  0.46999998093E+01 0.  1.
</event>
<event>
 5   0  0.1370997E-07  0.3607391E+04  0.7818609E-02  0.8088801E-01
        1   -1    0    0  501    0  0.00000000000E+00  0.00000000000E+00  0.13819156985E+04  0.13819156985E+04  0.50400001928E-02 0. -1.
       -1   -1    0    0    0  501  0.00000000000E+00  0.00000000000E+00 -0.23542082232E+04  0.23542082232E+04  0.50400001928E-02 0.  1.
    10030    2    1    2    0    0  0.00000000000E+00  0.00000000000E+00 -0.97229252472E+03  0.37361239217E+04  0.36073909137E+04 0.  0.
        3    1    3    3  502    0  0.10869128461E+04 -0.13873016352E+04 -0.88610226266E+02  0.17646067960E+04  0.10100000352E+00 0. -1.
       -3    1    3    3    0  502 -0.10869128461E+04  0.13873016352E+04 -0.88368229846E+03  0.19715171257E+04  0.10100000352E+00 0.  1.
</event>
<event>
 5   0  0.3993751E-07  0.3610882E+04  0.7818609E-02  0.8088004E-01
        2   -1    0    0  501    0  0.00000000000E+00  0.00000000000E+00  0.13281774678E+04  0.13281774678E+04  0.25500000920E-02 0.  1.
       -2   -1    0    0    0  501  0.00000000000E+00  0.00000000000E+00 -0.24542032508E+04  0.24542032508E+04  0.25500000920E-02 0. -1.
    10030    2    1    2    0    0  0.00000000000E+00  0.00000000000E+00 -0.11260257830E+04  0.37823807186E+04  0.36108821410E+04 0.  0.
        1    1    3    3  502    0 -0.12542208202E+04 -0.11449953032E+04 -0.12049259088E+04  0.20822897387E+04  0.50400001928E-02 0.  1.
       -1    1    3    3    0  502  0.12542208202E+04  0.11449953032E+04  0.78900125792E+02  0.17000909799E+04  0.50400001928E-02 0. -1.
</event>
<event>
 5   0  0.1348226E-07  0.3486677E+04  0.7818609E-02  0.8116955E-01
        1   -1    0    0  501    0  0.00000000000E+00  0.00000000000E+00  0.17952974487E+04  0.17952974487E+04  0.50400001928E-02 0. -1.
       -1   -1    0    0    0  501  0.00000000000E+00  0.00000000000E+00 -0.16928832486E+04  0.16928832486E+04  0.50400001928E-02 0.  1.
    10030    2    1    2    0    0  0.00000000000E+00  0.00000000000E+00  0.10241420011E+03  0.34881806972E+04  0.34866769148E+04 0.  0.
        4    1    3    3  502    0 -0.15975609984E+04  0.69651272522E+03  0.94771766074E+02  0.17453694224E+04  0.12699999809E+01 0.  1.
       -4    1    3    3    0  502  0.15975609984E+04 -0.69651272522E+03  0.76424340311E+01  0.17428112748E+04  0.12699999809E+01 0. -1.
</event>
<event>
 5   0  0.3993751E-07  0.3610981E+04  0.7818609E-02  0.8087981E-01
       -2   -1    0    0    0  501  0.00000000000E+00  0.00000000000E+00  0.16005659030E+04  0.16005659030E+04  0.25500000920E-02 0. -1.
        2   -1    0    0  501    0  0.00000000000E+00  0.00000000000E+00 -0.20366526818E+04  0.20366526818E+04  0.25500000920E-02 0.  1.
    10030    2    1    2    0    0  0.00000000000E+00  0.00000000000E+00 -0.43608677880E+03  0.36372185848E+04  0.36109814947E+04 0.  0.
        1    1    3    3  502    0 -0.39207521145E+03 -0.52920459531E+03 -0.19113339011E+04  0.20216275019E+04  0.50400001928E-02 0.  1.
       -1    1    3    3    0  502  0.39207521145E+03  0.52920459531E+03  0.14752471223E+04  0.16155910828E+04  0.50400001928E-02 0. -1.
</event>
<event>
 5   0  0.1361743E-07  0.3585998E+04  0.7818609E-02  0.8093706E-01
       -1   -1    0    0    0  501  0.00000000000E+00  0.00000000000E+00  0.12323794011E+04  0.12323794011E+04  0.50400001928E-02 0.  1.
        1   -1    0    0  501    0  0.00000000000E+00  0.00000000000E+00 -0.26086496164E+04  0.26086496164E+04  0.50400001928E-02 0. -1.
    10030    2    1    2    0    0  0.00000000000E+00  0.00000000000E+00 -0.13762702154E+04  0.38410290175E+04  0.35859983558E+04 0.  0.
        5    1    3    3  502    0 -0.39737101334E+03 -0.17223022962E+04 -0.36573905707E+03  0.18049975262E+04  0.46999998093E+01 0.  1.
       -5    1    3    3    0  502  0.39737101334E+03  0.17223022962E+04 -0.10105311583E+04  0.20360314913E+04  0.46999998093E+01 0. -1.
</event>
<event>
 5   0  0.4115358E-07  0.3939387E+04  0.7818609E-02  0.8016887E-01
       -2   -1    0    0    0  501  0.00000000000E+00  0.00000000000E+00  0.19795135570E+04  0.19795135570E+04  0.25500000920E-02 0. -1.
        2   -1    0    0  501    0  0.00000000000E+00  0.00000000000E+00 -0.19599220249E+04  0.19599220249E+04  0.25500000920E-02 0.  1.
    10030    2    1    2    0    0  0.00000000000E+00  0.00000000000E+00  0.19591532092E+02  0.39394355819E+04  0.39393868654E+04 0.  0.
        3    1    3    3  502    0 -0.62158832355E+03  0.71562144332E+03 -0.17168425427E+04  0.19611309035E+04  0.10100000352E+00 0.  1.
       -3    1    3    3    0  502  0.62158832355E+03 -0.71562144332E+03  0.17364340748E+04  0.19783046784E+04  0.10100000352E+00 0. -1.
</event>
<event>
 5   0  0.3993751E-07  0.3600945E+04  0.7818609E-02  0.8090275E-01
       -2   -1    0    0    0  501  0.00000000000E+00  0.00000000000E+00  0.14234334597E+04  0.14234334597E+04  0.25500000920E-02 0. -1.
        2   -1    0    0  501    0  0.00000000000E+00  0.00000000000E+00 -0.22773819805E+04  0.22773819805E+04  0.25500000920E-02 0.  1.
    10030    2    1    2    0    0  0.00000000000E+00  0.00000000000E+00 -0.85394852085E+03  0.37008154402E+04  0.36009452712E+04 0.  0.
        1    1    3    3  502    0  0.72867380902E+03  0.10771892789E+04 -0.17066581699E+04  0.21456897193E+04  0.50400001928E-02 0.  1.
       -1    1    3    3    0  502 -0.72867380902E+03 -0.10771892789E+04  0.85270964901E+03  0.15551257210E+04  0.50400001928E-02 0. -1.
</event>
<event>
 5   0  0.1361743E-07  0.3597812E+04  0.7818609E-02  0.8090993E-01
       -1   -1    0    0    0  501  0.00000000000E+00  0.00000000000E+00  0.13189310069E+04  0.13189310070E+04  0.50400001928E-02 0.  1.
        1   -1    0    0  501    0  0.00000000000E+00  0.00000000000E+00 -0.24535497042E+04  0.24535497042E+04  0.50400001928E-02 0. -1.
    10030    2    1    2    0    0  0.00000000000E+00  0.00000000000E+00 -0.11346186973E+04  0.37724807112E+04  0.35978119918E+04 0.  0.
        5    1    3    3  502    0  0.19564188235E+03  0.96783996078E+03  0.10093712322E+04  0.14120348119E+04  0.46999998093E+01 0.  1.
       -5    1    3    3    0  502 -0.19564188235E+03 -0.96783996078E+03 -0.21439899294E+04  0.23604458993E+04  0.46999998093E+01 0. -1.
</event>
<event>
 5   0  0.1298250E-07  0.3603778E+04  0.7818609E-02  0.8089627E-01
        1   -1    0    0  501    0  0.00000000000E+00  0.00000000000E+00  0.12484790822E+04  0.12484790822E+04  0.50400001928E-02 0. -1.
       -1   -1    0    0    0  501  0.00000000000E+00  0.00000000000E+00 -0.26006074728E+04  0.26006074728E+04  0.50400001928E-02 0.  1.
    10030    2    1    2    0    0  0.00000000000E+00  0.00000000000E+00 -0.13521283906E+04  0.38490865550E+04  0.36037780346E+04 0.  0.
        2    1    3    3  502    0 -0.13364490747E+04  0.11677148019E+04 -0.34315856383E+03  0.18075983480E+04  0.25500000920E-02 0.  1.
       -2    1    3    3    0  502  0.13364490747E+04 -0.11677148019E+04 -0.10089698268E+04  0.20414882070E+04  0.25500000920E-02 0. -1.
</event>
<event>
 5   0  0.4120440E-07  0.3581919E+04  0.7818609E-02  0.8094646E-01
       -2   -1    0    0    0  501  0.00000000000E+00  0.00000000000E+00  0.14914177834E+04  0.14914177834E+04  0.25500000920E-02 0.  1.
        2   -1    0    0  501    0  0.00000000000E+00  0.00000000000E+00 -0.21506616723E+04  0.21506616723E+04  0.25500000920E-02 0. -1.
    10030    2    1    2    0    0  0.00000000000E+00  0.00000000000E+00 -0.65924388895E+03  0.36420794557E+04  0.35819185162E+04 0.  0.
        2    1    3    3  502    0  0.13326008650E+04  0.96024786109E+03  0.39625487877E+03  0.16896505405E+04  0.25500000920E-02 0.  1.
       -2    1    3    3    0  502 -0.13326008650E+04 -0.96024786109E+03 -0.10554987677E+04  0.19524289152E+04  0.25500000920E-02 0. -1.
</event>
<event>
 5   0  0.4120440E-07  0.3579175E+04  0.7818609E-02  0.8095279E-01
       -2   -1    0    0    0  501  0.00000000000E+00  0.00000000000E+00  0.22670430165E+04  0.22670430165E+04  0.25500000920E-02 0. -1.
        2   -1    0    0  501    0  0.00000000000E+00  0.00000000000E+00 -0.14126877767E+04  0.14126877767E+04  0.25500000920E-02 0.  1.
    10030    2    1    2    0    0  0.00000000000E+00  0.00000000000E+00  0.85435523984E+03  0.36797307932E+04  0.35791753009E+04 0.  0.
        2    1    3    3  502    0  0.12397774637E+04  0.61474562755E+03  0.15938107061E+04  0.21107327905E+04  0.25500000920E-02 0. -1.
       -2    1    3    3    0  502 -0.12397774637E+04 -0.61474562755E+03 -0.73945546622E+03  0.15689980027E+04  0.25500000920E-02 0.  1.
</event>
<event>
 5   0  0.1370997E-07  0.3613400E+04  0.7818609E-02  0.8087429E-01
        1   -1    0    0  501    0  0.00000000000E+00  0.00000000000E+00  0.20223775894E+04  0.20223775894E+04  0.50400001928E-02 0. -1.
       -1   -1    0    0    0  501  0.00000000000E+00  0.00000000000E+00 -0.16140234239E+04  0.16140234239E+04  0.50400001928E-02 0.  1.
    10030    2    1    2    0    0  0.00000000000E+00  0.00000000000E+00  0.40835416554E+03  0.36364010133E+04  0.36133999509E+04 0.  0.
        3    1    3    3  502    0 -0.10070064300E+04 -0.32314650855E+02  0.17134094892E+04  0.19876816331E+04  0.10100000352E+00 0. -1.
       -3    1    3    3    0  502  0.10070064300E+04  0.32314650855E+02 -0.13050553236E+04  0.16487193802E+04  0.10100000352E+00 0.  1.
</event>
<event>
 5   0  0.1298250E-07  0.3660128E+04  0.7818609E-02  0.8076856E-01
       -1   -1    0    0    0  501  0.00000000000E+00  0.00000000000E+00  0.19352405792E+04  0.19352405792E+04  0.50400001928E-02 0.  1.
        1   -1    0    0  501    0  0.00000000000E+00  0.00000000000E+00 -0.17306038379E+04  0.17306038379E+04  0.50400001928E-02 0. -1.
    10030    2    1    2    0    0  0.00000000000E+00  0.00000000000E+00  0.20463674126E+03  0.36658444171E+04  0.36601282893E+04 0.  0.
        2    1    3    3  502    0 -0.64861171982E+03 -0.14595623614E+04  0.99708658059E+03  0.18828704414E+04  0.25500000920E-02 0.  1.
       -2    1    3    3    0  502  0.64861171982E+03  0.14595623614E+04 -0.79244983933E+03  0.17829739757E+04  0.25500000920E-02 0. -1.
</event>
<event>
 5   0  0.3993751E-07  0.3494950E+04  0.7818609E-02  0.8114988E-01
        2   -1    0    0  501    0  0.00000000000E+00  0.00000000000E+00  0.20005705328E+04  0.20005705328E+04  0.25500000920E-02 0.  1.
       -2   -1    0    0    0  501  0.00000000000E+00  0.00000000000E+00 -0.15263990974E+04  0.15263990974E+04  0.25500000920E-02 0. -1.
    10030    2    1    2    0    0  0.00000000000E+00  0.00000000000E+00  0.47417143543E+03  0.35269696302E+04  0.34949501029E+04 0.  0.
        1    1    3    3  502    0 -0.93742463171E+03 -0.50429814885E+03 -0.11614636089E+04  0.15754616078E+04  0.50400001928E-02 0. -1.
       -1    1    3    3    0  502  0.93742463171E+03  0.50429814885E+03  0.16356350443E+04  0.19515080223E+04  0.50400001928E-02 0.  1.
</event>
<event>
 5   0  0.1348226E-07  0.3842567E+04  0.7818609E-02  0.8037081E-01
       -1   -1    0    0    0  501  0.00000000000E+00  0.00000000000E+00  0.14880176186E+04  0.14880176186E+04  0.50400001928E-02 0.  1.
        1   -1    0    0  501    0  0.00000000000E+00  0.00000000000E+00 -0.24807028639E+04  0.24807028639E+04  0.50400001928E-02 0. -1.
    10030    2    1    2    0    0  0.00000000000E+00  0.00000000000E+00 -0.99268524525E+03  0.39687204825E+04  0.38425666256E+04 0.  0.
        4    1    3    3  502    0 -0.97310555163E+03  0.16061651607E+04 -0.77279291350E+02  0.18795410716E+04  0.12699999809E+01 0.  1.
       -4    1    3    3    0  502  0.97310555163E+03 -0.16061651607E+04 -0.91540595390E+03  0.20891794110E+04  0.12699999809E+01 0. -1.
</event>
<event>
 5   0  0.3993751E-07  0.3667982E+04  0.7818609E-02  0.8075095E-01
        2   -1    0    0  501    0  0.00000000000E+00  0.00000000000E+00  0.21545016808E+04  0.21545016808E+04  0.25500000920E-02 0. -1.
       -2   -1    0    0    0  501  0.00000000000E+00  0.00000000000E+00 -0.15611607071E+04  0.15611607071E+04  0.25500000920E-02 0.  1.
    10030    2    1    2    0    0  0.00000000000E+00  0.00000000000E+00  0.59334097370E+03  0.37156623879E+04  0.36679822068E+04 0.  0.
        1    1    3    3  502    0 -0.45016107431E+03  0.17747398989E+04  0.40376449132E+03  0.18749326564E+04  0.50400001928E-02 0. -1.
       -1    1    3    3    0  502  0.45016107431E+03 -0.17747398989E+04  0.18957648238E+03  0.18407297315E+04  0.50400001928E-02 0.  1.
</event>
<event>
 5   0  0.1298250E-07  0.3583783E+04  0.7818609E-02  0.8094216E-01
       -1   -1    0    0    0  501  0.00000000000E+00  0.00000000000E+00  0.25492638408E+04  0.25492638408E+04  0.50400001928E-02 0. -1.
        1   -1    0    0  501    0  0.00000000000E+00  0.00000000000E+00 -0.12595304305E+04  0.12595304305E+04  0.50400001928E-02 0.  1.
    10030    2    1    2    0    0  0.00000000000E+00  0.00000000000E+00  0.12897334103E+04  0.38087942713E+04  0.35837831312E+04 0.  0.
        1    1    3    3  502    0  0.35387296626E+03  0.20753564513E+03 -0.12089494965E+04  0.12766581396E+04  0.50400001928E-02 0.  1.
       -1    1    3    3    0  502 -0.35387296626E+03 -0.20753564513E+03  0.24986829069E+04  0.25321361317E+04  0.50400001928E-02 0. -1.
</event>
<event>
 5   0  0.4200635E-07  0.3600910E+04  0.7818609E-02  0.8090283E-01
       -2   -1    0    0    0  501  0.00000000000E+00  0.00000000000E+00  0.20547155947E+04  0.20547155947E+04  0.25500000920E-02 0. -1.
        2   -1    0    0  501    0  0.00000000000E+00  0.00000000000E+00 -0.15776577052E+04  0.15776577052E+04  0.25500000920E-02 0.  1.
    10030    2    1    2    0    0  0.00000000000E+00  0.00000000000E+00  0.47705788946E+03  0.36323732999E+04  0.36009098239E+04 0.  0.
        4    1    3    3  502    0 -0.77592821433E+02  0.13970621135E+04 -0.90443494646E+03  0.16660754426E+04  0.12699999809E+01 0.  1.
       -4    1    3    3    0  502  0.77592821433E+02 -0.13970621135E+04  0.13814928359E+04  0.19662978573E+04  0.12699999809E+01 0. -1.
</event>
<event>
 5   0  0.4115358E-07  0.3651089E+04  0.7818609E-02  0.8078888E-01
        2   -1    0    0  501    0  0.00000000000E+00  0.00000000000E+00  0.26631485468E+04  0.26631485468E+04  0.25500000920E-02 0.  1.
       -2   -1    0    0    0  501  0.00000000000E+00  0.00000000000E+00 -0.12513810448E+04  0.12513810448E+04  0.25500000920E-02 0. -1.
    10030    2    1    2    0    0  0.00000000000E+00  0.00000000000E+00  0.14117675020E+04  0.39145295916E+04  0.36510894873E+04 0.  0.
        3    1    3    3  502    0 -0.14636541056E+04 -0.79713277499E+03 -0.92787812332E+02  0.16692254461E+04  0.10100000352E+00 0. -1.
       -3    1    3    3    0  502  0.14636541056E+04  0.79713277499E+03  0.15045553143E+04  0.22453041455E+04  0.10100000352E+00 0.  1.
</event>
<event>
 5   0  0.4120440E-07  0.3612231E+04  0.7818609E-02  0.8087696E-01
       -2   -1    0    0    0  501  0.00000000000E+00  0.00000000000E+00  0.14571677565E+04  0.14571677566E+04  0.25500000920E-02 0. -1.
        2   -1    0    0  501    0  0.00000000000E+00  0.00000000000E+00 -0.22386259651E+04  0.22386259651E+04  0.25500000920E-02 0.  1.
    10030    2    1    2    0    0  0.00000000000E+00  0.00000000000E+00 -0.78145820850E+03  0.36957937216E+04  0.36122312081E+04 0.  0.
        2    1    3    3  502    0  0.43069970826E+03 -0.34460760641E+03  0.13688806474E+04  0.14758356507E+04  0.25500000920E-02 0. -1.
       -2    1    3    3    0  502 -0.43069970826E+03  0.34460760641E+03 -0.21503388559E+04  0.22199580709E+04  0.25500000920E-02 0.  1.
</event>
<event>
 5   0  0.3993751E-07  0.3648607E+04  0.7818609E-02  0.8079448E-01
        2   -1    0    0  501    0  0.00000000000E+00  0.00000000000E+00  0.27829911697E+04  0.27829911697E+04  0.25500000920E-02 0. -1.
       -2   -1    0    0    0  501  0.00000000000E+00  0.00000000000E+00 -0.11958653565E+04  0.11958653565E+04  0.25500000920E-02 0.  1.
    10030    2    1    2    0    0  0.00000000000E+00  0.00000000000E+00  0.15871258133E+04  0.39788565262E+04  0.36486067079E+04 0.  0.
        1    1    3    3  502    0 -0.60601890360E+03  0.10601826068E+04  0.22715358910E+04  0.25789768079E+04  0.50400001928E-02 0. -1.
       -1    1    3    3    0  502  0.60601890360E+03 -0.10601826068E+04 -0.68441007776E+03  0.13998797183E+04  0.50400001928E-02 0.  1.
</event>
<event>
 5   0  0.1298250E-07  0.3558911E+04  0.7818609E-02  0.8099969E-01
       -1   -1    0    0    0  501  0.00000000000E+00  0.00000000000E+00  0.14205797829E+04  0.14205797829E+04  0.50400001928E-02 0.  1.
        1   -1    0    0  501    0  0.00000000000E+00  0.00000000000E+00 -0.22289931671E+04  0.22289931671E+04  0.50400001928E-02 0. -1.
    10030    2    1    2    0    0  0.00000000000E+00  0.00000000000E+00 -0.80841338426E+03  0.36495729500E+04  0.35589114231E+04 0.  0.
        2    1    3    3  502    0  0.14166726386E+04  0.37596665765E+03 -0.14389457072E+04  0.20539905162E+04  0.25500000920E-02 0. -1.
       -2    1    3    3    0  502 -0.14166726386E+04 -0.37596665765E+03  0.63053232291E+03  0.15955824337E+04  0.25500000920E-02 0.  1.
</event>
<event>
 5   0  0.4120440E-07  0.3620790E+04  0.7818609E-02  0.8085746E-01
        2   -1    0    0  501    0  0.00000000000E+00  0.00000000000E+00  0.12247525780E+04  0.12247525780E+04  0.25500000920E-02 0.  1.
       -2   -1    0    0    0  501  0.00000000000E+00  0.00000000000E+00 -0.26760755347E+04  0.26760755347E+04  0.25500000920E-02 0. -1.
    10030    2    1    2    0    0  0.00000000000E+00  0.00000000000E+00 -0.14513229568E+04  0.39008281127E+04  0.36207901955E+04 0.  0.
        2    1    3    3  502    0  0.14629040927E+04 -0.56890562757E+03  0.24621082139E+03  0.15888240198E+04  0.25500000920E-02 0.  1.
       -2    1    3    3    0  502 -0.14629040927E+04  0.56890562757E+03 -0.16975337781E+04  0.23120040929E+04  0.25500000920E-02 0. -1.
</event>
<event>
 5   0  0.1361743E-07  0.3597414E+04  0.7818609E-02  0.8091084E-01
       -1   -1    0    0    0  501  0.00000000000E+00  0.00000000000E+00  0.13682880086E+04  0.13682880086E+04  0.50400001928E-02 0.  1.
        1   -1    0    0  501    0  0.00000000000E+00  0.00000000000E+00 -0.23645216498E+04  0.23645216498E+04  0.50400001928E-02 0. -1.
    10030    2    1    2    0    0  0.00000000000E+00  0.00000000000E+00 -0.99623364124E+03  0.37328096584E+04  0.35974138597E+04 0.  0.
        5    1    3    3  502    0 -0.17254344452E+04  0.27996811571E+03 -0.58106911976E+02  0.17489724623E+04  0.46999998093E+01 0.  1.
       -5    1    3    3    0  502  0.17254344452E+04 -0.27996811571E+03 -0.93812672926E+03  0.19838371961E+04  0.46999998093E+01 0. -1.
</event>
<event>
 5   0  0.1348226E-07  0.3600024E+04  0.7818609E-02  0.8090486E-01
        1   -1    0    0  501    0  0.00000000000E+00  0.00000000000E+00  0.23220129048E+04  0.23220129048E+04  0.50400001928E-02 0.  1.
       -1   -1    0    0    0  501  0.00000000000E+00  0.00000000000E+00 -0.13953597858E+04  0.13953597858E+04  0.50400001928E-02 0. -1.
    10030    2    1    2    0    0  0.00000000000E+00  0.00000000000E+00  0.92665311901E+03  0.37173726905E+04  0.36000241273E+04 0.  0.
        4    1    3    3  502    0  0.13567933828E+04 -0.11066991038E+04  0.32137873755E+02  0.17512012008E+04  0.12699999809E+01 0.  1.
       -4    1    3    3    0  502 -0.13567933828E+04  0.11066991038E+04  0.89451524526E+03  0.19661714897E+04  0.12699999809E+01 0. -1.
</event>
<event>
 5   0  0.1298250E-07  0.3586641E+04  0.7818609E-02  0.8093559E-01
       -1   -1    0    0    0  501  0.00000000000E+00  0.00000000000E+00  0.17196337439E+04  0.17196337439E+04  0.50400001928E-02 0.  1.
        1   -1    0    0  501    0  0.00000000000E+00  0.00000000000E+00 -0.18701646048E+04  0.18701646048E+04  0.50400001928E-02 0. -1.
    10030    2    1    2    0    0  0.00000000000E+00  0.00000000000E+00 -0.15053086092E+03  0.35897983487E+04  0.35866408580E+04 0.  0.
        2    1    3    3  502    0  0.63754696518E+03 -0.11299240294E+04 -0.13144198616E+04  0.18468605842E+04  0.25500000920E-02 0. -1.
       -2    1    3    3    0  502 -0.63754696518E+03  0.11299240294E+04  0.11638890007E+04  0.17429377645E+04  0.25500000920E-02 0.  1.
</event>
<event>
 5   0  0.1361743E-07  0.3503930E+04  0.7818609E-02  0.8112859E-01
       -1   -1    0    0    0  501  0.00000000000E+00  0.00000000000E+00  0.30528055847E+04  0.30528055847E+04  0.50400001928E-02 0.  1.
        1   -1    0    0  501    0  0.00000000000E+00  0.00000000000E+00 -0.10054298297E+04  0.10054298297E+04  0.50400001928E-02 0. -1.
    10030    2    1    2    0    0  0.00000000000E+00  0.00000000000E+00  0.20473757550E+04  0.40582354144E+04  0.35039302500E+04 0.  0.
        5    1    3    3  502    0 -0.99206098320E+03 -0.14426423572E+04  0.95082511419E+03  0.19923585152E+04  0.46999998093E+01 0. -1.
       -5    1    3    3    0  502  0.99206098320E+03  0.14426423572E+04  0.10965506408E+04  0.20658768993E+04  0.46999998093E+01 0.  1.
</event>
<event>
 5   0  0.4115358E-07  0.3704689E+04  0.7818609E-02  0.8066923E-01
       -2   -1    0    0    0  501  0.00000000000E+00  0.00000000000E+00  0.14937894510E+04  0.14937894510E+04  0.25500000920E-02 0. -1.
        2   -1    0    0  501    0  0.00000000000E+00  0.00000000000E+00 -0.22969636684E+04  0.22969636684E+04  0.25500000920E-02 0.  1.
    10030    2    1    2    0    0  0.00000000000E+00  0.00000000000E+00 -0.80317421744E+03  0.37907531194E+04  0.37046889733E+04 0.  0.
        3    1    3    3  502    0 -0.14732455677E+04 -0.17123828563E+03  0.73387909055E+03  0.16547971426E+04  0.10100000352E+00 0. -1.
       -3    1    3    3    0  502  0.14732455677E+04  0.17123828563E+03 -0.15370533080E+04  0.21359559769E+04  0.10100000352E+00 0.  1.
</event>
<event>
 5   0  0.4200635E-07  0.3542697E+04  0.7818609E-02  0.8103745E-01
       -2   -1    0    0    0  501  0.00000000000E+00  0.00000000000E+00  0.20509441262E+04  0.20509441262E+04  0.25500000920E-02 0. -1.
        2   -1    0    0  501    0  0.00000000000E+00  0.00000000000E+00 -0.15298686454E+04  0.15298686454E+04  0.25500000920E-02 0.  1.
    10030    2    1    2    0    0  0.00000000000E+00  0.00000000000E+00  0.52107548077E+03  0.35808127716E+04  0.35426967763E+04 0.  0.
        4    1    3    3  502    0  0.51419162072E+03  0.71154313077E+02  0.19723403156E+04  0.20395057961E+04  0.12699999809E+01 0. -1.
       -4    1    3    3    0  502 -0.51419162072E+03 -0.71154313077E+02 -0.14512648348E+04  0.15413069755E+04  0.12699999809E+01 0.  1.
</event>
<event>
 5   0  0.3880259E-07  0.3597078E+04  0.7818609E-02  0.8091161E-01
       -2   -1    0    0    0  501  0.00000000000E+00  0.00000000000E+00  0.10888525119E+04  0.10888525119E+04  0.25500000920E-02 0. -1.
        2   -1    0    0  501    0  0.00000000000E+00  0.00000000000E+00 -0.29707810874E+04  0.29707810874E+04  0.25500000920E-02 0.  1.
    10030    2    1    2    0    0  0.00000000000E+00  0.00000000000E+00 -0.18819285755E+04  0.40596335993E+04  0.35970779526E+04 0.  0.
        5    1    3    3  502    0 -0.15349958258E+04 -0.52605683265E+03 -0.18164581688E+04  0.24356704098E+04  0.46999998093E+01 0.  1.
       -5    1    3    3    0  502  0.15349958258E+04  0.52605683265E+03 -0.65470406674E+02  0.16239631894E+04  0.46999998093E+01 0. -1.
</event>
<event>
 5   0  0.1298250E-07  0.3611853E+04  0.7818609E-02  0.8087782E-01
       -1   -1    0    0    0  501  0.00000000000E+00  0.00000000000E+00  0.16956239268E+04  0.16956239268E+04  0.50400001928E-02 0.  1.
        1   -1    0    0  501    0  0.00000000000E+00  0.00000000000E+00 -0.19234041847E+04  0.19234041847E+04  0.50400001928E-02 0. -1.
    10030    2    1    2    0    0  0.00000000000E+00  0.00000000000E+00 -0.22778025790E+03  0.36190281116E+04  0.36118527969E+04 0.  0.
        2    1    3    3  502    0  0.10446116373E+03 -0.81581251052E+03  0.14970687590E+04  0.17081209139E+04  0.25500000920E-02 0.  1.
       -2    1    3    3    0  502 -0.10446116373E+03  0.81581251052E+03 -0.17248490169E+04  0.19109071977E+04  0.25500000920E-02 0. -1.
</event>
<event>
 5   0  0.1298250E-07  0.3601553E+04  0.7818609E-02  0.8090136E-01
       -1   -1    0    0    0  501  0.00000000000E+00  0.00000000000E+00  0.19393474148E+04  0.19393474148E+04  0.50400001928E-02 0. -1.
        1   -1    0    0  501    0  0.00000000000E+00  0.00000000000E+00 -0.16721068249E+04  0.16721068249E+04  0.50400001928E-02 0.  1.
    10030    2    1    2    0    0  0.00000000000E+00  0.00000000000E+00  0.26724058999E+03  0.36114542397E+04  0.36015530251E+04 0.  0.
        2    1    3    3  502    0  0.57646684482E+03  0.97840167079E+03 -0.12677955283E+04  0.17020250745E+04  0.25500000920E-02 0.  1.
       -2    1    3    3    0  502 -0.57646684482E+03 -0.97840167079E+03  0.15350361183E+04  0.19094291652E+04  0.25500000920E-02 0. -1.
</event>
<event>
 5   0  0.1348226E-07  0.3541914E+04  0.7818609E-02  0.8103928E-01
       -1   -1    0    0    0  501  0.00000000000E+00  0.00000000000E+00  0.16367579061E+04  0.16367579061E+04  0.50400001928E-02 0.  1.
        1   -1    0    0  501    0  0.00000000000E+00  0.00000000000E+00 -0.19161588915E+04  0.19161588915E+04  0.50400001928E-02 0. -1.
    10030    2    1    2    0    0  0.00000000000E+00  0.00000000000E+00 -0.27940098540E+03  0.35529167976E+04  0.35419137285E+04 0.  0.
        4    1    3    3  502    0  0.45926401461E+03  0.61518285868E+02  0.15748719959E+04  0.16416246072E+04  0.12699999809E+01 0.  1.
       -4    1    3    3    0  502 -0.45926401461E+03 -0.61518285868E+02 -0.18542729813E+04  0.19112921903E+04  0.12699999809E+01 0. -1.
</event>
<event>
 5   0  0.1370997E-07  0.3588780E+04  0.7818609E-02  0.8093067E-01
        1   -1    0    0  501    0  0.00000000000E+00  0.00000000000E+00  0.20674448709E+04  0.20674448709E+04  0.50400001928E-02 0. -1.
       -1   -1    0    0    0  501  0.00000000000E+00  0.00000000000E+00 -0.15573984131E+04  0.15573984131E+04  0.50400001928E-02 0.  1.
    10030    2    1    2    0    0  0.00000000000E+00  0.00000000000E+00  0.51004645782E+03  0.36248432839E+04  0.35887799381E+04 0.  0.
        3    1    3    3  502    0  0.43881246073E+02  0.16969780434E+04  0.84239538235E+03  0.18950699285E+04  0.10100000352E+00 0. -1.
       -3    1    3    3    0  502 -0.43881246073E+02 -0.16969780434E+04 -0.33234892453E+03  0.17297733555E+04  0.10100000352E+00 0.  1.
</event>
<event>
 5   0  0.4200635E-07  0.3581070E+04  0.7818609E-02  0.8094842E-01
       -2   -1    0    0    0  501  0.00000000000E+00  0.00000000000E+00  0.25142899610E+04  0.25142899610E+04  0.25500000920E-02 0. -1.
        2   -1    0    0  501    0  0.00000000000E+00  0.00000000000E+00 -0.12751176395E+04  0.12751176395E+04  0.25500000920E-02 0.  1.
    10030    2    1    2    0    0  0.00000000000E+00  0.00000000000E+00  0.12391723216E+04  0.37894076005E+04  0.35810699407E+04 0.  0.
        4    1    3    3  502    0 -0.12542086490E+03  0.31064024310E+03 -0.12416593427E+04  0.12860588207E+04  0.12699999809E+01 0.  1.
       -4    1    3    3    0  502  0.12542086490E+03 -0.31064024310E+03  0.24808316643E+04  0.25033487798E+04  0.12699999809E+01 0. -1.
</event>
<event>
 5   0  0.3880259E-07  0.3599823E+04  0.7818609E-02  0.8090532E-01
       -2   -1    0    0    0  501  0.00000000000E+00  0.00000000000E+00  0.18525641717E+04  0.18525641717E+04  0.25500000920E-02 0. -1.
        2   -1    0    0  501    0  0.00000000000E+00  0.00000000000E+00 -0.17487552246E+04  0.17487552246E+04  0.25500000920E-02 0.  1.
    10030    2    1    2    0    0  0.00000000000E+00  0.00000000000E+00  0.10380894703E+03  0.36013193963E+04  0.35998229257E+04 0.  0.
        5    1    3    3  502    0  0.73099566634E+03 -0.15881493334E+04  0.47996809827E+03  0.18129987409E+04  0.46999998093E+01 0. -1.
       -5    1    3    3    0  502 -0.73099566634E+03  0.15881493334E+04 -0.37615915125E+03  0.17883206554E+04  0.46999998093E+01 0.  1.
</event>
<event>
 5   0  0.1361743E-07  0.3594244E+04  0.7818609E-02  0.8091811E-01
       -1   -1    0    0    0  501  0.00000000000E+00  0.00000000000E+00  0.29122583845E+04  0.29122583845E+04  0.50400001928E-02 0. -1.
        1   -1    0    0  501    0  0.00000000000E+00  0.00000000000E+00 -0.11089837674E+04  0.11089837674E+04  0.50400001928E-02 0.  1.
    10030    2    1    2    0    0  0.00000000000E+00  0.00000000000E+00  0.18032746171E+04  0.40212421519E+04  0.35942438842E+04 0.  0.
        5    1    3    3  502    0  0.93397710852E+03  0.15137470581E+04  0.11888048688E+04  0.21393976959E+04  0.46999998093E+01 0. -1.
       -5    1    3    3    0  502 -0.93397710852E+03 -0.15137470581E+04  0.61446974834E+03  0.18818444560E+04  0.46999998093E+01 0.  1.
</event>
<event>
 5   0  0.3993751E-07  0.3600929E+04  0.7818609E-02  0.8090279E-01
        2   -1    0    0  501    0  0.00000000000E+00  0.00000000000E+00  0.18148942110E+04  0.18148942110E+04  0.25500000920E-02 0.  1.
       -2   -1    0    0    0  501  0.00000000000E+00  0.00000000000E+00 -0.17861493885E+04  0.17861493885E+04  0.25500000920E-02 0. -1.
    10030    2    1    2    0    0  0.00000000000E+00  0.00000000000E+00  0.28744822478E+02  0.36010435995E+04  0.36009288719E+04 0.  0.
        1    1    3    3  502    0  0.16637595611E+04 -0.48476247225E+03 -0.47409136071E+03  0.17966227066E+04  0.50400001928E-02 0. -1.
       -1    1    3    3    0  502 -0.16637595611E+04  0.48476247225E+03  0.50283618319E+03  0.18044208929E+04  0.50400001928E-02 0.  1.
</event>
<event>
 5   0  0.4120440E-07  0.3610204E+04  0.7818609E-02  0.8088158E-01
        2   -1    0    0  501    0  0.00000000000E+00  0.00000000000E+00  0.34134972387E+04  0.34134972387E+04  0.25500000920E-02 0. -1.
       -2   -1    0    0    0  501  0.00000000000E+00  0.00000000000E+00 -0.95456175753E+03  0.95456175753E+03  0.25500000920E-02 0.  1.
    10030    2    1    2    0    0  0.00000000000E+00  0.00000000000E+00  0.24589354812E+04  0.43680589963E+04  0.36102043840E+04 0.  0.
        2    1    3    3  502    0 -0.40324262357E+03 -0.65511012603E+02  0.33568285986E+04  0.33815964494E+04  0.25500000920E-02 0. -1.
       -2    1    3    3    0  502  0.40324262357E+03  0.65511012603E+02 -0.89789311736E+03  0.98646254690E+03  0.25500000920E-02 0.  1.
</event>
<event>
 5   0  0.4120440E-07  0.3644274E+04  0.7818609E-02  0.8080425E-01
       -2   -1    0    0    0  501  0.00000000000E+00  0.00000000000E+00  0.18709271629E+04  0.18709271629E+04  0.25500000920E-02 0.  1.
        2   -1    0    0  501    0  0.00000000000E+00  0.00000000000E+00 -0.17746187939E+04  0.17746187939E+04  0.25500000920E-02 0. -1.
    10030    2    1    2    0    0  0.00000000000E+00  0.00000000000E+00  0.96308368993E+02  0.36455459568E+04  0.36442735931E+04 0.  0.
        2    1    3    3  502    0  0.34552421074E+03 -0.17216196764E+04  0.53496689138E+03  0.18356336414E+04  0.25500000920E-02 0.  1.
       -2    1    3    3    0  502 -0.34552421074E+03  0.17216196764E+04 -0.43865852239E+03  0.18099123155E+04  0.25500000920E-02 0. -1.
</event>
<event>
 5   0  0.1348226E-07  0.3429326E+04  0.7818609E-02  0.8130746E-01
        1   -1    0    0  501    0  0.00000000000E+00  0.00000000000E+00  0.31747577061E+04  0.31747577061E+04  0.50400001928E-02 0. -1.
       -1   -1    0    0    0  501  0.00000000000E+00  0.00000000000E+00 -0.92607675132E+03  0.92607675134E+03  0.50400001928E-02 0.  1.
    10030    2    1    2    0    0  0.00000000000E+00  0.00000000000E+00  0.22486809547E+04  0.41008344574E+04  0.34293260578E+04 0.  0.
        4    1    3    3  502    0 -0.17122711918E+03  0.10571456002E+04  0.27256558476E+04  0.29284939746E+04  0.12699999809E+01 0. -1.
       -4    1    3    3    0  502  0.17122711918E+03 -0.10571456002E+04 -0.47697489288E+03  0.11723404829E+04  0.12699999809E+01 0.  1.
</event>
<event>
 5   0  0.1298250E-07  0.3601511E+04  0.7818609E-02  0.8090146E-01
       -1   -1    0    0    0  501  0.00000000000E+00  0.00000000000E+00  0.15309699281E+04  0.15309699282E+04  0.50400001928E-02 0.  1.
        1   -1    0    0  501    0  0.00000000000E+00  0.00000000000E+00 -0.21180823052E+04  0.21180823052E+04  0.50400001928E-02 0. -1.
    10030    2    1    2    0    0  0.00000000000E+00  0.00000000000E+00 -0.58711237708E+03  0.36490522334E+04  0.36015109688E+04 0.  0.
        1    1    3    3  502    0 -0.39921284100E+03 -0.92140914570E+03 -0.18080635484E+04  0.20682019973E+04  0.50400001928E-02 0. -1.
       -1    1    3    3    0  502  0.39921284100E+03  0.92140914570E+03  0.12209511714E+04  0.15808502361E+04  0.50400001928E-02 0.  1.
</event>
<event>
 5   0  0.3880259E-07  0.3580218E+04  0.7818609E-02  0.8095038E-01
       -2   -1    0    0    0  501  0.00000000000E+00  0.00000000000E+00  0.16125520567E+04  0.16125520567E+04  0.25500000920E-02 0.  1.
        2   -1    0    0  501    0  0.00000000000E+00  0.00000000000E+00 -0.19872165100E+04  0.19872165100E+04  0.25500000920E-02 0. -1.
    10030    2    1    2    0    0  0.00000000000E+00  0.00000000000E+00 -0.37466445328E+03  0.35997685667E+04  0.35802179097E+04 0.  0.
        5    1    3    3  502    0  0.17228826656E+04 -0.43122604467E+03 -0.41258101580E+03  0.18233282112E+04  0.46999998093E+01 0.  1.
       -5    1    3    3    0  502 -0.17228826656E+04  0.43122604467E+03  0.37916562521E+02  0.17764403555E+04  0.46999998093E+01 0. -1.
</event>
<event>
 5   0  0.1361743E-07  0.3561192E+04  0.7818609E-02  0.8099439E-01
        1   -1    0    0  501    0  0.00000000000E+00  0.00000000000E+00  0.25848506789E+04  0.25848506789E+04  0.50400001928E-02 0.  1.
       -1   -1    0    0    0  501  0.00000000000E+00  0.00000000000E+00 -0.12265785541E+04  0.12265785541E+04  0.50400001928E-02 0. -1.
    10030    2    1    2    0    0  0.00000000000E+00  0.00000000000E+00  0.13582721248E+04  0.38114292330E+04  0.35611921646E+04 0.  0.
        5    1    3    3  502    0  0.13175869677E+04  0.10487671543E+04  0.12981843098E+04  0.21263237180E+04  0.46999998093E+01 0. -1.
       -5    1    3    3    0  502 -0.13175869677E+04 -0.10487671543E+04  0.60087815017E+02  0.16851055150E+04  0.46999998093E+01 0.  1.
</event>
<event>
 5   0  0.4120440E-07  0.3588070E+04  0.7818609E-02  0.8093230E-01
       -2   -1    0    0    0  501  0.00000000000E+00  0.00000000000E+00  0.10370031978E+04  0.10370031978E+04  0.25500000920E-02 0. -1.
        2   -1    0    0  501    0  0.00000000000E+00  0.00000000000E+00 -0.31037148713E+04  0.31037148713E+04  0.25500000920E-02 0.  1.
    10030    2    1    2    0    0  0.00000000000E+00  0.00000000000E+00 -0.20667116735E+04  0.41407180692E+04  0.35880703710E+04 0.  0.
        2    1    3    3  502    0  0.59659943229E+03 -0.84035723805E+02  0.91676295039E+03  0.10970174077E+04  0.25500000920E-02 0. -1.
       -2    1    3    3    0  502 -0.59659943229E+03  0.84035723805E+02 -0.29834746239E+04  0.30437006615E+04  0.25500000920E-02 0.  1.
</event>
<event>
 5   0  0.4200635E-07  0.3594080E+04  0.7818609E-02  0.8091849E-01
       -2   -1    0    0    0  501  0.00000000000E+00  0.00000000000E+00  0.12977972191E+04  0.12977972191E+04  0.25500000920E-02 0. -1.
        2   -1    0    0  501    0  0.00000000000E+00  0.00000000000E+00 -0.24883341154E+04  0.24883341154E+04  0.25500000920E-02 0.  1.
    10030    2    1    2    0    0  0.00000000000E+00  0.00000000000E+00 -0.11905368963E+04  0.37861313345E+04  0.35940801856E+04 0.  0.
        4    1    3    3  502    0  0.12923152179E+04  0.90991669944E+03  0.30560328916E+03  0.16097894289E+04  0.12699999809E+01 0.  1.
       -4    1    3    3    0  502 -0.12923152179E+04 -0.90991669944E+03 -0.14961401855E+04  0.21763419055E+04  0.12699999809E+01 0. -1.
</event>
<event>
 5   0  0.1348226E-07  0.3607742E+04  0.7818609E-02  0.8088721E-01
        1   -1    0    0  501    0  0.00000000000E+00  0.00000000000E+00  0.21595686512E+04  0.21595686513E+04  0.50400001928E-02 0.  1.
       -1   -1    0    0    0  501  0.00000000000E+00  0.00000000000E+00 -0.15067595330E+04  0.15067595330E+04  0.50400001928E-02 0. -1.
    10030    2    1    2    0    0  0.00000000000E+00  0.00000000000E+00  0.65280911824E+03  0.36663281843E+04  0.36077420376E+04 0.  0.
        4    1    3    3  502    0  0.11500977162E+04  0.23156845608E+03  0.17189117205E+04  0.20811073548E+04  0.12699999809E+01 0.  1.
       -4    1    3    3    0  502 -0.11500977162E+04 -0.23156845608E+03 -0.10661026023E+04  0.15852208294E+04  0.12699999809E+01 0. -1.
</event>
<event>
 5   0  0.3880259E-07  0.3612522E+04  0.7818609E-02  0.8087629E-01
        2   -1    0    0  501    0  0.00000000000E+00  0.00000000000E+00  0.18785182703E+04  0.18785182703E+04  0.25500000920E-02 0.  1.
       -2   -1    0    0    0  501  0.00000000000E+00  0.00000000000E+00 -0.17367830701E+04  0.17367830701E+04  0.25500000920E-02 0. -1.
    10030    2    1    2    0    0  0.00000000000E+00  0.00000000000E+00  0.14173520019E+03  0.36153013405E+04  0.36125219605E+04 0.  0.
        5    1    3    3  502    0 -0.33889737377E+02  0.85796269910E+03 -0.15194768401E+04  0.17453023993E+04  0.46999998093E+01 0. -1.
       -5    1    3    3    0  502  0.33889737377E+02 -0.85796269910E+03  0.16612120403E+04  0.18699989412E+04  0.46999998093E+01 0.  1.
</event>
<event>
 5   0  0.4115358E-07  0.3578482E+04  0.7818609E-02  0.8095439E-01
       -2   -1    0    0    0  501  0.00000000000E+00  0.00000000000E+00  0.23220915334E+04  0.23220915334E+04  0.25500000920E-02 0. -1.
        2   -1    0    0  501    0  0.00000000000E+00  0.00000000000E+00 -0.13786634571E+04  0.13786634571E+04  0.25500000920E-02 0.  1.
    10030    2    1    2    0    0  0.00000000000E+00  0.00000000000E+00  0.94342807627E+03  0.37007549905E+04  0.35784816563E+04 0.  0.
        3    1    3    3  502    0  0.95070040353E+03 -0.24885625535E+03 -0.10745751854E+04  0.14561842371E+04  0.10100000352E+00 0.  1.
       -3    1    3    3    0  502 -0.95070040353E+03  0.24885625535E+03  0.20180032616E+04  0.22445707535E+04  0.10100000352E+00 0. -1.
</event>
<event>
 5   0  0.4200635E-07  0.3600287E+04  0.7818609E-02  0.8090426E-01
        2   -1    0    0  501    0  0.00000000000E+00  0.00000000000E+00  0.17635003913E+04  0.17635003913E+04  0.25500000920E-02 0.  1.
       -2   -1    0    0    0  501  0.00000000000E+00  0.00000000000E+00 -0.18375477806E+04  0.18375477806E+04  0.25500000920E-02 0. -1.
    10030    2    1    2    0    0  0.00000000000E+00  0.00000000000E+00 -0.74047389321E+02  0.36010481719E+04  0.36002867831E+04 0.  0.
        4    1    3    3  502    0  0.91328655221E+03  0.82875292257E+03  0.12745853474E+04  0.17735538204E+04  0.12699999809E+01 0.  1.
       -4    1    3    3    0  502 -0.91328655221E+03 -0.82875292257E+03 -0.13486327367E+04  0.18274943515E+04  0.12699999809E+01 0. -1.
</event>
<event>
 5   0  0.1298250E-07  0.3611913E+04  0.7818609E-02  0.8087768E-01
       -1   -1    0    0    0  501  0.00000000000E+00  0.00000000000E+00  0.12949958469E+04  0.12949958469E+04  0.50400001928E-02 0.  1.
        1   -1    0    0  501    0  0.00000000000E+00  0.00000000000E+00 -0.25185252323E+04  0.25185252324E+04  0.50400001928E-02 0. -1.
    10030    2    1    2    0    0  0.00000000000E+00  0.00000000000E+00 -0.12235293854E+04  0.38135210793E+04  0.36119134631E+04 0.  0.
        2    1    3    3  502    0  0.11163939872E+04  0.48592262498E+03 -0.20200143137E+04  0.23585830830E+04  0.25500000920E-02 0. -1.
       -2    1    3    3    0  502 -0.11163939872E+04 -0.48592262498E+03  0.79648492826E+03  0.14549379963E+04  0.25500000920E-02 0.  1.
</event>
<event>
 5   0  0.3880259E-07  0.3616654E+04  0.7818609E-02  0.8086688E-01
        2   -1    0    0  501    0  0.00000000000E+00  0.00000000000E+00  0.28052331414E+04  0.28052331414E+04  0.25500000920E-02 0. -1.
       -2   -1    0    0    0  501  0.00000000000E+00  0.00000000000E+00 -0.11656949693E+04  0.11656949693E+04  0.25500000920E-02 0.  1.
    10030    2    1    2    0    0  0.00000000000E+00  0.00000000000E+00  0.16395381721E+04  0.39709281107E+04  0.36166537908E+04 0.  0.
        5    1    3    3  502    0  0.50274242450E+03 -0.15789655025E+04  0.24874395782E+02  0.16572636571E+04  0.46999998093E+01 0.  1.
       -5    1    3    3    0  502 -0.50274242450E+03  0.15789655025E+04  0.16146637764E+04  0.23136644537E+04  0.46999998093E+01 0. -1.
</event>
<event>
 5   0  0.1361743E-07  0.3587209E+04  0.7818609E-02  0.8093428E-01
       -1   -1    0    0    0  501  0.00000000000E+00  0.00000000000E+00  0.15530572847E+04  0.15530572847E+04  0.50400001928E-02 0.  1.
        1   -1    0    0  501    0  0.00000000000E+00  0.00000000000E+00 -0.20714088764E+04  0.20714088764E+04  0.50400001928E-02 0. -1.
    10030    2    1    2    0    0  0.00000000000E+00  0.00000000000E+00 -0.51835159169E+03  0.36244661611E+04  0.35872087450E+04 0.  0.
        5    1    3    3  502    0  0.17112107829E+04 -0.50625062973E+03 -0.44122067129E+03  0.18382681563E+04  0.46999998093E+01 0.  1.
       -5    1    3    3    0  502 -0.17112107829E+04  0.50625062973E+03 -0.77130920404E+02  0.17861980048E+04  0.46999998093E+01 0. -1.
</event>
<event>
 5   0  0.4200635E-07  0.3605626E+04  0.7818609E-02  0.8089204E-01
       -2   -1    0    0    0  501  0.00000000000E+00  0.00000000000E+00  0.28545359747E+04  0.28545359747E+04  0.25500000920E-02 0.  1.
        2   -1    0    0  501    0  0.00000000000E+00  0.00000000000E+00 -0.11385857630E+04  0.11385857630E+04  0.25500000920E-02 0. -1.
    10030    2    1    2    0    0  0.00000000000E+00  0.00000000000E+00  0.17159502117E+04  0.39931217377E+04  0.36056256161E+04 0.  0.
        4    1    3    3  502    0  0.11770676938E+04  0.51623452282E+03 -0.54206392119E+03  0.13949270038E+04  0.12699999809E+01 0. -1.
       -4    1    3    3    0  502 -0.11770676938E+04 -0.51623452282E+03  0.22580141329E+04  0.25981947340E+04  0.12699999809E+01 0.  1.
</event>
<event>
 5   0  0.1298250E-07  0.3589854E+04  0.7818609E-02  0.8092820E-01
       -1   -1    0    0    0  501  0.00000000000E+00  0.00000000000E+00  0.13878860360E+04  0.13878860360E+04  0.50400001928E-02 0. -1.
        1   -1    0    0  501    0  0.00000000000E+00  0.00000000000E+00 -0.23213449569E+04  0.23213449569E+04  0.50400001928E-02 0.  1.
    10030    2    1    2    0    0  0.00000000000E+00  0.00000000000E+00 -0.93345892091E+03  0.37092309929E+04  0.35898536184E+04 0.  0.
        1    1    3    3  502    0 -0.10189008728E+04  0.42247296174E+03 -0.19298405737E+04  0.22228196130E+04  0.50400001928E-02 0.  1.
       -1    1    3    3    0  502  0.10189008728E+04 -0.42247296174E+03  0.99638165284E+03  0.14864113798E+04  0.50400001928E-02 0. -1.
</event>
<event>
 5   0  0.3880259E-07  0.3554307E+04  0.7818609E-02  0.8101039E-01
       -2   -1    0    0    0  501  0.00000000000E+00  0.00000000000E+00  0.10994934256E+04  0.10994934256E+04  0.25500000920E-02 0. -1.
        2   -1    0    0  501    0  0.00000000000E+00  0.00000000000E+00 -0.28724808395E+04  0.28724808395E+04  0.25500000920E-02 0.  1.
    10030    2    1    2    0    0  0.00000000000E+00  0.00000000000E+00 -0.17729874139E+04  0.39719742652E+04  0.35543065699E+04 0.  0.
        5    1    3    3  502    0  0.14141197119E+04 -0.10606502828E+04 -0.68183937656E+03  0.18946346897E+04  0.46999998093E+01 0. -1.
       -5    1    3    3    0  502 -0.14141197119E+04  0.10606502828E+04 -0.10911480374E+04  0.20773395754E+04  0.46999998093E+01 0.  1.
</event>
<event>
 5   0  0.1361743E-07  0.3602047E+04  0.7818609E-02  0.8090023E-01
       -1   -1    0    0    0  501  0.00000000000E+00  0.00000000000E+00  0.22355775526E+04  0.22355775526E+04  0.50400001928E-02 0. -1.
        1   -1    0    0  501    0  0.00000000000E+00  0.00000000000E+00 -0.14509383810E+04  0.14509383810E+04  0.50400001928E-02 0.  1.
    10030    2    1    2    0    0  0.00000000000E+00  0.00000000000E+00  0.78463917160E+03  0.36865159337E+04  0.36020467931E+04 0.  0.
        5    1    3    3  502    0  0.97526890774E+03  0.13660126797E+04 -0.27608288124E+03  0.17009949826E+04  0.46999998093E+01 0.  1.
       -5    1    3    3    0  502 -0.97526890774E+03 -0.13660126797E+04  0.10607220528E+04  0.19855209510E+04  0.46999998093E+01 0. -1.
</event>
<event>
 5   0  0.1361743E-07  0.3612936E+04  0.7818609E-02  0.8087535E-01
       -1   -1    0    0    0  501  0.00000000000E+00  0.00000000000E+00  0.21780771552E+04  0.21780771552E+04  0.50400001928E-02 0.  1.
        1   -1    0    0  501    0  0.00000000000E+00  0.00000000000E+00 -0.14982602345E+04  0.14982602345E+04  0.50400001928E-02 0. -1.
    10030    2    1    2    0    0  0.00000000000E+00  0.00000000000E+00  0.67981692069E+03  0.36763373897E+04  0.36129358640E+04 0.  0.
        5    1    3    3  502    0 -0.16539881480E+03 -0.11515447116E+04 -0.10663318693E+04  0.15781310897E+04  0.46999998093E+01 0. -1.
       -5    1    3    3    0  502  0.16539881480E+03  0.11515447116E+04  0.17461487899E+04  0.20982063000E+04  0.46999998093E+01 0.  1.
</event>
<event>
 5   0  0.3880259E-07  0.3895578E+04  0.7818609E-02  0.8025950E-01
       -2   -1    0    0    0  501  0.00000000000E+00  0.00000000000E+00  0.19984724850E+04  0.19984724850E+04  0.25500000920E-02 0.  1.
        2   -1    0    0  501    0  0.00000000000E+00  0.00000000000E+00 -0.18983904420E+04  0.18983904420E+04  0.25500000920E-02 0. -1.
    10030    2    1    2    0    0  0.00000000000E+00  0.00000000000E+00  0.10008204305E+03  0.38968629270E+04  0.38955775254E+04 0.  0.
        5    1    3    3  502    0 -0.13298693729E+04 -0.10448200839E+03 -0.13697193483E+04  0.19119681541E+04  0.46999998093E+01 0. -1.
       -5    1    3    3    0  502  0.13298693729E+04  0.10448200839E+03  0.14698013914E+04  0.19848947728E+04  0.46999998093E+01 0.  1.
</event>
<event>
 5   0  0.1348226E-07  0.3620864E+04  0.7818609E-02  0.8085729E-01
        1   -1    0    0  501    0  0.00000000000E+00  0.00000000000E+00  0.31286247999E+04  0.31286247999E+04  0.50400001928E-02 0. -1.
       -1   -1    0    0    0  501  0.00000000000E+00  0.00000000000E+00 -0.10476372839E+04  0.10476372839E+04  0.50400001928E-02 0.  1.
    10030    2    1    2    0    0  0.00000000000E+00  0.00000000000E+00  0.20809875160E+04  0.41762620838E+04  0.36208639785E+04 0.  0.
        4    1    3    3  502    0 -0.27883865662E+02  0.17984266000E+04  0.80258626891E+03  0.19695842398E+04  0.12699999809E+01 0. -1.
       -4    1    3    3    0  502  0.27883865662E+02 -0.17984266000E+04  0.12784012471E+04  0.22066778440E+04  0.12699999809E+01 0.  1.
</event>
<event>
 5   0  0.1348226E-07  0.3605783E+04  0.7818609E-02  0.8089168E-01
       -1   -1    0    0    0  501  0.00000000000E+00  0.00000000000E+00  0.12232149789E+04  0.12232149789E+04  0.50400001928E-02 0.  1.
        1   -1    0    0  501    0  0.00000000000E+00  0.00000000000E+00 -0.26572748025E+04  0.26572748025E+04  0.50400001928E-02 0. -1.
    10030    2    1    2    0    0  0.00000000000E+00  0.00000000000E+00 -0.14340598236E+04  0.38804897814E+04  0.36057833221E+04 0.  0.
        4    1    3    3  502    0  0.90983421213E+03  0.15561595740E+04 -0.68324018552E+03  0.19277576812E+04  0.12699999809E+01 0.  1.
       -4    1    3    3    0  502 -0.90983421213E+03 -0.15561595740E+04 -0.75081963809E+03  0.19527321002E+04  0.12699999809E+01 0. -1.
</event>
<event>
 5   0  0.1361743E-07  0.3553448E+04  0.7818609E-02  0.8101239E-01
        1   -1    0    0  501    0  0.00000000000E+00  0.00000000000E+00  0.20495075450E+04  0.20495075450E+04  0.50400001928E-02 0. -1.
       -1   -1    0    0    0  501  0.00000000000E+00  0.00000000000E+00 -0.15402469511E+04  0.15402469511E+04  0.50400001928E-02 0.  1.
    10030    2    1    2    0    0  0.00000000000E+00  0.00000000000E+00  0.50926059385E+03  0.35897544961E+04  0.35534477610E+04 0.  0.
        5    1    3    3  502    0  0.59339612217E+03 -0.44147277617E+03  0.18865951896E+04  0.20263959804E+04  0.46999998093E+01 0. -1.
       -5    1    3    3    0  502 -0.59339612217E+03  0.44147277617E+03 -0.13773345958E+04  0.15633585157E+04  0.46999998093E+01 0.  1.
</event>
<event>
 5   0  0.1348226E-07  0.3581014E+04  0.7818609E-02  0.8094855E-01
        1   -1    0    0  501    0  0.00000000000E+00  0.00000000000E+00  0.28065916046E+04  0.28065916047E+04  0.50400001928E-02 0.  1.
       -1   -1    0    0    0  501  0.00000000000E+00  0.00000000000E+00 -0.11422805593E+04  0.11422805594E+04  0.50400001928E-02 0. -1.
    10030    2    1    2    0    0  0.00000000000E+00  0.00000000000E+00  0.16643110453E+04  0.39488721640E+04  0.35810138386E+04 0.  0.
        4    1    3    3  502    0  0.12319428073E+03 -0.11015812115E+04 -0.71843977477E+03  0.13209145768E+04  0.12699999809E+01 0. -1.
       -4    1    3    3    0  502 -0.12319428073E+03  0.11015812115E+04  0.23827508201E+04  0.26279575872E+04  0.12699999809E+01 0.  1.
</event>
<event>
 5   0  0.1348226E-07  0.3437457E+04  0.7818609E-02  0.8128774E-01
       -1   -1    0    0    0  501  0.00000000000E+00  0.00000000000E+00  0.16161880358E+04  0.16161880358E+04  0.50400001928E-02 0. -1.
        1   -1    0    0  501    0  0.00000000000E+00  0.00000000000E+00 -0.18277750674E+04  0.18277750674E+04  0.50400001928E-02 0.  1.
    10030    2    1    2    0    0  0.00000000000E+00  0.00000000000E+00 -0.21158703159E+03  0.34439631033E+04  0.34374573139E+04 0.  0.
        4    1    3    3  502    0  0.11916628690E+04  0.93445611127E+03  0.70861513840E+03  0.16719466632E+04  0.12699999809E+01 0. -1.
       -4    1    3    3    0  502 -0.11916628690E+04 -0.93445611127E+03 -0.92020216999E+03  0.17720164401E+04  0.12699999809E+01 0.  1.
</event>
<event>
 5   0  0.1348226E-07  0.3600546E+04  0.7818609E-02  0.8090367E-01
        1   -1    0    0  501    0  0.00000000000E+00  0.00000000000E+00  0.26869545647E+04  0.26869545647E+04  0.50400001928E-02 0. -1.
       -1   -1    0    0    0  501  0.00000000000E+00  0.00000000000E+00 -0.12061918759E+04  0.12061918759E+04  0.50400001928E-02 0.  1.
    10030    2    1    2    0    0  0.00000000000E+00  0.00000000000E+00  0.14807626888E+04  0.38931464407E+04  0.36005459402E+04 0.  0.
        4    1    3    3  502    0  0.31845158409E+03 -0.14942127267E+04  0.17700835010E+04  0.23382216100E+04  0.12699999809E+01 0. -1.
       -4    1    3    3    0  502 -0.31845158409E+03  0.14942127267E+04 -0.28932081214E+03  0.15549248307E+04  0.12699999809E+01 0.  1.
</event>
<event>
 5   0  0.1298250E-07  0.3601283E+04  0.7818609E-02  0.8090198E-01
       -1   -1    0    0    0  501  0.00000000000E+00  0.00000000000E+00  0.14628700113E+04  0.14628700113E+04  0.50400001928E-02 0.  1.
        1   -1    0    0  501    0  0.00000000000E+00  0.00000000000E+00 -0.22164033311E+04  0.22164033311E+04  0.50400001928E-02 0. -1.
    10030    2    1    2    0    0  0.00000000000E+00  0.00000000000E+00 -0.75353331980E+03  0.36792733424E+04  0.36012830858E+04 0.  0.
        1    1    3    3  502    0 -0.69710631657E+03  0.54675485784E+03 -0.19783287080E+04  0.21676444746E+04  0.50400001928E-02 0. -1.
       -1    1    3    3    0  502  0.69710631657E+03 -0.54675485784E+03  0.12247953882E+04  0.15116288679E+04  0.50400001928E-02 0.  1.
</event>
<event>
 5   0  0.4120440E-07  0.3587305E+04  0.7818609E-02  0.8093406E-01
       -2   -1    0    0    0  501  0.00000000000E+00  0.00000000000E+00  0.23551362010E+04  0.23551362010E+04  0.25500000920E-02 0.  1.
        2   -1    0    0  501    0  0.00000000000E+00  0.00000000000E+00 -0.13660308019E+04  0.13660308019E+04  0.25500000920E-02 0. -1.
    10030    2    1    2    0    0  0.00000000000E+00  0.00000000000E+00  0.98910539907E+03  0.37211670029E+04  0.35873046111E+04 0.  0.
        2    1    3    3  502    0 -0.13587904192E+04 -0.11651340143E+04  0.61436116232E+03  0.18924292093E+04  0.25500000920E-02 0.  1.
       -2    1    3    3    0  502  0.13587904192E+04  0.11651340143E+04  0.37474423675E+03  0.18287377936E+04  0.25500000920E-02 0. -1.
</event>
<event>
 5   0  0.1298250E-07  0.3621730E+04  0.7818609E-02  0.8085532E-01
       -1   -1    0    0    0  501  0.00000000000E+00  0.00000000000E+00  0.11558084762E+04  0.11558084762E+04  0.50400001928E-02 0. -1.
        1   -1    0    0  501    0  0.00000000000E+00  0.00000000000E+00 -0.28371763970E+04  0.28371763970E+04  0.50400001928E-02 0.  1.
    10030    2    1    2    0    0  0.00000000000E+00  0.00000000000E+00 -0.16813679208E+04  0.39929848732E+04  0.36217302650E+04 0.  0.
        1    1    3    3  502    0  0.15230462360E+04  0.36933557508E+02 -0.19199023313E+04  0.24509302083E+04  0.50400001928E-02 0.  1.
       -1    1    3    3    0  502 -0.15230462360E+04 -0.36933557508E+02  0.23853441046E+03  0.15420546649E+04  0.50400001928E-02 0. -1.
</event>
<event>
 5   0  0.1298250E-07  0.3616588E+04  0.7818609E-02  0.8086703E-01
        1   -1    0    0  501    0  0.00000000000E+00  0.00000000000E+00  0.13866520145E+04  0.13866520146E+04  0.50400001928E-02 0.  1.
       -1   -1    0    0    0  501  0.00000000000E+00  0.00000000000E+00 -0.23581448737E+04  0.23581448737E+04  0.50400001928E-02 0. -1.
    10030    2    1    2    0    0  0.00000000000E+00  0.00000000000E+00 -0.97149285913E+03  0.37447968882E+04  0.36165875295E+04 0.  0.
        1    1    3    3  502    0 -0.93694674038E+03 -0.15448250457E+04 -0.40844935945E+03  0.18523456739E+04  0.50400001928E-02 0.  1.
       -1    1    3    3    0  502  0.93694674038E+03  0.15448250457E+04 -0.56304349968E+03  0.18924512144E+04  0.50400001928E-02 0. -1.
</event>
<event>
 5   0  0.3880259E-07  0.3598328E+04  0.7818609E-02  0.8090875E-01
        2   -1    0    0  501    0  0.00000000000E+00  0.00000000000E+00  0.19196080746E+04  0.19196080746E+04  0.25500000920E-02 0.  1.
       -2   -1    0    0    0  501  0.00000000000E+00  0.00000000000E+00 -0.16862768528E+04  0.16862768528E+04  0.25500000920E-02 0. -1.
    10030    2    1    2    0    0  0.00000000000E+00  0.00000000000E+00  0.23333122176E+03  0.36058849274E+04  0.35983277575E+04 0.  0.
        5    1    3    3  502    0  0.13637181188E+04 -0.41489331341E+03  0.12167438884E+04  0.18741268231E+04  0.46999998093E+01 0.  1.
       -5    1    3    3    0  502 -0.13637181188E+04  0.41489331341E+03 -0.98341266661E+03  0.17317581043E+04  0.46999998093E+01 0. -1.
</event>
<event>
 5   0  0.3880259E-07  0.3608281E+04  0.7818609E-02  0.8088597E-01
        2   -1    0    0  501    0  0.00000000000E+00  0.00000000000E+00  0.27088554001E+04  0.27088554001E+04  0.25500000920E-02 0.  1.
       -2   -1    0    0    0  501  0.00000000000E+00  0.00000000000E+00 -0.12015861058E+04  0.12015861058E+04  0.25500000920E-02 0. -1.
    10030    2    1    2    0    0  0.00000000000E+00  0.00000000000E+00  0.15072692944E+04  0.39104415059E+04  0.36082810375E+04 0.  0.
        5    1    3    3  502    0 -0.73520184006E+03 -0.73722599919E+03  0.23504071557E+04  0.25706924762E+04  0.46999998093E+01 0.  1.
       -5    1    3    3    0  502  0.73520184006E+03  0.73722599919E+03 -0.84313786132E+03  0.13397490297E+04  0.46999998093E+01 0. -1.
</event>
<event>
 5   0  0.1370997E-07  0.3635679E+04  0.7818609E-02  0.8082368E-01
        1   -1    0    0  501    0  0.00000000000E+00  0.00000000000E+00  0.15049986438E+04  0.15049986438E+04  0.50400001928E-02 0.  1.
       -1   -1    0    0    0  501  0.00000000000E+00  0.00000000000E+00 -0.21957098182E+04  0.21957098182E+04  0.50400001928E-02 0. -1.
    10030    2    1    2    0    0  0.00000000000E+00  0.00000000000E+00 -0.69071117448E+03  0.37007084620E+04  0.36356789179E+04 0.  0.
        3    1    3    3  502    0  0.11684664937E+04 -0.52152568174E+03  0.96895516510E+03  0.16050473843E+04  0.10100000352E+00 0.  1.
       -3    1    3    3    0  502 -0.11684664937E+04  0.52152568174E+03 -0.16596663396E+04  0.20956610777E+04  0.10100000352E+00 0. -1.
</event>
<event>
 5   0  0.1348226E-07  0.3605352E+04  0.7818609E-02  0.8089267E-01
        1   -1    0    0  501    0  0.00000000000E+00  0.00000000000E+00  0.20451762386E+04  0.20451762386E+04  0.50400001928E-02 0.  1.
       -1   -1    0    0    0  501  0.00000000000E+00  0.00000000000E+00 -0.15889297878E+04  0.15889297878E+04  0.50400001928E-02 0. -1.
    10030    2    1    2    0    0  0.00000000000E+00  0.00000000000E+00  0.45624645078E+03  0.36341060264E+04  0.36053523804E+04 0.  0.
        4    1    3    3  502    0 -0.16736588667E+04  0.53962054887E+03  0.62791663073E+03  0.18672453634E+04  0.12699999809E+01 0.  1.
       -4    1    3    3    0  502  0.16736588667E+04 -0.53962054887E+03 -0.17167017994E+03  0.17668606630E+04  0.12699999809E+01 0. -1.
</event>
<event>
 5   0  0.1348226E-07  0.3586176E+04  0.7818609E-02  0.8093666E-01
        1   -1    0    0  501    0  0.00000000000E+00  0.00000000000E+00  0.26282635684E+04  0.26282635684E+04  0.50400001928E-02 0. -1.
       -1   -1    0    0    0  501  0.00000000000E+00  0.00000000000E+00 -0.12233036990E+04  0.12233036990E+04  0.50400001928E-02 0.  1.
    10030    2    1    2    0    0  0.00000000000E+00  0.00000000000E+00  0.14049598694E+04  0.38515672673E+04  0.35861759829E+04 0.  0.
        4    1    3    3  502    0  0.17675397378E+04 -0.25407058781E+03  0.52792754395E+03  0.18621110850E+04  0.12699999809E+01 0. -1.
       -4    1    3    3    0  502 -0.17675397378E+04  0.25407058781E+03  0.87703232545E+03  0.19894561823E+04  0.12699999809E+01 0.  1.
</event>
<event>
 5   0  0.4200635E-07  0.3517363E+04  0.7818609E-02  0.8109687E-01
        2   -1    0    0  501    0  0.00000000000E+00  0.00000000000E+00  0.25259130633E+04  0.25259130633E+04  0.25500000920E-02 0. -1.
       -2   -1    0    0    0  501  0.00000000000E+00  0.00000000000E+00 -0.12244922888E+04  0.12244922888E+04  0.25500000920E-02 0.  1.
    10030    2    1    2    0    0  0.00000000000E+00  0.00000000000E+00  0.13014207745E+04  0.37504053522E+04  0.35173632558E+04 0.  0.
        4    1    3    3  502    0  0.16980802961E+04  0.18587882302E+03  0.20475090465E+03  0.17204511544E+04  0.12699999809E+01 0. -1.
       -4    1    3    3    0  502 -0.16980802961E+04 -0.18587882302E+03  0.10966698699E+04  0.20299541978E+04  0.12699999809E+01 0.  1.
</event>
<event>
 5   0  0.1370997E-07  0.3584786E+04  0.7818609E-02  0.8093985E-01
        1   -1    0    0  501    0  0.00000000000E+00  0.00000000000E+00  0.15040537345E+04  0.15040537345E+04  0.50400001928E-02 0.  1.
       -1   -1    0    0    0  501  0.00000000000E+00  0.00000000000E+00 -0.21360097415E+04  0.21360097415E+04  0.50400001928E-02 0. -1.
    10030    2    1    2    0    0  0.00000000000E+00  0.00000000000E+00 -0.63195600696E+03  0.36400634760E+04  0.35847864253E+04 0.  0.
        3    1    3    3  502    0  0.16675812130E+04  0.55045740724E+03 -0.68045994535E+03  0.18833099072E+04  0.10100000352E+00 0. -1.
       -3    1    3    3    0  502 -0.16675812130E+04 -0.55045740724E+03  0.48503938386E+02  0.17567535688E+04  0.10100000352E+00 0.  1.
</event>
<event>
 5   0  0.4120440E-07  0.3614085E+04  0.7818609E-02  0.8087273E-01
       -2   -1    0    0    0  501  0.00000000000E+00  0.00000000000E+00  0.17200375802E+04  0.17200375802E+04  0.25500000920E-02 0.  1.
        2   -1    0    0  501    0  0.00000000000E+00  0.00000000000E+00 -0.18984485774E+04  0.18984485774E+04  0.25500000920E-02 0. -1.
    10030    2    1    2    0    0  0.00000000000E+00  0.00000000000E+00 -0.17841099721E+03  0.36184861576E+04  0.36140851662E+04 0.  0.
        2    1    3    3  502    0 -0.75500418824E+03 -0.14280856425E+04 -0.90009480690E+03  0.18492243206E+04  0.25500000920E-02 0. -1.
       -2    1    3    3    0  502  0.75500418824E+03  0.14280856425E+04  0.72168380970E+03  0.17692618370E+04  0.25500000920E-02 0.  1.
</event>
<event>
 5   0  0.3880259E-07  0.3621390E+04  0.7818609E-02  0.8085610E-01
       -2   -1    0    0    0  501  0.00000000000E+00  0.00000000000E+00  0.19890799198E+04  0.19890799198E+04  0.25500000920E-02 0. -1.
        2   -1    0    0  501    0  0.00000000000E+00  0.00000000000E+00 -0.16483081542E+04  0.16483081542E+04  0.25500000920E-02 0.  1.
    10030    2    1    2    0    0  0.00000000000E+00  0.00000000000E+00  0.34077176561E+03  0.36373880740E+04  0.36213901481E+04 0.  0.
        5    1    3    3  502    0  0.22096322235E+02  0.98676174315E+03  0.16951194798E+04  0.19615399884E+04  0.46999998093E+01 0. -1.
       -5    1    3    3    0  502 -0.22096322235E+02 -0.98676174315E+03 -0.13543477142E+04  0.16758480856E+04  0.46999998093E+01 0.  1.
</event>
<event>
 5   0  0.4115358E-07  0.3680594E+04  0.7818609E-02  0.8072276E-01
       -2   -1    0    0    0  501  0.00000000000E+00  0.00000000000E+00  0.24244319166E+04  0.24244319166E+04  0.25500000920E-02 0. -1.
        2   -1    0    0  501    0  0.00000000000E+00  0.00000000000E+00 -0.13969017253E+04  0.13969017253E+04  0.25500000920E-02 0.  1.
    10030    2    1    2    0    0  0.00000000000E+00  0.00000000000E+00  0.10275301913E+04  0.38213336419E+04  0.36805940429E+04 0.  0.
        3    1    3    3  502    0 -0.67532025168E+03  0.14742573502E+04  0.14172119521E+04  0.21535974332E+04  0.10100000352E+00 0. -1.
       -3    1    3    3    0  502  0.67532025168E+03 -0.14742573502E+04 -0.38968176083E+03  0.16677362087E+04  0.10100000352E+00 0.  1.
</event>
<event>
 5   0  0.1298250E-07  0.3623033E+04  0.7818609E-02  0.8085236E-01
       -1   -1    0    0    0  501  0.00000000000E+00  0.00000000000E+00  0.17587854178E+04  0.17587854178E+04  0.50400001928E-02 0. -1.
        1   -1    0    0  501    0  0.00000000000E+00  0.00000000000E+00 -0.18658288291E+04  0.18658288291E+04  0.50400001928E-02 0.  1.
    10030    2    1    2    0    0  0.00000000000E+00  0.00000000000E+00 -0.10704341126E+03  0.36246142469E+04  0.36230332798E+04 0.  0.
        2    1    3    3  502    0  0.26890808675E+02  0.42687545449E+03 -0.18145871908E+04  0.18643155426E+04  0.25500000920E-02 0.  1.
       -2    1    3    3    0  502 -0.26890808675E+02 -0.42687545449E+03  0.17075437796E+04  0.17602987043E+04  0.25500000920E-02 0. -1.
</event>
<event>
 5   0  0.4115358E-07  0.3310236E+04  0.7818609E-02  0.8160296E-01
        2   -1    0    0  501    0  0.00000000000E+00  0.00000000000E+00  0.26168847129E+04  0.26168847129E+04  0.25500000920E-02 0. -1.
       -2   -1    0    0    0  501  0.00000000000E+00  0.00000000000E+00 -0.10468233251E+04  0.10468233251E+04  0.25500000920E-02 0.  1.
    10030    2    1    2    0    0  0.00000000000E+00  0.00000000000E+00  0.15700613878E+04  0.36637080380E+04  0.33102362191E+04 0.  0.
        3    1    3    3  502    0  0.66491385199E+03 -0.14993315141E+04  0.53925909661E+03  0.17265299891E+04  0.10100000352E+00 0. -1.
       -3    1    3    3    0  502 -0.66491385199E+03  0.14993315141E+04  0.10308022912E+04  0.19371780490E+04  0.10100000352E+00 0.  1.
</event>
<event>
 5   0  0.1361743E-07  0.3565694E+04  0.7818609E-02  0.8098395E-01
       -1   -1    0    0    0  501  0.00000000000E+00  0.00000000000E+00  0.16956548037E+04  0.16956548037E+04  0.50400001928E-02 0. -1.
        1   -1    0    0  501    0  0.00000000000E+00  0.00000000000E+00 -0.18745231722E+04  0.18745231722E+04  0.50400001928E-02 0.  1.
    10030    2    1    2    0    0  0.00000000000E+00  0.00000000000E+00 -0.17886836858E+03  0.35701779759E+04  0.35656944466E+04 0.  0.
        5    1    3    3  502    0  0.23092784713E+03  0.10411340319E+04  0.13410800383E+04  0.17134192429E+04  0.46999998093E+01 0. -1.
       -5    1    3    3    0  502 -0.23092784713E+03 -0.10411340319E+04 -0.15199484068E+04  0.18567587330E+04  0.46999998093E+01 0.  1.
</event>
<event>
 5   0  0.1370997E-07  0.3643178E+04  0.7818609E-02  0.8080672E-01
        1   -1    0    0  501    0  0.00000000000E+00  0.00000000000E+00  0.29189892646E+04  0.29189892646E+04  0.50400001928E-02 0. -1.
       -1   -1    0    0    0  501  0.00000000000E+00  0.00000000000E+00 -0.11367586551E+04  0.11367586551E+04  0.50400001928E-02 0.  1.
    10030    2    1    2    0    0  0.00000000000E+00  0.00000000000E+00  0.17822306095E+04  0.40557479198E+04  0.36431779044E+04 0.  0.
        3    1    3    3  502    0 -0.16179094706E+04  0.64383274717E+03  0.29572756176E+03  0.17662407713E+04  0.10100000352E+00 0.  1.
       -3    1    3    3    0  502  0.16179094706E+04 -0.64383274717E+03  0.14865030478E+04  0.22895071484E+04  0.10100000352E+00 0. -1.
</event>
<event>
 5   0  0.1348226E-07  0.3609467E+04  0.7818609E-02  0.8088327E-01
        1   -1    0    0  501    0  0.00000000000E+00  0.00000000000E+00  0.22654234720E+04  0.22654234720E+04  0.50400001928E-02 0. -1.
       -1   -1    0    0    0  501  0.00000000000E+00  0.00000000000E+00 -0.14377278698E+04  0.14377278698E+04  0.50400001928E-02 0.  1.
    10030    2    1    2    0    0  0.00000000000E+00  0.00000000000E+00  0.82769560226E+03  0.37031513418E+04  0.36094666989E+04 0.  0.
        4    1    3    3  502    0  0.16825572707E+03  0.11090464022E+04  0.18643203052E+04  0.21757724433E+04  0.12699999809E+01 0. -1.
       -4    1    3    3    0  502 -0.16825572707E+03 -0.11090464022E+04 -0.10366247029E+04  0.15273788985E+04  0.12699999809E+01 0.  1.
</event>
<event>
 5   0  0.4200635E-07  0.3602501E+04  0.7818609E-02  0.8089919E-01
       -2   -1    0    0    0  501  0.00000000000E+00  0.00000000000E+00  0.12988627863E+04  0.12988627863E+04  0.25500000920E-02 0. -1.
        2   -1    0    0  501    0  0.00000000000E+00  0.00000000000E+00 -0.24979571490E+04  0.24979571490E+04  0.25500000920E-02 0.  1.
    10030    2    1    2    0    0  0.00000000000E+00  0.00000000000E+00 -0.11990943627E+04  0.37968199353E+04  0.36025011215E+04 0.  0.
        4    1    3    3  502    0  0.11616027723E+04 -0.12840839285E+04 -0.76481292028E+02  0.17332176831E+04  0.12699999809E+01 0. -1.
       -4    1    3    3    0  502 -0.11616027723E+04  0.12840839285E+04 -0.11226130706E+04  0.20636022522E+04  0.12699999809E+01 0.  1.
</event>
<event>
 5   0  0.1348226E-07  0.3610840E+04  0.7818609E-02  0.8088013E-01
        1   -1    0    0  501    0  0.00000000000E+00  0.00000000000E+00  0.21662041917E+04  0.21662041917E+04  0.50400001928E-02 0.  1.
       -1   -1    0    0    0  501  0.00000000000E+00  0.00000000000E+00 -0.15047245526E+04  0.15047245526E+04  0.50400001928E-02 0. -1.
    10030    2    1    2    0    0  0.00000000000E+00  0.00000000000E+00  0.66147963909E+03  0.36709287444E+04  0.36108395884E+04 0.  0.
        4    1    3    3  502    0 -0.17795878650E+04 -0.83847963460E+02  0.62814098093E+03  0.18890543018E+04  0.12699999809E+01 0.  1.
       -4    1    3    3    0  502  0.17795878650E+04  0.83847963460E+02  0.33338658159E+02  0.17818744426E+04  0.12699999809E+01 0. -1.
</event>
<event>
 5   0  0.3880259E-07  0.3577749E+04  0.7818609E-02  0.8095608E-01
        2   -1    0    0  501    0  0.00000000000E+00  0.00000000000E+00  0.13195451320E+04  0.13195451320E+04  0.25500000920E-02 0. -1.
       -2   -1    0    0    0  501  0.00000000000E+00  0.00000000000E+00 -0.24251324688E+04  0.24251324688E+04  0.25500000920E-02 0.  1.
    10030    2    1    2    0    0  0.00000000000E+00  0.00000000000E+00 -0.11055873368E+04  0.37446776008E+04  0.35777488697E+04 0.  0.
        5    1    3    3  502    0  0.17386548265E+04 -0.42026704460E+03 -0.52928090340E+03  0.18653968369E+04  0.46999998093E+01 0.  1.
       -5    1    3    3    0  502 -0.17386548265E+04  0.42026704460E+03 -0.57630643344E+03  0.18792807639E+04  0.46999998093E+01 0. -1.
</event>
<event>
 5   0  0.1361743E-07  0.3316088E+04  0.7818609E-02  0.8158814E-01
       -1   -1    0    0    0  501  0.00000000000E+00  0.00000000000E+00  0.11833929813E+04  0.11833929813E+04  0.50400001928E-02 0.  1.
        1   -1    0    0  501    0  0.00000000000E+00  0.00000000000E+00 -0.23230743866E+04  0.23230743866E+04  0.50400001928E-02 0. -1.
    10030    2    1    2    0    0  0.00000000000E+00  0.00000000000E+00 -0.11396814053E+04  0.35064673679E+04  0.33160880110E+04 0.  0.
        5    1    3    3  502    0  0.14418736745E+04  0.64367650176E+03 -0.35070189189E+02  0.15794211409E+04  0.46999998093E+01 0.  1.
       -5    1    3    3    0  502 -0.14418736745E+04 -0.64367650176E+03 -0.11046112161E+04  0.19270462270E+04  0.46999998093E+01 0. -1.
</event>
<event>
 5   0  0.4120440E-07  0.3629049E+04  0.7818609E-02  0.8083870E-01
       -2   -1    0    0    0  501  0.00000000000E+00  0.00000000000E+00  0.22799434621E+04  0.22799434621E+04  0.25500000920E-02 0. -1.
        2   -1    0    0  501    0  0.00000000000E+00  0.00000000000E+00 -0.14441143074E+04  0.14441143074E+04  0.25500000920E-02 0.  1.
    10030    2    1    2    0    0  0.00000000000E+00  0.00000000000E+00  0.83582915468E+03  0.37240577696E+04  0.36290488968E+04 0.  0.
        2    1    3    3  502    0  0.14663435556E+04  0.51033308810E+03 -0.54576398869E+03  0.16457404459E+04  0.25500000920E-02 0.  1.
       -2    1    3    3    0  502 -0.14663435556E+04 -0.51033308810E+03  0.13815931434E+04  0.20783173236E+04  0.25500000920E-02 0. -1.
</event>
<event>
 5   0  0.4200635E-07  0.3557398E+04  0.7818609E-02  0.8100320E-01
       -2   -1    0    0    0  501  0.00000000000E+00  0.00000000000E+00  0.16145360187E+04  0.16145360187E+04  0.25500000920E-02 0. -1.
        2   -1    0    0  501    0  0.00000000000E+00  0.00000000000E+00 -0.19595539351E+04  0.19595539351E+04  0.25500000920E-02 0.  1.
    10030    2    1    2    0    0  0.00000000000E+00  0.00000000000E+00 -0.34501791639E+03  0.35740899539E+04  0.35573981553E+04 0.  0.
        4    1    3    3  502    0 -0.25914309061E+03  0.82105951163E+03  0.13912242140E+04  0.16360929954E+04  0.12699999809E+01 0. -1.
       -4    1    3    3    0  502  0.25914309061E+03 -0.82105951163E+03 -0.17362421303E+04  0.19379969585E+04  0.12699999809E+01 0.  1.
</event>
<event>
 5   0  0.4120440E-07  0.3595739E+04  0.7818609E-02  0.8091468E-01
        2   -1    0    0  501    0  0.00000000000E+00  0.00000000000E+00  0.12148817494E+04  0.12148817494E+04  0.25500000920E-02 0. -1.
       -2   -1    0    0    0  501  0.00000000000E+00  0.00000000000E+00 -0.26606171274E+04  0.26606171274E+04  0.25500000920E-02 0.  1.
    10030    2    1    2    0    0  0.00000000000E+00  0.00000000000E+00 -0.14457353780E+04  0.38754988768E+04  0.35957392509E+04 0.  0.
        2    1    3    3  502    0 -0.84093534267E+03 -0.15545859206E+04 -0.36796829995E+03  0.18053560050E+04  0.25500000920E-02 0. -1.
       -2    1    3    3    0  502  0.84093534267E+03  0.15545859206E+04 -0.10777670781E+04  0.20701428718E+04  0.25500000920E-02 0.  1.
</event>
<event>
 5   0  0.1348226E-07  0.3633267E+04  0.7818609E-02  0.8082914E-01
        1   -1    0    0  501    0  0.00000000000E+00  0.00000000000E+00  0.17126636616E+04  0.17126636616E+04  0.50400001928E-02 0. -1.
       -1   -1    0    0    0  501  0.00000000000E+00  0.00000000000E+00 -0.19269153762E+04  0.19269153762E+04  0.50400001928E-02 0.  1.
    10030    2    1    2    0    0  0.00000000000E+00  0.00000000000E+00 -0.21425171460E+03  0.36395790378E+04  0.36332673691E+04 0.  0.
        4    1    3    3  502    0  0.31329888137E+03  0.46759414582E+03 -0.18373657714E+04  0.19216438445E+04  0.12699999809E+01 0.  1.
       -4    1    3    3    0  502 -0.31329888137E+03 -0.46759414582E+03  0.16231140568E+04  0.17179351933E+04  0.12699999809E+01 0. -1.
</event>
<event>
 5   0  0.3880259E-07  0.3651880E+04  0.7818609E-02  0.8078710E-01
       -2   -1    0    0    0  501  0.00000000000E+00  0.00000000000E+00  0.14225100824E+04  0.14225100824E+04  0.25500000920E-02 0.  1.
        2   -1    0    0  501    0  0.00000000000E+00  0.00000000000E+00 -0.23437844490E+04  0.23437844490E+04  0.25500000920E-02 0. -1.
    10030    2    1    2    0    0  0.00000000000E+00  0.00000000000E+00 -0.92127436658E+03  0.37662945315E+04  0.36518800691E+04 0.  0.
        5    1    3    3  502    0  0.70389231615E+03  0.73770281631E+03  0.11015354860E+04  0.15010237689E+04  0.46999998093E+01 0.  1.
       -5    1    3    3    0  502 -0.70389231615E+03 -0.73770281631E+03 -0.20228098526E+04  0.22652707625E+04  0.46999998093E+01 0. -1.
</event>
<event>
 5   0  0.1298250E-07  0.3599901E+04  0.7818609E-02  0.8090514E-01
        1   -1    0    0  501    0  0.00000000000E+00  0.00000000000E+00  0.11379962546E+04  0.11379962546E+04  0.50400001928E-02 0.  1.
       -1   -1    0    0    0  501  0.00000000000E+00  0.00000000000E+00 -0.28469528624E+04  0.28469528624E+04  0.50400001928E-02 0. -1.
    10030    2    1    2    0    0  0.00000000000E+00  0.00000000000E+00 -0.17089566078E+04  0.39849491170E+04  0.35999009399E+04 0.  0.
        2    1    3    3  502    0  0.11604639700E+03  0.16557245302E+04 -0.83624007489E+02  0.16618915310E+04  0.25500000920E-02 0.  1.
       -2    1    3    3    0  502 -0.11604639700E+03 -0.16557245302E+04 -0.16253326003E+04  0.23230575860E+04  0.25500000920E-02 0. -1.
</event>
<event>
 5   0  0.1298250E-07  0.3618149E+04  0.7818609E-02  0.8086347E-01
        1   -1    0    0  501    0  0.00000000000E+00  0.00000000000E+00  0.12623645592E+04  0.12623645593E+04  0.50400001928E-02 0. -1.
       -1   -1    0    0    0  501  0.00000000000E+00  0.00000000000E+00 -0.25925553746E+04  0.25925553746E+04  0.50400001928E-02 0.  1.
    10030    2    1    2    0    0  0.00000000000E+00  0.00000000000E+00 -0.13301908154E+04  0.38549199339E+04  0.36181487105E+04 0.  0.
        1    1    3    3  502    0 -0.17933849146E+04 -0.30467127180E+02 -0.91630508633E+03  0.20141431700E+04  0.50400001928E-02 0.  1.
       -1    1    3    3    0  502  0.17933849146E+04  0.30467127180E+02 -0.41388572903E+03  0.18407767639E+04  0.50400001928E-02 0. -1.
</event>
<event>
 5   0  0.1361743E-07  0.3498619E+04  0.7818609E-02  0.8114117E-01
        1   -1    0    0  501    0  0.00000000000E+00  0.00000000000E+00  0.26689290746E+04  0.26689290746E+04  0.50400001928E-02 0. -1.
       -1   -1    0    0    0  501  0.00000000000E+00  0.00000000000E+00 -0.11465586970E+04  0.11465586970E+04  0.50400001928E-02 0.  1.
    10030    2    1    2    0    0  0.00000000000E+00  0.00000000000E+00  0.15223703776E+04  0.38154877716E+04  0.34986190659E+04 0.  0.
        5    1    3    3  502    0  0.68926126950E+03 -0.15528548698E+04  0.30676638400E+03  0.17264318835E+04  0.46999998093E+01 0.  1.
       -5    1    3    3    0  502 -0.68926126950E+03  0.15528548698E+04  0.12156039936E+04  0.20890558881E+04  0.46999998093E+01 0. -1.
</event>
<event>
 5   0  0.1348226E-07  0.3560362E+04  0.7818609E-02  0.8099632E-01
        1   -1    0    0  501    0  0.00000000000E+00  0.00000000000E+00  0.28453607561E+04  0.28453607561E+04  0.50400001928E-02 0.  1.
       -1   -1    0    0    0  501  0.00000000000E+00  0.00000000000E+00 -0.11137584686E+04  0.11137584687E+04  0.50400001928E-02 0. -1.
    10030    2    1    2    0    0  0.00000000000E+00  0.00000000000E+00  0.17316022875E+04  0.39591192248E+04  0.35603621380E+04 0.  0.
        4    1    3    3  502    0 -0.13299315861E+04 -0.52115906845E+03  0.20472017122E+04  0.24962694689E+04  0.12699999809E+01 0.  1.
       -4    1    3    3    0  502  0.13299315861E+04  0.52115906845E+03 -0.31559942467E+03  0.14628497558E+04  0.12699999809E+01 0. -1.
</event>
<event>
 5   0  0.3993751E-07  0.3590492E+04  0.7818609E-02  0.8092673E-01
        2   -1    0    0  501    0  0.00000000000E+00  0.00000000000E+00  0.22044699809E+04  0.22044699809E+04  0.25500000920E-02 0.  1.
       -2   -1    0    0    0  501  0.00000000000E+00  0.00000000000E+00 -0.14619877495E+04  0.14619877495E+04  0.25500000920E-02 0. -1.
    10030    2    1    2    0    0  0.00000000000E+00  0.00000000000E+00  0.74248223143E+03  0.36664577305E+04  0.35904919475E+04 0.  0.
        1    1    3    3  502    0 -0.10954661133E+04  0.52757155629E+03 -0.97751053934E+03  0.15600976274E+04  0.50400001928E-02 0. -1.
       -1    1    3    3    0  502  0.10954661133E+04 -0.52757155629E+03  0.17199927708E+04  0.21063601031E+04  0.50400001928E-02 0.  1.
</event>
<event>
 5   0  0.1298250E-07  0.3619866E+04  0.7818609E-02  0.8085956E-01
       -1   -1    0    0    0  501  0.00000000000E+00  0.00000000000E+00  0.15658186780E+04  0.15658186780E+04  0.50400001928E-02 0. -1.
        1   -1    0    0  501    0  0.00000000000E+00  0.00000000000E+00 -0.20921056788E+04  0.20921056788E+04  0.50400001928E-02 0.  1.
    10030    2    1    2    0    0  0.00000000000E+00  0.00000000000E+00 -0.52628700079E+03  0.36579243567E+04  0.36198663777E+04 0.  0.
        1    1    3    3  502    0  0.87020686514E+03 -0.13327236550E+04  0.60756856797E+03  0.17036877335E+04  0.50400001928E-02 0. -1.
       -1    1    3    3    0  502 -0.87020686514E+03  0.13327236550E+04 -0.11338555688E+04  0.19542366232E+04  0.50400001928E-02 0.  1.
</event>
<event>
 5   0  0.4115358E-07  0.3583942E+04  0.7818609E-02  0.8094180E-01
       -2   -1    0    0    0  501  0.00000000000E+00  0.00000000000E+00  0.21926359426E+04  0.21926359426E+04  0.25500000920E-02 0. -1.
        2   -1    0    0  501    0  0.00000000000E+00  0.00000000000E+00 -0.14645204223E+04  0.14645204223E+04  0.25500000920E-02 0.  1.
    10030    2    1    2    0    0  0.00000000000E+00  0.00000000000E+00  0.72811552037E+03  0.36571563649E+04  0.35839420289E+04 0.  0.
        3    1    3    3  502    0 -0.49370650338E+01 -0.17724450044E+04  0.94899688908E+02  0.17749905998E+04  0.10100000352E+00 0.  1.
       -3    1    3    3    0  502  0.49370650338E+01  0.17724450044E+04  0.63321583146E+03  0.18821657652E+04  0.10100000352E+00 0. -1.
</event>
<event>
 5   0  0.3993751E-07  0.3597355E+04  0.7818609E-02  0.8091098E-01
        2   -1    0    0  501    0  0.00000000000E+00  0.00000000000E+00  0.22744078882E+04  0.22744078882E+04  0.25500000920E-02 0. -1.
       -2   -1    0    0    0  501  0.00000000000E+00  0.00000000000E+00 -0.14224543100E+04  0.14224543100E+04  0.25500000920E-02 0.  1.
    10030    2    1    2    0    0  0.00000000000E+00  0.00000000000E+00  0.85195357822E+03  0.36968621982E+04  0.35973553082E+04 0.  0.
        1    1    3    3  502    0  0.15032674551E+04 -0.91533856454E+03  0.80715952325E+03  0.19362758650E+04  0.50400001928E-02 0. -1.
       -1    1    3    3    0  502 -0.15032674551E+04  0.91533856454E+03  0.44794054974E+02  0.17605863332E+04  0.50400001928E-02 0.  1.
</event>
<event>
 5   0  0.3993751E-07  0.3570970E+04  0.7818609E-02  0.8097174E-01
       -2   -1    0    0    0  501  0.00000000000E+00  0.00000000000E+00  0.12695171108E+04  0.12695171108E+04  0.25500000920E-02 0. -1.
        2   -1    0    0  501    0  0.00000000000E+00  0.00000000000E+00 -0.25111566103E+04  0.25111566103E+04  0.25500000920E-02 0.  1.
    10030    2    1    2    0    0  0.00000000000E+00  0.00000000000E+00 -0.12416394996E+04  0.37806737211E+04  0.35709697756E+04 0.  0.
        1    1    3    3  502    0 -0.40778652309E+03 -0.17332257917E+04 -0.48038483960E+03  0.18442155752E+04  0.50400001928E-02 0. -1.
       -1    1    3    3    0  502  0.40778652309E+03  0.17332257917E+04 -0.76125465996E+03  0.19364581459E+04  0.50400001928E-02 0.  1.
</event>
<event>
 5   0  0.3880259E-07  0.3624453E+04  0.7818609E-02  0.8084913E-01
       -2   -1    0    0    0  501  0.00000000000E+00  0.00000000000E+00  0.14240859440E+04  0.14240859440E+04  0.25500000920E-02 0.  1.
        2   -1    0    0  501    0  0.00000000000E+00  0.00000000000E+00 -0.23061563294E+04  0.23061563294E+04  0.25500000920E-02 0. -1.
    10030    2    1    2    0    0  0.00000000000E+00  0.00000000000E+00 -0.88207038535E+03  0.37302422734E+04  0.36244529592E+04 0.  0.
        5    1    3    3  502    0 -0.14529230745E+03  0.14179834681E+04  0.71071536044E+03  0.15927728602E+04  0.46999998093E+01 0.  1.
       -5    1    3    3    0  502  0.14529230745E+03 -0.14179834681E+04 -0.15927857458E+04  0.21374694132E+04  0.46999998093E+01 0. -1.
</event>
<event>
 5   0  0.1361743E-07  0.3595541E+04  0.7818609E-02  0.8091514E-01
       -1   -1    0    0    0  501  0.00000000000E+00  0.00000000000E+00  0.18749264306E+04  0.18749264306E+04  0.50400001928E-02 0.  1.
        1   -1    0    0  501    0  0.00000000000E+00  0.00000000000E+00 -0.17237897328E+04  0.17237897328E+04  0.50400001928E-02 0. -1.
    10030    2    1    2    0    0  0.00000000000E+00  0.00000000000E+00  0.15113669778E+03  0.35987161635E+04  0.35955410892E+04 0.  0.
        5    1    3    3  502    0  0.10838135118E+04  0.77703100166E+03 -0.11311197508E+04  0.17486803271E+04  0.46999998093E+01 0. -1.
       -5    1    3    3    0  502 -0.10838135118E+04 -0.77703100166E+03  0.12822564486E+04  0.18500358363E+04  0.46999998093E+01 0.  1.
</event>
<event>
 5   0  0.4115358E-07  0.3681957E+04  0.7818609E-02  0.8071972E-01
       -2   -1    0    0    0  501  0.00000000000E+00  0.00000000000E+00  0.19810789632E+04  0.19810789632E+04  0.25500000920E-02 0. -1.
        2   -1    0    0  501    0  0.00000000000E+00  0.00000000000E+00 -0.17107856571E+04  0.17107856571E+04  0.25500000920E-02 0.  1.
    10030    2    1    2    0    0  0.00000000000E+00  0.00000000000E+00  0.27029330610E+03  0.36918646203E+04  0.36819568036E+04 0.  0.
        3    1    3    3  502    0 -0.13404090394E+04 -0.14913714565E+03  0.13916200633E+04  0.19379227776E+04  0.10100000352E+00 0. -1.
       -3    1    3    3    0  502  0.13404090394E+04  0.14913714565E+03 -0.11213267572E+04  0.17539418427E+04  0.10100000352E+00 0.  1.
</event>
<event>
 5   0  0.1298250E-07  0.3567608E+04  0.7818609E-02  0.8097952E-01
       -1   -1    0    0    0  501  0.00000000000E+00  0.00000000000E+00  0.13736964150E+04  0.13736964150E+04  0.50400001928E-02 0.  1.
        1   -1    0    0  501    0  0.00000000000E+00  0.00000000000E+00 -0.23163459745E+04  0.23163459745E+04  0.50400001928E-02 0. -1.
    10030    2    1    2    0    0  0.00000000000E+00  0.00000000000E+00 -0.94264955957E+03  0.36900423895E+04  0.35676076920E+04 0.  0.
        2    1    3    3  502    0 -0.34274725993E+03  0.14261986057E+04  0.57861695590E+03  0.15768055457E+04  0.25500000920E-02 0.  1.
       -2    1    3    3    0  502  0.34274725993E+03 -0.14261986057E+04 -0.15212665155E+04  0.21132368439E+04  0.25500000920E-02 0. -1.
</event>
<event>
 5   0  0.1298250E-07  0.3574327E+04  0.7818609E-02  0.8096398E-01
        1   -1    0    0  501    0  0.00000000000E+00  0.00000000000E+00  0.21746214790E+04  0.21746214790E+04  0.50400001928E-02 0. -1.
       -1   -1    0    0    0  501  0.00000000000E+00  0.00000000000E+00 -0.14687401703E+04  0.14687401703E+04  0.50400001928E-02 0.  1.
    10030    2    1    2    0    0  0.00000000000E+00  0.00000000000E+00  0.70588130873E+03  0.36433616493E+04  0.35743273053E+04 0.  0.
        1    1    3    3  502    0  0.77031956820E+03  0.16114162865E+04  0.28929075739E+03  0.18093490067E+04  0.50400001928E-02 0.  1.
       -1    1    3    3    0  502 -0.77031956820E+03 -0.16114162865E+04  0.41659055133E+03  0.18340126426E+04  0.50400001928E-02 0. -1.
</event>
<event>
 5   0  0.1370997E-07  0.3574528E+04  0.7818609E-02  0.8096351E-01
       -1   -1    0    0    0  501  0.00000000000E+00  0.00000000000E+00  0.24902875372E+04  0.24902875372E+04  0.50400001928E-02 0. -1.
        1   -1    0    0  501    0  0.00000000000E+00  0.00000000000E+00 -0.12827082475E+04  0.12827082476E+04  0.50400001928E-02 0.  1.
    10030    2    1    2    0    0  0.00000000000E+00  0.00000000000E+00  0.12075792896E+04  0.37729957847E+04  0.35745278641E+04 0.  0.
        3    1    3    3  502    0 -0.10894197650E+04 -0.12476163877E+04 -0.10500810717E+03  0.16596411624E+04  0.10100000352E+00 0.  1.
       -3    1    3    3    0  502  0.10894197650E+04  0.12476163877E+04  0.13125873968E+04  0.21133546223E+04  0.10100000352E+00 0. -1.
</event>
<event>
 5   0  0.1370997E-07  0.3541068E+04  0.7818609E-02  0.8104126E-01
       -1   -1    0    0    0  501  0.00000000000E+00  0.00000000000E+00  0.24223306270E+04  0.24223306270E+04  0.50400001928E-02 0.  1.
        1   -1    0    0  501    0  0.00000000000E+00  0.00000000000E+00 -0.12941217187E+04  0.12941217187E+04  0.50400001928E-02 0. -1.
    10030    2    1    2    0    0  0.00000000000E+00  0.00000000000E+00  0.11282089083E+04  0.37164523457E+04  0.35410680164E+04 0.  0.
        3    1    3    3  502    0  0.95802326932E+02  0.78348044683E+03 -0.10992481324E+04  0.13532797801E+04  0.10100000352E+00 0. -1.
       -3    1    3    3    0  502 -0.95802326932E+02 -0.78348044683E+03  0.22274570407E+04  0.23631725656E+04  0.10100000352E+00 0.  1.
</event>
<event>
 5   0  0.4120440E-07  0.3270538E+04  0.7818609E-02  0.8170433E-01
       -2   -1    0    0    0  501  0.00000000000E+00  0.00000000000E+00  0.93989990929E+03  0.93989990929E+03  0.25500000920E-02 0. -1.
        2   -1    0    0  501    0  0.00000000000E+00  0.00000000000E+00 -0.28450953715E+04  0.28450953715E+04  0.25500000920E-02 0.  1.
    10030    2    1    2    0    0  0.00000000000E+00  0.00000000000E+00 -0.19051954622E+04  0.37849952808E+04  0.32705381096E+04 0.  0.
        2    1    3    3  502    0 -0.23285982818E+03  0.81907240570E+02  0.91821431822E+03  0.95081545518E+03  0.25500000920E-02 0. -1.
       -2    1    3    3    0  502  0.23285982818E+03 -0.81907240570E+02 -0.28234097804E+04  0.28341798256E+04  0.25500000920E-02 0.  1.
</event>
<event>
 5   0  0.1361743E-07  0.3576420E+04  0.7818609E-02  0.8095914E-01
       -1   -1    0    0    0  501  0.00000000000E+00  0.00000000000E+00  0.20735628821E+04  0.20735628821E+04  0.50400001928E-02 0. -1.
        1   -1    0    0  501    0  0.00000000000E+00  0.00000000000E+00 -0.15421258064E+04  0.15421258064E+04  0.50400001928E-02 0.  1.
    10030    2    1    2    0    0  0.00000000000E+00  0.00000000000E+00  0.53143707570E+03  0.36156886885E+04  0.35764199036E+04 0.  0.
        5    1    3    3  502    0 -0.80379471449E+03 -0.86945646146E+03 -0.10890067172E+04  0.16087256452E+04  0.46999998093E+01 0.  1.
       -5    1    3    3    0  502  0.80379471449E+03  0.86945646146E+03  0.16204437929E+04  0.20069630433E+04  0.46999998093E+01 0. -1.
</event>
<event>
 5   0  0.3880259E-07  0.3685988E+04  0.7818609E-02  0.8071074E-01
        2   -1    0    0  501    0  0.00000000000E+00  0.00000000000E+00  0.29634704134E+04  0.29634704134E+04  0.25500000920E-02 0. -1.
       -2   -1    0    0    0  501  0.00000000000E+00  0.00000000000E+00 -0.11461654242E+04  0.11461654242E+04  0.25500000920E-02 0.  1.
    10030    2    1    2    0    0  0.00000000000E+00  0.00000000000E+00  0.18173049893E+04  0.41096358376E+04  0.36859882384E+04 0.  0.
        5    1    3    3  502    0 -0.61778243639E+03 -0.69185561884E+03  0.26842662399E+04  0.28400046959E+04  0.46999998093E+01 0. -1.
       -5    1    3    3    0  502  0.61778243639E+03  0.69185561884E+03 -0.86696125062E+03  0.12696311418E+04  0.46999998093E+01 0.  1.
</event>
<event>
 5   0  0.1298250E-07  0.3640018E+04  0.7818609E-02  0.8081386E-01
       -1   -1    0    0    0  501  0.00000000000E+00  0.00000000000E+00  0.21427072758E+04  0.21427072758E+04  0.50400001928E-02 0.  1.
        1   -1    0    0  501    0  0.00000000000E+00  0.00000000000E+00 -0.15459097680E+04  0.15459097680E+04  0.50400001928E-02 0. -1.
    10030    2    1    2    0    0  0.00000000000E+00  0.00000000000E+00  0.59679750785E+03  0.36886170438E+04  0.36400176415E+04 0.  0.
        2    1    3    3  502    0 -0.83408838452E+03 -0.83946628233E+03 -0.11028229880E+04  0.16175987189E+04  0.25500000920E-02 0. -1.
       -2    1    3    3    0  502  0.83408838452E+03  0.83946628233E+03  0.16996204958E+04  0.20710183249E+04  0.25500000920E-02 0.  1.
</event>
<event>
 5   0  0.1298250E-07  0.3613138E+04  0.7818609E-02  0.8087489E-01
        4   -1    0    0  501    0  0.00000000000E+00  0.00000000000E+00  0.17029742830E+04  0.17029747565E+04  0.12699999809E+01 0.  1.
       -4   -1    0    0    0  501  0.00000000000E+00  0.00000000000E+00 -0.19164651203E+04  0.19164655411E+04  0.12699999809E+01 0. -1.
    10030    2    1    2    0    0  0.00000000000E+00  0.00000000000E+00 -0.21349083733E+03  0.36194402976E+04  0.36131384876E+04 0.  0.
        1    1    3    3  502    0 -0.10809997803E+04  0.10405673835E+04 -0.11146570554E+04  0.18691713019E+04  0.50400001928E-02 0. -1.
       -1    1    3    3    0  502  0.10809997803E+04 -0.10405673835E+04  0.90116621810E+03  0.17502689957E+04  0.50400001928E-02 0.  1.
</event>
<event>
 5   0  0.1298250E-07  0.3548004E+04  0.7818609E-02  0.8102507E-01
        1   -1    0    0  501    0  0.00000000000E+00  0.00000000000E+00  0.19722329786E+04  0.19722329786E+04  0.50400001928E-02 0.  1.
       -1   -1    0    0    0  501  0.00000000000E+00  0.00000000000E+00 -0.15956958280E+04  0.15956958280E+04  0.50400001928E-02 0. -1.
    10030    2    1    2    0    0  0.00000000000E+00  0.00000000000E+00  0.37653715062E+03  0.35679288066E+04  0.35480044733E+04 0.  0.
        1    1    3    3  502    0  0.13146905927E+04  0.31185683373E+03 -0.96771619760E+03  0.16619689162E+04  0.50400001928E-02 0. -1.
       -1    1    3    3    0  502 -0.13146905927E+04 -0.31185683373E+03  0.13442533482E+04  0.19059598903E+04  0.50400001928E-02 0.  1.
</event>
<event>
 5   0  0.1298250E-07  0.3553553E+04  0.7818609E-02  0.8101215E-01
        1   -1    0    0  501    0  0.00000000000E+00  0.00000000000E+00  0.14232621786E+04  0.14232621786E+04  0.50400001928E-02 0. -1.
       -1   -1    0    0    0  501  0.00000000000E+00  0.00000000000E+00 -0.22180972925E+04  0.22180972925E+04  0.50400001928E-02 0.  1.
    10030    2    1    2    0    0  0.00000000000E+00  0.00000000000E+00 -0.79483511392E+03  0.36413594710E+04  0.35535525800E+04 0.  0.
        2    1    3    3  502    0  0.97374421378E+03 -0.10059373803E+04  0.72361952073E+03  0.15759800182E+04  0.25500000920E-02 0. -1.
       -2    1    3    3    0  502 -0.97374421378E+03  0.10059373803E+04 -0.15184546346E+04  0.20653794529E+04  0.25500000920E-02 0.  1.
</event>
<event>
 5   0  0.3993751E-07  0.3573160E+04  0.7818609E-02  0.8096667E-01
        2   -1    0    0  501    0  0.00000000000E+00  0.00000000000E+00  0.25395132146E+04  0.25395132146E+04  0.25500000920E-02 0. -1.
       -2   -1    0    0    0  501  0.00000000000E+00  0.00000000000E+00 -0.12568821306E+04  0.12568821306E+04  0.25500000920E-02 0.  1.
    10030    2    1    2    0    0  0.00000000000E+00  0.00000000000E+00  0.12826310840E+04  0.37963953451E+04  0.35731603825E+04 0.  0.
        1    1    3    3  502    0  0.15212548977E+04  0.93565413770E+03  0.69119138852E+03  0.19150484758E+04  0.50400001928E-02 0. -1.
       -1    1    3    3    0  502 -0.15212548977E+04 -0.93565413770E+03  0.59143969547E+03  0.18813468693E+04  0.50400001928E-02 0.  1.
</event>
<event>
 5   0  0.3993751E-07  0.3598109E+04  0.7818609E-02  0.8090925E-01
        2   -1    0    0  501    0  0.00000000000E+00  0.00000000000E+00  0.15610977551E+04  0.15610977551E+04  0.25500000920E-02 0. -1.
       -2   -1    0    0    0  501  0.00000000000E+00  0.00000000000E+00 -0.20732822404E+04  0.20732822404E+04  0.25500000920E-02 0.  1.
    10030    2    1    2    0    0  0.00000000000E+00  0.00000000000E+00 -0.51218448531E+03  0.36343799956E+04  0.35981085316E+04 0.  0.
        1    1    3    3  502    0 -0.47754537611E+03  0.14768534592E+04  0.66272067485E+03  0.16877038896E+04  0.50400001928E-02 0. -1.
       -1    1    3    3    0  502  0.47754537611E+03 -0.14768534592E+04 -0.11749051602E+04  0.19466761060E+04  0.50400001928E-02 0.  1.
</event>
<event>
 5   0  0.1348226E-07  0.3589030E+04  0.7818609E-02  0.8093009E-01
        1   -1    0    0  501    0  0.00000000000E+00  0.00000000000E+00  0.24873568649E+04  0.24873568649E+04  0.50400001928E-02 0. -1.
       -1   -1    0    0    0  501  0.00000000000E+00  0.00000000000E+00 -0.12946611752E+04  0.12946611752E+04  0.50400001928E-02 0.  1.
    10030    2    1    2    0    0  0.00000000000E+00  0.00000000000E+00  0.11926956897E+04  0.37820180401E+04  0.35890301541E+04 0.  0.
        4    1    3    3  502    0  0.36036280768E+03  0.83949901375E+03  0.22239603516E+04  0.24042922463E+04  0.12699999809E+01 0. -1.
       -4    1    3    3    0  502 -0.36036280768E+03 -0.83949901375E+03 -0.10312646619E+04  0.13777257938E+04  0.12699999809E+01 0.  1.
</event>
<event>
 5   0  0.3880259E-07  0.3605830E+04  0.7818609E-02  0.8089158E-01
       -2   -1    0    0    0  501  0.00000000000E+00  0.00000000000E+00  0.21691982028E+04  0.21691982028E+04  0.25500000920E-02 0.  1.
        2   -1    0    0  501    0  0.00000000000E+00  0.00000000000E+00 -0.14984810575E+04  0.14984810575E+04  0.25500000920E-02 0. -1.
    10030    2    1    2    0    0  0.00000000000E+00  0.00000000000E+00  0.67071714528E+03  0.36676792603E+04  0.36058299555E+04 0.  0.
        5    1    3    3  502    0 -0.11281482027E+04 -0.76896314579E+03  0.15330347461E+04  0.20528614930E+04  0.46999998093E+01 0.  1.
       -5    1    3    3    0  502  0.11281482027E+04  0.76896314579E+03 -0.86231760084E+03  0.16148177673E+04  0.46999998093E+01 0. -1.
</event>
<event>
 5   0  0.1361743E-07  0.3612502E+04  0.7818609E-02  0.8087634E-01
        1   -1    0    0  501    0  0.00000000000E+00  0.00000000000E+00  0.26093511310E+04  0.26093511310E+04  0.50400001928E-02 0. -1.
       -1   -1    0    0    0  501  0.00000000000E+00  0.00000000000E+00 -0.12503271396E+04  0.12503271396E+04  0.50400001928E-02 0.  1.
    10030    2    1    2    0    0  0.00000000000E+00  0.00000000000E+00  0.13590239914E+04  0.38596782707E+04  0.36125019230E+04 0.  0.
        5    1    3    3  502    0  0.17021837529E+04 -0.52141528468E+03  0.35330698986E+03  0.18149797098E+04  0.46999998093E+01 0.  1.
       -5    1    3    3    0  502 -0.17021837529E+04  0.52141528468E+03  0.10057170015E+04  0.20446985609E+04  0.46999998093E+01 0. -1.
</event>
<event>
 5   0  0.1298250E-07  0.3609139E+04  0.7818609E-02  0.8088402E-01
        1   -1    0    0  501    0  0.00000000000E+00  0.00000000000E+00  0.21704572320E+04  0.21704572320E+04  0.50400001928E-02 0.  1.
       -1   -1    0    0    0  501  0.00000000000E+00  0.00000000000E+00 -0.15003614733E+04  0.15003614733E+04  0.50400001928E-02 0. -1.
    10030    2    1    2    0    0  0.00000000000E+00  0.00000000000E+00  0.67009575875E+03  0.36708187053E+04  0.36091386287E+04 0.  0.
        2    1    3    3  502    0  0.14524679604E+04  0.99663772259E+03 -0.63465161571E+02  0.17626621210E+04  0.25500000920E-02 0. -1.
       -2    1    3    3    0  502 -0.14524679604E+04 -0.99663772259E+03  0.73356092032E+03  0.19081565843E+04  0.25500000920E-02 0.  1.
</event>
<event>
 5   0  0.3880259E-07  0.3511458E+04  0.7818609E-02  0.8111080E-01
        2   -1    0    0  501    0  0.00000000000E+00  0.00000000000E+00  0.16157142592E+04  0.16157142592E+04  0.25500000920E-02 0. -1.
       -2   -1    0    0    0  501  0.00000000000E+00  0.00000000000E+00 -0.19078776279E+04  0.19078776279E+04  0.25500000920E-02 0.  1.
    10030    2    1    2    0    0  0.00000000000E+00  0.00000000000E+00 -0.29216336870E+03  0.35235918872E+04  0.35114584368E+04 0.  0.
        5    1    3    3  502    0 -0.99069341190E+03 -0.26169165685E+03 -0.15767032969E+04  0.18804178621E+04  0.46999998093E+01 0.  1.
       -5    1    3    3    0  502  0.99069341190E+03  0.26169165685E+03  0.12845399282E+04  0.16431740251E+04  0.46999998093E+01 0. -1.
</event>
<event>
 5   0  0.3993751E-07  0.3651924E+04  0.7818609E-02  0.8078700E-01
       -2   -1    0    0    0  501  0.00000000000E+00  0.00000000000E+00  0.16415274859E+04  0.16415274859E+04  0.25500000920E-02 0. -1.
        2   -1    0    0  501    0  0.00000000000E+00  0.00000000000E+00 -0.20311188085E+04  0.20311188085E+04  0.25500000920E-02 0.  1.
    10030    2    1    2    0    0  0.00000000000E+00  0.00000000000E+00 -0.38959132263E+03  0.36726462944E+04  0.36519240689E+04 0.  0.
        1    1    3    3  502    0 -0.12299667133E+03  0.15403674277E+04  0.78349203039E+03  0.17325471870E+04  0.50400001928E-02 0.  1.
       -1    1    3    3    0  502  0.12299667133E+03 -0.15403674277E+04 -0.11730833530E+04  0.19400991074E+04  0.50400001928E-02 0. -1.
</event>
<event>
 5   0  0.1298250E-07  0.3607877E+04  0.7818609E-02  0.8088690E-01
        1   -1    0    0  501    0  0.00000000000E+00  0.00000000000E+00  0.15546510632E+04  0.15546510632E+04  0.50400001928E-02 0. -1.
       -1   -1    0    0    0  501  0.00000000000E+00  0.00000000000E+00 -0.20931990105E+04  0.20931990105E+04  0.50400001928E-02 0.  1.
    10030    2    1    2    0    0  0.00000000000E+00  0.00000000000E+00 -0.53854794732E+03  0.36478500737E+04  0.36078769753E+04 0.  0.
        2    1    3    3  502    0  0.14997513591E+04 -0.62525610489E+03 -0.10615337056E+04  0.19408897815E+04  0.25500000920E-02 0.  1.
       -2    1    3    3    0  502 -0.14997513591E+04  0.62525610489E+03  0.52298575829E+03  0.17069602922E+04  0.25500000920E-02 0. -1.
</event>
<event>
 5   0  0.1298250E-07  0.3624937E+04  0.7818609E-02  0.8084803E-01
       -3   -1    0    0    0  501  0.00000000000E+00  0.00000000000E+00  0.19810458983E+04  0.19810459008E+04  0.10100000352E+00 0.  1.
        3   -1    0    0  501    0  0.00000000000E+00  0.00000000000E+00 -0.16582361246E+04  0.16582361277E+04  0.10100000352E+00 0. -1.
    10030    2    1    2    0    0  0.00000000000E+00  0.00000000000E+00  0.32280977368E+03  0.36392820285E+04  0.36249369005E+04 0.  0.
        1    1    3    3  502    0  0.48538737933E+03  0.99152421632E+03 -0.12817539241E+04  0.16916306634E+04  0.50400001928E-02 0. -1.
       -1    1    3    3    0  502 -0.48538737933E+03 -0.99152421632E+03  0.16045636978E+04  0.19476513650E+04  0.50400001928E-02 0.  1.
</event>
<event>
 5   0  0.1370997E-07  0.3652580E+04  0.7818609E-02  0.8078553E-01
        1   -1    0    0  501    0  0.00000000000E+00  0.00000000000E+00  0.19657401461E+04  0.19657401461E+04  0.50400001928E-02 0. -1.
       -1   -1    0    0    0  501  0.00000000000E+00  0.00000000000E+00 -0.16967322977E+04  0.16967322977E+04  0.50400001928E-02 0.  1.
    10030    2    1    2    0    0  0.00000000000E+00  0.00000000000E+00  0.26900784836E+03  0.36624724438E+04  0.36525797978E+04 0.  0.
        3    1    3    3  502    0 -0.11283189605E+04 -0.13388738695E+04  0.65518662613E+03  0.18694802594E+04  0.10100000352E+00 0.  1.
       -3    1    3    3    0  502  0.11283189605E+04  0.13388738695E+04 -0.38617877777E+03  0.17929921845E+04  0.10100000352E+00 0. -1.
</event>
<event>
 5   0  0.1370997E-07  0.3589138E+04  0.7818609E-02  0.8092984E-01
        1   -1    0    0  501    0  0.00000000000E+00  0.00000000000E+00  0.17706831946E+04  0.17706831946E+04  0.50400001928E-02 0.  1.
       -1   -1    0    0    0  501  0.00000000000E+00  0.00000000000E+00 -0.18187773332E+04  0.18187773332E+04  0.50400001928E-02 0. -1.
    10030    2    1    2    0    0  0.00000000000E+00  0.00000000000E+00 -0.48094138605E+02  0.35894605279E+04  0.35891383137E+04 0.  0.
        3    1    3    3  502    0  0.16079886486E+04  0.55568113104E+02  0.77085957762E+03  0.17840795408E+04  0.10100000352E+00 0.  1.
       -3    1    3    3    0  502 -0.16079886486E+04 -0.55568113104E+02 -0.81895371622E+03  0.18053809871E+04  0.10100000352E+00 0. -1.
</event>
<event>
 5   0  0.1361743E-07  0.3611069E+04  0.7818609E-02  0.8087961E-01
        1   -1    0    0  501    0  0.00000000000E+00  0.00000000000E+00  0.22018385265E+04  0.22018385265E+04  0.50400001928E-02 0. -1.
       -1   -1    0    0    0  501  0.00000000000E+00  0.00000000000E+00 -0.14805607158E+04  0.14805607158E+04  0.50400001928E-02 0.  1.
    10030    2    1    2    0    0  0.00000000000E+00  0.00000000000E+00  0.72127781065E+03  0.36823992423E+04  0.36110694399E+04 0.  0.
        5    1    3    3  502    0 -0.53158264395E+03  0.16718976132E+04  0.79581404191E+03  0.19264381162E+04  0.46999998093E+01 0.  1.
       -5    1    3    3    0  502  0.53158264395E+03 -0.16718976132E+04 -0.74536231260E+02  0.17559611260E+04  0.46999998093E+01 0. -1.
</event>
<event>
 5   0  0.1348226E-07  0.3610473E+04  0.7818609E-02  0.8088097E-01
        1   -1    0    0  501    0  0.00000000000E+00  0.00000000000E+00  0.21883998327E+04  0.21883998327E+04  0.50400001928E-02 0. -1.
       -1   -1    0    0    0  501  0.00000000000E+00  0.00000000000E+00 -0.14891609933E+04  0.14891609933E+04  0.50400001928E-02 0.  1.
    10030    2    1    2    0    0  0.00000000000E+00  0.00000000000E+00  0.69923883943E+03  0.36775608260E+04  0.36104734695E+04 0.  0.
        4    1    3    3  502    0 -0.13234816101E+04  0.10975854509E+04 -0.21067499126E+03  0.17322479497E+04  0.12699999809E+01 0.  1.
       -4    1    3    3    0  502  0.13234816101E+04 -0.10975854509E+04  0.90991383069E+03  0.19453128763E+04  0.12699999809E+01 0. -1.
</event>
<event>
 5   0  0.1361743E-07  0.3592636E+04  0.7818609E-02  0.8092181E-01
       -1   -1    0    0    0  501  0.00000000000E+00  0.00000000000E+00  0.16801936815E+04  0.16801936815E+04  0.50400001928E-02 0.  1.
        1   -1    0    0  501    0  0.00000000000E+00  0.00000000000E+00 -0.19204682579E+04  0.19204682579E+04  0.50400001928E-02 0. -1.
    10030    2    1    2    0    0  0.00000000000E+00  0.00000000000E+00 -0.24027457641E+03  0.36006619394E+04  0.35926361533E+04 0.  0.
        5    1    3    3  502    0 -0.32844187686E+03 -0.16661115222E+04  0.46677734341E+03  0.17611657643E+04  0.46999998093E+01 0.  1.
       -5    1    3    3    0  502  0.32844187686E+03  0.16661115222E+04 -0.70705191982E+03  0.18394961751E+04  0.46999998093E+01 0. -1.
</event>
<event>
 5   0  0.4200635E-07  0.3608444E+04  0.7818609E-02  0.8088560E-01
        2   -1    0    0  501    0  0.00000000000E+00  0.00000000000E+00  0.23747882503E+04  0.23747882503E+04  0.25500000920E-02 0. -1.
       -2   -1    0    0    0  501  0.00000000000E+00  0.00000000000E+00 -0.13707399361E+04  0.13707399361E+04  0.25500000920E-02 0.  1.
    10030    2    1    2    0    0  0.00000000000E+00  0.00000000000E+00  0.10040483143E+04  0.37455281864E+04  0.36084440384E+04 0.  0.
        4    1    3    3  502    0 -0.13445761581E+04 -0.33086104691E+03 -0.69857672402E+03  0.15509239599E+04  0.12699999809E+01 0.  1.
       -4    1    3    3    0  502  0.13445761581E+04  0.33086104691E+03  0.17026250383E+04  0.21946042265E+04  0.12699999809E+01 0. -1.
</event>
<event>
 5   0  0.1361743E-07  0.3547797E+04  0.7818609E-02  0.8102555E-01
       -1   -1    0    0    0  501  0.00000000000E+00  0.00000000000E+00  0.17443356333E+04  0.17443356333E+04  0.50400001928E-02 0.  1.
        1   -1    0    0  501    0  0.00000000000E+00  0.00000000000E+00 -0.18039628880E+04  0.18039628880E+04  0.50400001928E-02 0. -1.
    10030    2    1    2    0    0  0.00000000000E+00  0.00000000000E+00 -0.59627254720E+02  0.35482985213E+04  0.35477974839E+04 0.  0.
        5    1    3    3  502    0 -0.15500500243E+04 -0.14496163714E+03  0.82061563800E+03  0.17598582527E+04  0.46999998093E+01 0. -1.
       -5    1    3    3    0  502  0.15500500243E+04  0.14496163714E+03 -0.88024289272E+03  0.17884402686E+04  0.46999998093E+01 0.  1.
</event>
<event>
 5   0  0.4115358E-07  0.3605521E+04  0.7818609E-02  0.8089228E-01
        2   -1    0    0  501    0  0.00000000000E+00  0.00000000000E+00  0.19324877960E+04  0.19324877960E+04  0.25500000920E-02 0. -1.
       -2   -1    0    0    0  501  0.00000000000E+00  0.00000000000E+00 -0.16817419666E+04  0.16817419666E+04  0.25500000920E-02 0.  1.
    10030    2    1    2    0    0  0.00000000000E+00  0.00000000000E+00  0.25074582939E+03  0.36142297626E+04  0.36055212253E+04 0.  0.
        3    1    3    3  502    0 -0.14205079610E+04  0.75817315529E+03 -0.68731111611E+03  0.17507329840E+04  0.10100000352E+00 0.  1.
       -3    1    3    3    0  502  0.14205079610E+04 -0.75817315529E+03  0.93805694550E+03  0.18634967786E+04  0.10100000352E+00 0. -1.
</event>
<event>
 5   0  0.4115358E-07  0.3637374E+04  0.7818609E-02  0.8081984E-01
       -2   -1    0    0    0  501  0.00000000000E+00  0.00000000000E+00  0.18895328276E+04  0.18895328276E+04  0.25500000920E-02 0.  1.
        2   -1    0    0  501    0  0.00000000000E+00  0.00000000000E+00 -0.17504970695E+04  0.17504970695E+04  0.25500000920E-02 0. -1.
    10030    2    1    2    0    0  0.00000000000E+00  0.00000000000E+00  0.13903575810E+03  0.36400298971E+04  0.36373736005E+04 0.  0.
        3    1    3    3  502    0  0.12091461300E+04 -0.66049304160E+03  0.12575395177E+04  0.18653930069E+04  0.10100000352E+00 0.  1.
       -3    1    3    3    0  502 -0.12091461300E+04  0.66049304160E+03 -0.11185037596E+04  0.17746368902E+04  0.10100000352E+00 0. -1.
</event>
<event>
 5   0  0.1298250E-07  0.3580458E+04  0.7818609E-02  0.8094983E-01
        1   -1    0    0  501    0  0.00000000000E+00  0.00000000000E+00  0.12813270704E+04  0.12813270704E+04  0.50400001928E-02 0. -1.
       -1   -1    0    0    0  501  0.00000000000E+00  0.00000000000E+00 -0.25012504365E+04  0.25012504365E+04  0.50400001928E-02 0.  1.
    10030    2    1    2    0    0  0.00000000000E+00  0.00000000000E+00 -0.12199233661E+04  0.37825775069E+04  0.35804580121E+04 0.  0.
        2    1    3    3  502    0  0.76378729676E+03 -0.15277806366E+04 -0.11763564284E+04  0.20739573658E+04  0.25500000920E-02 0. -1.
       -2    1    3    3    0  502 -0.76378729676E+03  0.15277806366E+04 -0.43566937702E+02  0.17086201411E+04  0.25500000920E-02 0.  1.
</event>
<event>
 5   0  0.3880259E-07  0.3565987E+04  0.7818609E-02  0.8098327E-01
        2   -1    0    0  501    0  0.00000000000E+00  0.00000000000E+00  0.15497367638E+04  0.15497367638E+04  0.25500000920E-02 0. -1.
       -2   -1    0    0    0  501  0.00000000000E+00  0.00000000000E+00 -0.20513590646E+04  0.20513590646E+04  0.25500000920E-02 0.  1.
    10030    2    1    2    0    0  0.00000000000E+00  0.00000000000E+00 -0.50162230079E+03  0.36010958285E+04  0.35659874135E+04 0.  0.
        5    1    3    3  502    0  0.45142814540E+03 -0.11575820277E+03 -0.19887597420E+04  0.20426391589E+04  0.46999998093E+01 0.  1.
       -5    1    3    3    0  502 -0.45142814540E+03  0.11575820277E+03  0.14871374412E+04  0.15584566696E+04  0.46999998093E+01 0. -1.
</event>
<event>
 5   0  0.1361743E-07  0.3606120E+04  0.7818609E-02  0.8089091E-01
        1   -1    0    0  501    0  0.00000000000E+00  0.00000000000E+00  0.14885447032E+04  0.14885447032E+04  0.50400001928E-02 0.  1.
       -1   -1    0    0    0  501  0.00000000000E+00  0.00000000000E+00 -0.21840296233E+04  0.21840296233E+04  0.50400001928E-02 0. -1.
    10030    2    1    2    0    0  0.00000000000E+00  0.00000000000E+00 -0.69548492008E+03  0.36725743265E+04  0.36061202018E+04 0.  0.
        5    1    3    3  502    0 -0.10864949249E+04  0.36648702866E+03  0.10693810706E+04  0.15679228068E+04  0.46999998093E+01 0.  1.
       -5    1    3    3    0  502  0.10864949249E+04 -0.36648702866E+03 -0.17648659907E+04  0.21046515197E+04  0.46999998093E+01 0. -1.
</event>
<event>
 5   0  0.1298250E-07  0.3624444E+04  0.7818609E-02  0.8084915E-01
       -1   -1    0    0    0  501  0.00000000000E+00  0.00000000000E+00  0.12236496847E+04  0.12236496847E+04  0.50400001928E-02 0. -1.
        1   -1    0    0  501    0  0.00000000000E+00  0.00000000000E+00 -0.26838956425E+04  0.26838956425E+04  0.50400001928E-02 0.  1.
    10030    2    1    2    0    0  0.00000000000E+00  0.00000000000E+00 -0.14602459578E+04  0.39075453273E+04  0.36244437128E+04 0.  0.
        2    1    3    3  502    0  0.15545891783E+04 -0.92277482086E+03 -0.86601250499E+03  0.20045544498E+04  0.25500000920E-02 0. -1.
       -2    1    3    3    0  502 -0.15545891783E+04  0.92277482086E+03 -0.59423345278E+03  0.19029908775E+04  0.25500000920E-02 0.  1.
</event>
<event>
 5   0  0.3880259E-07  0.3626696E+04  0.7818609E-02  0.8084404E-01
       -2   -1    0    0    0  501  0.00000000000E+00  0.00000000000E+00  0.13991264389E+04  0.13991264389E+04  0.25500000920E-02 0. -1.
        2   -1    0    0  501    0  0.00000000000E+00  0.00000000000E+00 -0.23502023995E+04  0.23502023995E+04  0.25500000920E-02 0.  1.
    10030    2    1    2    0    0  0.00000000000E+00  0.00000000000E+00 -0.95107596067E+03  0.37493288384E+04  0.36266956386E+04 0.  0.
        5    1    3    3  502    0 -0.52192493075E+03  0.90873457337E+03 -0.20054444557E+04  0.22627491494E+04  0.46999998093E+01 0.  1.
       -5    1    3    3    0  502  0.52192493075E+03 -0.90873457337E+03  0.10543684951E+04  0.14865796889E+04  0.46999998093E+01 0. -1.
</event>
<event>
 5   0  0.3993751E-07  0.3560007E+04  0.7818609E-02  0.8099715E-01
        2   -1    0    0  501    0  0.00000000000E+00  0.00000000000E+00  0.11467681470E+04  0.11467681470E+04  0.25500000920E-02 0.  1.
       -2   -1    0    0    0  501  0.00000000000E+00  0.00000000000E+00 -0.27629054388E+04  0.27629054388E+04  0.25500000920E-02 0. -1.
    10030    2    1    2    0    0  0.00000000000E+00  0.00000000000E+00 -0.16161372918E+04  0.39096735858E+04  0.35600067137E+04 0.  0.
        1    1    3    3  502    0 -0.14797505122E+04  0.91423579278E+03 -0.12232531935E+04  0.21264611538E+04  0.50400001928E-02 0. -1.
       -1    1    3    3    0  502  0.14797505122E+04 -0.91423579278E+03 -0.39288409834E+03  0.17832124320E+04  0.50400001928E-02 0.  1.
</event>
<event>
 5   0  0.1298250E-07  0.3605574E+04  0.7818609E-02  0.8089216E-01
       -1   -1    0    0    0  501  0.00000000000E+00  0.00000000000E+00  0.19641862667E+04  0.19641862667E+04  0.50400001928E-02 0. -1.
        1   -1    0    0  501    0  0.00000000000E+00  0.00000000000E+00 -0.16546500092E+04  0.16546500092E+04  0.50400001928E-02 0.  1.
    10030    2    1    2    0    0  0.00000000000E+00  0.00000000000E+00  0.30953625743E+03  0.36188362759E+04  0.36055739207E+04 0.  0.
        2    1    3    3  502    0  0.14959466841E+04  0.31255154647E+03  0.11145784292E+04  0.18915152724E+04  0.25500000920E-02 0. -1.
       -2    1    3    3    0  502 -0.14959466841E+04 -0.31255154647E+03 -0.80504217175E+03  0.17273210035E+04  0.25500000920E-02 0.  1.
</event>
<event>
 5   0  0.3993751E-07  0.3589722E+04  0.7818609E-02  0.8092850E-01
       -2   -1    0    0    0  501  0.00000000000E+00  0.00000000000E+00  0.12767352313E+04  0.12767352313E+04  0.25500000920E-02 0. -1.
        2   -1    0    0  501    0  0.00000000000E+00  0.00000000000E+00 -0.25232527601E+04  0.25232527601E+04  0.25500000920E-02 0.  1.
    10030    2    1    2    0    0  0.00000000000E+00  0.00000000000E+00 -0.12465175289E+04  0.37999879914E+04  0.35897218256E+04 0.  0.
        1    1    3    3  502    0  0.42586397121E+03 -0.13081429030E+04  0.59705668271E+03  0.14996915213E+04  0.50400001928E-02 0. -1.
       -1    1    3    3    0  502 -0.42586397121E+03  0.13081429030E+04 -0.18435742116E+04  0.23002964701E+04  0.50400001928E-02 0.  1.
</event>
<event>
 5   0  0.1348226E-07  0.3552268E+04  0.7818609E-02  0.8101514E-01
        1   -1    0    0  501    0  0.00000000000E+00  0.00000000000E+00  0.16179713508E+04  0.16179713508E+04  0.50400001928E-02 0.  1.
       -1   -1    0    0    0  501  0.00000000000E+00  0.00000000000E+00 -0.19497573268E+04  0.19497573268E+04  0.50400001928E-02 0. -1.
    10030    2    1    2    0    0  0.00000000000E+00  0.00000000000E+00 -0.33178597604E+03  0.35677286776E+04  0.35522677240E+04 0.  0.
        4    1    3    3  502    0 -0.17079182137E+03  0.17474623477E+04  0.10333225311E+03  0.17588273566E+04  0.12699999809E+01 0.  1.
       -4    1    3    3    0  502  0.17079182137E+03 -0.17474623477E+04 -0.43511822914E+03  0.18089013210E+04  0.12699999809E+01 0. -1.
</event>
<event>
 5   0  0.4115358E-07  0.3602654E+04  0.7818609E-02  0.8089884E-01
       -2   -1    0    0    0  501  0.00000000000E+00  0.00000000000E+00  0.15668860900E+04  0.15668860900E+04  0.25500000920E-02 0.  1.
        2   -1    0    0  501    0  0.00000000000E+00  0.00000000000E+00 -0.20708452879E+04  0.20708452879E+04  0.25500000920E-02 0. -1.
    10030    2    1    2    0    0  0.00000000000E+00  0.00000000000E+00 -0.50395919785E+03  0.36377313779E+04  0.36026538419E+04 0.  0.
        3    1    3    3  502    0 -0.55978244003E+02  0.17594233712E+04  0.13393863586E+03  0.17654018611E+04  0.10100000352E+00 0. -1.
       -3    1    3    3    0  502  0.55978244003E+02 -0.17594233712E+04 -0.63789783371E+03  0.18723295167E+04  0.10100000352E+00 0.  1.
</event>
<event>
 5   0  0.1348226E-07  0.3598250E+04  0.7818609E-02  0.8090893E-01
       -1   -1    0    0    0  501  0.00000000000E+00  0.00000000000E+00  0.17840500691E+04  0.17840500691E+04  0.50400001928E-02 0. -1.
        1   -1    0    0  501    0  0.00000000000E+00  0.00000000000E+00 -0.18143269934E+04  0.18143269934E+04  0.50400001928E-02 0.  1.
    10030    2    1    2    0    0  0.00000000000E+00  0.00000000000E+00 -0.30276924326E+02  0.35983770625E+04  0.35982496845E+04 0.  0.
        4    1    3    3  502    0 -0.49899081394E+03 -0.53123726730E+03 -0.16600807959E+04  0.18130291582E+04  0.12699999809E+01 0.  1.
       -4    1    3    3    0  502  0.49899081394E+03  0.53123726730E+03  0.16298038716E+04  0.17853479043E+04  0.12699999809E+01 0. -1.
</event>
<event>
 5   0  0.4115358E-07  0.3606869E+04  0.7818609E-02  0.8088920E-01
        2   -1    0    0  501    0  0.00000000000E+00  0.00000000000E+00  0.14777482292E+04  0.14777482292E+04  0.25500000920E-02 0.  1.
       -2   -1    0    0    0  501  0.00000000000E+00  0.00000000000E+00 -0.22008999460E+04  0.22008999460E+04  0.25500000920E-02 0. -1.
    10030    2    1    2    0    0  0.00000000000E+00  0.00000000000E+00 -0.72315171681E+03  0.36786481752E+04  0.36068690011E+04 0.  0.
        3    1    3    3  502    0  0.26745181471E+03  0.32474772949E+03  0.14270009291E+04  0.14877241756E+04  0.10100000352E+00 0.  1.
       -3    1    3    3    0  502 -0.26745181471E+03 -0.32474772949E+03 -0.21501526459E+04  0.21909239996E+04  0.10100000352E+00 0. -1.
</event>
<event>
 5   0  0.4200635E-07  0.3653234E+04  0.7818609E-02  0.8078406E-01
        2   -1    0    0  501    0  0.00000000000E+00  0.00000000000E+00  0.19504781029E+04  0.19504781029E+04  0.25500000920E-02 0. -1.
       -2   -1    0    0    0  501  0.00000000000E+00  0.00000000000E+00 -0.17106211980E+04  0.17106211980E+04  0.25500000920E-02 0.  1.
    10030    2    1    2    0    0  0.00000000000E+00  0.00000000000E+00  0.23985690488E+03  0.36610993010E+04  0.36532337397E+04 0.  0.
        4    1    3    3  502    0 -0.13367910733E+03 -0.28213269326E+03 -0.16836849434E+04  0.17123859267E+04  0.12699999809E+01 0.  1.
       -4    1    3    3    0  502  0.13367910733E+03  0.28213269326E+03  0.19235418483E+04  0.19487133743E+04  0.12699999809E+01 0. -1.
</event>
<event>
 5   0  0.4120440E-07  0.3600027E+04  0.7818609E-02  0.8090486E-01
       -2   -1    0    0    0  501  0.00000000000E+00  0.00000000000E+00  0.18201974166E+04  0.18201974166E+04  0.25500000920E-02 0. -1.
        2   -1    0    0  501    0  0.00000000000E+00  0.00000000000E+00 -0.17800531276E+04  0.17800531277E+04  0.25500000920E-02 0.  1.
    10030    2    1    2    0    0  0.00000000000E+00  0.00000000000E+00  0.40144288957E+02  0.36002505443E+04  0.36000267246E+04 0.  0.
        2    1    3    3  502    0  0.11442732121E+04 -0.10154460934E+04 -0.92843616291E+03  0.17895490105E+04  0.25500000920E-02 0.  1.
       -2    1    3    3    0  502 -0.11442732121E+04  0.10154460934E+04  0.96858045187E+03  0.18107015337E+04  0.25500000920E-02 0. -1.
</event>
<event>
 5   0  0.4120440E-07  0.3546239E+04  0.7818609E-02  0.8102918E-01
       -2   -1    0    0    0  501  0.00000000000E+00  0.00000000000E+00  0.12095606662E+04  0.12095606662E+04  0.25500000920E-02 0. -1.
        2   -1    0    0  501    0  0.00000000000E+00  0.00000000000E+00 -0.25992521293E+04  0.25992521293E+04  0.25500000920E-02 0.  1.
    10030    2    1    2    0    0  0.00000000000E+00  0.00000000000E+00 -0.13896914631E+04  0.38088127955E+04  0.35462392120E+04 0.  0.
        2    1    3    3  502    0  0.87496260476E+03 -0.66948023255E+03  0.79733561781E+03  0.13599659661E+04  0.25500000920E-02 0. -1.
       -2    1    3    3    0  502 -0.87496260476E+03  0.66948023255E+03 -0.21870270809E+04  0.24488468294E+04  0.25500000920E-02 0.  1.
</event>
<event>
 5   0  0.1348226E-07  0.3594003E+04  0.7818609E-02  0.8091867E-01
       -1   -1    0    0    0  501  0.00000000000E+00  0.00000000000E+00  0.17345727441E+04  0.17345727441E+04  0.50400001928E-02 0. -1.
        1   -1    0    0  501    0  0.00000000000E+00  0.00000000000E+00 -0.18616767254E+04  0.18616767254E+04  0.50400001928E-02 0.  1.
    10030    2    1    2    0    0  0.00000000000E+00  0.00000000000E+00 -0.12710398130E+03  0.35962494695E+04  0.35940026190E+04 0.  0.
        4    1    3    3  502    0 -0.46062531454E+03  0.17122091313E+04  0.22882291564E+03  0.17877911873E+04  0.12699999809E+01 0. -1.
       -4    1    3    3    0  502  0.46062531454E+03 -0.17122091313E+04 -0.35592689694E+03  0.18084582822E+04  0.12699999809E+01 0.  1.
</event>
<event>
 5   0  0.4120440E-07  0.3514965E+04  0.7818609E-02  0.8110253E-01
       -2   -1    0    0    0  501  0.00000000000E+00  0.00000000000E+00  0.13203222970E+04  0.13203222970E+04  0.25500000920E-02 0. -1.
        2   -1    0    0  501    0  0.00000000000E+00  0.00000000000E+00 -0.23393864859E+04  0.23393864859E+04  0.25500000920E-02 0.  1.
    10030    2    1    2    0    0  0.00000000000E+00  0.00000000000E+00 -0.10190641890E+04  0.36597087829E+04  0.35149646591E+04 0.  0.
        2    1    3    3  502    0 -0.96565519751E+03 -0.50227934801E+03 -0.19461973021E+04  0.22299009939E+04  0.25500000920E-02 0.  1.
       -2    1    3    3    0  502  0.96565519751E+03  0.50227934801E+03  0.92713311317E+03  0.14298077890E+04  0.25500000920E-02 0. -1.
</event>
<event>
 5   0  0.3880259E-07  0.3636740E+04  0.7818609E-02  0.8082128E-01
        2   -1    0    0  501    0  0.00000000000E+00  0.00000000000E+00  0.17130963830E+04  0.17130963830E+04  0.25500000920E-02 0. -1.
       -2   -1    0    0    0  501  0.00000000000E+00  0.00000000000E+00 -0.19301124775E+04  0.19301124775E+04  0.25500000920E-02 0.  1.
    10030    2    1    2    0    0  0.00000000000E+00  0.00000000000E+00 -0.21701609446E+03  0.36432088605E+04  0.36367395860E+04 0.  0.
        5    1    3    3  502    0  0.48781582300E+03  0.76965784755E+03 -0.16848729496E+04  0.19155042223E+04  0.46999998093E+01 0.  1.
       -5    1    3    3    0  502 -0.48781582300E+03 -0.76965784755E+03  0.14678568552E+04  0.17277046382E+04  0.46999998093E+01 0. -1.
</event>
<event>
 5   0  0.3880259E-07  0.3617080E+04  0.7818609E-02  0.8086590E-01
        2   -1    0    0  501    0  0.00000000000E+00  0.00000000000E+00  0.24496460986E+04  0.24496460986E+04  0.25500000920E-02 0.  1.
       -2   -1    0    0    0  501  0.00000000000E+00  0.00000000000E+00 -0.13352202648E+04  0.13352202648E+04  0.25500000920E-02 0. -1.
    10030    2    1    2    0    0  0.00000000000E+00  0.00000000000E+00  0.11144258338E+04  0.37848663634E+04  0.36170801000E+04 0.  0.
        5    1    3    3  502    0  0.15048840367E+03  0.75332122030E+03  0.22704320590E+04  0.23968778536E+04  0.46999998093E+01 0.  1.
       -5    1    3    3    0  502 -0.15048840367E+03 -0.75332122030E+03 -0.11560062252E+04  0.13879885098E+04  0.46999998093E+01 0. -1.
</event>
<event>
 5   0  0.4115358E-07  0.3631542E+04  0.7818609E-02  0.8083305E-01
        2   -1    0    0  501    0  0.00000000000E+00  0.00000000000E+00  0.29056866017E+04  0.29056866017E+04  0.25500000920E-02 0. -1.
       -2   -1    0    0    0  501  0.00000000000E+00  0.00000000000E+00 -0.11346801722E+04  0.11346801722E+04  0.25500000920E-02 0.  1.
    10030    2    1    2    0    0  0.00000000000E+00  0.00000000000E+00  0.17710064295E+04  0.40403667740E+04  0.36315423575E+04 0.  0.
        3    1    3    3  502    0 -0.11749888483E+04  0.14127017879E+03 -0.64665121192E+03  0.13485969958E+04  0.10100000352E+00 0.  1.
       -3    1    3    3    0  502  0.11749888483E+04 -0.14127017879E+03  0.24176576415E+04  0.26917697781E+04  0.10100000352E+00 0. -1.
</event>
<event>
 5   0  0.1361743E-07  0.3581456E+04  0.7818609E-02  0.8094753E-01
        1   -1    0    0  501    0  0.00000000000E+00  0.00000000000E+00  0.19315785170E+04  0.19315785170E+04  0.50400001928E-02 0.  1.
       -1   -1    0    0    0  501  0.00000000000E+00  0.00000000000E+00 -0.16601482694E+04  0.16601482694E+04  0.50400001928E-02 0. -1.
    10030    2    1    2    0    0  0.00000000000E+00  0.00000000000E+00  0.27143024768E+03  0.35917267864E+04  0.35814559789E+04 0.  0.
        5    1    3    3  502    0  0.26819615250E+03  0.12822455490E+04 -0.10886881987E+04  0.17033340565E+04  0.46999998093E+01 0. -1.
       -5    1    3    3    0  502 -0.26819615250E+03 -0.12822455490E+04  0.13601184464E+04  0.18883927299E+04  0.46999998093E+01 0.  1.
</event>
<event>
 5   0  0.1298250E-07  0.3155667E+04  0.7818609E-02  0.8200625E-01
        1   -1    0    0  501    0  0.00000000000E+00  0.00000000000E+00  0.13330260073E+04  0.13330260073E+04  0.50400001928E-02 0. -1.
       -1   -1    0    0    0  501  0.00000000000E+00  0.00000000000E+00 -0.18675990953E+04  0.18675990953E+04  0.50400001928E-02 0.  1.
    10030    2    1    2    0    0  0.00000000000E+00  0.00000000000E+00 -0.53457308806E+03  0.32006251026E+04  0.31556667538E+04 0.  0.
        1    1    3    3  502    0 -0.17224394642E+02 -0.13597141402E+04 -0.10789622333E+04  0.17358798126E+04  0.50400001928E-02 0.  1.
       -1    1    3    3    0  502  0.17224394642E+02  0.13597141402E+04  0.54438914526E+03  0.14647452900E+04  0.50400001928E-02 0. -1.
</event>
<event>
 5   0  0.4115358E-07  0.3587966E+04  0.7818609E-02  0.8093254E-01
       -2   -1    0    0    0  501  0.00000000000E+00  0.00000000000E+00  0.11968007691E+04  0.11968007691E+04  0.25500000920E-02 0. -1.
        2   -1    0    0  501    0  0.00000000000E+00  0.00000000000E+00 -0.26891478797E+04  0.26891478797E+04  0.25500000920E-02 0.  1.
    10030    2    1    2    0    0  0.00000000000E+00  0.00000000000E+00 -0.14923471106E+04  0.38859486487E+04  0.35879655798E+04 0.  0.
        3    1    3    3  502    0  0.49167819623E+03 -0.53352551467E+03  0.10308144128E+04  0.12605456308E+04  0.10100000352E+00 0. -1.
       -3    1    3    3    0  502 -0.49167819623E+03  0.53352551467E+03 -0.25231615234E+04  0.26254030180E+04  0.10100000352E+00 0.  1.
</event>
<event>
 5   0  0.1298250E-07  0.3640246E+04  0.7818609E-02  0.8081334E-01
        1   -1    0    0  501    0  0.00000000000E+00  0.00000000000E+00  0.18332801107E+04  0.18332801107E+04  0.50400001928E-02 0. -1.
       -1   -1    0    0    0  501  0.00000000000E+00  0.00000000000E+00 -0.18070607578E+04  0.18070607578E+04  0.50400001928E-02 0.  1.
    10030    2    1    2    0    0  0.00000000000E+00  0.00000000000E+00  0.26219352918E+02  0.36403408686E+04  0.36402464456E+04 0.  0.
        2    1    3    3  502    0 -0.97558983707E+03 -0.28177435786E+03  0.15236706967E+04  0.18310501661E+04  0.25500000920E-02 0. -1.
       -2    1    3    3    0  502  0.97558983707E+03  0.28177435786E+03 -0.14974513438E+04  0.18092907024E+04  0.25500000920E-02 0.  1.
</event>
<event>
 5   0  0.4200635E-07  0.3607224E+04  0.7818609E-02  0.8088839E-01
       -2   -1    0    0    0  501  0.00000000000E+00  0.00000000000E+00  0.18444236048E+04  0.18444236048E+04  0.25500000920E-02 0. -1.
        2   -1    0    0  501    0  0.00000000000E+00  0.00000000000E+00 -0.17637037718E+04  0.17637037718E+04  0.25500000920E-02 0.  1.
    10030    2    1    2    0    0  0.00000000000E+00  0.00000000000E+00  0.80719833074E+02  0.36081273766E+04  0.36072243449E+04 0.  0.
        4    1    3    3  502    0 -0.13060503017E+03  0.17525488710E+04 -0.36536464990E+03  0.17949869524E+04  0.12699999809E+01 0.  1.
       -4    1    3    3    0  502  0.13060503017E+03 -0.17525488710E+04  0.44608448298E+03  0.18131404242E+04  0.12699999809E+01 0. -1.
</event>
<event>
 5   0  0.1348226E-07  0.3569911E+04  0.7818609E-02  0.8097419E-01
        1   -1    0    0  501    0  0.00000000000E+00  0.00000000000E+00  0.18656432390E+04  0.18656432390E+04  0.50400001928E-02 0.  1.
       -1   -1    0    0    0  501  0.00000000000E+00  0.00000000000E+00 -0.17077578200E+04  0.17077578200E+04  0.50400001928E-02 0. -1.
    10030    2    1    2    0    0  0.00000000000E+00  0.00000000000E+00  0.15788541898E+03  0.35734010590E+04  0.35699113887E+04 0.  0.
        4    1    3    3  502    0 -0.44918268024E+03 -0.17161950810E+04 -0.11867008311E+03  0.17779693017E+04  0.12699999809E+01 0. -1.
       -4    1    3    3    0  502  0.44918268024E+03  0.17161950810E+04  0.27655550209E+03  0.17954317573E+04  0.12699999809E+01 0.  1.
</event>
<event>
 5   0  0.4200635E-07  0.3610564E+04  0.7818609E-02  0.8088076E-01
       -2   -1    0    0    0  501  0.00000000000E+00  0.00000000000E+00  0.29082915567E+04  0.29082915567E+04  0.25500000920E-02 0.  1.
        2   -1    0    0  501    0  0.00000000000E+00  0.00000000000E+00 -0.11206041633E+04  0.11206041633E+04  0.25500000920E-02 0. -1.
    10030    2    1    2    0    0  0.00000000000E+00  0.00000000000E+00  0.17876873935E+04  0.40288957200E+04  0.36105642919E+04 0.  0.
        4    1    3    3  502    0  0.58659276143E+03 -0.10381052743E+04 -0.61867101908E+03  0.13433201670E+04  0.12699999809E+01 0. -1.
       -4    1    3    3    0  502 -0.58659276143E+03  0.10381052743E+04  0.24063584125E+04  0.26855755530E+04  0.12699999809E+01 0.  1.
</event>
<event>
 5   0  0.3993751E-07  0.3586208E+04  0.7818609E-02  0.8093658E-01
       -2   -1    0    0    0  501  0.00000000000E+00  0.00000000000E+00  0.30591299879E+04  0.30591299879E+04  0.25500000920E-02 0.  1.
        2   -1    0    0  501    0  0.00000000000E+00  0.00000000000E+00 -0.10510248998E+04  0.10510248998E+04  0.25500000920E-02 0. -1.
    10030    2    1    2    0    0  0.00000000000E+00  0.00000000000E+00  0.20081050880E+04  0.41101548877E+04  0.35862079076E+04 0.  0.
        1    1    3    3  502    0 -0.60064516348E+03  0.11849497856E+04  0.23843027283E+04  0.27294285312E+04  0.50400001928E-02 0.  1.
       -1    1    3    3    0  502  0.60064516348E+03 -0.11849497856E+04 -0.37619764028E+03  0.13807263565E+04  0.50400001928E-02 0. -1.
</event>
<event>
 5   0  0.4120440E-07  0.3454234E+04  0.7818609E-02  0.8124722E-01
        2   -1    0    0  501    0  0.00000000000E+00  0.00000000000E+00  0.19791838201E+04  0.19791838201E+04  0.25500000920E-02 0.  1.
       -2   -1    0    0    0  501  0.00000000000E+00  0.00000000000E+00 -0.15071528613E+04  0.15071528613E+04  0.25500000920E-02 0. -1.
    10030    2    1    2    0    0  0.00000000000E+00  0.00000000000E+00  0.47203095881E+03  0.34863366814E+04  0.34542336675E+04 0.  0.
        2    1    3    3  502    0 -0.24526162165E+03  0.58695465549E+03  0.18566357436E+04  0.19625914794E+04  0.25500000920E-02 0.  1.
       -2    1    3    3    0  502  0.24526162165E+03 -0.58695465549E+03 -0.13846047848E+04  0.15237452020E+04  0.25500000920E-02 0. -1.
</event>
<event>
 5   0  0.1370997E-07  0.3651672E+04  0.7818609E-02  0.8078757E-01
        1   -1    0    0  501    0  0.00000000000E+00  0.00000000000E+00  0.12417677603E+04  0.12417677603E+04  0.50400001928E-02 0. -1.
       -1   -1    0    0    0  501  0.00000000000E+00  0.00000000000E+00 -0.26846218811E+04  0.26846218811E+04  0.50400001928E-02 0.  1.
    10030    2    1    2    0    0  0.00000000000E+00  0.00000000000E+00 -0.14428541208E+04  0.39263896414E+04  0.36516718913E+04 0.  0.
        3    1    3    3  502    0 -0.68167613312E+03  0.62221687582E+03 -0.24153302970E+04  0.25856636759E+04  0.10100000352E+00 0.  1.
       -3    1    3    3    0  502  0.68167613312E+03 -0.62221687582E+03  0.97247617621E+03  0.13407259655E+04  0.10100000352E+00 0. -1.
</event>
<event>
 5   0  0.1298250E-07  0.3566585E+04  0.7818609E-02  0.8098189E-01
       -1   -1    0    0    0  501  0.00000000000E+00  0.00000000000E+00  0.35579365027E+04  0.35579365027E+04  0.50400001928E-02 0.  1.
        1   -1    0    0  501    0  0.00000000000E+00  0.00000000000E+00 -0.89381368462E+03  0.89381368463E+03  0.50400001928E-02 0. -1.
    10030    2    1    2    0    0  0.00000000000E+00  0.00000000000E+00  0.26641228181E+04  0.44517501873E+04  0.35665851091E+04 0.  0.
        1    1    3    3  502    0  0.12176751931E+04 -0.92060063753E+03  0.24827572839E+04  0.29145020399E+04  0.50400001928E-02 0.  1.
       -1    1    3    3    0  502 -0.12176751931E+04  0.92060063753E+03  0.18136553419E+03  0.15372481474E+04  0.50400001928E-02 0. -1.
</event>
<event>
 5   0  0.1298250E-07  0.3599793E+04  0.7818609E-02  0.8090539E-01
        1   -1    0    0  501    0  0.00000000000E+00  0.00000000000E+00  0.16712411416E+04  0.16712411416E+04  0.50400001928E-02 0. -1.
       -1   -1    0    0    0  501  0.00000000000E+00  0.00000000000E+00 -0.19384564457E+04  0.19384564457E+04  0.50400001928E-02 0.  1.
    10030    2    1    2    0    0  0.00000000000E+00  0.00000000000E+00 -0.26721530411E+03  0.36096975874E+04  0.35997934182E+04 0.  0.
        2    1    3    3  502    0 -0.89912450275E+03  0.64058224220E+03  0.12918722729E+04  0.16993247041E+04  0.25500000920E-02 0. -1.
       -2    1    3    3    0  502  0.89912450275E+03 -0.64058224220E+03 -0.15590875770E+04  0.19103728833E+04  0.25500000920E-02 0.  1.
</event>
<event>
 5   0  0.4120440E-07  0.3586174E+04  0.7818609E-02  0.8093666E-01
        2   -1    0    0  501    0  0.00000000000E+00  0.00000000000E+00  0.28371456719E+04  0.28371456719E+04  0.25500000920E-02 0. -1.
       -2   -1    0    0    0  501  0.00000000000E+00  0.00000000000E+00 -0.11332377538E+04  0.11332377538E+04  0.25500000920E-02 0.  1.
    10030    2    1    2    0    0  0.00000000000E+00  0.00000000000E+00  0.17039079181E+04  0.39703834257E+04  0.35861737763E+04 0.  0.
        2    1    3    3  502    0 -0.17145137150E+04 -0.22507850370E+02  0.27126467184E+03  0.17359862915E+04  0.25500000920E-02 0.  1.
       -2    1    3    3    0  502  0.17145137150E+04  0.22507850370E+02  0.14326432463E+04  0.22343971342E+04  0.25500000920E-02 0. -1.
</event>
<event>
 5   0  0.3880259E-07  0.3633460E+04  0.7818609E-02  0.8082870E-01
       -2   -1    0    0    0  501  0.00000000000E+00  0.00000000000E+00  0.14766403749E+04  0.14766403749E+04  0.25500000920E-02 0.  1.
        2   -1    0    0  501    0  0.00000000000E+00  0.00000000000E+00 -0.22351462994E+04  0.22351462994E+04  0.25500000920E-02 0. -1.
    10030    2    1    2    0    0  0.00000000000E+00  0.00000000000E+00 -0.75850592449E+03  0.37117866743E+04  0.36334596569E+04 0.  0.
        5    1    3    3  502    0  0.13560823592E+04  0.51491491538E+03  0.73812157557E+03  0.16275571527E+04  0.46999998093E+01 0.  1.
       -5    1    3    3    0  502 -0.13560823592E+04 -0.51491491538E+03 -0.14966275001E+04  0.20842295216E+04  0.46999998093E+01 0. -1.
</event>
<event>
 5   0  0.1298250E-07  0.3558266E+04  0.7818609E-02  0.8100119E-01
       -1   -1    0    0    0  501  0.00000000000E+00  0.00000000000E+00  0.15207991374E+04  0.15207991374E+04  0.50400001928E-02 0. -1.
        1   -1    0    0  501    0  0.00000000000E+00  0.00000000000E+00 -0.20813498877E+04  0.20813498877E+04  0.50400001928E-02 0.  1.
    10030    2    1    2    0    0  0.00000000000E+00  0.00000000000E+00 -0.56055075031E+03  0.36021490251E+04  0.35582664959E+04 0.  0.
        1    1    3    3  502    0  0.12980635348E+03 -0.15952570027E+04  0.50623635147E+03  0.16786809815E+04  0.50400001928E-02 0. -1.
       -1    1    3    3    0  502 -0.12980635348E+03  0.15952570027E+04 -0.10667871018E+04  0.19234680436E+04  0.50400001928E-02 0.  1.
</event>
<event>
 5   0  0.3993751E-07  0.3602607E+04  0.7818609E-02  0.8089895E-01
        2   -1    0    0  501    0  0.00000000000E+00  0.00000000000E+00  0.22996036989E+04  0.22996036989E+04  0.25500000920E-02 0. -1.
       -2   -1    0    0    0  501  0.00000000000E+00  0.00000000000E+00 -0.14109797660E+04  0.14109797660E+04  0.25500000920E-02 0.  1.
    10030    2    1    2    0    0  0.00000000000E+00  0.00000000000E+00  0.88862393285E+03  0.37105834650E+04  0.36026069944E+04 0.  0.
        1    1    3    3  502    0  0.11599167737E+04 -0.10670193444E+03  0.18595029331E+04  0.21942067776E+04  0.50400001928E-02 0. -1.
       -1    1    3    3    0  502 -0.11599167737E+04  0.10670193444E+03 -0.97087900028E+03  0.15163766873E+04  0.50400001928E-02 0.  1.
</event>
<event>
 5   0  0.1298250E-07  0.3573630E+04  0.7818609E-02  0.8096559E-01
        1   -1    0    0  501    0  0.00000000000E+00  0.00000000000E+00  0.24501273440E+04  0.24501273440E+04  0.50400001928E-02 0. -1.
       -1   -1    0    0    0  501  0.00000000000E+00  0.00000000000E+00 -0.13030780771E+04  0.13030780771E+04  0.50400001928E-02 0.  1.
    10030    2    1    2    0    0  0.00000000000E+00  0.00000000000E+00  0.11470492669E+04  0.37532054211E+04  0.35736296551E+04 0.  0.
        1    1    3    3  502    0 -0.52498286380E+03 -0.50558408971E+03  0.22869089955E+04  0.24002447860E+04  0.50400001928E-02 0. -1.
       -1    1    3    3    0  502  0.52498286380E+03  0.50558408971E+03 -0.11398597286E+04  0.13529606350E+04  0.50400001928E-02 0.  1.
</event>
<event>
 5   0  0.3880259E-07  0.3472043E+04  0.7818609E-02  0.8120448E-01
       -2   -1    0    0    0  501  0.00000000000E+00  0.00000000000E+00  0.11865100432E+04  0.11865100432E+04  0.25500000920E-02 0.  1.
        2   -1    0    0  501    0  0.00000000000E+00  0.00000000000E+00 -0.25400295401E+04  0.25400295401E+04  0.25500000920E-02 0. -1.
    10030    2    1    2    0    0  0.00000000000E+00  0.00000000000E+00 -0.13535194969E+04  0.37265395833E+04  0.34720429486E+04 0.  0.
        5    1    3    3  502    0 -0.49335376545E+03 -0.16314558660E+04 -0.32289280560E+03  0.17347414892E+04  0.46999998093E+01 0.  1.
       -5    1    3    3    0  502  0.49335376545E+03  0.16314558660E+04 -0.10306266913E+04  0.19917980940E+04  0.46999998093E+01 0. -1.
</event>
<event>
 5   0  0.3993751E-07  0.3597813E+04  0.7818609E-02  0.8090993E-01
       -2   -1    0    0    0  501  0.00000000000E+00  0.00000000000E+00  0.18822288095E+04  0.18822288095E+04  0.25500000920E-02 0. -1.
        2   -1    0    0  501    0  0.00000000000E+00  0.00000000000E+00 -0.17192725419E+04  0.17192725419E+04  0.25500000920E-02 0.  1.
    10030    2    1    2    0    0  0.00000000000E+00  0.00000000000E+00  0.16295626760E+03  0.36015013514E+04  0.35978128410E+04 0.  0.
        1    1    3    3  502    0 -0.29946628809E+03 -0.40894266247E+03 -0.16463128795E+04  0.17225737302E+04  0.50400001928E-02 0.  1.
       -1    1    3    3    0  502  0.29946628809E+03  0.40894266247E+03  0.18092691471E+04  0.18789276211E+04  0.50400001928E-02 0. -1.
</event>
<event>
 5   0  0.3880259E-07  0.3629354E+04  0.7818609E-02  0.8083801E-01
        2   -1    0    0  501    0  0.00000000000E+00  0.00000000000E+00  0.17881479389E+04  0.17881479389E+04  0.25500000920E-02 0.  1.
       -2   -1    0    0    0  501  0.00000000000E+00  0.00000000000E+00 -0.18415996518E+04  0.18415996518E+04  0.25500000920E-02 0. -1.
    10030    2    1    2    0    0  0.00000000000E+00  0.00000000000E+00 -0.53451712968E+02  0.36297475907E+04  0.36293540041E+04 0.  0.
        5    1    3    3  502    0 -0.15117108195E+04  0.97453690257E+03  0.21421260917E+03  0.18113257322E+04  0.46999998093E+01 0. -1.
       -5    1    3    3    0  502  0.15117108195E+04 -0.97453690257E+03 -0.26766432214E+03  0.18184218585E+04  0.46999998093E+01 0.  1.
</event>
<event>
 5   0  0.3880259E-07  0.3632770E+04  0.7818609E-02  0.8083026E-01
        2   -1    0    0  501    0  0.00000000000E+00  0.00000000000E+00  0.20302409124E+04  0.20302409124E+04  0.25500000920E-02 0.  1.
       -2   -1    0    0    0  501  0.00000000000E+00  0.00000000000E+00 -0.16250559649E+04  0.16250559649E+04  0.25500000920E-02 0. -1.
    10030    2    1    2    0    0  0.00000000000E+00  0.00000000000E+00  0.40518494754E+03  0.36552968773E+04  0.36327703506E+04 0.  0.
        5    1    3    3  502    0 -0.19095411435E+03  0.93756987391E+03 -0.13509153659E+04  0.16554440970E+04  0.46999998093E+01 0. -1.
       -5    1    3    3    0  502  0.19095411435E+03 -0.93756987391E+03  0.17561003135E+04  0.19998527804E+04  0.46999998093E+01 0.  1.
</event>
<event>
 5   0  0.1298250E-07  0.3629844E+04  0.7818609E-02  0.8083690E-01
        1   -1    0    0  501    0  0.00000000000E+00  0.00000000000E+00  0.24718226401E+04  0.24718226401E+04  0.50400001928E-02 0.  1.
       -1   -1    0    0    0  501  0.00000000000E+00  0.00000000000E+00 -0.13325960238E+04  0.13325960238E+04  0.50400001928E-02 0. -1.
    10030    2    1    2    0    0  0.00000000000E+00  0.00000000000E+00  0.11392266162E+04  0.38044186639E+04  0.36298435348E+04 0.  0.
        2    1    3    3  502    0 -0.12064673541E+04  0.13134155669E+04  0.92242917871E+03  0.20078594367E+04  0.25500000920E-02 0.  1.
       -2    1    3    3    0  502  0.12064673541E+04 -0.13134155669E+04  0.21679743753E+03  0.17965592272E+04  0.25500000920E-02 0. -1.
</event>
<event>
 5   0  0.3993751E-07  0.3603414E+04  0.7818609E-02  0.8089710E-01
       -2   -1    0    0    0  501  0.00000000000E+00  0.00000000000E+00  0.11709352752E+04  0.11709352752E+04  0.25500000920E-02 0.  1.
        2   -1    0    0  501    0  0.00000000000E+00  0.00000000000E+00 -0.27722689964E+04  0.27722689964E+04  0.25500000920E-02 0. -1.
    10030    2    1    2    0    0  0.00000000000E+00  0.00000000000E+00 -0.16013337212E+04  0.39432042717E+04  0.36034136928E+04 0.  0.
        1    1    3    3  502    0  0.16459805033E+04 -0.43317955110E+03 -0.15396499051E+03  0.17089767579E+04  0.50400001928E-02 0.  1.
       -1    1    3    3    0  502 -0.16459805033E+04  0.43317955110E+03 -0.14473687307E+04  0.22342275138E+04  0.50400001928E-02 0. -1.
</event>
<event>
 5   0  0.1298250E-07  0.3614561E+04  0.7818609E-02  0.8087164E-01
        1   -1    0    0  501    0  0.00000000000E+00  0.00000000000E+00  0.19725056671E+04  0.19725056671E+04  0.50400001928E-02 0.  1.
       -1   -1    0    0    0  501  0.00000000000E+00  0.00000000000E+00 -0.16558952499E+04  0.16558952499E+04  0.50400001928E-02 0. -1.
    10030    2    1    2    0    0  0.00000000000E+00  0.00000000000E+00  0.31661041717E+03  0.36284009170E+04  0.36145609772E+04 0.  0.
        2    1    3    3  502    0 -0.59845901355E+03  0.12449694127E+04  0.13281689958E+04  0.19162815323E+04  0.25500000920E-02 0.  1.
       -2    1    3    3    0  502  0.59845901355E+03 -0.12449694127E+04 -0.10115585786E+04  0.17121193847E+04  0.25500000920E-02 0. -1.
</event>
<event>
 5   0  0.4200635E-07  0.3605423E+04  0.7818609E-02  0.8089251E-01
       -2   -1    0    0    0  501  0.00000000000E+00  0.00000000000E+00  0.18692975326E+04  0.18692975326E+04  0.25500000920E-02 0. -1.
        2   -1    0    0  501    0  0.00000000000E+00  0.00000000000E+00 -0.17384976308E+04  0.17384976308E+04  0.25500000920E-02 0.  1.
    10030    2    1    2    0    0  0.00000000000E+00  0.00000000000E+00  0.13079990174E+03  0.36077951634E+04  0.36054233214E+04 0.  0.
        4    1    3    3  502    0  0.57026889966E+03  0.13559906486E+04 -0.97732704781E+03  0.17660937201E+04  0.12699999809E+01 0.  1.
       -4    1    3    3    0  502 -0.57026889966E+03 -0.13559906486E+04  0.11081269496E+04  0.18417014433E+04  0.12699999809E+01 0. -1.
</event>
<event>
 5   0  0.1370997E-07  0.3614352E+04  0.7818609E-02  0.8087212E-01
        1   -1    0    0  501    0  0.00000000000E+00  0.00000000000E+00  0.15070417939E+04  0.15070417939E+04  0.50400001928E-02 0. -1.
       -1   -1    0    0    0  501  0.00000000000E+00  0.00000000000E+00 -0.21670828944E+04  0.21670828944E+04  0.50400001928E-02 0.  1.
    10030    2    1    2    0    0  0.00000000000E+00  0.00000000000E+00 -0.66004110054E+03  0.36741246884E+04  0.36143516668E+04 0.  0.
        3    1    3    3  502    0 -0.95297887695E+03 -0.71872119148E+03  0.10493111914E+04  0.15892711781E+04  0.10100000352E+00 0. -1.
       -3    1    3    3    0  502  0.95297887695E+03  0.71872119148E+03 -0.17093522919E+04  0.20848535102E+04  0.10100000352E+00 0.  1.
</event>
<event>
 5   0  0.4115358E-07  0.3601505E+04  0.7818609E-02  0.8090147E-01
        2   -1    0    0  501    0  0.00000000000E+00  0.00000000000E+00  0.19006221343E+04  0.19006221343E+04  0.25500000920E-02 0.  1.
       -2   -1    0    0    0  501  0.00000000000E+00  0.00000000000E+00 -0.17061308601E+04  0.17061308601E+04  0.25500000920E-02 0. -1.
    10030    2    1    2    0    0  0.00000000000E+00  0.00000000000E+00  0.19449127420E+03  0.36067529944E+04  0.36015052834E+04 0.  0.
        3    1    3    3  502    0  0.15405904875E+04  0.68944721651E+03 -0.53132610773E+03  0.17694812679E+04  0.10100000352E+00 0. -1.
       -3    1    3    3    0  502 -0.15405904875E+04 -0.68944721651E+03  0.72581738193E+03  0.18372717264E+04  0.10100000352E+00 0.  1.
</event>
<event>
 5   0  0.1348226E-07  0.3611845E+04  0.7818609E-02  0.8087784E-01
       -1   -1    0    0    0  501  0.00000000000E+00  0.00000000000E+00  0.14020041916E+04  0.14020041916E+04  0.50400001928E-02 0.  1.
        1   -1    0    0  501    0  0.00000000000E+00  0.00000000000E+00 -0.23262098844E+04  0.23262098844E+04  0.50400001928E-02 0. -1.
    10030    2    1    2    0    0  0.00000000000E+00  0.00000000000E+00 -0.92420569279E+03  0.37282140760E+04  0.36118449626E+04 0.  0.
        4    1    3    3  502    0  0.33262731820E+03 -0.17085110640E+04 -0.95896732734E+03  0.19872772671E+04  0.12699999809E+01 0. -1.
       -4    1    3    3    0  502 -0.33262731820E+03  0.17085110640E+04  0.34761634553E+02  0.17409368089E+04  0.12699999809E+01 0.  1.
</event>
<event>
 5   0  0.3993751E-07  0.3570980E+04  0.7818609E-02  0.8097172E-01
        2   -1    0    0  501    0  0.00000000000E+00  0.00000000000E+00  0.26373587573E+04  0.26373587573E+04  0.25500000920E-02 0.  1.
       -2   -1    0    0    0  501  0.00000000000E+00  0.00000000000E+00 -0.12087756926E+04  0.12087756926E+04  0.25500000920E-02 0. -1.
    10030    2    1    2    0    0  0.00000000000E+00  0.00000000000E+00  0.14285830647E+04  0.38461344500E+04  0.35709803464E+04 0.  0.
        1    1    3    3  502    0 -0.15835561167E+04 -0.39571722112E+02  0.16016413951E+04  0.22526586636E+04  0.50400001928E-02 0.  1.
       -1    1    3    3    0  502  0.15835561167E+04  0.39571722112E+02 -0.17305833045E+03  0.15934757864E+04  0.50400001928E-02 0. -1.
</event>
<event>
 5   0  0.1361743E-07  0.3606846E+04  0.7818609E-02  0.8088925E-01
        1   -1    0    0  501    0  0.00000000000E+00  0.00000000000E+00  0.20755725823E+04  0.20755725823E+04  0.50400001928E-02 0.  1.
       -1   -1    0    0    0  501  0.00000000000E+00  0.00000000000E+00 -0.15669573371E+04  0.15669573371E+04  0.50400001928E-02 0. -1.
    10030    2    1    2    0    0  0.00000000000E+00  0.00000000000E+00  0.50861524523E+03  0.36425299194E+04  0.36068455395E+04 0.  0.
        5    1    3    3  502    0  0.13913353186E+04 -0.78303027029E+03 -0.59265607138E+03  0.17030013746E+04  0.46999998093E+01 0. -1.
       -5    1    3    3    0  502 -0.13913353186E+04  0.78303027029E+03  0.11012713166E+04  0.19395285447E+04  0.46999998093E+01 0.  1.
</event>
<event>
 5   0  0.1348226E-07  0.3602143E+04  0.7818609E-02  0.8090001E-01
       -1   -1    0    0    0  501  0.00000000000E+00  0.00000000000E+00  0.19500157655E+04  0.19500157655E+04  0.50400001928E-02 0.  1.
        1   -1    0    0  501    0  0.00000000000E+00  0.00000000000E+00 -0.16635037413E+04  0.16635037414E+04  0.50400001928E-02 0. -1.
    10030    2    1    2    0    0  0.00000000000E+00  0.00000000000E+00  0.28651202416E+03  0.36135195069E+04  0.36021429853E+04 0.  0.
        4    1    3    3  502    0 -0.64012486708E+03  0.15158172465E+04  0.87795911178E+03  0.18650135616E+04  0.12699999809E+01 0.  1.
       -4    1    3    3    0  502  0.64012486708E+03 -0.15158172465E+04 -0.59144708762E+03  0.17485059452E+04  0.12699999809E+01 0. -1.
</event>
<event>
 5   0  0.4115358E-07  0.3576015E+04  0.7818609E-02  0.8096008E-01
       -2   -1    0    0    0  501  0.00000000000E+00  0.00000000000E+00  0.22309351554E+04  0.22309351554E+04  0.25500000920E-02 0.  1.
        2   -1    0    0  501    0  0.00000000000E+00  0.00000000000E+00 -0.14330182520E+04  0.14330182520E+04  0.25500000920E-02 0. -1.
    10030    2    1    2    0    0  0.00000000000E+00  0.00000000000E+00  0.79791690342E+03  0.36639534073E+04  0.35760149869E+04 0.  0.
        3    1    3    3  502    0 -0.97252228978E+03  0.33671296213E+03 -0.10991170356E+04  0.15057335392E+04  0.10100000352E+00 0. -1.
       -3    1    3    3    0  502  0.97252228978E+03 -0.33671296213E+03  0.18970339390E+04  0.21582198681E+04  0.10100000352E+00 0.  1.
</event>
<event>
 5   0  0.1298250E-07  0.3702468E+04  0.7818609E-02  0.8067415E-01
       -3   -1    0    0    0  501  0.00000000000E+00  0.00000000000E+00  0.27254384261E+04  0.27254384279E+04  0.10100000352E+00 0.  1.
        3   -1    0    0  501    0  0.00000000000E+00  0.00000000000E+00 -0.12574373002E+04  0.12574373042E+04  0.10100000352E+00 0. -1.
    10030    2    1    2    0    0  0.00000000000E+00  0.00000000000E+00  0.14680011259E+04  0.39828757322E+04  0.37024683378E+04 0.  0.
        2    1    3    3  502    0  0.12307183640E+04 -0.61296397567E+03 -0.59951004727E+03  0.14999349399E+04  0.25500000920E-02 0. -1.
       -2    1    3    3    0  502 -0.12307183640E+04  0.61296397567E+03  0.20675111732E+04  0.24829407923E+04  0.25500000920E-02 0.  1.
</event>
<event>
 5   0  0.1370997E-07  0.3399255E+04  0.7818609E-02  0.8138089E-01
        1   -1    0    0  501    0  0.00000000000E+00  0.00000000000E+00  0.15226099249E+04  0.15226099249E+04  0.50400001928E-02 0.  1.
       -1   -1    0    0    0  501  0.00000000000E+00  0.00000000000E+00 -0.18972248856E+04  0.18972248856E+04  0.50400001928E-02 0. -1.
    10030    2    1    2    0    0  0.00000000000E+00  0.00000000000E+00 -0.37461496068E+03  0.34198348105E+04  0.33992548834E+04 0.  0.
        3    1    3    3  502    0  0.14680315728E+04  0.56441035485E+03 -0.83545763236E+03  0.17809169585E+04  0.10100000352E+00 0.  1.
       -3    1    3    3    0  502 -0.14680315728E+04 -0.56441035485E+03  0.46084267168E+03  0.16389178520E+04  0.10100000352E+00 0. -1.
</event>
<event>
 5   0  0.1298250E-07  0.3643657E+04  0.7818609E-02  0.8080564E-01
       -1   -1    0    0    0  501  0.00000000000E+00  0.00000000000E+00  0.12798857825E+04  0.12798857825E+04  0.50400001928E-02 0. -1.
        1   -1    0    0  501    0  0.00000000000E+00  0.00000000000E+00 -0.25932456992E+04  0.25932456992E+04  0.50400001928E-02 0.  1.
    10030    2    1    2    0    0  0.00000000000E+00  0.00000000000E+00 -0.13133599167E+04  0.38731314817E+04  0.36436565705E+04 0.  0.
        2    1    3    3  502    0 -0.67770127258E+03 -0.13760952486E+04  0.38814874451E+03  0.15822694448E+04  0.25500000920E-02 0. -1.
       -2    1    3    3    0  502  0.67770127258E+03  0.13760952486E+04 -0.17015086612E+04  0.22908620369E+04  0.25500000920E-02 0.  1.
</event>
<event>
 5   0  0.4120440E-07  0.3617227E+04  0.7818609E-02  0.8086557E-01
       -2   -1    0    0    0  501  0.00000000000E+00  0.00000000000E+00  0.16230333872E+04  0.16230333872E+04  0.25500000920E-02 0.  1.
        2   -1    0    0  501    0  0.00000000000E+00  0.00000000000E+00 -0.20154136763E+04  0.20154136763E+04  0.25500000920E-02 0. -1.
    10030    2    1    2    0    0  0.00000000000E+00  0.00000000000E+00 -0.39238028912E+03  0.36384470635E+04  0.36172274939E+04 0.  0.
        2    1    3    3  502    0 -0.10197292308E+04  0.11290455372E+04  0.78755124466E+03  0.17131341139E+04  0.25500000920E-02 0.  1.
       -2    1    3    3    0  502  0.10197292308E+04 -0.11290455372E+04 -0.11799315338E+04  0.19253129496E+04  0.25500000920E-02 0. -1.
</event>
<event>
 5   0  0.1298250E-07  0.3577174E+04  0.7818609E-02  0.8095740E-01
        1   -1    0    0  501    0  0.00000000000E+00  0.00000000000E+00  0.14412619231E+04  0.14412619231E+04  0.50400001928E-02 0.  1.
       -1   -1    0    0    0  501  0.00000000000E+00  0.00000000000E+00 -0.22196127306E+04  0.22196127306E+04  0.50400001928E-02 0. -1.
    10030    2    1    2    0    0  0.00000000000E+00  0.00000000000E+00 -0.77835080749E+03  0.36608746536E+04  0.35771739195E+04 0.  0.
        2    1    3    3  502    0 -0.84319419589E+02 -0.11657405178E+03 -0.22136812366E+04  0.22183516158E+04  0.25500000920E-02 0. -1.
       -2    1    3    3    0  502  0.84319419589E+02  0.11657405178E+03  0.14353304291E+04  0.14425230379E+04  0.25500000920E-02 0.  1.
</event>
<event>
 5   0  0.1298250E-07  0.3591911E+04  0.7818609E-02  0.8092347E-01
       -1   -1    0    0    0  501  0.00000000000E+00  0.00000000000E+00  0.23697590843E+04  0.23697590843E+04  0.50400001928E-02 0.  1.
        1   -1    0    0  501    0  0.00000000000E+00  0.00000000000E+00 -0.13610901515E+04  0.13610901515E+04  0.50400001928E-02 0. -1.
    10030    2    1    2    0    0  0.00000000000E+00  0.00000000000E+00  0.10086689328E+04  0.37308492358E+04  0.35919107734E+04 0.  0.
        2    1    3    3  502    0 -0.17220680582E+04 -0.42536071795E+03  0.21238268152E+03  0.17864928046E+04  0.25500000920E-02 0. -1.
       -2    1    3    3    0  502  0.17220680582E+04  0.42536071795E+03  0.79628625126E+03  0.19443564312E+04  0.25500000920E-02 0.  1.
</event>
<event>
 5   0  0.1370997E-07  0.3603587E+04  0.7818609E-02  0.8089670E-01
        1   -1    0    0  501    0  0.00000000000E+00  0.00000000000E+00  0.24429387003E+04  0.24429387004E+04  0.50400001928E-02 0. -1.
       -1   -1    0    0    0  501  0.00000000000E+00  0.00000000000E+00 -0.13289159787E+04  0.13289159788E+04  0.50400001928E-02 0.  1.
    10030    2    1    2    0    0  0.00000000000E+00  0.00000000000E+00  0.11140227216E+04  0.37718546791E+04  0.36035872538E+04 0.  0.
        3    1    3    3  502    0 -0.17786484151E+04  0.27506742163E+03  0.64587561181E+03  0.19121735243E+04  0.10100000352E+00 0.  1.
       -3    1    3    3    0  502  0.17786484151E+04 -0.27506742163E+03  0.46814710978E+03  0.18596811548E+04  0.10100000352E+00 0. -1.
</event>
<event>
 5   0  0.3993751E-07  0.3578908E+04  0.7818609E-02  0.8095340E-01
       -2   -1    0    0    0  501  0.00000000000E+00  0.00000000000E+00  0.17638557167E+04  0.17638557167E+04  0.25500000920E-02 0. -1.
        2   -1    0    0  501    0  0.00000000000E+00  0.00000000000E+00 -0.18154241881E+04  0.18154241881E+04  0.25500000920E-02 0.  1.
    10030    2    1    2    0    0  0.00000000000E+00  0.00000000000E+00 -0.51568471353E+02  0.35792799048E+04  0.35789083992E+04 0.  0.
        1    1    3    3  502    0  0.71642802168E+03  0.43208700099E+03  0.15562074033E+04  0.17668474096E+04  0.50400001928E-02 0. -1.
       -1    1    3    3    0  502 -0.71642802168E+03 -0.43208700099E+03 -0.16077758746E+04  0.18124324952E+04  0.50400001928E-02 0.  1.
</event>
<event>
 5   0  0.4200635E-07  0.3582516E+04  0.7818609E-02  0.8094508E-01
       -2   -1    0    0    0  501  0.00000000000E+00  0.00000000000E+00  0.14525219626E+04  0.14525219626E+04  0.25500000920E-02 0. -1.
        2   -1    0    0  501    0  0.00000000000E+00  0.00000000000E+00 -0.22089889811E+04  0.22089889811E+04  0.25500000920E-02 0.  1.
    10030    2    1    2    0    0  0.00000000000E+00  0.00000000000E+00 -0.75646701854E+03  0.36615109437E+04  0.35825158815E+04 0.  0.
        4    1    3    3  502    0 -0.16814431525E+04 -0.13040411165E+03 -0.99515495088E+03  0.19582112492E+04  0.12699999809E+01 0.  1.
       -4    1    3    3    0  502  0.16814431525E+04  0.13040411165E+03  0.23868793235E+03  0.17032996945E+04  0.12699999809E+01 0. -1.
</event>
<event>
 5   0  0.1298250E-07  0.3593844E+04  0.7818609E-02  0.8091903E-01
       -1   -1    0    0    0  501  0.00000000000E+00  0.00000000000E+00  0.20384293923E+04  0.20384293923E+04  0.50400001928E-02 0. -1.
        1   -1    0    0  501    0  0.00000000000E+00  0.00000000000E+00 -0.15840274772E+04  0.15840274772E+04  0.50400001928E-02 0.  1.
    10030    2    1    2    0    0  0.00000000000E+00  0.00000000000E+00  0.45440191514E+03  0.36224568695E+04  0.35938437182E+04 0.  0.
        1    1    3    3  502    0  0.10745536968E+04  0.30354541788E+02  0.16785752172E+04  0.19932891927E+04  0.50400001928E-02 0. -1.
       -1    1    3    3    0  502 -0.10745536968E+04 -0.30354541788E+02 -0.12241733021E+04  0.16291676768E+04  0.50400001928E-02 0.  1.
</event>
<event>
 5   0  0.3993751E-07  0.3594363E+04  0.7818609E-02  0.8091784E-01
        2   -1    0    0  501    0  0.00000000000E+00  0.00000000000E+00  0.22479213100E+04  0.22479213100E+04  0.25500000920E-02 0.  1.
       -2   -1    0    0    0  501  0.00000000000E+00  0.00000000000E+00 -0.14368210142E+04  0.14368210142E+04  0.25500000920E-02 0. -1.
    10030    2    1    2    0    0  0.00000000000E+00  0.00000000000E+00  0.81110029585E+03  0.36847423242E+04  0.35943625729E+04 0.  0.
        1    1    3    3  502    0  0.71071133239E+03  0.55476712983E+03 -0.11882067379E+04  0.14915469883E+04  0.50400001928E-02 0. -1.
       -1    1    3    3    0  502 -0.71071133239E+03 -0.55476712983E+03  0.19993070337E+04  0.21931953359E+04  0.50400001928E-02 0.  1.
</event>
<event>
 5   0  0.4200635E-07  0.3606045E+04  0.7818609E-02  0.8089108E-01
        2   -1    0    0  501    0  0.00000000000E+00  0.00000000000E+00  0.14779746235E+04  0.14779746235E+04  0.25500000920E-02 0.  1.
       -2   -1    0    0    0  501  0.00000000000E+00  0.00000000000E+00 -0.21995578261E+04  0.21995578261E+04  0.25500000920E-02 0. -1.
    10030    2    1    2    0    0  0.00000000000E+00  0.00000000000E+00 -0.72158320265E+03  0.36775324496E+04  0.36060452853E+04 0.  0.
        4    1    3    3  502    0 -0.64661717616E+03  0.90384561589E+01 -0.20772178033E+04  0.21755530059E+04  0.12699999809E+01 0. -1.
       -4    1    3    3    0  502  0.64661717616E+03 -0.90384561589E+01  0.13556346006E+04  0.15019794438E+04  0.12699999809E+01 0.  1.
</event>
<event>
 5   0  0.3880259E-07  0.3584125E+04  0.7818609E-02  0.8094138E-01
        2   -1    0    0  501    0  0.00000000000E+00  0.00000000000E+00  0.21775362744E+04  0.21775362744E+04  0.25500000920E-02 0.  1.
       -2   -1    0    0    0  501  0.00000000000E+00  0.00000000000E+00 -0.14748264767E+04  0.14748264767E+04  0.25500000920E-02 0. -1.
    10030    2    1    2    0    0  0.00000000000E+00  0.00000000000E+00  0.70270979762E+03  0.36523627511E+04  0.35841250823E+04 0.  0.
        5    1    3    3  502    0 -0.63978468399E+03  0.15391572869E+04 -0.31930620834E+03  0.16971470591E+04  0.46999998093E+01 0. -1.
       -5    1    3    3    0  502  0.63978468399E+03 -0.15391572869E+04  0.10220160060E+04  0.19552156920E+04  0.46999998093E+01 0.  1.
</event>
<event>
 5   0  0.3993751E-07  0.3575601E+04  0.7818609E-02  0.8096104E-01
        2   -1    0    0  501    0  0.00000000000E+00  0.00000000000E+00  0.30025961947E+04  0.30025961947E+04  0.25500000920E-02 0.  1.
       -2   -1    0    0    0  501  0.00000000000E+00  0.00000000000E+00 -0.10644888617E+04  0.10644888617E+04  0.25500000920E-02 0. -1.
    10030    2    1    2    0    0  0.00000000000E+00  0.00000000000E+00  0.19381073330E+04  0.40670850564E+04  0.35756007638E+04 0.  0.
        1    1    3    3  502    0 -0.94517079221E+03  0.12119787837E+04  0.20078122011E+04  0.25285470598E+04  0.50400001928E-02 0. -1.
       -1    1    3    3    0  502  0.94517079221E+03 -0.12119787837E+04 -0.69704868081E+02  0.15385379967E+04  0.50400001928E-02 0.  1.
</event>
<event>
 5   0  0.3880259E-07  0.3596108E+04  0.7818609E-02  0.8091384E-01
        2   -1    0    0  501    0  0.00000000000E+00  0.00000000000E+00  0.89642173577E+03  0.89642173577E+03  0.25500000920E-02 0.  1.
       -2   -1    0    0    0  501  0.00000000000E+00  0.00000000000E+00 -0.36065585288E+04  0.36065585288E+04  0.25500000920E-02 0. -1.
    10030    2    1    2    0    0  0.00000000000E+00  0.00000000000E+00 -0.27101367930E+04  0.45029802646E+04  0.35961075938E+04 0.  0.
        5    1    3    3  502    0 -0.14608592126E+04  0.38945303356E+03 -0.25737391573E+04  0.29849520338E+04  0.46999998093E+01 0.  1.
       -5    1    3    3    0  502  0.14608592126E+04 -0.38945303356E+03 -0.13639763574E+03  0.15180282308E+04  0.46999998093E+01 0. -1.
</event>
<event>
 5   0  0.3993751E-07  0.3577507E+04  0.7818609E-02  0.8095664E-01
       -2   -1    0    0    0  501  0.00000000000E+00  0.00000000000E+00  0.12894724425E+04  0.12894724425E+04  0.25500000920E-02 0.  1.
        2   -1    0    0  501    0  0.00000000000E+00  0.00000000000E+00 -0.24813549685E+04  0.24813549685E+04  0.25500000920E-02 0. -1.
    10030    2    1    2    0    0  0.00000000000E+00  0.00000000000E+00 -0.11918825260E+04  0.37708274109E+04  0.35775068703E+04 0.  0.
        1    1    3    3  502    0 -0.15730677260E+04 -0.84498008582E+03 -0.70701822246E+03  0.19205228931E+04  0.50400001928E-02 0. -1.
       -1    1    3    3    0  502  0.15730677260E+04  0.84498008582E+03 -0.48486430354E+03  0.18503045179E+04  0.50400001928E-02 0.  1.
</event>
<event>
 5   0  0.1348226E-07  0.3592340E+04  0.7818609E-02  0.8092249E-01
       -1   -1    0    0    0  501  0.00000000000E+00  0.00000000000E+00  0.13262719293E+04  0.13262719294E+04  0.50400001928E-02 0.  1.
        1   -1    0    0  501    0  0.00000000000E+00  0.00000000000E+00 -0.24325527367E+04  0.24325527367E+04  0.50400001928E-02 0. -1.
    10030    2    1    2    0    0  0.00000000000E+00  0.00000000000E+00 -0.11062808074E+04  0.37588246661E+04  0.35923398566E+04 0.  0.
        4    1    3    3  502    0 -0.60180661481E+02  0.56182114969E+03  0.12308568662E+04  0.13543540727E+04  0.12699999809E+01 0.  1.
       -4    1    3    3    0  502  0.60180661481E+02 -0.56182114969E+03 -0.23371376736E+04  0.24044705934E+04  0.12699999809E+01 0. -1.
</event>
<event>
 5   0  0.1370997E-07  0.3602587E+04  0.7818609E-02  0.8089899E-01
       -1   -1    0    0    0  501  0.00000000000E+00  0.00000000000E+00  0.17520431601E+04  0.17520431601E+04  0.50400001928E-02 0.  1.
        1   -1    0    0  501    0  0.00000000000E+00  0.00000000000E+00 -0.18519285745E+04  0.18519285745E+04  0.50400001928E-02 0. -1.
    10030    2    1    2    0    0  0.00000000000E+00  0.00000000000E+00 -0.99885414352E+02  0.36039717346E+04  0.36025872880E+04 0.  0.
        3    1    3    3  502    0 -0.42700602831E+03 -0.12019229688E+04  0.12224367148E+04  0.17667213993E+04  0.10100000352E+00 0.  1.
       -3    1    3    3    0  502  0.42700602831E+03  0.12019229688E+04 -0.13223221291E+04  0.18372503353E+04  0.10100000352E+00 0. -1.
</event>
<event>
 5   0  0.3993751E-07  0.3612416E+04  0.7818609E-02  0.8087654E-01
        2   -1    0    0  501    0  0.00000000000E+00  0.00000000000E+00  0.21514075276E+04  0.21514075276E+04  0.25500000920E-02 0.  1.
       -2   -1    0    0    0  501  0.00000000000E+00  0.00000000000E+00 -0.15163964083E+04  0.15163964083E+04  0.25500000920E-02 0. -1.
    10030    2    1    2    0    0  0.00000000000E+00  0.00000000000E+00  0.63501111932E+03  0.36678039358E+04  0.36124156170E+04 0.  0.
        1    1    3    3  502    0 -0.88028885544E+03 -0.12344394864E+03 -0.12789384636E+04  0.15575077757E+04  0.50400001928E-02 0. -1.
       -1    1    3    3    0  502  0.88028885544E+03  0.12344394864E+03  0.19139495830E+04  0.21102961602E+04  0.50400001928E-02 0.  1.
</event>
<event>
 5   0  0.1298250E-07  0.3589632E+04  0.7818609E-02  0.8092871E-01
       -1   -1    0    0    0  501  0.00000000000E+00  0.00000000000E+00  0.24536499356E+04  0.24536499356E+04  0.50400001928E-02 0. -1.
        1   -1    0    0  501    0  0.00000000000E+00  0.00000000000E+00 -0.13128864420E+04  0.13128864420E+04  0.50400001928E-02 0.  1.
    10030    2    1    2    0    0  0.00000000000E+00  0.00000000000E+00  0.11407634936E+04  0.37665363776E+04  0.35896315877E+04 0.  0.
        2    1    3    3  502    0  0.13704054787E+04 -0.11019598936E+04  0.19346161530E+03  0.17691111270E+04  0.25500000920E-02 0.  1.
       -2    1    3    3    0  502 -0.13704054787E+04  0.11019598936E+04  0.94730187828E+03  0.19974252506E+04  0.25500000920E-02 0. -1.
</event>
<event>
 5   0  0.4120440E-07  0.3634569E+04  0.7818609E-02  0.8082619E-01
       -2   -1    0    0    0  501  0.00000000000E+00  0.00000000000E+00  0.25957533543E+04  0.25957533543E+04  0.25500000920E-02 0. -1.
        2   -1    0    0  501    0  0.00000000000E+00  0.00000000000E+00 -0.12722792507E+04  0.12722792507E+04  0.25500000920E-02 0.  1.
    10030    2    1    2    0    0  0.00000000000E+00  0.00000000000E+00  0.13234741036E+04  0.38680326050E+04  0.36345690984E+04 0.  0.
        2    1    3    3  502    0 -0.11794754763E+04  0.37373410477E+03 -0.75480761423E+03  0.14493357495E+04  0.25500000920E-02 0.  1.
       -2    1    3    3    0  502  0.11794754763E+04 -0.37373410477E+03  0.20782817178E+04  0.24186968555E+04  0.25500000920E-02 0. -1.
</event>
<event>
 5   0  0.1348226E-07  0.3633990E+04  0.7818609E-02  0.8082750E-01
        1   -1    0    0  501    0  0.00000000000E+00  0.00000000000E+00  0.14909426784E+04  0.14909426785E+04  0.50400001928E-02 0.  1.
       -1   -1    0    0    0  501  0.00000000000E+00  0.00000000000E+00 -0.22143508750E+04  0.22143508750E+04  0.50400001928E-02 0. -1.
    10030    2    1    2    0    0  0.00000000000E+00  0.00000000000E+00 -0.72340819651E+03  0.37052935534E+04  0.36339896668E+04 0.  0.
        4    1    3    3  502    0 -0.37652612761E+02 -0.18020690152E+04 -0.59554700258E+03  0.18983014249E+04  0.12699999809E+01 0. -1.
       -4    1    3    3    0  502  0.37652612761E+02  0.18020690152E+04 -0.12786119393E+03  0.18069921285E+04  0.12699999809E+01 0.  1.
</event>
<event>
 5   0  0.3880259E-07  0.3609552E+04  0.7818609E-02  0.8088307E-01
       -2   -1    0    0    0  501  0.00000000000E+00  0.00000000000E+00  0.16928180410E+04  0.16928180410E+04  0.25500000920E-02 0. -1.
        2   -1    0    0  501    0  0.00000000000E+00  0.00000000000E+00 -0.19241382381E+04  0.19241382381E+04  0.25500000920E-02 0.  1.
    10030    2    1    2    0    0  0.00000000000E+00  0.00000000000E+00 -0.23132019710E+03  0.36169562791E+04  0.36095517300E+04 0.  0.
        5    1    3    3  502    0 -0.62357994643E+03 -0.13637327071E+04 -0.11219985927E+04  0.18728378942E+04  0.46999998093E+01 0.  1.
       -5    1    3    3    0  502  0.62357994643E+03  0.13637327071E+04  0.89067839557E+03  0.17441183849E+04  0.46999998093E+01 0. -1.
</event>
<event>
 5   0  0.1298250E-07  0.3610542E+04  0.7818609E-02  0.8088081E-01
       -1   -1    0    0    0  501  0.00000000000E+00  0.00000000000E+00  0.25408341716E+04  0.25408341716E+04  0.50400001928E-02 0.  1.
        1   -1    0    0  501    0  0.00000000000E+00  0.00000000000E+00 -0.12826512044E+04  0.12826512044E+04  0.50400001928E-02 0. -1.
    10030    2    1    2    0    0  0.00000000000E+00  0.00000000000E+00  0.12581829672E+04  0.38234853760E+04  0.36105423473E+04 0.  0.
        1    1    3    3  502    0 -0.13786056076E+04 -0.78090638639E+02 -0.60240148070E+03  0.15064989589E+04  0.50400001928E-02 0. -1.
       -1    1    3    3    0  502  0.13786056076E+04  0.78090638639E+02  0.18605844479E+04  0.23169864171E+04  0.50400001928E-02 0.  1.
</event>
<event>
 5   0  0.3993751E-07  0.3738806E+04  0.7818609E-02  0.8059416E-01
       -2   -1    0    0    0  501  0.00000000000E+00  0.00000000000E+00  0.15197974919E+04  0.15197974919E+04  0.25500000920E-02 0.  1.
        2   -1    0    0  501    0  0.00000000000E+00  0.00000000000E+00 -0.22994303290E+04  0.22994303290E+04  0.25500000920E-02 0. -1.
    10030    2    1    2    0    0  0.00000000000E+00  0.00000000000E+00 -0.77963283712E+03  0.38192278208E+04  0.37388064655E+04 0.  0.
        1    1    3    3  502    0 -0.57209857597E+03  0.17787477811E+04 -0.33000793060E+03  0.18974049867E+04  0.50400001928E-02 0.  1.
       -1    1    3    3    0  502  0.57209857597E+03 -0.17787477811E+04 -0.44962490652E+03  0.19218228341E+04  0.50400001928E-02 0. -1.
</event>
<event>
 5   0  0.1298250E-07  0.3718535E+04  0.7818609E-02  0.8063867E-01
       -1   -1    0    0    0  501  0.00000000000E+00  0.00000000000E+00  0.23852835774E+04  0.23852835774E+04  0.50400001928E-02 0.  1.
        1   -1    0    0  501    0  0.00000000000E+00  0.00000000000E+00 -0.14492512802E+04  0.14492512803E+04  0.50400001928E-02 0. -1.
    10030    2    1    2    0    0  0.00000000000E+00  0.00000000000E+00  0.93603229716E+03  0.38345348577E+04  0.37185348073E+04 0.  0.
        2    1    3    3  502    0  0.15454338527E+04 -0.60044746278E+03 -0.39964266173E+03  0.17054668586E+04  0.25500000920E-02 0. -1.
       -2    1    3    3    0  502 -0.15454338527E+04  0.60044746278E+03  0.13356749589E+04  0.21290679990E+04  0.25500000920E-02 0.  1.
</event>
<event>
 5   0  0.1298250E-07  0.3639688E+04  0.7818609E-02  0.8081461E-01
       -1   -1    0    0    0  501  0.00000000000E+00  0.00000000000E+00  0.16735618459E+04  0.16735618460E+04  0.50400001928E-02 0. -1.
        1   -1    0    0  501    0  0.00000000000E+00  0.00000000000E+00 -0.19789127313E+04  0.19789127314E+04  0.50400001928E-02 0.  1.
    10030    2    1    2    0    0  0.00000000000E+00  0.00000000000E+00 -0.30535088540E+03  0.36524745773E+04  0.36396883623E+04 0.  0.
        2    1    3    3  502    0  0.15895384401E+04 -0.72896001614E+03 -0.65824852358E+03  0.18685037534E+04  0.25500000920E-02 0.  1.
       -2    1    3    3    0  502 -0.15895384401E+04  0.72896001614E+03  0.35289763818E+03  0.17839708239E+04  0.25500000920E-02 0. -1.
</event>
<event>
 5   0  0.1361743E-07  0.3569765E+04  0.7818609E-02  0.8097453E-01
       -1   -1    0    0    0  501  0.00000000000E+00  0.00000000000E+00  0.11087897181E+04  0.11087897181E+04  0.50400001928E-02 0. -1.
        1   -1    0    0  501    0  0.00000000000E+00  0.00000000000E+00 -0.28732272508E+04  0.28732272508E+04  0.50400001928E-02 0.  1.
    10030    2    1    2    0    0  0.00000000000E+00  0.00000000000E+00 -0.17644375327E+04  0.39820169688E+04  0.35697646047E+04 0.  0.
        5    1    3    3  502    0 -0.64650981942E+03 -0.74144144353E+03  0.77909393151E+03  0.12548784024E+04  0.46999998093E+01 0. -1.
       -5    1    3    3    0  502  0.64650981942E+03  0.74144144353E+03 -0.25435314642E+04  0.27271385664E+04  0.46999998093E+01 0.  1.
</event>
<event>
 5   0  0.1361743E-07  0.3618768E+04  0.7818609E-02  0.8086206E-01
        1   -1    0    0  501    0  0.00000000000E+00  0.00000000000E+00  0.23396026808E+04  0.23396026808E+04  0.50400001928E-02 0.  1.
       -1   -1    0    0    0  501  0.00000000000E+00  0.00000000000E+00 -0.13993278818E+04  0.13993278818E+04  0.50400001928E-02 0. -1.
    10030    2    1    2    0    0  0.00000000000E+00  0.00000000000E+00  0.94027479906E+03  0.37389305626E+04  0.36187684444E+04 0.  0.
        5    1    3    3  502    0  0.33065621331E+03 -0.40466226896E+03 -0.13196544752E+04  0.14193643321E+04  0.46999998093E+01 0. -1.
       -5    1    3    3    0  502 -0.33065621331E+03  0.40466226896E+03  0.22599292742E+04  0.23195662305E+04  0.46999998093E+01 0.  1.
</event>
<event>
 5   0  0.1348226E-07  0.3611701E+04  0.7818609E-02  0.8087817E-01
       -1   -1    0    0    0  501  0.00000000000E+00  0.00000000000E+00  0.12968995678E+04  0.12968995678E+04  0.50400001928E-02 0.  1.
        1   -1    0    0  501    0  0.00000000000E+00  0.00000000000E+00 -0.25145321239E+04  0.25145321239E+04  0.50400001928E-02 0. -1.
    10030    2    1    2    0    0  0.00000000000E+00  0.00000000000E+00 -0.12176325561E+04  0.38114316916E+04  0.36117007764E+04 0.  0.
        4    1    3    3  502    0  0.12998911913E+04 -0.58227207334E+03  0.56268015296E+03  0.15314595796E+04  0.12699999809E+01 0.  1.
       -4    1    3    3    0  502 -0.12998911913E+04  0.58227207334E+03 -0.17803127091E+04  0.22799721120E+04  0.12699999809E+01 0. -1.
</event>
<event>
 5   0  0.4200635E-07  0.3497088E+04  0.7818609E-02  0.8114480E-01
        2   -1    0    0  501    0  0.00000000000E+00  0.00000000000E+00  0.21090238462E+04  0.21090238462E+04  0.25500000920E-02 0.  1.
       -2   -1    0    0    0  501  0.00000000000E+00  0.00000000000E+00 -0.14496786068E+04  0.14496786068E+04  0.25500000920E-02 0. -1.
    10030    2    1    2    0    0  0.00000000000E+00  0.00000000000E+00  0.65934523937E+03  0.35587024531E+04  0.34970883610E+04 0.  0.
        4    1    3    3  502    0 -0.12746195532E+04 -0.70131595962E+03 -0.65742068062E+03  0.15964656729E+04  0.12699999809E+01 0. -1.
       -4    1    3    3    0  502  0.12746195532E+04  0.70131595962E+03  0.13167659200E+04  0.19622367802E+04  0.12699999809E+01 0.  1.
</event>
<event>
 5   0  0.3993751E-07  0.3665175E+04  0.7818609E-02  0.8075724E-01
       -2   -1    0    0    0  501  0.00000000000E+00  0.00000000000E+00  0.19382065028E+04  0.19382065028E+04  0.25500000920E-02 0. -1.
        2   -1    0    0  501    0  0.00000000000E+00  0.00000000000E+00 -0.17327243275E+04  0.17327243275E+04  0.25500000920E-02 0.  1.
    10030    2    1    2    0    0  0.00000000000E+00  0.00000000000E+00  0.20548217534E+03  0.36709308303E+04  0.36651753350E+04 0.  0.
        1    1    3    3  502    0  0.60439084611E+03 -0.97763579204E+03 -0.13268466235E+04  0.17554435334E+04  0.50400001928E-02 0.  1.
       -1    1    3    3    0  502 -0.60439084611E+03  0.97763579204E+03  0.15323287988E+04  0.19154872969E+04  0.50400001928E-02 0. -1.
</event>
<event>
 5   0  0.3880259E-07  0.3603157E+04  0.7818609E-02  0.8089769E-01
       -2   -1    0    0    0  501  0.00000000000E+00  0.00000000000E+00  0.18338068678E+04  0.18338068678E+04  0.25500000920E-02 0.  1.
        2   -1    0    0  501    0  0.00000000000E+00  0.00000000000E+00 -0.17699165846E+04  0.17699165846E+04  0.25500000920E-02 0. -1.
    10030    2    1    2    0    0  0.00000000000E+00  0.00000000000E+00  0.63890283268E+02  0.36037234524E+04  0.36031570536E+04 0.  0.
        5    1    3    3  502    0 -0.13057736128E+04 -0.54865801932E+03 -0.10815998709E+04  0.17821197268E+04  0.46999998093E+01 0. -1.
       -5    1    3    3    0  502  0.13057736128E+04  0.54865801932E+03  0.11454901541E+04  0.18216037256E+04  0.46999998093E+01 0.  1.
</event>
<event>
 5   0  0.4120440E-07  0.3628876E+04  0.7818609E-02  0.8083909E-01
       -2   -1    0    0    0  501  0.00000000000E+00  0.00000000000E+00  0.20861672577E+04  0.20861672577E+04  0.25500000920E-02 0. -1.
        2   -1    0    0  501    0  0.00000000000E+00  0.00000000000E+00 -0.15781020161E+04  0.15781020161E+04  0.25500000920E-02 0.  1.
    10030    2    1    2    0    0  0.00000000000E+00  0.00000000000E+00  0.50806524159E+03  0.36642692738E+04  0.36288757242E+04 0.  0.
        2    1    3    3  502    0 -0.26459144734E+03 -0.72606934096E+03 -0.14036241984E+04  0.16022940468E+04  0.25500000920E-02 0.  1.
       -2    1    3    3    0  502  0.26459144734E+03  0.72606934096E+03  0.19116894400E+04  0.20619752271E+04  0.25500000920E-02 0. -1.
</event>
<event>
 5   0  0.1298250E-07  0.3593562E+04  0.7818609E-02  0.8091968E-01
       -1   -1    0    0    0  501  0.00000000000E+00  0.00000000000E+00  0.14424657544E+04  0.14424657544E+04  0.50400001928E-02 0. -1.
        1   -1    0    0  501    0  0.00000000000E+00  0.00000000000E+00 -0.22381269987E+04  0.22381269987E+04  0.50400001928E-02 0.  1.
    10030    2    1    2    0    0  0.00000000000E+00  0.00000000000E+00 -0.79566124432E+03  0.36805927531E+04  0.35935617705E+04 0.  0.
        2    1    3    3  502    0  0.83553198045E+03 -0.14739543398E+04 -0.10104524493E+04  0.19727314157E+04  0.25500000920E-02 0.  1.
       -2    1    3    3    0  502 -0.83553198045E+03  0.14739543398E+04  0.21479120499E+03  0.17078613374E+04  0.25500000920E-02 0. -1.
</event>
<event>
 5   0  0.1298250E-07  0.3614018E+04  0.7818609E-02  0.8087288E-01
       -1   -1    0    0    0  501  0.00000000000E+00  0.00000000000E+00  0.20627827256E+04  0.20627827256E+04  0.50400001928E-02 0. -1.
        1   -1    0    0  501    0  0.00000000000E+00  0.00000000000E+00 -0.15829501841E+04  0.15829501841E+04  0.50400001928E-02 0.  1.
    10030    2    1    2    0    0  0.00000000000E+00  0.00000000000E+00  0.47983254156E+03  0.36457329097E+04  0.36140184257E+04 0.  0.
        1    1    3    3  502    0  0.86741566163E+03  0.22953621204E+03 -0.13423457827E+04  0.16146172931E+04  0.50400001928E-02 0.  1.
       -1    1    3    3    0  502 -0.86741566163E+03 -0.22953621204E+03  0.18221783243E+04  0.20311156166E+04  0.50400001928E-02 0. -1.
</event>
<event>
 5   0  0.3880259E-07  0.3638910E+04  0.7818609E-02  0.8081637E-01
       -2   -1    0    0    0  501  0.00000000000E+00  0.00000000000E+00  0.27274562625E+04  0.27274562625E+04  0.25500000920E-02 0.  1.
        2   -1    0    0  501    0  0.00000000000E+00  0.00000000000E+00 -0.12137374983E+04  0.12137374983E+04  0.25500000920E-02 0. -1.
    10030    2    1    2    0    0  0.00000000000E+00  0.00000000000E+00  0.15137187641E+04  0.39411937608E+04  0.36389096943E+04 0.  0.
        5    1    3    3  502    0 -0.80998364907E+03 -0.29984270947E+03  0.24912648600E+04  0.26367407637E+04  0.46999998093E+01 0.  1.
       -5    1    3    3    0  502  0.80998364907E+03  0.29984270947E+03 -0.97754609588E+03  0.13044529971E+04  0.46999998093E+01 0. -1.
</event>
<event>
 5   0  0.3993751E-07  0.3592992E+04  0.7818609E-02  0.8092099E-01
        2   -1    0    0  501    0  0.00000000000E+00  0.00000000000E+00  0.21777651716E+04  0.21777651716E+04  0.25500000920E-02 0.  1.
       -2   -1    0    0    0  501  0.00000000000E+00  0.00000000000E+00 -0.14819768722E+04  0.14819768722E+04  0.25500000920E-02 0. -1.
    10030    2    1    2    0    0  0.00000000000E+00  0.00000000000E+00  0.69578829938E+03  0.36597420438E+04  0.35929918549E+04 0.  0.
        1    1    3    3  502    0  0.11269854073E+04  0.54729435561E+03 -0.96357002886E+03  0.15805361181E+04  0.50400001928E-02 0. -1.
       -1    1    3    3    0  502 -0.11269854073E+04 -0.54729435561E+03  0.16593583282E+04  0.20792059257E+04  0.50400001928E-02 0.  1.
</event>
<event>
 5   0  0.1298250E-07  0.3637839E+04  0.7818609E-02  0.8081879E-01
       -3   -1    0    0    0  501  0.00000000000E+00  0.00000000000E+00  0.14810245032E+04  0.14810245067E+04  0.10100000352E+00 0. -1.
        3   -1    0    0  501    0  0.00000000000E+00  0.00000000000E+00 -0.22339050236E+04  0.22339050259E+04  0.10100000352E+00 0.  1.
    10030    2    1    2    0    0  0.00000000000E+00  0.00000000000E+00 -0.75288052036E+03  0.37149295326E+04  0.36378389676E+04 0.  0.
        4    1    3    3  502    0 -0.10867446939E+04  0.33950051801E+03  0.10721374614E+04  0.15638909746E+04  0.12699999809E+01 0. -1.
       -4    1    3    3    0  502  0.10867446939E+04 -0.33950051801E+03 -0.18250179818E+04  0.21510385580E+04  0.12699999809E+01 0.  1.
</event>
<event>
 5   0  0.1370997E-07  0.3593862E+04  0.7818609E-02  0.8091899E-01
       -1   -1    0    0    0  501  0.00000000000E+00  0.00000000000E+00  0.11174888977E+04  0.11174888977E+04  0.50400001928E-02 0.  1.
        1   -1    0    0  501    0  0.00000000000E+00  0.00000000000E+00 -0.28894798424E+04  0.28894798424E+04  0.50400001928E-02 0. -1.
    10030    2    1    2    0    0  0.00000000000E+00  0.00000000000E+00 -0.17719909447E+04  0.40069687401E+04  0.35938623479E+04 0.  0.
        3    1    3    3  502    0  0.89330324052E+03  0.13384935438E+04 -0.17775396434E+04  0.23977495366E+04  0.10100000352E+00 0.  1.
       -3    1    3    3    0  502 -0.89330324052E+03 -0.13384935438E+04  0.55486987031E+01  0.16092192034E+04  0.10100000352E+00 0. -1.
</event>
<event>
 5   0  0.3880259E-07  0.3589942E+04  0.7818609E-02  0.8092799E-01
       -2   -1    0    0    0  501  0.00000000000E+00  0.00000000000E+00  0.12860263408E+04  0.12860263408E+04  0.25500000920E-02 0. -1.
        2   -1    0    0  501    0  0.00000000000E+00  0.00000000000E+00 -0.25053307323E+04  0.25053307323E+04  0.25500000920E-02 0.  1.
    10030    2    1    2    0    0  0.00000000000E+00  0.00000000000E+00 -0.12193043915E+04  0.37913570731E+04  0.35899422358E+04 0.  0.
        5    1    3    3  502    0 -0.64481873764E+03  0.83987684219E+03 -0.21403546795E+04  0.23879540528E+04  0.46999998093E+01 0.  1.
       -5    1    3    3    0  502  0.64481873764E+03 -0.83987684219E+03  0.92105028791E+03  0.14034030203E+04  0.46999998093E+01 0. -1.
</event>
<event>
 5   0  0.1370997E-07  0.3617309E+04  0.7818609E-02  0.8086538E-01
       -1   -1    0    0    0  501  0.00000000000E+00  0.00000000000E+00  0.15364605303E+04  0.15364605303E+04  0.50400001928E-02 0. -1.
        1   -1    0    0  501    0  0.00000000000E+00  0.00000000000E+00 -0.21290691542E+04  0.21290691542E+04  0.50400001928E-02 0.  1.
    10030    2    1    2    0    0  0.00000000000E+00  0.00000000000E+00 -0.59260862389E+03  0.36655296846E+04  0.36173087907E+04 0.  0.
        3    1    3    3  502    0 -0.97213770906E+03  0.41997369867E+03 -0.17820698998E+04  0.20729695538E+04  0.10100000352E+00 0.  1.
       -3    1    3    3    0  502  0.97213770906E+03 -0.41997369867E+03  0.11894612759E+04  0.15925601308E+04  0.10100000352E+00 0. -1.
</event>
<event>
 5   0  0.3880259E-07  0.3615072E+04  0.7818609E-02  0.8087048E-01
        2   -1    0    0  501    0  0.00000000000E+00  0.00000000000E+00  0.19300629921E+04  0.19300629921E+04  0.25500000920E-02 0.  1.
       -2   -1    0    0    0  501  0.00000000000E+00  0.00000000000E+00 -0.16927876493E+04  0.16927876493E+04  0.25500000920E-02 0. -1.
    10030    2    1    2    0    0  0.00000000000E+00  0.00000000000E+00  0.23727534276E+03  0.36228506414E+04  0.36150722236E+04 0.  0.
        5    1    3    3  502    0 -0.13326710890E+03 -0.22540694558E+03  0.19109478299E+04  0.19288110617E+04  0.46999998093E+01 0.  1.
       -5    1    3    3    0  502  0.13326710890E+03  0.22540694558E+03 -0.16736724871E+04  0.16940395797E+04  0.46999998093E+01 0. -1.
</event>
<event>
 5   0  0.1298250E-07  0.3594854E+04  0.7818609E-02  0.8091672E-01
        1   -1    0    0  501    0  0.00000000000E+00  0.00000000000E+00  0.20418875930E+04  0.20418875930E+04  0.50400001928E-02 0. -1.
       -1   -1    0    0    0  501  0.00000000000E+00  0.00000000000E+00 -0.15822336886E+04  0.15822336886E+04  0.50400001928E-02 0.  1.
    10030    2    1    2    0    0  0.00000000000E+00  0.00000000000E+00  0.45965390434E+03  0.36241212816E+04  0.35948537316E+04 0.  0.
        2    1    3    3  502    0  0.16237270340E+03 -0.13066409090E+03 -0.15700107030E+04  0.15837839522E+04  0.25500000920E-02 0.  1.
       -2    1    3    3    0  502 -0.16237270340E+03  0.13066409090E+03  0.20296646074E+04  0.20403373294E+04  0.25500000920E-02 0. -1.
</event>
<event>
 5   0  0.3993751E-07  0.3579462E+04  0.7818609E-02  0.8095212E-01
        2   -1    0    0  501    0  0.00000000000E+00  0.00000000000E+00  0.22951364908E+04  0.22951364908E+04  0.25500000920E-02 0.  1.
       -2   -1    0    0    0  501  0.00000000000E+00  0.00000000000E+00 -0.13956197044E+04  0.13956197044E+04  0.25500000920E-02 0. -1.
    10030    2    1    2    0    0  0.00000000000E+00  0.00000000000E+00  0.89951678640E+03  0.36907561952E+04  0.35794623679E+04 0.  0.
        1    1    3    3  502    0 -0.13521788147E+03  0.17796822508E+04  0.31302714625E+03  0.18120537474E+04  0.50400001928E-02 0. -1.
       -1    1    3    3    0  502  0.13521788147E+03 -0.17796822508E+04  0.58648964015E+03  0.18787024478E+04  0.50400001928E-02 0.  1.
</event>
<event>
 5   0  0.1298250E-07  0.3532855E+04  0.7818609E-02  0.8106048E-01
        1   -1    0    0  501    0  0.00000000000E+00  0.00000000000E+00  0.95074794044E+03  0.95074794045E+03  0.50400001928E-02 0. -1.
       -1   -1    0    0    0  501  0.00000000000E+00  0.00000000000E+00 -0.32819070374E+04  0.32819070374E+04  0.50400001928E-02 0.  1.
    10030    2    1    2    0    0  0.00000000000E+00  0.00000000000E+00 -0.23311590970E+04  0.42326549779E+04  0.35328551380E+04 0.  0.
        2    1    3    3  502    0  0.62811374355E+03 -0.53607088012E+03  0.70526033039E+03  0.10859516550E+04  0.25500000920E-02 0. -1.
       -2    1    3    3    0  502 -0.62811374355E+03  0.53607088012E+03 -0.30364194274E+04  0.31467033229E+04  0.25500000920E-02 0.  1.
</event>
<event>
 5   0  0.4200635E-07  0.3622080E+04  0.7818609E-02  0.8085453E-01
       -2   -1    0    0    0  501  0.00000000000E+00  0.00000000000E+00  0.14420083497E+04  0.14420083497E+04  0.25500000920E-02 0.  1.
        2   -1    0    0  501    0  0.00000000000E+00  0.00000000000E+00 -0.22745120162E+04  0.22745120162E+04  0.25500000920E-02 0. -1.
    10030    2    1    2    0    0  0.00000000000E+00  0.00000000000E+00 -0.83250366652E+03  0.37165203659E+04  0.36220796893E+04 0.  0.
        4    1    3    3  502    0 -0.69085536788E+03 -0.10498759817E+04 -0.17542230897E+04  0.21579668621E+04  0.12699999809E+01 0. -1.
       -4    1    3    3    0  502  0.69085536788E+03  0.10498759817E+04  0.92171942321E+03  0.15585535038E+04  0.12699999809E+01 0.  1.
</event>
<event>
 5   0  0.1348226E-07  0.3567814E+04  0.7818609E-02  0.8097904E-01
        1   -1    0    0  501    0  0.00000000000E+00  0.00000000000E+00  0.18506984797E+04  0.18506984797E+04  0.50400001928E-02 0. -1.
       -1   -1    0    0    0  501  0.00000000000E+00  0.00000000000E+00 -0.17195256961E+04  0.17195256961E+04  0.50400001928E-02 0.  1.
    10030    2    1    2    0    0  0.00000000000E+00  0.00000000000E+00  0.13117278360E+03  0.35702241759E+04  0.35678136676E+04 0.  0.
        4    1    3    3  502    0 -0.12577781056E+04 -0.36984481743E+03 -0.11449958213E+04  0.17406343659E+04  0.12699999809E+01 0. -1.
       -4    1    3    3    0  502  0.12577781056E+04  0.36984481743E+03  0.12761686049E+04  0.18295898100E+04  0.12699999809E+01 0.  1.
</event>
<event>
 5   0  0.1298250E-07  0.3593724E+04  0.7818609E-02  0.8091931E-01
       -1   -1    0    0    0  501  0.00000000000E+00  0.00000000000E+00  0.18063928520E+04  0.18063928520E+04  0.50400001928E-02 0.  1.
        1   -1    0    0  501    0  0.00000000000E+00  0.00000000000E+00 -0.17873810405E+04  0.17873810405E+04  0.50400001928E-02 0. -1.
    10030    2    1    2    0    0  0.00000000000E+00  0.00000000000E+00  0.19011811542E+02  0.35937738925E+04  0.35937236039E+04 0.  0.
        2    1    3    3  502    0  0.16312761185E+04  0.38682130492E+03  0.65605949038E+03  0.18003073492E+04  0.25500000920E-02 0. -1.
       -2    1    3    3    0  502 -0.16312761185E+04 -0.38682130492E+03 -0.63704767884E+03  0.17934665433E+04  0.25500000920E-02 0.  1.
</event>
<event>
 5   0  0.1361743E-07  0.3588717E+04  0.7818609E-02  0.8093081E-01
       -1   -1    0    0    0  501  0.00000000000E+00  0.00000000000E+00  0.13934526637E+04  0.13934526637E+04  0.50400001928E-02 0.  1.
        1   -1    0    0  501    0  0.00000000000E+00  0.00000000000E+00 -0.23106080528E+04  0.23106080529E+04  0.50400001928E-02 0. -1.
    10030    2    1    2    0    0  0.00000000000E+00  0.00000000000E+00 -0.91715538919E+03  0.37040607165E+04  0.35887172895E+04 0.  0.
        5    1    3    3  502    0 -0.11467624367E+04 -0.12419620763E+04  0.16256770104E+03  0.16982297349E+04  0.46999998093E+01 0.  1.
       -5    1    3    3    0  502  0.11467624367E+04  0.12419620763E+04 -0.10797230902E+04  0.20058309816E+04  0.46999998093E+01 0. -1.
</event>
<event>
 5   0  0.1298250E-07  0.3576768E+04  0.7818609E-02  0.8095834E-01
        1   -1    0    0  501    0  0.00000000000E+00  0.00000000000E+00  0.24916129398E+04  0.24916129398E+04  0.50400001928E-02 0. -1.
       -1   -1    0    0    0  501  0.00000000000E+00  0.00000000000E+00 -0.12836332301E+04  0.12836332301E+04  0.50400001928E-02 0.  1.
    10030    2    1    2    0    0  0.00000000000E+00  0.00000000000E+00  0.12079797097E+04  0.37752461700E+04  0.35767679076E+04 0.  0.
        2    1    3    3  502    0  0.79599136285E+03  0.11765538959E+04  0.17507582363E+04  0.22545588752E+04  0.25500000920E-02 0. -1.
       -2    1    3    3    0  502 -0.79599136285E+03 -0.11765538959E+04 -0.54277852657E+03  0.15206872948E+04  0.25500000920E-02 0.  1.
</event>
<event>
 5   0  0.1370997E-07  0.3604029E+04  0.7818609E-02  0.8089569E-01
       -1   -1    0    0    0  501  0.00000000000E+00  0.00000000000E+00  0.12433023016E+04  0.12433023016E+04  0.50400001928E-02 0. -1.
        1   -1    0    0  501    0  0.00000000000E+00  0.00000000000E+00 -0.26117990698E+04  0.26117990698E+04  0.50400001928E-02 0.  1.
    10030    2    1    2    0    0  0.00000000000E+00  0.00000000000E+00 -0.13684967682E+04  0.38551013714E+04  0.36040287428E+04 0.  0.
        3    1    3    3  502    0 -0.30593490127E+03 -0.89878369519E+03 -0.23225635200E+04  0.25091252677E+04  0.10100000352E+00 0.  1.
       -3    1    3    3    0  502  0.30593490127E+03  0.89878369519E+03  0.95406675181E+03  0.13459761037E+04  0.10100000352E+00 0. -1.
</event>
<event>
 5   0  0.1361743E-07  0.3606924E+04  0.7818609E-02  0.8088907E-01
       -1   -1    0    0    0  501  0.00000000000E+00  0.00000000000E+00  0.17362673761E+04  0.17362673761E+04  0.50400001928E-02 0.  1.
        1   -1    0    0  501    0  0.00000000000E+00  0.00000000000E+00 -0.18732575304E+04  0.18732575304E+04  0.50400001928E-02 0. -1.
    10030    2    1    2    0    0  0.00000000000E+00  0.00000000000E+00 -0.13699015435E+03  0.36095249065E+04  0.36069244168E+04 0.  0.
        5    1    3    3  502    0 -0.10137220897E+04 -0.68506672561E+03  0.12574148760E+04  0.17544409805E+04  0.46999998093E+01 0.  1.
       -5    1    3    3    0  502  0.10137220897E+04  0.68506672561E+03 -0.13944050304E+04  0.18550839260E+04  0.46999998093E+01 0. -1.
</event>
<event>
 5   0  0.1361743E-07  0.3599804E+04  0.7818609E-02  0.8090537E-01
       -1   -1    0    0    0  501  0.00000000000E+00  0.00000000000E+00  0.36748902104E+04  0.36748902104E+04  0.50400001928E-02 0.  1.
        1   -1    0    0  501    0  0.00000000000E+00  0.00000000000E+00 -0.88156288246E+03  0.88156288247E+03  0.50400001928E-02 0. -1.
    10030    2    1    2    0    0  0.00000000000E+00  0.00000000000E+00  0.27933273279E+04  0.45564530929E+04  0.35998037761E+04 0.  0.
        5    1    3    3  502    0 -0.12604244920E+04  0.12741129528E+04  0.16069116274E+04  0.24071187724E+04  0.46999998093E+01 0. -1.
       -5    1    3    3    0  502  0.12604244920E+04 -0.12741129528E+04  0.11864157006E+04  0.21493343205E+04  0.46999998093E+01 0.  1.
</event>
<event>
 5   0  0.1361743E-07  0.3597355E+04  0.7818609E-02  0.8091098E-01
       -1   -1    0    0    0  501  0.00000000000E+00  0.00000000000E+00  0.17155784890E+04  0.17155784890E+04  0.50400001928E-02 0.  1.
        1   -1    0    0  501    0  0.00000000000E+00  0.00000000000E+00 -0.18858014652E+04  0.18858014652E+04  0.50400001928E-02 0. -1.
    10030    2    1    2    0    0  0.00000000000E+00  0.00000000000E+00 -0.17022297620E+03  0.36013799542E+04  0.35973548216E+04 0.  0.
        5    1    3    3  502    0  0.17441562972E+04 -0.45482917287E+02 -0.52271435713E+03  0.18213737327E+04  0.46999998093E+01 0. -1.
       -5    1    3    3    0  502 -0.17441562972E+04  0.45482917287E+02  0.35249138092E+03  0.17800062215E+04  0.46999998093E+01 0.  1.
</event>
<event>
 5   0  0.4200635E-07  0.3653244E+04  0.7818609E-02  0.8078403E-01
        2   -1    0    0  501    0  0.00000000000E+00  0.00000000000E+00  0.20601308453E+04  0.20601308453E+04  0.25500000920E-02 0. -1.
       -2   -1    0    0    0  501  0.00000000000E+00  0.00000000000E+00 -0.16195802020E+04  0.16195802020E+04  0.25500000920E-02 0.  1.
    10030    2    1    2    0    0  0.00000000000E+00  0.00000000000E+00  0.44055064328E+03  0.36797110474E+04  0.36532435619E+04 0.  0.
        4    1    3    3  502    0 -0.43091451194E+03  0.67819070876E+03 -0.14320103027E+04  0.16420368675E+04  0.12699999809E+01 0.  1.
       -4    1    3    3    0  502  0.43091451194E+03 -0.67819070876E+03  0.18725609460E+04  0.20376741799E+04  0.12699999809E+01 0. -1.
</event>
<event>
 5   0  0.1348226E-07  0.3593183E+04  0.7818609E-02  0.8092055E-01
       -1   -1    0    0    0  501  0.00000000000E+00  0.00000000000E+00  0.16334351411E+04  0.16334351411E+04  0.50400001928E-02 0.  1.
        1   -1    0    0  501    0  0.00000000000E+00  0.00000000000E+00 -0.19760448040E+04  0.19760448040E+04  0.50400001928E-02 0. -1.
    10030    2    1    2    0    0  0.00000000000E+00  0.00000000000E+00 -0.34260966287E+03  0.36094799451E+04  0.35931830030E+04 0.  0.
        4    1    3    3  502    0  0.10729980392E+04  0.14406723748E+04 -0.20106565634E+03  0.18075648521E+04  0.12699999809E+01 0.  1.
       -4    1    3    3    0  502 -0.10729980392E+04 -0.14406723748E+04 -0.14154400653E+03  0.18019150930E+04  0.12699999809E+01 0. -1.
</event>
<event>
 5   0  0.4115358E-07  0.3612122E+04  0.7818609E-02  0.8087721E-01
       -2   -1    0    0    0  501  0.00000000000E+00  0.00000000000E+00  0.24433710902E+04  0.24433710902E+04  0.25500000920E-02 0. -1.
        2   -1    0    0  501    0  0.00000000000E+00  0.00000000000E+00 -0.13349816116E+04  0.13349816116E+04  0.25500000920E-02 0.  1.
    10030    2    1    2    0    0  0.00000000000E+00  0.00000000000E+00  0.11083894785E+04  0.37783527018E+04  0.36121215239E+04 0.  0.
        3    1    3    3  502    0  0.15924281572E+04 -0.63929358750E+03 -0.35051607525E+02  0.17163194202E+04  0.10100000352E+00 0.  1.
       -3    1    3    3    0  502 -0.15924281572E+04  0.63929358750E+03  0.11434410860E+04  0.20620332816E+04  0.10100000352E+00 0. -1.
</event>
<event>
 5   0  0.3993751E-07  0.3606315E+04  0.7818609E-02  0.8089047E-01
       -2   -1    0    0    0  501  0.00000000000E+00  0.00000000000E+00  0.22867978985E+04  0.22867978985E+04  0.25500000920E-02 0. -1.
        2   -1    0    0  501    0  0.00000000000E+00  0.00000000000E+00 -0.14218036956E+04  0.14218036956E+04  0.25500000920E-02 0.  1.
    10030    2    1    2    0    0  0.00000000000E+00  0.00000000000E+00  0.86499420297E+03  0.37086015941E+04  0.36063154067E+04 0.  0.
        1    1    3    3  502    0 -0.15490345761E+03 -0.17831037448E+04  0.65762092224E+03  0.19068086750E+04  0.50400001928E-02 0. -1.
       -1    1    3    3    0  502  0.15490345761E+03  0.17831037448E+04  0.20737328073E+03  0.18017929191E+04  0.50400001928E-02 0.  1.
</event>
<event>
 5   0  0.1348226E-07  0.3640667E+04  0.7818609E-02  0.8081240E-01
       -1   -1    0    0    0  501  0.00000000000E+00  0.00000000000E+00  0.24479527646E+04  0.24479527646E+04  0.50400001928E-02 0.  1.
        1   -1    0    0  501    0  0.00000000000E+00  0.00000000000E+00 -0.13536263614E+04  0.13536263614E+04  0.50400001928E-02 0. -1.
    10030    2    1    2    0    0  0.00000000000E+00  0.00000000000E+00  0.10943264032E+04  0.38015791261E+04  0.36406666388E+04 0.  0.
        4    1    3    3  502    0 -0.12898051478E+04 -0.45423049519E+03 -0.70747920282E+03  0.15396269345E+04  0.12699999809E+01 0. -1.
       -4    1    3    3    0  502  0.12898051478E+04  0.45423049519E+03  0.18018056060E+04  0.22619521916E+04  0.12699999809E+01 0.  1.
</event>
<event>
 5   0  0.3993751E-07  0.3604675E+04  0.7818609E-02  0.8089422E-01
       -2   -1    0    0    0  501  0.00000000000E+00  0.00000000000E+00  0.12179503903E+04  0.12179503903E+04  0.25500000920E-02 0. -1.
        2   -1    0    0  501    0  0.00000000000E+00  0.00000000000E+00 -0.26671205533E+04  0.26671205533E+04  0.25500000920E-02 0.  1.
    10030    2    1    2    0    0  0.00000000000E+00  0.00000000000E+00 -0.14491701630E+04  0.38850709436E+04  0.36046750305E+04 0.  0.
        1    1    3    3  502    0  0.11585134695E+04 -0.96166968989E+03 -0.17923331601E+04  0.23408161415E+04  0.50400001928E-02 0. -1.
       -1    1    3    3    0  502 -0.11585134695E+04  0.96166968989E+03  0.34316299710E+03  0.15442548022E+04  0.50400001928E-02 0.  1.
</event>
<event>
 5   0  0.4115358E-07  0.3563996E+04  0.7818609E-02  0.8098789E-01
       -2   -1    0    0    0  501  0.00000000000E+00  0.00000000000E+00  0.33086170289E+04  0.33086170289E+04  0.25500000920E-02 0. -1.
        2   -1    0    0  501    0  0.00000000000E+00  0.00000000000E+00 -0.95977157698E+03  0.95977157698E+03  0.25500000920E-02 0.  1.
    10030    2    1    2    0    0  0.00000000000E+00  0.00000000000E+00  0.23488454519E+04  0.42683886059E+04  0.35639958381E+04 0.  0.
        3    1    3    3  502    0 -0.12160742204E+04  0.13005062766E+04  0.12621329921E+04  0.21824602597E+04  0.10100000352E+00 0.  1.
       -3    1    3    3    0  502  0.12160742204E+04 -0.13005062766E+04  0.10867124598E+04  0.20859283462E+04  0.10100000352E+00 0. -1.
</event>
<event>
 5   0  0.1298250E-07  0.3605705E+04  0.7818609E-02  0.8089186E-01
       -1   -1    0    0    0  501  0.00000000000E+00  0.00000000000E+00  0.15421915162E+04  0.15421915162E+04  0.50400001928E-02 0.  1.
        1   -1    0    0  501    0  0.00000000000E+00  0.00000000000E+00 -0.21075698080E+04  0.21075698080E+04  0.50400001928E-02 0. -1.
    10030    2    1    2    0    0  0.00000000000E+00  0.00000000000E+00 -0.56537829178E+03  0.36497613241E+04  0.36057045234E+04 0.  0.
        2    1    3    3  502    0  0.89045657967E+02 -0.72816426898E+03  0.13842858922E+04  0.15666524066E+04  0.25500000920E-02 0.  1.
       -2    1    3    3    0  502 -0.89045657967E+02  0.72816426898E+03 -0.19496641840E+04  0.20831089175E+04  0.25500000920E-02 0. -1.
</event>
<event>
 5   0  0.4115358E-07  0.3598440E+04  0.7818609E-02  0.8090849E-01
        2   -1    0    0  501    0  0.00000000000E+00  0.00000000000E+00  0.21665167587E+04  0.21665167587E+04  0.25500000920E-02 0.  1.
       -2   -1    0    0    0  501  0.00000000000E+00  0.00000000000E+00 -0.14941925312E+04  0.14941925312E+04  0.25500000920E-02 0. -1.
    10030    2    1    2    0    0  0.00000000000E+00  0.00000000000E+00  0.67232422754E+03  0.36607092899E+04  0.35984403064E+04 0.  0.
        3    1    3    3  502    0  0.60927887170E+03 -0.16092150811E+04  0.87099653756E+03  0.19285820955E+04  0.10100000352E+00 0.  1.
       -3    1    3    3    0  502 -0.60927887170E+03  0.16092150811E+04 -0.19867231002E+03  0.17321271944E+04  0.10100000352E+00 0. -1.
</event>
<event>
 5   0  0.1348226E-07  0.3631798E+04  0.7818609E-02  0.8083246E-01
        1   -1    0    0  501    0  0.00000000000E+00  0.00000000000E+00  0.22285304333E+04  0.22285304333E+04  0.50400001928E-02 0.  1.
       -1   -1    0    0    0  501  0.00000000000E+00  0.00000000000E+00 -0.14796701202E+04  0.14796701202E+04  0.50400001928E-02 0. -1.
    10030    2    1    2    0    0  0.00000000000E+00  0.00000000000E+00  0.74886031311E+03  0.37082005535E+04  0.36317983943E+04 0.  0.
        4    1    3    3  502    0 -0.67699383674E+03  0.41566626797E+03  0.20416898507E+04  0.21907985213E+04  0.12699999809E+01 0.  1.
       -4    1    3    3    0  502  0.67699383674E+03 -0.41566626797E+03 -0.12928295376E+04  0.15174020323E+04  0.12699999809E+01 0. -1.
</event>
<event>
 5   0  0.1298250E-07  0.3580248E+04  0.7818609E-02  0.8095031E-01
       -1   -1    0    0    0  501  0.00000000000E+00  0.00000000000E+00  0.15079237978E+04  0.15079237978E+04  0.50400001928E-02 0. -1.
        1   -1    0    0  501    0  0.00000000000E+00  0.00000000000E+00 -0.21251367023E+04  0.21251367023E+04  0.50400001928E-02 0.  1.
    10030    2    1    2    0    0  0.00000000000E+00  0.00000000000E+00 -0.61721290445E+03  0.36330605001E+04  0.35802481517E+04 0.  0.
        2    1    3    3  502    0  0.11697051849E+04  0.11362162968E+04  0.44076263141E+03  0.16892215337E+04  0.25500000920E-02 0. -1.
       -2    1    3    3    0  502 -0.11697051849E+04 -0.11362162968E+04 -0.10579755359E+04  0.19438389664E+04  0.25500000920E-02 0.  1.
</event>
<event>
 5   0  0.1298250E-07  0.3603103E+04  0.7818609E-02  0.8089781E-01
       -1   -1    0    0    0  501  0.00000000000E+00  0.00000000000E+00  0.16920653261E+04  0.16920653261E+04  0.50400001928E-02 0. -1.
        1   -1    0    0  501    0  0.00000000000E+00  0.00000000000E+00 -0.19181222173E+04  0.19181222173E+04  0.50400001928E-02 0.  1.
    10030    2    1    2    0    0  0.00000000000E+00  0.00000000000E+00 -0.22605689127E+03  0.36101875434E+04  0.36031031599E+04 0.  0.
        1    1    3    3  502    0  0.13571922676E+04 -0.17243619795E+03  0.10614037326E+04  0.17315550749E+04  0.50400001928E-02 0. -1.
       -1    1    3    3    0  502 -0.13571922676E+04  0.17243619795E+03 -0.12874606239E+04  0.18786324685E+04  0.50400001928E-02 0.  1.
</event>
<event>
 5   0  0.3993751E-07  0.3727362E+04  0.7818609E-02  0.8061925E-01
        2   -1    0    0  501    0  0.00000000000E+00  0.00000000000E+00  0.26144479323E+04  0.26144479323E+04  0.25500000920E-02 0.  1.
       -2   -1    0    0    0  501  0.00000000000E+00  0.00000000000E+00 -0.13285050570E+04  0.13285050570E+04  0.25500000920E-02 0. -1.
    10030    2    1    2    0    0  0.00000000000E+00  0.00000000000E+00  0.12859428754E+04  0.39429529893E+04  0.37273622305E+04 0.  0.
        1    1    3    3  502    0 -0.47775431991E+03  0.45343237062E+03  0.24872138897E+04  0.25729522029E+04  0.50400001928E-02 0.  1.
       -1    1    3    3    0  502  0.47775431991E+03 -0.45343237062E+03 -0.12012710144E+04  0.13700007864E+04  0.50400001928E-02 0. -1.
</event>
<event>
 5   0  0.1298250E-07  0.3913077E+04  0.7818609E-02  0.8022315E-01
       -1   -1    0    0    0  501  0.00000000000E+00  0.00000000000E+00  0.19144078595E+04  0.19144078595E+04  0.50400001928E-02 0. -1.
        1   -1    0    0  501    0  0.00000000000E+00  0.00000000000E+00 -0.19995959315E+04  0.19995959315E+04  0.50400001928E-02 0.  1.
    10030    2    1    2    0    0  0.00000000000E+00  0.00000000000E+00 -0.85188072052E+02  0.39140037910E+04  0.39130766244E+04 0.  0.
        1    1    3    3  502    0 -0.16501403131E+04 -0.80907551573E+03  0.62874002489E+03  0.19423903475E+04  0.50400001928E-02 0. -1.
       -1    1    3    3    0  502  0.16501403131E+04  0.80907551573E+03 -0.71392809694E+03  0.19716134435E+04  0.50400001928E-02 0.  1.
</event>
<event>
 5   0  0.1348226E-07  0.3551575E+04  0.7818609E-02  0.8101675E-01
       -1   -1    0    0    0  501  0.00000000000E+00  0.00000000000E+00  0.20863983871E+04  0.20863983871E+04  0.50400001928E-02 0. -1.
        1   -1    0    0  501    0  0.00000000000E+00  0.00000000000E+00 -0.15114187304E+04  0.15114187304E+04  0.50400001928E-02 0.  1.
    10030    2    1    2    0    0  0.00000000000E+00  0.00000000000E+00  0.57497965669E+03  0.35978171175E+04  0.35515752005E+04 0.  0.
        4    1    3    3  502    0 -0.42615801865E+03  0.25778293916E+03 -0.14392139635E+04  0.15229580251E+04  0.12699999809E+01 0.  1.
       -4    1    3    3    0  502  0.42615801865E+03 -0.25778293916E+03  0.20141936202E+04  0.20748590924E+04  0.12699999809E+01 0. -1.
</event>
<event>
 5   0  0.4120440E-07  0.3612764E+04  0.7818609E-02  0.8087574E-01
       -2   -1    0    0    0  501  0.00000000000E+00  0.00000000000E+00  0.10327767473E+04  0.10327767473E+04  0.25500000920E-02 0.  1.
        2   -1    0    0  501    0  0.00000000000E+00  0.00000000000E+00 -0.31594597533E+04  0.31594597533E+04  0.25500000920E-02 0. -1.
    10030    2    1    2    0    0  0.00000000000E+00  0.00000000000E+00 -0.21266830060E+04  0.41922365005E+04  0.36127643528E+04 0.  0.
        2    1    3    3  502    0 -0.16015336472E+04 -0.70814258561E+03 -0.54877352038E+03  0.18350826470E+04  0.25500000920E-02 0. -1.
       -2    1    3    3    0  502  0.16015336472E+04  0.70814258561E+03 -0.15779094856E+04  0.23571538536E+04  0.25500000920E-02 0.  1.
</event>
<event>
 5   0  0.4120440E-07  0.3427612E+04  0.7818609E-02  0.8131162E-01
       -2   -1    0    0    0  501  0.00000000000E+00  0.00000000000E+00  0.20670905564E+04  0.20670905564E+04  0.25500000920E-02 0. -1.
        2   -1    0    0  501    0  0.00000000000E+00  0.00000000000E+00 -0.14209012976E+04  0.14209012976E+04  0.25500000920E-02 0.  1.
    10030    2    1    2    0    0  0.00000000000E+00  0.00000000000E+00  0.64618925888E+03  0.34879918540E+04  0.34276123782E+04 0.  0.
        2    1    3    3  502    0 -0.10746177955E+04 -0.13328701773E+04  0.24569335310E+03  0.17296564803E+04  0.25500000920E-02 0.  1.
       -2    1    3    3    0  502  0.10746177955E+04  0.13328701773E+04  0.40049590579E+03  0.17583353737E+04  0.25500000920E-02 0. -1.
</event>
<event>
 5   0  0.3880259E-07  0.3253921E+04  0.7818609E-02  0.8174720E-01
       -2   -1    0    0    0  501  0.00000000000E+00  0.00000000000E+00  0.10874888637E+04  0.10874888637E+04  0.25500000920E-02 0. -1.
        2   -1    0    0  501    0  0.00000000000E+00  0.00000000000E+00 -0.24340486175E+04  0.24340486175E+04  0.25500000920E-02 0.  1.
    10030    2    1    2    0    0  0.00000000000E+00  0.00000000000E+00 -0.13465597538E+04  0.35215374813E+04  0.32539211824E+04 0.  0.
        5    1    3    3  502    0  0.53754957277E+03 -0.15353229891E+04 -0.70393722824E+03  0.17724914486E+04  0.46999998093E+01 0.  1.
       -5    1    3    3    0  502 -0.53754957277E+03  0.15353229891E+04 -0.64262252560E+03  0.17490460327E+04  0.46999998093E+01 0. -1.
</event>
<event>
 5   0  0.3993751E-07  0.3607982E+04  0.7818609E-02  0.8088666E-01
        2   -1    0    0  501    0  0.00000000000E+00  0.00000000000E+00  0.15482183077E+04  0.15482183077E+04  0.25500000920E-02 0.  1.
       -2   -1    0    0    0  501  0.00000000000E+00  0.00000000000E+00 -0.21020184650E+04  0.21020184650E+04  0.25500000920E-02 0. -1.
    10030    2    1    2    0    0  0.00000000000E+00  0.00000000000E+00 -0.55380015730E+03  0.36502367726E+04  0.36079819681E+04 0.  0.
        1    1    3    3  502    0 -0.65991126443E+03 -0.15752065960E+04 -0.86475997068E+03  0.19143062722E+04  0.50400001928E-02 0. -1.
       -1    1    3    3    0  502  0.65991126443E+03  0.15752065960E+04  0.31095981338E+03  0.17359305005E+04  0.50400001928E-02 0.  1.
</event>
<event>
 5   0  0.1370997E-07  0.3570276E+04  0.7818609E-02  0.8097334E-01
        1   -1    0    0  501    0  0.00000000000E+00  0.00000000000E+00  0.26756964588E+04  0.26756964588E+04  0.50400001928E-02 0. -1.
       -1   -1    0    0    0  501  0.00000000000E+00  0.00000000000E+00 -0.11909864327E+04  0.11909864328E+04  0.50400001928E-02 0.  1.
    10030    2    1    2    0    0  0.00000000000E+00  0.00000000000E+00  0.14847100261E+04  0.38666828916E+04  0.35702762810E+04 0.  0.
        3    1    3    3  502    0 -0.25197576616E+03 -0.17095524425E+04  0.12274912395E+04  0.21196216864E+04  0.10100000352E+00 0. -1.
       -3    1    3    3    0  502  0.25197576616E+03  0.17095524425E+04  0.25721878657E+03  0.17470612052E+04  0.10100000352E+00 0.  1.
</event>
<event>
 5   0  0.4200635E-07  0.3578274E+04  0.7818609E-02  0.8095486E-01
       -2   -1    0    0    0  501  0.00000000000E+00  0.00000000000E+00  0.17665432901E+04  0.17665432901E+04  0.25500000920E-02 0. -1.
        2   -1    0    0  501    0  0.00000000000E+00  0.00000000000E+00 -0.18120198414E+04  0.18120198414E+04  0.25500000920E-02 0.  1.
    10030    2    1    2    0    0  0.00000000000E+00  0.00000000000E+00 -0.45476551319E+02  0.35785631315E+04  0.35782741607E+04 0.  0.
        4    1    3    3  502    0 -0.12610723436E+04 -0.73358319515E+03 -0.10584676614E+04  0.18024436643E+04  0.12699999809E+01 0.  1.
       -4    1    3    3    0  502  0.12610723436E+04  0.73358319515E+03  0.10129911100E+04  0.17761194672E+04  0.12699999809E+01 0. -1.
</event>
<event>
 5   0  0.3880259E-07  0.3599911E+04  0.7818609E-02  0.8090512E-01
       -2   -1    0    0    0  501  0.00000000000E+00  0.00000000000E+00  0.24985064716E+04  0.24985064717E+04  0.25500000920E-02 0. -1.
        2   -1    0    0  501    0  0.00000000000E+00  0.00000000000E+00 -0.12967105821E+04  0.12967105821E+04  0.25500000920E-02 0.  1.
    10030    2    1    2    0    0  0.00000000000E+00  0.00000000000E+00  0.12017958895E+04  0.37952170538E+04  0.35999109885E+04 0.  0.
        5    1    3    3  502    0 -0.72065040099E+02  0.32303931812E+03 -0.12643464790E+04  0.13069590200E+04  0.46999998093E+01 0.  1.
       -5    1    3    3    0  502  0.72065040099E+02 -0.32303931812E+03  0.24661423685E+04  0.24882580338E+04  0.46999998093E+01 0. -1.
</event>
<event>
 5   0  0.4115358E-07  0.3593671E+04  0.7818609E-02  0.8091943E-01
        2   -1    0    0  501    0  0.00000000000E+00  0.00000000000E+00  0.27198772965E+04  0.27198772965E+04  0.25500000920E-02 0.  1.
       -2   -1    0    0    0  501  0.00000000000E+00  0.00000000000E+00 -0.11870455545E+04  0.11870455545E+04  0.25500000920E-02 0. -1.
    10030    2    1    2    0    0  0.00000000000E+00  0.00000000000E+00  0.15328317420E+04  0.39069228510E+04  0.35936712446E+04 0.  0.
        3    1    3    3  502    0 -0.16218115822E+04  0.16753899610E+03  0.15874081710E+04  0.22755673655E+04  0.10100000352E+00 0.  1.
       -3    1    3    3    0  502  0.16218115822E+04 -0.16753899610E+03 -0.54576429014E+02  0.16313554855E+04  0.10100000352E+00 0. -1.
</event>
<event>
 5   0  0.1298250E-07  0.3597991E+04  0.7818609E-02  0.8090952E-01
       -1   -1    0    0    0  501  0.00000000000E+00  0.00000000000E+00  0.28916549012E+04  0.28916549012E+04  0.50400001928E-02 0.  1.
        1   -1    0    0  501    0  0.00000000000E+00  0.00000000000E+00 -0.11192155496E+04  0.11192155496E+04  0.50400001928E-02 0. -1.
    10030    2    1    2    0    0  0.00000000000E+00  0.00000000000E+00  0.17724393517E+04  0.40108704508E+04  0.35979911781E+04 0.  0.
        1    1    3    3  502    0  0.66302908863E+03 -0.37968367332E+03 -0.92936239624E+03  0.12031133478E+04  0.50400001928E-02 0. -1.
       -1    1    3    3    0  502 -0.66302908863E+03  0.37968367332E+03  0.27018017479E+04  0.28077571029E+04  0.50400001928E-02 0.  1.
</event>
<event>
 5   0  0.1298250E-07  0.3659982E+04  0.7818609E-02  0.8076889E-01
        1   -1    0    0  501    0  0.00000000000E+00  0.00000000000E+00  0.25938054195E+04  0.25938054195E+04  0.50400001928E-02 0. -1.
       -1   -1    0    0    0  501  0.00000000000E+00  0.00000000000E+00 -0.12911020858E+04  0.12911020859E+04  0.50400001928E-02 0.  1.
    10030    2    1    2    0    0  0.00000000000E+00  0.00000000000E+00  0.13027033337E+04  0.38849075054E+04  0.36599822882E+04 0.  0.
        2    1    3    3  502    0  0.16704907619E+04 -0.69259933361E+03  0.94900304048E+03  0.20422634486E+04  0.25500000920E-02 0. -1.
       -2    1    3    3    0  502 -0.16704907619E+04  0.69259933361E+03  0.35370029319E+03  0.18426440568E+04  0.25500000920E-02 0.  1.
</event>
<event>
 5   0  0.1298250E-07  0.3533924E+04  0.7818609E-02  0.8105797E-01
        1   -1    0    0  501    0  0.00000000000E+00  0.00000000000E+00  0.12028604287E+04  0.12028604287E+04  0.50400001928E-02 0.  1.
       -1   -1    0    0    0  501  0.00000000000E+00  0.00000000000E+00 -0.25956078980E+04  0.25956078980E+04  0.50400001928E-02 0. -1.
    10030    2    1    2    0    0  0.00000000000E+00  0.00000000000E+00 -0.13927474692E+04  0.37984683267E+04  0.35339236149E+04 0.  0.
        2    1    3    3  502    0  0.48206997590E+03 -0.99520144937E+03 -0.21777054621E+04  0.24423796728E+04  0.25500000920E-02 0. -1.
       -2    1    3    3    0  502 -0.48206997590E+03  0.99520144937E+03  0.78495799288E+03  0.13560886538E+04  0.25500000920E-02 0.  1.
</event>
<event>
 5   0  0.4120440E-07  0.3348305E+04  0.7818609E-02  0.8150712E-01
        2   -1    0    0  501    0  0.00000000000E+00  0.00000000000E+00  0.12579829996E+04  0.12579829996E+04  0.25500000920E-02 0.  1.
       -2   -1    0    0    0  501  0.00000000000E+00  0.00000000000E+00 -0.22280009034E+04  0.22280009034E+04  0.25500000920E-02 0. -1.
    10030    2    1    2    0    0  0.00000000000E+00  0.00000000000E+00 -0.97001790382E+03  0.34859839031E+04  0.33483053981E+04 0.  0.
        2    1    3    3  502    0  0.70457125915E+03 -0.12794452545E+04 -0.13368111765E+04  0.19800163990E+04  0.25500000920E-02 0. -1.
       -2    1    3    3    0  502 -0.70457125915E+03  0.12794452545E+04  0.36679327273E+03  0.15059675041E+04  0.25500000920E-02 0.  1.
</event>
<event>
 5   0  0.4200635E-07  0.3560855E+04  0.7818609E-02  0.8099518E-01
       -2   -1    0    0    0  501  0.00000000000E+00  0.00000000000E+00  0.98655223103E+03  0.98655223103E+03  0.25500000920E-02 0.  1.
        2   -1    0    0  501    0  0.00000000000E+00  0.00000000000E+00 -0.32131320356E+04  0.32131320356E+04  0.25500000920E-02 0. -1.
    10030    2    1    2    0    0  0.00000000000E+00  0.00000000000E+00 -0.22265798046E+04  0.41996842666E+04  0.35608552783E+04 0.  0.
        4    1    3    3  502    0 -0.10829662092E+04  0.13577343418E+04 -0.15756138861E+04  0.23449560943E+04  0.12699999809E+01 0. -1.
       -4    1    3    3    0  502  0.10829662092E+04 -0.13577343418E+04 -0.65096591848E+03  0.18547281723E+04  0.12699999809E+01 0.  1.
</event>
<event>
 5   0  0.3880259E-07  0.3650487E+04  0.7818609E-02  0.8079024E-01
        2   -1    0    0  501    0  0.00000000000E+00  0.00000000000E+00  0.25229480991E+04  0.25229480991E+04  0.25500000920E-02 0. -1.
       -2   -1    0    0    0  501  0.00000000000E+00  0.00000000000E+00 -0.13204847098E+04  0.13204847098E+04  0.25500000920E-02 0.  1.
    10030    2    1    2    0    0  0.00000000000E+00  0.00000000000E+00  0.12024633893E+04  0.38434328089E+04  0.36504873037E+04 0.  0.
        5    1    3    3  502    0 -0.14739981054E+04  0.42015263291E+03  0.16447236827E+04  0.22481852085E+04  0.46999998093E+01 0. -1.
       -5    1    3    3    0  502  0.14739981054E+04 -0.42015263291E+03 -0.44226029335E+03  0.15952476004E+04  0.46999998093E+01 0.  1.
</event>
<event>
 5   0  0.1298250E-07  0.3565543E+04  0.7818609E-02  0.8098430E-01
        1   -1    0    0  501    0  0.00000000000E+00  0.00000000000E+00  0.23045967342E+04  0.23045967342E+04  0.50400001928E-02 0.  1.
       -1   -1    0    0    0  501  0.00000000000E+00  0.00000000000E+00 -0.13791018514E+04  0.13791018514E+04  0.50400001928E-02 0. -1.
    10030    2    1    2    0    0  0.00000000000E+00  0.00000000000E+00  0.92549488280E+03  0.36836985857E+04  0.35655426645E+04 0.  0.
        1    1    3    3  502    0 -0.47639241209E+03  0.15866814522E+04  0.11431816422E+04  0.20128020340E+04  0.50400001928E-02 0.  1.
       -1    1    3    3    0  502  0.47639241209E+03 -0.15866814522E+04 -0.21768675941E+03  0.16708965517E+04  0.50400001928E-02 0. -1.
</event>
<event>
 5   0  0.1348226E-07  0.3547144E+04  0.7818609E-02  0.8102707E-01
        1   -1    0    0  501    0  0.00000000000E+00  0.00000000000E+00  0.20657033658E+04  0.20657033658E+04  0.50400001928E-02 0. -1.
       -1   -1    0    0    0  501  0.00000000000E+00  0.00000000000E+00 -0.15227539232E+04  0.15227539232E+04  0.50400001928E-02 0.  1.
    10030    2    1    2    0    0  0.00000000000E+00  0.00000000000E+00  0.54294944256E+03  0.35884572890E+04  0.35471441496E+04 0.  0.
        4    1    3    3  502    0  0.22674464652E+03 -0.12735488647E+04 -0.95600627222E+03  0.16085053469E+04  0.12699999809E+01 0.  1.
       -4    1    3    3    0  502 -0.22674464652E+03  0.12735488647E+04  0.14989557148E+04  0.19799519422E+04  0.12699999809E+01 0. -1.
</event>
<event>
 5   0  0.4120440E-07  0.3564246E+04  0.7818609E-02  0.8098731E-01
        2   -1    0    0  501    0  0.00000000000E+00  0.00000000000E+00  0.18510902147E+04  0.18510902147E+04  0.25500000920E-02 0.  1.
       -2   -1    0    0    0  501  0.00000000000E+00  0.00000000000E+00 -0.17157252565E+04  0.17157252565E+04  0.25500000920E-02 0. -1.
    10030    2    1    2    0    0  0.00000000000E+00  0.00000000000E+00  0.13536495816E+03  0.35668154712E+04  0.35642459138E+04 0.  0.
        2    1    3    3  502    0 -0.12847797771E+04  0.10224885430E+04 -0.62550755014E+03  0.17571003362E+04  0.25500000920E-02 0. -1.
       -2    1    3    3    0  502  0.12847797771E+04 -0.10224885430E+04  0.76087250830E+03  0.18097151350E+04  0.25500000920E-02 0.  1.
</event>
<event>
 5   0  0.3993751E-07  0.3609492E+04  0.7818609E-02  0.8088321E-01
        2   -1    0    0  501    0  0.00000000000E+00  0.00000000000E+00  0.21153137510E+04  0.21153137510E+04  0.25500000920E-02 0.  1.
       -2   -1    0    0    0  501  0.00000000000E+00  0.00000000000E+00 -0.15397754101E+04  0.15397754101E+04  0.25500000920E-02 0. -1.
    10030    2    1    2    0    0  0.00000000000E+00  0.00000000000E+00  0.57553834086E+03  0.36550891611E+04  0.36094919856E+04 0.  0.
        1    1    3    3  502    0 -0.44838192971E+03 -0.14690809365E+04  0.12472955479E+04  0.19786337045E+04  0.50400001928E-02 0.  1.
       -1    1    3    3    0  502  0.44838192971E+03  0.14690809365E+04 -0.67175720704E+03  0.16764554566E+04  0.50400001928E-02 0. -1.
</event>
<event>
 5   0  0.3993751E-07  0.3622619E+04  0.7818609E-02  0.8085330E-01
       -2   -1    0    0    0  501  0.00000000000E+00  0.00000000000E+00  0.19299652275E+04  0.19299652275E+04  0.25500000920E-02 0.  1.
        2   -1    0    0  501    0  0.00000000000E+00  0.00000000000E+00 -0.16999484488E+04  0.16999484488E+04  0.25500000920E-02 0. -1.
    10030    2    1    2    0    0  0.00000000000E+00  0.00000000000E+00  0.23001677869E+03  0.36299136763E+04  0.36226186080E+04 0.  0.
        1    1    3    3  502    0 -0.41940915175E+03  0.14536482523E+04  0.11129276255E+04  0.18781919971E+04  0.50400001928E-02 0.  1.
       -1    1    3    3    0  502  0.41940915175E+03 -0.14536482523E+04 -0.88291084685E+03  0.17517216793E+04  0.50400001928E-02 0. -1.
</event>
<event>
 5   0  0.1298250E-07  0.3785515E+04  0.7818609E-02  0.8049270E-01
        1   -1    0    0  501    0  0.00000000000E+00  0.00000000000E+00  0.11530073187E+04  0.11530073187E+04  0.50400001928E-02 0.  1.
       -1   -1    0    0    0  501  0.00000000000E+00  0.00000000000E+00 -0.31071192843E+04  0.31071192843E+04  0.50400001928E-02 0. -1.
    10030    2    1    2    0    0  0.00000000000E+00  0.00000000000E+00 -0.19541119656E+04  0.42601266030E+04  0.37855151696E+04 0.  0.
        2    1    3    3  502    0  0.15066019167E+04  0.86998270981E+03 -0.18160550611E+04  0.25149105821E+04  0.25500000920E-02 0. -1.
       -2    1    3    3    0  502 -0.15066019167E+04 -0.86998270981E+03 -0.13805690449E+03  0.17452160209E+04  0.25500000920E-02 0.  1.
</event>
<event>
 5   0  0.3880259E-07  0.3599179E+04  0.7818609E-02  0.8090680E-01
        2   -1    0    0  501    0  0.00000000000E+00  0.00000000000E+00  0.11442836534E+04  0.11442836534E+04  0.25500000920E-02 0.  1.
       -2   -1    0    0    0  501  0.00000000000E+00  0.00000000000E+00 -0.28301751391E+04  0.28301751391E+04  0.25500000920E-02 0. -1.
    10030    2    1    2    0    0  0.00000000000E+00  0.00000000000E+00 -0.16858914857E+04  0.39744587925E+04  0.35991794331E+04 0.  0.
        5    1    3    3  502    0  0.11095150271E+04  0.14106254673E+04 -0.69639288431E+03  0.19250643999E+04  0.46999998093E+01 0. -1.
       -5    1    3    3    0  502 -0.11095150271E+04 -0.14106254673E+04 -0.98949860141E+03  0.20493943926E+04  0.46999998093E+01 0.  1.
</event>
<event>
 5   0  0.1348226E-07  0.3619087E+04  0.7818609E-02  0.8086134E-01
        1   -1    0    0  501    0  0.00000000000E+00  0.00000000000E+00  0.22885109372E+04  0.22885109372E+04  0.50400001928E-02 0.  1.
       -1   -1    0    0    0  501  0.00000000000E+00  0.00000000000E+00 -0.14308201437E+04  0.14308201437E+04  0.50400001928E-02 0. -1.
    10030    2    1    2    0    0  0.00000000000E+00  0.00000000000E+00  0.85769079353E+03  0.37193310810E+04  0.36190869280E+04 0.  0.
        4    1    3    3  502    0 -0.81881285888E+03 -0.15537491396E+04  0.87663798381E+03  0.19629280818E+04  0.12699999809E+01 0.  1.
       -4    1    3    3    0  502  0.81881285888E+03  0.15537491396E+04 -0.18947190282E+02  0.17564029992E+04  0.12699999809E+01 0. -1.
</event>
<event>
 5   0  0.1298250E-07  0.3597720E+04  0.7818609E-02  0.8091014E-01
        1   -1    0    0  501    0  0.00000000000E+00  0.00000000000E+00  0.14858303028E+04  0.14858303028E+04  0.50400001928E-02 0.  1.
       -1   -1    0    0    0  501  0.00000000000E+00  0.00000000000E+00 -0.21778380553E+04  0.21778380553E+04  0.50400001928E-02 0. -1.
    10030    2    1    2    0    0  0.00000000000E+00  0.00000000000E+00 -0.69200775245E+03  0.36636683581E+04  0.35977202655E+04 0.  0.
        1    1    3    3  502    0  0.46028489211E+03  0.53515439391E+03 -0.20309163907E+04  0.21500869269E+04  0.50400001928E-02 0. -1.
       -1    1    3    3    0  502 -0.46028489211E+03 -0.53515439391E+03  0.13389086382E+04  0.15135814312E+04  0.50400001928E-02 0.  1.
</event>
<event>
 5   0  0.1298250E-07  0.3549722E+04  0.7818609E-02  0.8102107E-01
       -1   -1    0    0    0  501  0.00000000000E+00  0.00000000000E+00  0.17615208607E+04  0.17615208607E+04  0.50400001928E-02 0.  1.
        1   -1    0    0  501    0  0.00000000000E+00  0.00000000000E+00 -0.17883019646E+04  0.17883019646E+04  0.50400001928E-02 0. -1.
    10030    2    1    2    0    0  0.00000000000E+00  0.00000000000E+00 -0.26781103817E+02  0.35498228253E+04  0.35497218009E+04 0.  0.
        1    1    3    3  502    0  0.65455849509E+03  0.18022241686E+03  0.16265354658E+04  0.17625392377E+04  0.50400001928E-02 0.  1.
       -1    1    3    3    0  502 -0.65455849509E+03 -0.18022241686E+03 -0.16533165696E+04  0.17872835876E+04  0.50400001928E-02 0. -1.
</event>
<event>
 5   0  0.1298250E-07  0.3591008E+04  0.7818609E-02  0.8092555E-01
       -1   -1    0    0    0  501  0.00000000000E+00  0.00000000000E+00  0.12490244610E+04  0.12490244610E+04  0.50400001928E-02 0.  1.
        1   -1    0    0  501    0  0.00000000000E+00  0.00000000000E+00 -0.25810815301E+04  0.25810815301E+04  0.50400001928E-02 0. -1.
    10030    2    1    2    0    0  0.00000000000E+00  0.00000000000E+00 -0.13320570691E+04  0.38301059912E+04  0.35910076397E+04 0.  0.
        2    1    3    3  502    0 -0.38126151873E+03 -0.72608306322E+03  0.10375935874E+04  0.13225571493E+04  0.25500000920E-02 0.  1.
       -2    1    3    3    0  502  0.38126151873E+03  0.72608306322E+03 -0.23696506566E+04  0.25075488419E+04  0.25500000920E-02 0. -1.
</event>
<event>
 5   0  0.1370997E-07  0.3525801E+04  0.7818609E-02  0.8107703E-01
       -1   -1    0    0    0  501  0.00000000000E+00  0.00000000000E+00  0.15396295373E+04  0.15396295373E+04  0.50400001928E-02 0. -1.
        1   -1    0    0  501    0  0.00000000000E+00  0.00000000000E+00 -0.20185489660E+04  0.20185489661E+04  0.50400001928E-02 0.  1.
    10030    2    1    2    0    0  0.00000000000E+00  0.00000000000E+00 -0.47891942875E+03  0.35581785034E+04  0.35258006811E+04 0.  0.
        3    1    3    3  502    0  0.14639343113E+04  0.96041659430E+03 -0.44705213406E+03  0.18070305264E+04  0.10100000352E+00 0.  1.
       -3    1    3    3    0  502 -0.14639343113E+04 -0.96041659430E+03 -0.31867294691E+02  0.17511479770E+04  0.10100000352E+00 0. -1.
</event>
<event>
 5   0  0.4115358E-07  0.3712937E+04  0.7818609E-02  0.8065101E-01
       -2   -1    0    0    0  501  0.00000000000E+00  0.00000000000E+00  0.15893229911E+04  0.15893229911E+04  0.25500000920E-02 0.  1.
        2   -1    0    0  501    0  0.00000000000E+00  0.00000000000E+00 -0.21685176399E+04  0.21685176399E+04  0.25500000920E-02 0. -1.
    10030    2    1    2    0    0  0.00000000000E+00  0.00000000000E+00 -0.57919464877E+03  0.37578406311E+04  0.37129368117E+04 0.  0.
        3    1    3    3  502    0  0.15353678534E+04  0.10349598693E+04 -0.15389159154E+03  0.18580040389E+04  0.10100000352E+00 0.  1.
       -3    1    3    3    0  502 -0.15353678534E+04 -0.10349598693E+04 -0.42530305723E+03  0.18998365922E+04  0.10100000352E+00 0. -1.
</event>
<event>
 5   0  0.1370997E-07  0.3602258E+04  0.7818609E-02  0.8089975E-01
       -1   -1    0    0    0  501  0.00000000000E+00  0.00000000000E+00  0.28888883093E+04  0.28888883093E+04  0.50400001928E-02 0.  1.
        1   -1    0    0  501    0  0.00000000000E+00  0.00000000000E+00 -0.11229460590E+04  0.11229460590E+04  0.50400001928E-02 0. -1.
    10030    2    1    2    0    0  0.00000000000E+00  0.00000000000E+00  0.17659422503E+04  0.40118343683E+04  0.36022580373E+04 0.  0.
        3    1    3    3  502    0  0.51897791180E+02 -0.15468408690E+02  0.28879814213E+04  0.28884891124E+04  0.10100000352E+00 0.  1.
       -3    1    3    3    0  502 -0.51897791180E+02  0.15468408690E+02 -0.11220391710E+04  0.11233452559E+04  0.10100000352E+00 0. -1.
</event>
<event>
 5   0  0.4200635E-07  0.3590073E+04  0.7818609E-02  0.8092769E-01
        2   -1    0    0  501    0  0.00000000000E+00  0.00000000000E+00  0.17212450616E+04  0.17212450616E+04  0.25500000920E-02 0. -1.
       -2   -1    0    0    0  501  0.00000000000E+00  0.00000000000E+00 -0.18719918071E+04  0.18719918071E+04  0.25500000920E-02 0.  1.
    10030    2    1    2    0    0  0.00000000000E+00  0.00000000000E+00 -0.15074674551E+03  0.35932368686E+04  0.35900733436E+04 0.  0.
        4    1    3    3  502    0  0.36057837041E+03  0.14856471457E+04 -0.10169418563E+04  0.18361199728E+04  0.12699999809E+01 0.  1.
       -4    1    3    3    0  502 -0.36057837041E+03 -0.14856471457E+04  0.86619511078E+03  0.17571168958E+04  0.12699999809E+01 0. -1.
</event>
<event>
 5   0  0.4115358E-07  0.3549660E+04  0.7818609E-02  0.8102121E-01
        2   -1    0    0  501    0  0.00000000000E+00  0.00000000000E+00  0.29927924013E+04  0.29927924013E+04  0.25500000920E-02 0. -1.
       -2   -1    0    0    0  501  0.00000000000E+00  0.00000000000E+00 -0.10525360576E+04  0.10525360576E+04  0.25500000920E-02 0.  1.
    10030    2    1    2    0    0  0.00000000000E+00  0.00000000000E+00  0.19402563437E+04  0.40453284589E+04  0.35496602177E+04 0.  0.
        3    1    3    3  502    0  0.14999916101E+04  0.74510678636E+03  0.16393810953E+04  0.23436572572E+04  0.10100000352E+00 0. -1.
       -3    1    3    3    0  502 -0.14999916101E+04 -0.74510678636E+03  0.30087524837E+03  0.17016712017E+04  0.10100000352E+00 0.  1.
</event>
<event>
 5   0  0.4120440E-07  0.3594056E+04  0.7818609E-02  0.8091855E-01
       -2   -1    0    0    0  501  0.00000000000E+00  0.00000000000E+00  0.12765676945E+04  0.12765676945E+04  0.25500000920E-02 0.  1.
        2   -1    0    0  501    0  0.00000000000E+00  0.00000000000E+00 -0.25296812226E+04  0.25296812226E+04  0.25500000920E-02 0. -1.
    10030    2    1    2    0    0  0.00000000000E+00  0.00000000000E+00 -0.12531135281E+04  0.38062489171E+04  0.35940558294E+04 0.  0.
        2    1    3    3  502    0  0.29163670995E+03 -0.17564221653E+04 -0.88431616511E+03  0.19879853805E+04  0.25500000920E-02 0. -1.
       -2    1    3    3    0  502 -0.29163670995E+03  0.17564221653E+04 -0.36879736297E+03  0.18182635365E+04  0.25500000920E-02 0.  1.
</event>
<event>
 5   0  0.1361743E-07  0.3602692E+04  0.7818609E-02  0.8089875E-01
        1   -1    0    0  501    0  0.00000000000E+00  0.00000000000E+00  0.23535067035E+04  0.23535067035E+04  0.50400001928E-02 0. -1.
       -1   -1    0    0    0  501  0.00000000000E+00  0.00000000000E+00 -0.13787284792E+04  0.13787284792E+04  0.50400001928E-02 0.  1.
    10030    2    1    2    0    0  0.00000000000E+00  0.00000000000E+00  0.97477822432E+03  0.37322351827E+04  0.36026916150E+04 0.  0.
        5    1    3    3  502    0 -0.17413824497E+04 -0.38538970071E+03  0.22554265540E+03  0.17977290221E+04  0.46999998093E+01 0.  1.
       -5    1    3    3    0  502  0.17413824497E+04  0.38538970071E+03  0.74923556892E+03  0.19345061606E+04  0.46999998093E+01 0. -1.
</event>
<event>
 5   0  0.1298250E-07  0.3582984E+04  0.7818609E-02  0.8094401E-01
       -1   -1    0    0    0  501  0.00000000000E+00  0.00000000000E+00  0.30093800586E+04  0.30093800586E+04  0.50400001928E-02 0.  1.
        1   -1    0    0  501    0  0.00000000000E+00  0.00000000000E+00 -0.10664798536E+04  0.10664798536E+04  0.50400001928E-02 0. -1.
    10030    2    1    2    0    0  0.00000000000E+00  0.00000000000E+00  0.19429002050E+04  0.40758599123E+04  0.35829837870E+04 0.  0.
        1    1    3    3  502    0 -0.35072224300E+03  0.60289410352E+03  0.28485816247E+04  0.29327298997E+04  0.50400001928E-02 0.  1.
       -1    1    3    3    0  502  0.35072224300E+03 -0.60289410352E+03 -0.90568141966E+03  0.11431300126E+04  0.50400001928E-02 0. -1.
</event>
<event>
 5   0  0.3993751E-07  0.3586492E+04  0.7818609E-02  0.8093593E-01
        2   -1    0    0  501    0  0.00000000000E+00  0.00000000000E+00  0.11620654275E+04  0.11620654275E+04  0.25500000920E-02 0.  1.
       -2   -1    0    0    0  501  0.00000000000E+00  0.00000000000E+00 -0.27672554501E+04  0.27672554501E+04  0.25500000920E-02 0. -1.
    10030    2    1    2    0    0  0.00000000000E+00  0.00000000000E+00 -0.16051900225E+04  0.39293208776E+04  0.35864923743E+04 0.  0.
        1    1    3    3  502    0  0.95387548799E+03  0.11115643856E+04 -0.19360281207E+04  0.24276858763E+04  0.50400001928E-02 0. -1.
       -1    1    3    3    0  502 -0.95387548799E+03 -0.11115643856E+04  0.33083809813E+03  0.15016350013E+04  0.50400001928E-02 0.  1.
</event>
<event>
 5   0  0.4200635E-07  0.3494747E+04  0.7818609E-02  0.8115036E-01
        2   -1    0    0  501    0  0.00000000000E+00  0.00000000000E+00  0.17599067286E+04  0.17599067286E+04  0.25500000920E-02 0. -1.
       -2   -1    0    0    0  501  0.00000000000E+00  0.00000000000E+00 -0.17349295603E+04  0.17349295603E+04  0.25500000920E-02 0.  1.
    10030    2    1    2    0    0  0.00000000000E+00  0.00000000000E+00  0.24977168379E+02  0.34948362889E+04  0.34947470334E+04 0.  0.
        4    1    3    3  502    0 -0.63416385581E+03 -0.12076986149E+04 -0.10796074613E+04  0.17396130673E+04  0.12699999809E+01 0.  1.
       -4    1    3    3    0  502  0.63416385581E+03  0.12076986149E+04  0.11045846297E+04  0.17552232216E+04  0.12699999809E+01 0. -1.
</event>
<event>
 5   0  0.3880259E-07  0.3296302E+04  0.7818609E-02  0.8163837E-01
       -2   -1    0    0    0  501  0.00000000000E+00  0.00000000000E+00  0.95403335687E+03  0.95403335688E+03  0.25500000920E-02 0.  1.
        2   -1    0    0  501    0  0.00000000000E+00  0.00000000000E+00 -0.28472819795E+04  0.28472819795E+04  0.25500000920E-02 0. -1.
    10030    2    1    2    0    0  0.00000000000E+00  0.00000000000E+00 -0.18932486227E+04  0.38013153364E+04  0.32963021615E+04 0.  0.
        5    1    3    3  502    0 -0.15183268595E+04 -0.38317334987E+02 -0.16846718305E+04  0.22682429185E+04  0.46999998093E+01 0. -1.
       -5    1    3    3    0  502  0.15183268595E+04  0.38317334987E+02 -0.20857679211E+03  0.15330724179E+04  0.46999998093E+01 0.  1.
</event>
<event>
 5   0  0.4115358E-07  0.3584011E+04  0.7818609E-02  0.8094164E-01
       -2   -1    0    0    0  501  0.00000000000E+00  0.00000000000E+00  0.14267193571E+04  0.14267193571E+04  0.25500000920E-02 0. -1.
        2   -1    0    0  501    0  0.00000000000E+00  0.00000000000E+00 -0.22508161023E+04  0.22508161023E+04  0.25500000920E-02 0.  1.
    10030    2    1    2    0    0  0.00000000000E+00  0.00000000000E+00 -0.82409674512E+03  0.36775354594E+04  0.35840105482E+04 0.  0.
        3    1    3    3  502    0  0.10371628086E+04  0.11723698401E+04 -0.13072392103E+04  0.20393705148E+04  0.10100000352E+00 0.  1.
       -3    1    3    3    0  502 -0.10371628086E+04 -0.11723698401E+04  0.48314246518E+03  0.16381649445E+04  0.10100000352E+00 0. -1.
</event>
<event>
 5   0  0.4200635E-07  0.3560394E+04  0.7818609E-02  0.8099625E-01
       -2   -1    0    0    0  501  0.00000000000E+00  0.00000000000E+00  0.22339898955E+04  0.22339898955E+04  0.25500000920E-02 0. -1.
        2   -1    0    0  501    0  0.00000000000E+00  0.00000000000E+00 -0.14185833419E+04  0.14185833419E+04  0.25500000920E-02 0.  1.
    10030    2    1    2    0    0  0.00000000000E+00  0.00000000000E+00  0.81540655366E+03  0.36525732374E+04  0.35603937152E+04 0.  0.
        4    1    3    3  502    0  0.57046597977E+02 -0.14668501885E+04 -0.62544281139E+03  0.15956453594E+04  0.12699999809E+01 0.  1.
       -4    1    3    3    0  502 -0.57046597977E+02  0.14668501885E+04  0.14408493650E+04  0.20569278780E+04  0.12699999809E+01 0. -1.
</event>
<event>
 5   0  0.1361743E-07  0.3595754E+04  0.7818609E-02  0.8091465E-01
        1   -1    0    0  501    0  0.00000000000E+00  0.00000000000E+00  0.16464181452E+04  0.16464181452E+04  0.50400001928E-02 0.  1.
       -1   -1    0    0    0  501  0.00000000000E+00  0.00000000000E+00 -0.19632684589E+04  0.19632684589E+04  0.50400001928E-02 0. -1.
    10030    2    1    2    0    0  0.00000000000E+00  0.00000000000E+00 -0.31685031370E+03  0.36096866042E+04  0.35957535037E+04 0.  0.
        5    1    3    3  502    0  0.15494520135E+03 -0.17257692573E+04  0.32306988366E+03  0.17625787314E+04  0.46999998093E+01 0.  1.
       -5    1    3    3    0  502 -0.15494520135E+03  0.17257692573E+04 -0.63992019737E+03  0.18471078728E+04  0.46999998093E+01 0. -1.
</event>
<event>
 5   0  0.1298250E-07  0.3635189E+04  0.7818609E-02  0.8082478E-01
       -1   -1    0    0    0  501  0.00000000000E+00  0.00000000000E+00  0.14544349839E+04  0.14544349839E+04  0.50400001928E-02 0.  1.
        1   -1    0    0  501    0  0.00000000000E+00  0.00000000000E+00 -0.22714315435E+04  0.22714315435E+04  0.50400001928E-02 0. -1.
    10030    2    1    2    0    0  0.00000000000E+00  0.00000000000E+00 -0.81699655957E+03  0.37258665274E+04  0.36351888536E+04 0.  0.
        2    1    3    3  502    0  0.11094599381E+04  0.38271592451E+03 -0.18310224263E+04  0.21748599860E+04  0.25500000920E-02 0. -1.
       -2    1    3    3    0  502 -0.11094599381E+04 -0.38271592451E+03  0.10140258667E+04  0.15510065414E+04  0.25500000920E-02 0.  1.
</event>
<event>
 5   0  0.4200635E-07  0.3598078E+04  0.7818609E-02  0.8090932E-01
        2   -1    0    0  501    0  0.00000000000E+00  0.00000000000E+00  0.30099744499E+04  0.30099744499E+04  0.25500000920E-02 0.  1.
       -2   -1    0    0    0  501  0.00000000000E+00  0.00000000000E+00 -0.10752721697E+04  0.10752721697E+04  0.25500000920E-02 0. -1.
    10030    2    1    2    0    0  0.00000000000E+00  0.00000000000E+00  0.19347022802E+04  0.40852466196E+04  0.35980782412E+04 0.  0.
        4    1    3    3  502    0 -0.11168043768E+04  0.13889576245E+04  0.12456619994E+04  0.21744265286E+04  0.12699999809E+01 0.  1.
       -4    1    3    3    0  502  0.11168043768E+04 -0.13889576245E+04  0.68904028079E+03  0.19108200910E+04  0.12699999809E+01 0. -1.
</event>
<event>
 5   0  0.4115358E-07  0.3607467E+04  0.7818609E-02  0.8088783E-01
        2   -1    0    0  501    0  0.00000000000E+00  0.00000000000E+00  0.25826035353E+04  0.25826035353E+04  0.25500000920E-02 0. -1.
       -2   -1    0    0    0  501  0.00000000000E+00  0.00000000000E+00 -0.12597576053E+04  0.12597576053E+04  0.25500000920E-02 0.  1.
    10030    2    1    2    0    0  0.00000000000E+00  0.00000000000E+00  0.13228459300E+04  0.38423611406E+04  0.36074669479E+04 0.  0.
        3    1    3    3  502    0 -0.15174423561E+04  0.79079354722E+03  0.12690686707E+04  0.21303804917E+04  0.10100000352E+00 0. -1.
       -3    1    3    3    0  502  0.15174423561E+04 -0.79079354722E+03  0.53777259294E+02  0.17119806489E+04  0.10100000352E+00 0.  1.
</event>
<event>
 5   0  0.4120440E-07  0.3581640E+04  0.7818609E-02  0.8094710E-01
       -2   -1    0    0    0  501  0.00000000000E+00  0.00000000000E+00  0.33092359014E+04  0.33092359014E+04  0.25500000920E-02 0. -1.
        2   -1    0    0  501    0  0.00000000000E+00  0.00000000000E+00 -0.96911681878E+03  0.96911681879E+03  0.25500000920E-02 0.  1.
    10030    2    1    2    0    0  0.00000000000E+00  0.00000000000E+00  0.23401190826E+04  0.42783527201E+04  0.35816399424E+04 0.  0.
        2    1    3    3  502    0 -0.11109010595E+04 -0.13605604221E+04  0.75315488582E+03  0.19111431418E+04  0.25500000920E-02 0.  1.
       -2    1    3    3    0  502  0.11109010595E+04  0.13605604221E+04  0.15869641967E+04  0.23672095784E+04  0.25500000920E-02 0. -1.
</event>
<event>
 5   0  0.4200635E-07  0.3588412E+04  0.7818609E-02  0.8093151E-01
       -2   -1    0    0    0  501  0.00000000000E+00  0.00000000000E+00  0.16592698482E+04  0.16592698482E+04  0.25500000920E-02 0.  1.
        2   -1    0    0  501    0  0.00000000000E+00  0.00000000000E+00 -0.19401152478E+04  0.19401152478E+04  0.25500000920E-02 0. -1.
    10030    2    1    2    0    0  0.00000000000E+00  0.00000000000E+00 -0.28084539959E+03  0.35993850960E+04  0.35884117560E+04 0.  0.
        4    1    3    3  502    0 -0.82114476376E+03 -0.10359851903E+04  0.10763941757E+04  0.17047492695E+04  0.12699999809E+01 0.  1.
       -4    1    3    3    0  502  0.82114476376E+03  0.10359851903E+04 -0.13572395753E+04  0.18946358265E+04  0.12699999809E+01 0. -1.
</event>
<event>
 5   0  0.1298250E-07  0.3604881E+04  0.7818609E-02  0.8089374E-01
        1   -1    0    0  501    0  0.00000000000E+00  0.00000000000E+00  0.16693093270E+04  0.16693093270E+04  0.50400001928E-02 0.  1.
       -1   -1    0    0    0  501  0.00000000000E+00  0.00000000000E+00 -0.19461896358E+04  0.19461896358E+04  0.50400001928E-02 0. -1.
    10030    2    1    2    0    0  0.00000000000E+00  0.00000000000E+00 -0.27688030886E+03  0.36154989628E+04  0.36048814189E+04 0.  0.
        1    1    3    3  502    0 -0.13411382028E+04  0.13679380850E+03  0.10615068210E+04  0.17158557504E+04  0.50400001928E-02 0.  1.
       -1    1    3    3    0  502  0.13411382028E+04 -0.13679380850E+03 -0.13383871299E+04  0.18996432124E+04  0.50400001928E-02 0. -1.
</event>
<event>
 5   0  0.4120440E-07  0.3584433E+04  0.7818609E-02  0.8094067E-01
        2   -1    0    0  501    0  0.00000000000E+00  0.00000000000E+00  0.23387695842E+04  0.23387695842E+04  0.25500000920E-02 0.  1.
       -2   -1    0    0    0  501  0.00000000000E+00  0.00000000000E+00 -0.13733891463E+04  0.13733891463E+04  0.25500000920E-02 0. -1.
    10030    2    1    2    0    0  0.00000000000E+00  0.00000000000E+00  0.96538043785E+03  0.37121587305E+04  0.35844334350E+04 0.  0.
        2    1    3    3  502    0 -0.38662737077E+03  0.11341112875E+04 -0.89760024467E+03  0.14971223516E+04  0.25500000920E-02 0. -1.
       -2    1    3    3    0  502  0.38662737077E+03 -0.11341112875E+04  0.18629806825E+04  0.22150363789E+04  0.25500000920E-02 0.  1.
</event>
<event>
 5   0  0.1361743E-07  0.3577699E+04  0.7818609E-02  0.8095619E-01
       -1   -1    0    0    0  501  0.00000000000E+00  0.00000000000E+00  0.20926065397E+04  0.20926065397E+04  0.50400001928E-02 0. -1.
        1   -1    0    0  501    0  0.00000000000E+00  0.00000000000E+00 -0.15291850500E+04  0.15291850500E+04  0.50400001928E-02 0.  1.
    10030    2    1    2    0    0  0.00000000000E+00  0.00000000000E+00  0.56342148972E+03  0.36217915896E+04  0.35776990572E+04 0.  0.
        5    1    3    3  502    0  0.61453785117E+03 -0.16690722885E+04  0.47511892279E+03  0.18409832035E+04  0.46999998093E+01 0.  1.
       -5    1    3    3    0  502 -0.61453785117E+03  0.16690722885E+04  0.88302566925E+02  0.17808083861E+04  0.46999998093E+01 0. -1.
</event>
<event>
 5   0  0.1370997E-07  0.3593152E+04  0.7818609E-02  0.8092062E-01
        1   -1    0    0  501    0  0.00000000000E+00  0.00000000000E+00  0.30424990695E+04  0.30424990695E+04  0.50400001928E-02 0. -1.
       -1   -1    0    0    0  501  0.00000000000E+00  0.00000000000E+00 -0.10608665535E+04  0.10608665535E+04  0.50400001928E-02 0.  1.
    10030    2    1    2    0    0  0.00000000000E+00  0.00000000000E+00  0.19816325160E+04  0.41033656230E+04  0.35931520991E+04 0.  0.
        3    1    3    3  502    0  0.92465134849E+03 -0.13052419758E+04  0.56715984176E+02  0.16005790967E+04  0.10100000352E+00 0.  1.
       -3    1    3    3    0  502 -0.92465134849E+03  0.13052419758E+04  0.19249165318E+04  0.25027865263E+04  0.10100000352E+00 0. -1.
</event>
<event>
 5   0  0.3880259E-07  0.3599474E+04  0.7818609E-02  0.8090612E-01
       -2   -1    0    0    0  501  0.00000000000E+00  0.00000000000E+00  0.10173723618E+04  0.10173723619E+04  0.25500000920E-02 0.  1.
        2   -1    0    0  501    0  0.00000000000E+00  0.00000000000E+00 -0.31837440463E+04  0.31837440463E+04  0.25500000920E-02 0. -1.
    10030    2    1    2    0    0  0.00000000000E+00  0.00000000000E+00 -0.21663716844E+04  0.42011164081E+04  0.35994739615E+04 0.  0.
        5    1    3    3  502    0 -0.26700059495E+03  0.16301991547E+04 -0.19168530478E+04  0.25304517973E+04  0.46999998093E+01 0. -1.
       -5    1    3    3    0  502  0.26700059495E+03 -0.16301991547E+04 -0.24951863660E+03  0.16706646108E+04  0.46999998093E+01 0.  1.
</event>
<event>
 5   0  0.1361743E-07  0.3595368E+04  0.7818609E-02  0.8091554E-01
       -1   -1    0    0    0  501  0.00000000000E+00  0.00000000000E+00  0.18099981036E+04  0.18099981036E+04  0.50400001928E-02 0.  1.
        1   -1    0    0  501    0  0.00000000000E+00  0.00000000000E+00 -0.17854534789E+04  0.17854534790E+04  0.50400001928E-02 0. -1.
    10030    2    1    2    0    0  0.00000000000E+00  0.00000000000E+00  0.24544624683E+02  0.35954515826E+04  0.35953678037E+04 0.  0.
        5    1    3    3  502    0  0.11953172612E+04 -0.17138959852E+03 -0.13194822536E+04  0.17886344671E+04  0.46999998093E+01 0. -1.
       -5    1    3    3    0  502 -0.11953172612E+04  0.17138959852E+03  0.13440268783E+04  0.18068171155E+04  0.46999998093E+01 0.  1.
</event>
<event>
 5   0  0.4115358E-07  0.3609858E+04  0.7818609E-02  0.8088237E-01
       -2   -1    0    0    0  501  0.00000000000E+00  0.00000000000E+00  0.20488055220E+04  0.20488055220E+04  0.25500000920E-02 0.  1.
        2   -1    0    0  501    0  0.00000000000E+00  0.00000000000E+00 -0.15900818384E+04  0.15900818384E+04  0.25500000920E-02 0. -1.
    10030    2    1    2    0    0  0.00000000000E+00  0.00000000000E+00  0.45872368352E+03  0.36388873604E+04  0.36098578648E+04 0.  0.
        3    1    3    3  502    0 -0.61518381050E+03  0.10523039504E+04  0.15712216595E+04  0.19886005728E+04  0.10100000352E+00 0.  1.
       -3    1    3    3    0  502  0.61518381050E+03 -0.10523039504E+04 -0.11124979760E+04  0.16502867876E+04  0.10100000352E+00 0. -1.
</event>
<event>
 5   0  0.1298250E-07  0.3489506E+04  0.7818609E-02  0.8116281E-01
       -1   -1    0    0    0  501  0.00000000000E+00  0.00000000000E+00  0.25405173401E+04  0.25405173402E+04  0.50400001928E-02 0.  1.
        1   -1    0    0  501    0  0.00000000000E+00  0.00000000000E+00 -0.11982455759E+04  0.11982455759E+04  0.50400001928E-02 0. -1.
    10030    2    1    2    0    0  0.00000000000E+00  0.00000000000E+00  0.13422717643E+04  0.37387629160E+04  0.34895063624E+04 0.  0.
        1    1    3    3  502    0  0.11439428077E+04 -0.95814910554E+03 -0.29761063020E+03  0.15215869817E+04  0.50400001928E-02 0. -1.
       -1    1    3    3    0  502 -0.11439428077E+04  0.95814910554E+03  0.16398823945E+04  0.22171759343E+04  0.50400001928E-02 0.  1.
</event>
<event>
 5   0  0.1361743E-07  0.3584918E+04  0.7818609E-02  0.8093955E-01
       -1   -1    0    0    0  501  0.00000000000E+00  0.00000000000E+00  0.15955730577E+04  0.15955730577E+04  0.50400001928E-02 0.  1.
        1   -1    0    0  501    0  0.00000000000E+00  0.00000000000E+00 -0.20136397974E+04  0.20136397974E+04  0.50400001928E-02 0. -1.
    10030    2    1    2    0    0  0.00000000000E+00  0.00000000000E+00 -0.41806673974E+03  0.36092128551E+04  0.35849180792E+04 0.  0.
        5    1    3    3  502    0 -0.14424711445E+04  0.65848963267E+03  0.63242723109E+03  0.17071373382E+04  0.46999998093E+01 0.  1.
       -5    1    3    3    0  502  0.14424711445E+04 -0.65848963267E+03 -0.10504939708E+04  0.19020755168E+04  0.46999998093E+01 0. -1.
</event>
<event>
 5   0  0.4115358E-07  0.3606454E+04  0.7818609E-02  0.8089015E-01
       -2   -1    0    0    0  501  0.00000000000E+00  0.00000000000E+00  0.16220693476E+04  0.16220693476E+04  0.25500000920E-02 0. -1.
        2   -1    0    0  501    0  0.00000000000E+00  0.00000000000E+00 -0.20046170798E+04  0.20046170798E+04  0.25500000920E-02 0.  1.
    10030    2    1    2    0    0  0.00000000000E+00  0.00000000000E+00 -0.38254773221E+03  0.36266864273E+04  0.36064541692E+04 0.  0.
        3    1    3    3  502    0 -0.15605611778E+03 -0.36145859445E+03  0.15783203599E+04  0.16266840493E+04  0.10100000352E+00 0. -1.
       -3    1    3    3    0  502  0.15605611778E+03  0.36145859445E+03 -0.19608680921E+04  0.20000023781E+04  0.10100000352E+00 0.  1.
</event>
<event>
 5   0  0.3880259E-07  0.3575504E+04  0.7818609E-02  0.8096126E-01
        2   -1    0    0  501    0  0.00000000000E+00  0.00000000000E+00  0.10152423156E+04  0.10152423156E+04  0.25500000920E-02 0.  1.
       -2   -1    0    0    0  501  0.00000000000E+00  0.00000000000E+00 -0.31480730750E+04  0.31480730750E+04  0.25500000920E-02 0. -1.
    10030    2    1    2    0    0  0.00000000000E+00  0.00000000000E+00 -0.21328307593E+04  0.41633153906E+04  0.35755038797E+04 0.  0.
        5    1    3    3  502    0  0.16987749967E+04 -0.49185211111E+03 -0.13706779710E+04  0.22375288107E+04  0.46999998093E+01 0. -1.
       -5    1    3    3    0  502 -0.16987749967E+04  0.49185211111E+03 -0.76215278839E+03  0.19257865799E+04  0.46999998093E+01 0.  1.
</event>
<event>
 5   0  0.3880259E-07  0.3649275E+04  0.7818609E-02  0.8079297E-01
        2   -1    0    0  501    0  0.00000000000E+00  0.00000000000E+00  0.20534735980E+04  0.20534735980E+04  0.25500000920E-02 0.  1.
       -2   -1    0    0    0  501  0.00000000000E+00  0.00000000000E+00 -0.16213021369E+04  0.16213021369E+04  0.25500000920E-02 0. -1.
    10030    2    1    2    0    0  0.00000000000E+00  0.00000000000E+00  0.43217146116E+03  0.36747757349E+04  0.36492745210E+04 0.  0.
        5    1    3    3  502    0  0.17026731189E+02  0.10459811314E+04 -0.12893235104E+04  0.16603444345E+04  0.46999998093E+01 0. -1.
       -5    1    3    3    0  502 -0.17026731189E+02 -0.10459811314E+04  0.17214949715E+04  0.20144313004E+04  0.46999998093E+01 0.  1.
</event>
<event>
 5   0  0.1348226E-07  0.3576571E+04  0.7818609E-02  0.8095879E-01
       -1   -1    0    0    0  501  0.00000000000E+00  0.00000000000E+00  0.13097054564E+04  0.13097054564E+04  0.50400001928E-02 0. -1.
        1   -1    0    0  501    0  0.00000000000E+00  0.00000000000E+00 -0.24417443523E+04  0.24417443523E+04  0.50400001928E-02 0.  1.
    10030    2    1    2    0    0  0.00000000000E+00  0.00000000000E+00 -0.11320388959E+04  0.37514498088E+04  0.35765714876E+04 0.  0.
        4    1    3    3  502    0  0.13478462104E+04  0.10652671981E+04 -0.45276172356E+02  0.17185852190E+04  0.12699999809E+01 0. -1.
       -4    1    3    3    0  502 -0.13478462104E+04 -0.10652671981E+04 -0.10867627236E+04  0.20328645898E+04  0.12699999809E+01 0.  1.
</event>
<event>
 5   0  0.1298250E-07  0.3584999E+04  0.7818609E-02  0.8093937E-01
       -3   -1    0    0    0  501  0.00000000000E+00  0.00000000000E+00  0.21398068238E+04  0.21398068262E+04  0.10100000352E+00 0. -1.
        3   -1    0    0  501    0  0.00000000000E+00  0.00000000000E+00 -0.15015627165E+04  0.15015627199E+04  0.10100000352E+00 0.  1.
    10030    2    1    2    0    0  0.00000000000E+00  0.00000000000E+00  0.63824410735E+03  0.36413695461E+04  0.35849988328E+04 0.  0.
        5    1    3    3  502    0  0.82339852753E+03 -0.90086167421E+03  0.16525844507E+04  0.20544085153E+04  0.46999998093E+01 0. -1.
       -5    1    3    3    0  502 -0.82339852753E+03  0.90086167421E+03 -0.10143403433E+04  0.15869610308E+04  0.46999998093E+01 0.  1.
</event>
<event>
 5   0  0.1348226E-07  0.3616622E+04  0.7818609E-02  0.8086695E-01
       -1   -1    0    0    0  501  0.00000000000E+00  0.00000000000E+00  0.15427467625E+04  0.15427467625E+04  0.50400001928E-02 0.  1.
        1   -1    0    0  501    0  0.00000000000E+00  0.00000000000E+00 -0.21195883396E+04  0.21195883396E+04  0.50400001928E-02 0. -1.
    10030    2    1    2    0    0  0.00000000000E+00  0.00000000000E+00 -0.57684157715E+03  0.36623351021E+04  0.36166216550E+04 0.  0.
        4    1    3    3  502    0  0.12447540215E+04  0.13025294115E+04 -0.13157273923E+03  0.18064629641E+04  0.12699999809E+01 0. -1.
       -4    1    3    3    0  502 -0.12447540215E+04 -0.13025294115E+04 -0.44526883792E+03  0.18558721381E+04  0.12699999809E+01 0.  1.
</event>
<event>
 5   0  0.1370997E-07  0.3597178E+04  0.7818609E-02  0.8091138E-01
        1   -1    0    0  501    0  0.00000000000E+00  0.00000000000E+00  0.16422110895E+04  0.16422110895E+04  0.50400001928E-02 0. -1.
       -1   -1    0    0    0  501  0.00000000000E+00  0.00000000000E+00 -0.19698576377E+04  0.19698576377E+04  0.50400001928E-02 0.  1.
    10030    2    1    2    0    0  0.00000000000E+00  0.00000000000E+00 -0.32764654819E+03  0.36120687272E+04  0.35971778145E+04 0.  0.
        3    1    3    3  502    0  0.17432845347E+04 -0.17346580186E+03  0.24503630119E+03  0.17689471876E+04  0.10100000352E+00 0.  1.
       -3    1    3    3    0  502 -0.17432845347E+04  0.17346580186E+03 -0.57268284938E+03  0.18431215396E+04  0.10100000352E+00 0. -1.
</event>
<event>
 5   0  0.1298250E-07  0.3574092E+04  0.7818609E-02  0.8096452E-01
       -1   -1    0    0    0  501  0.00000000000E+00  0.00000000000E+00  0.17890750995E+04  0.17890750995E+04  0.50400001928E-02 0. -1.
        1   -1    0    0  501    0  0.00000000000E+00  0.00000000000E+00 -0.17850188383E+04  0.17850188383E+04  0.50400001928E-02 0.  1.
    10030    2    1    2    0    0  0.00000000000E+00  0.00000000000E+00  0.40562611978E+01  0.35740939379E+04  0.35740916361E+04 0.  0.
        1    1    3    3  502    0 -0.15714475714E+04 -0.34726177016E+03  0.77887774699E+03  0.17879286203E+04  0.50400001928E-02 0. -1.
       -1    1    3    3    0  502  0.15714475714E+04  0.34726177016E+03 -0.77482148579E+03  0.17861653175E+04  0.50400001928E-02 0.  1.
</event>
<event>
 5   0  0.4115358E-07  0.3611234E+04  0.7818609E-02  0.8087923E-01
        2   -1    0    0  501    0  0.00000000000E+00  0.00000000000E+00  0.22885860607E+04  0.22885860607E+04  0.25500000920E-02 0.  1.
       -2   -1    0    0    0  501  0.00000000000E+00  0.00000000000E+00 -0.14245705978E+04  0.14245705978E+04  0.25500000920E-02 0. -1.
    10030    2    1    2    0    0  0.00000000000E+00  0.00000000000E+00  0.86401546295E+03  0.37131566585E+04  0.36112338128E+04 0.  0.
        3    1    3    3  502    0  0.72024460620E+03 -0.10828531860E+04 -0.85591355668E+03  0.15568915640E+04  0.10100000352E+00 0. -1.
       -3    1    3    3    0  502 -0.72024460620E+03  0.10828531860E+04  0.17199290196E+04  0.21562650946E+04  0.10100000352E+00 0.  1.
</event>
<event>
 5   0  0.3880259E-07  0.3597795E+04  0.7818609E-02  0.8090997E-01
       -2   -1    0    0    0  501  0.00000000000E+00  0.00000000000E+00  0.17506714925E+04  0.17506714925E+04  0.25500000920E-02 0.  1.
        2   -1    0    0  501    0  0.00000000000E+00  0.00000000000E+00 -0.18484518989E+04  0.18484518989E+04  0.25500000920E-02 0. -1.
    10030    2    1    2    0    0  0.00000000000E+00  0.00000000000E+00 -0.97780406415E+02  0.35991233913E+04  0.35977949050E+04 0.  0.
        5    1    3    3  502    0 -0.81398612326E+03 -0.12983175517E+03  0.15506311768E+04  0.17561061556E+04  0.46999998093E+01 0.  1.
       -5    1    3    3    0  502  0.81398612326E+03  0.12983175517E+03 -0.16484115832E+04  0.18430172357E+04  0.46999998093E+01 0. -1.
</event>
<event>
 5   0  0.3880259E-07  0.3603255E+04  0.7818609E-02  0.8089746E-01
        2   -1    0    0  501    0  0.00000000000E+00  0.00000000000E+00  0.20237420128E+04  0.20237420128E+04  0.25500000920E-02 0. -1.
       -2   -1    0    0    0  501  0.00000000000E+00  0.00000000000E+00 -0.16038910437E+04  0.16038910437E+04  0.25500000920E-02 0.  1.
    10030    2    1    2    0    0  0.00000000000E+00  0.00000000000E+00  0.41985096909E+03  0.36276330564E+04  0.36032550223E+04 0.  0.
        5    1    3    3  502    0  0.56301358942E+03  0.47559140496E+03  0.18650272766E+04  0.20053728627E+04  0.46999998093E+01 0. -1.
       -5    1    3    3    0  502 -0.56301358942E+03 -0.47559140496E+03 -0.14451763075E+04  0.16222601937E+04  0.46999998093E+01 0.  1.
</event>
<event>
 5   0  0.1298250E-07  0.3603745E+04  0.7818609E-02  0.8089634E-01
        1   -1    0    0  501    0  0.00000000000E+00  0.00000000000E+00  0.20937897406E+04  0.20937897406E+04  0.50400001928E-02 0. -1.
       -1   -1    0    0    0  501  0.00000000000E+00  0.00000000000E+00 -0.15506545446E+04  0.15506545446E+04  0.50400001928E-02 0.  1.
    10030    2    1    2    0    0  0.00000000000E+00  0.00000000000E+00  0.54313519595E+03  0.36444442852E+04  0.36037450391E+04 0.  0.
        1    1    3    3  502    0  0.57765438580E+03  0.14146123823E+04  0.12373036328E+04  0.19661467548E+04  0.50400001928E-02 0. -1.
       -1    1    3    3    0  502 -0.57765438580E+03 -0.14146123823E+04 -0.69416843687E+03  0.16782975304E+04  0.50400001928E-02 0.  1.
</event>
<event>
 5   0  0.3993751E-07  0.3923943E+04  0.7818609E-02  0.8020068E-01
        2   -1    0    0  501    0  0.00000000000E+00  0.00000000000E+00  0.21807351161E+04  0.21807351161E+04  0.25500000920E-02 0. -1.
       -2   -1    0    0    0  501  0.00000000000E+00  0.00000000000E+00 -0.17651532211E+04  0.17651532211E+04  0.25500000920E-02 0.  1.
    10030    2    1    2    0    0  0.00000000000E+00  0.00000000000E+00  0.41558189492E+03  0.39458883372E+04  0.39239427185E+04 0.  0.
        1    1    3    3  502    0 -0.92971770143E+02 -0.13677015780E+04  0.16192363770E+04  0.21215979358E+04  0.50400001928E-02 0. -1.
       -1    1    3    3    0  502  0.92971770143E+02  0.13677015780E+04 -0.12036544821E+04  0.18242904014E+04  0.50400001928E-02 0.  1.
</event>
<event>
 5   0  0.3993751E-07  0.3587855E+04  0.7818609E-02  0.8093279E-01
        2   -1    0    0  501    0  0.00000000000E+00  0.00000000000E+00  0.20055546579E+04  0.20055546579E+04  0.25500000920E-02 0. -1.
       -2   -1    0    0    0  501  0.00000000000E+00  0.00000000000E+00 -0.16046309735E+04  0.16046309735E+04  0.25500000920E-02 0.  1.
    10030    2    1    2    0    0  0.00000000000E+00  0.00000000000E+00  0.40092368445E+03  0.36101856314E+04  0.35878545808E+04 0.  0.
        1    1    3    3  502    0  0.10234209776E+04  0.27034513946E+03  0.16578196657E+04  0.19669374763E+04  0.50400001928E-02 0. -1.
       -1    1    3    3    0  502 -0.10234209776E+04 -0.27034513946E+03 -0.12568959812E+04  0.16432481551E+04  0.50400001928E-02 0.  1.
</event>
<event>
 5   0  0.1370997E-07  0.3646121E+04  0.7818609E-02  0.8080008E-01
        1   -1    0    0  501    0  0.00000000000E+00  0.00000000000E+00  0.24681851920E+04  0.24681851920E+04  0.50400001928E-02 0.  1.
       -1   -1    0    0    0  501  0.00000000000E+00  0.00000000000E+00 -0.13465558592E+04  0.13465558592E+04  0.50400001928E-02 0. -1.
    10030    2    1    2    0    0  0.00000000000E+00  0.00000000000E+00  0.11216293328E+04  0.38147410513E+04  0.36461208054E+04 0.  0.
        3    1    3    3  502    0  0.17785283261E+04 -0.18916857195E+03  0.93012850887E+03  0.20159580374E+04  0.10100000352E+00 0.  1.
       -3    1    3    3    0  502 -0.17785283261E+04  0.18916857195E+03  0.19150082397E+03  0.17987830139E+04  0.10100000352E+00 0. -1.
</event>
<event>
 5   0  0.4200635E-07  0.3571792E+04  0.7818609E-02  0.8096984E-01
       -2   -1    0    0    0  501  0.00000000000E+00  0.00000000000E+00  0.21478012556E+04  0.21478012556E+04  0.25500000920E-02 0.  1.
        2   -1    0    0  501    0  0.00000000000E+00  0.00000000000E+00 -0.14849715489E+04  0.14849715489E+04  0.25500000920E-02 0. -1.
    10030    2    1    2    0    0  0.00000000000E+00  0.00000000000E+00  0.66282970672E+03  0.36327728045E+04  0.35717915713E+04 0.  0.
        4    1    3    3  502    0 -0.14282704932E+04  0.63961366010E+03  0.12065468767E+04  0.19760615412E+04  0.12699999809E+01 0.  1.
       -4    1    3    3    0  502  0.14282704932E+04 -0.63961366010E+03 -0.54371717000E+03  0.16567112633E+04  0.12699999809E+01 0. -1.
</event>
<event>
 5   0  0.1298250E-07  0.3553481E+04  0.7818609E-02  0.8101231E-01
        1   -1    0    0  501    0  0.00000000000E+00  0.00000000000E+00  0.16054775793E+04  0.16054775793E+04  0.50400001928E-02 0. -1.
       -1   -1    0    0    0  501  0.00000000000E+00  0.00000000000E+00 -0.19662723729E+04  0.19662723729E+04  0.50400001928E-02 0.  1.
    10030    2    1    2    0    0  0.00000000000E+00  0.00000000000E+00 -0.36079479351E+03  0.35717499522E+04  0.35534806652E+04 0.  0.
        2    1    3    3  502    0 -0.70682500944E+03  0.44871512104E+02  0.14574558570E+04  0.16204297645E+04  0.25500000920E-02 0. -1.
       -2    1    3    3    0  502  0.70682500944E+03 -0.44871512104E+02 -0.18182506506E+04  0.19513201877E+04  0.25500000920E-02 0.  1.
</event>
<event>
 5   0  0.4120440E-07  0.3614448E+04  0.7818609E-02  0.8087190E-01
        2   -1    0    0  501    0  0.00000000000E+00  0.00000000000E+00  0.10482458924E+04  0.10482458924E+04  0.25500000920E-02 0.  1.
       -2   -1    0    0    0  501  0.00000000000E+00  0.00000000000E+00 -0.31157370280E+04  0.31157370280E+04  0.25500000920E-02 0. -1.
    10030    2    1    2    0    0  0.00000000000E+00  0.00000000000E+00 -0.20674911356E+04  0.41639829204E+04  0.36144479753E+04 0.  0.
        2    1    3    3  502    0  0.93809113804E+03  0.10301149657E+04  0.29230355355E+03  0.14235846281E+04  0.25500000920E-02 0.  1.
       -2    1    3    3    0  502 -0.93809113804E+03 -0.10301149657E+04 -0.23597946891E+04  0.27403982924E+04  0.25500000920E-02 0. -1.
</event>
<event>
 5   0  0.1298250E-07  0.3594842E+04  0.7818609E-02  0.8091674E-01
        1   -1    0    0  501    0  0.00000000000E+00  0.00000000000E+00  0.19578396792E+04  0.19578396792E+04  0.50400001928E-02 0. -1.
       -1   -1    0    0    0  501  0.00000000000E+00  0.00000000000E+00 -0.16501465574E+04  0.16501465574E+04  0.50400001928E-02 0.  1.
    10030    2    1    2    0    0  0.00000000000E+00  0.00000000000E+00  0.30769312182E+03  0.36079862366E+04  0.35948420865E+04 0.  0.
        1    1    3    3  502    0 -0.83760688366E+03  0.68112936806E+03 -0.12884883059E+04  0.16809891796E+04  0.50400001928E-02 0.  1.
       -1    1    3    3    0  502  0.83760688366E+03 -0.68112936806E+03  0.15961814277E+04  0.19269970570E+04  0.50400001928E-02 0. -1.
</event>
<event>
 5   0  0.4120440E-07  0.3241055E+04  0.7818609E-02  0.8178058E-01
        2   -1    0    0  501    0  0.00000000000E+00  0.00000000000E+00  0.26948222616E+04  0.26948222616E+04  0.25500000920E-02 0.  1.
       -2   -1    0    0    0  501  0.00000000000E+00  0.00000000000E+00 -0.97450211882E+03  0.97450211882E+03  0.25500000920E-02 0. -1.
    10030    2    1    2    0    0  0.00000000000E+00  0.00000000000E+00  0.17203201428E+04  0.36693243804E+04  0.32410553860E+04 0.  0.
        2    1    3    3  502    0  0.42088557480E+03  0.41921063980E+03  0.25671113718E+04  0.26349464934E+04  0.25500000920E-02 0.  1.
       -2    1    3    3    0  502 -0.42088557480E+03 -0.41921063980E+03 -0.84679122905E+03  0.10343778870E+04  0.25500000920E-02 0. -1.
</event>
<event>
 5   0  0.3880259E-07  0.3595302E+04  0.7818609E-02  0.8091569E-01
        2   -1    0    0  501    0  0.00000000000E+00  0.00000000000E+00  0.17598196332E+04  0.17598196332E+04  0.25500000920E-02 0.  1.
       -2   -1    0    0    0  501  0.00000000000E+00  0.00000000000E+00 -0.18362955620E+04  0.18362955620E+04  0.25500000920E-02 0. -1.
    10030    2    1    2    0    0  0.00000000000E+00  0.00000000000E+00 -0.76475928765E+02  0.35961151952E+04  0.35953019247E+04 0.  0.
        5    1    3    3  502    0 -0.16661511286E+04  0.57204241194E+03  0.31994189093E+03  0.17904404509E+04  0.46999998093E+01 0.  1.
       -5    1    3    3    0  502  0.16661511286E+04 -0.57204241194E+03 -0.39641781969E+03  0.18056747443E+04  0.46999998093E+01 0. -1.
</event>
<event>
 5   0  0.3880259E-07  0.3559129E+04  0.7818609E-02  0.8099918E-01
       -2   -1    0    0    0  501  0.00000000000E+00  0.00000000000E+00  0.11411727045E+04  0.11411727045E+04  0.25500000920E-02 0.  1.
        2   -1    0    0  501    0  0.00000000000E+00  0.00000000000E+00 -0.27750837196E+04  0.27750837196E+04  0.25500000920E-02 0. -1.
    10030    2    1    2    0    0  0.00000000000E+00  0.00000000000E+00 -0.16339110150E+04  0.39162564241E+04  0.35591289909E+04 0.  0.
        5    1    3    3  502    0  0.17692585842E+04 -0.18572177639E+03 -0.76702392292E+03  0.19372961323E+04  0.46999998093E+01 0. -1.
       -5    1    3    3    0  502 -0.17692585842E+04  0.18572177639E+03 -0.86688709212E+03  0.19789602918E+04  0.46999998093E+01 0.  1.
</event>
<event>
 5   0  0.3880259E-07  0.3605108E+04  0.7818609E-02  0.8089323E-01
       -2   -1    0    0    0  501  0.00000000000E+00  0.00000000000E+00  0.12471106885E+04  0.12471106885E+04  0.25500000920E-02 0.  1.
        2   -1    0    0  501    0  0.00000000000E+00  0.00000000000E+00 -0.26053827750E+04  0.26053827750E+04  0.25500000920E-02 0. -1.
    10030    2    1    2    0    0  0.00000000000E+00  0.00000000000E+00 -0.13582720865E+04  0.38524934635E+04  0.36051078799E+04 0.  0.
        5    1    3    3  502    0  0.28789997837E+03 -0.62997910486E+02  0.12211841874E+04  0.12562515846E+04  0.46999998093E+01 0.  1.
       -5    1    3    3    0  502 -0.28789997837E+03  0.62997910486E+02 -0.25794562740E+04  0.25962418789E+04  0.46999998093E+01 0. -1.
</event>
<event>
 5   0  0.1370997E-07  0.3586607E+04  0.7818609E-02  0.8093566E-01
       -1   -1    0    0    0  501  0.00000000000E+00  0.00000000000E+00  0.18763365313E+04  0.18763365313E+04  0.50400001928E-02 0.  1.
        1   -1    0    0  501    0  0.00000000000E+00  0.00000000000E+00 -0.17139451695E+04  0.17139451695E+04  0.50400001928E-02 0. -1.
    10030    2    1    2    0    0  0.00000000000E+00  0.00000000000E+00  0.16239136183E+03  0.35902817008E+04  0.35866072738E+04 0.  0.
        3    1    3    3  502    0 -0.11739535869E+04  0.11490463750E+04  0.80128188293E+03  0.18277109350E+04  0.10100000352E+00 0.  1.
       -3    1    3    3    0  502  0.11739535869E+04 -0.11490463750E+04 -0.63889052111E+03  0.17625707657E+04  0.10100000352E+00 0. -1.
</event>
<event>
 5   0  0.1370997E-07  0.3600509E+04  0.7818609E-02  0.8090375E-01
       -1   -1    0    0    0  501  0.00000000000E+00  0.00000000000E+00  0.14798345083E+04  0.14798345083E+04  0.50400001928E-02 0.  1.
        1   -1    0    0  501    0  0.00000000000E+00  0.00000000000E+00 -0.21900531101E+04  0.21900531101E+04  0.50400001928E-02 0. -1.
    10030    2    1    2    0    0  0.00000000000E+00  0.00000000000E+00 -0.71021860181E+03  0.36698876185E+04  0.36005089459E+04 0.  0.
        3    1    3    3  502    0 -0.83883838387E+03  0.15852818273E+04 -0.51349943115E+03  0.18655964146E+04  0.10100000352E+00 0.  1.
       -3    1    3    3    0  502  0.83883838387E+03 -0.15852818273E+04 -0.19671917066E+03  0.18042912039E+04  0.10100000352E+00 0. -1.
</event>
<event>
 5   0  0.1361743E-07  0.3604648E+04  0.7818609E-02  0.8089428E-01
       -1   -1    0    0    0  501  0.00000000000E+00  0.00000000000E+00  0.16696276897E+04  0.16696276897E+04  0.50400001928E-02 0.  1.
        1   -1    0    0  501    0  0.00000000000E+00  0.00000000000E+00 -0.19455669691E+04  0.19455669691E+04  0.50400001928E-02 0. -1.
    10030    2    1    2    0    0  0.00000000000E+00  0.00000000000E+00 -0.27593927943E+03  0.36151946589E+04  0.36046483789E+04 0.  0.
        5    1    3    3  502    0  0.12913746885E+04  0.88750871842E+03 -0.10310974456E+04  0.18757676678E+04  0.46999998093E+01 0. -1.
       -5    1    3    3    0  502 -0.12913746885E+04 -0.88750871842E+03  0.75515816619E+03  0.17394269911E+04  0.46999998093E+01 0.  1.
</event>
<event>
 5   0  0.3993751E-07  0.3633135E+04  0.7818609E-02  0.8082944E-01
       -2   -1    0    0    0  501  0.00000000000E+00  0.00000000000E+00  0.21980899470E+04  0.21980899470E+04  0.25500000920E-02 0. -1.
        2   -1    0    0  501    0  0.00000000000E+00  0.00000000000E+00 -0.15012659585E+04  0.15012659585E+04  0.25500000920E-02 0.  1.
    10030    2    1    2    0    0  0.00000000000E+00  0.00000000000E+00  0.69682398849E+03  0.36993559056E+04  0.36331350711E+04 0.  0.
        1    1    3    3  502    0 -0.13424853356E+04  0.11865882422E+04  0.43523028942E+02  0.17922479703E+04  0.50400001928E-02 0.  1.
       -1    1    3    3    0  502  0.13424853356E+04 -0.11865882422E+04  0.65330095954E+03  0.19071079353E+04  0.50400001928E-02 0. -1.
</event>
<event>
 5   0  0.1361743E-07  0.3625935E+04  0.7818609E-02  0.8084577E-01
        1   -1    0    0  501    0  0.00000000000E+00  0.00000000000E+00  0.14996631660E+04  0.14996631660E+04  0.50400001928E-02 0.  1.
       -1   -1    0    0    0  501  0.00000000000E+00  0.00000000000E+00 -0.21917257008E+04  0.21917257008E+04  0.50400001928E-02 0. -1.
    10030    2    1    2    0    0  0.00000000000E+00  0.00000000000E+00 -0.69206253471E+03  0.36913888668E+04  0.36259345297E+04 0.  0.
        5    1    3    3  502    0  0.94419648157E+03  0.80132261759E+03 -0.16940191156E+04  0.20984155421E+04  0.46999998093E+01 0. -1.
       -5    1    3    3    0  502 -0.94419648157E+03 -0.80132261759E+03  0.10019565809E+04  0.15929733247E+04  0.46999998093E+01 0.  1.
</event>
<event>
 5   0  0.3993751E-07  0.3597365E+04  0.7818609E-02  0.8091096E-01
        2   -1    0    0  501    0  0.00000000000E+00  0.00000000000E+00  0.12665175178E+04  0.12665175178E+04  0.25500000920E-02 0.  1.
       -2   -1    0    0    0  501  0.00000000000E+00  0.00000000000E+00 -0.25544525195E+04  0.25544525195E+04  0.25500000920E-02 0. -1.
    10030    2    1    2    0    0  0.00000000000E+00  0.00000000000E+00 -0.12879350017E+04  0.38209700373E+04  0.35973650715E+04 0.  0.
        1    1    3    3  502    0 -0.13295823392E+04 -0.71343798482E+03 -0.16838391058E+04  0.22609947123E+04  0.50400001928E-02 0. -1.
       -1    1    3    3    0  502  0.13295823392E+04  0.71343798482E+03  0.39590410415E+03  0.15599753250E+04  0.50400001928E-02 0.  1.
</event>
<event>
 5   0  0.4115358E-07  0.3579647E+04  0.7818609E-02  0.8095170E-01
       -2   -1    0    0    0  501  0.00000000000E+00  0.00000000000E+00  0.19373020736E+04  0.19373020736E+04  0.25500000920E-02 0. -1.
        2   -1    0    0  501    0  0.00000000000E+00  0.00000000000E+00 -0.16535719184E+04  0.16535719184E+04  0.25500000920E-02 0.  1.
    10030    2    1    2    0    0  0.00000000000E+00  0.00000000000E+00  0.28373015529E+03  0.35908739920E+04  0.35796470811E+04 0.  0.
        3    1    3    3  502    0  0.59427518273E+03  0.21743551450E+03 -0.15376101499E+04  0.16627345486E+04  0.10100000352E+00 0.  1.
       -3    1    3    3    0  502 -0.59427518273E+03 -0.21743551450E+03  0.18213403052E+04  0.19281394434E+04  0.10100000352E+00 0. -1.
</event>
<event>
 5   0  0.4120440E-07  0.3623419E+04  0.7818609E-02  0.8085148E-01
        2   -1    0    0  501    0  0.00000000000E+00  0.00000000000E+00  0.24329087631E+04  0.24329087631E+04  0.25500000920E-02 0.  1.
       -2   -1    0    0    0  501  0.00000000000E+00  0.00000000000E+00 -0.13491224019E+04  0.13491224019E+04  0.25500000920E-02 0. -1.
    10030    2    1    2    0    0  0.00000000000E+00  0.00000000000E+00  0.10837863612E+04  0.37820311650E+04  0.36234192217E+04 0.  0.
        2    1    3    3  502    0  0.11862025792E+04 -0.10634172873E+04  0.14424221558E+04  0.21490729540E+04  0.25500000920E-02 0.  1.
       -2    1    3    3    0  502 -0.11862025792E+04  0.10634172873E+04 -0.35863579466E+03  0.16329582110E+04  0.25500000920E-02 0. -1.
</event>
<event>
 5   0  0.1298250E-07  0.3592759E+04  0.7818609E-02  0.8092152E-01
        1   -1    0    0  501    0  0.00000000000E+00  0.00000000000E+00  0.19776583559E+04  0.19776583559E+04  0.50400001928E-02 0.  1.
       -1   -1    0    0    0  501  0.00000000000E+00  0.00000000000E+00 -0.16317172585E+04  0.16317172585E+04  0.50400001928E-02 0. -1.
    10030    2    1    2    0    0  0.00000000000E+00  0.00000000000E+00  0.34594109738E+03  0.36093756144E+04  0.35927589792E+04 0.  0.
        2    1    3    3  502    0  0.27879952866E+03 -0.17746101686E+04  0.16998310247E+03  0.18044014750E+04  0.25500000920E-02 0. -1.
       -2    1    3    3    0  502 -0.27879952866E+03  0.17746101686E+04  0.17595799491E+03  0.18049741394E+04  0.25500000920E-02 0.  1.
</event>
<event>
 5   0  0.3880259E-07  0.3604521E+04  0.7818609E-02  0.8089457E-01
       -2   -1    0    0    0  501  0.00000000000E+00  0.00000000000E+00  0.19421287231E+04  0.19421287231E+04  0.25500000920E-02 0. -1.
        2   -1    0    0  501    0  0.00000000000E+00  0.00000000000E+00 -0.16724655248E+04  0.16724655248E+04  0.25500000920E-02 0.  1.
    10030    2    1    2    0    0  0.00000000000E+00  0.00000000000E+00  0.26966319823E+03  0.36145942479E+04  0.36045212354E+04 0.  0.
        5    1    3    3  502    0 -0.96928254257E+02  0.30690321427E+03 -0.16434080522E+04  0.16746333286E+04  0.46999998093E+01 0.  1.
       -5    1    3    3    0  502  0.96928254257E+02 -0.30690321427E+03  0.19130712504E+04  0.19399609193E+04  0.46999998093E+01 0. -1.
</event>
<event>
 5   0  0.3880259E-07  0.3593010E+04  0.7818609E-02  0.8092095E-01
        2   -1    0    0  501    0  0.00000000000E+00  0.00000000000E+00  0.20241355522E+04  0.20241355522E+04  0.25500000920E-02 0. -1.
       -2   -1    0    0    0  501  0.00000000000E+00  0.00000000000E+00 -0.15944730472E+04  0.15944730472E+04  0.25500000920E-02 0.  1.
    10030    2    1    2    0    0  0.00000000000E+00  0.00000000000E+00  0.42966250498E+03  0.36186085994E+04  0.35930096475E+04 0.  0.
        5    1    3    3  502    0 -0.15709614510E+04  0.41905660959E+03 -0.55473270318E+03  0.17179286320E+04  0.46999998093E+01 0.  1.
       -5    1    3    3    0  502  0.15709614510E+04 -0.41905660959E+03  0.98439520816E+03  0.19006799674E+04  0.46999998093E+01 0. -1.
</event>
<event>
 5   0  0.3993751E-07  0.3525133E+04  0.7818609E-02  0.8107859E-01
       -2   -1    0    0    0  501  0.00000000000E+00  0.00000000000E+00  0.15994139054E+04  0.15994139054E+04  0.25500000920E-02 0.  1.
        2   -1    0    0  501    0  0.00000000000E+00  0.00000000000E+00 -0.19423618729E+04  0.19423618729E+04  0.25500000920E-02 0. -1.
    10030    2    1    2    0    0  0.00000000000E+00  0.00000000000E+00 -0.34294796752E+03  0.35417757784E+04  0.35251329558E+04 0.  0.
        1    1    3    3  502    0  0.27175304911E+03  0.67994309475E+03  0.14393633421E+04  0.16149115029E+04  0.50400001928E-02 0.  1.
       -1    1    3    3    0  502 -0.27175304911E+03 -0.67994309475E+03 -0.17823113096E+04  0.19268642755E+04  0.50400001928E-02 0. -1.
</event>
<event>
 5   0  0.4200635E-07  0.3628545E+04  0.7818609E-02  0.8083984E-01
       -2   -1    0    0    0  501  0.00000000000E+00  0.00000000000E+00  0.12919990164E+04  0.12919990164E+04  0.25500000920E-02 0. -1.
        2   -1    0    0  501    0  0.00000000000E+00  0.00000000000E+00 -0.25476677809E+04  0.25476677809E+04  0.25500000920E-02 0.  1.
    10030    2    1    2    0    0  0.00000000000E+00  0.00000000000E+00 -0.12556687645E+04  0.38396667974E+04  0.36285447591E+04 0.  0.
        4    1    3    3  502    0 -0.80301118994E+03  0.22612021170E+03  0.10769994520E+04  0.13623093458E+04  0.12699999809E+01 0. -1.
       -4    1    3    3    0  502  0.80301118994E+03 -0.22612021170E+03 -0.23326682165E+04  0.24773574515E+04  0.12699999809E+01 0.  1.
</event>
<event>
 5   0  0.1298250E-07  0.3606447E+04  0.7818609E-02  0.8089017E-01
       -1   -1    0    0    0  501  0.00000000000E+00  0.00000000000E+00  0.18745744793E+04  0.18745744793E+04  0.50400001928E-02 0. -1.
        1   -1    0    0  501    0  0.00000000000E+00  0.00000000000E+00 -0.17345884329E+04  0.17345884329E+04  0.50400001928E-02 0.  1.
    10030    2    1    2    0    0  0.00000000000E+00  0.00000000000E+00  0.13998604638E+03  0.36091629123E+04  0.36064471206E+04 0.  0.
        2    1    3    3  502    0  0.88760780136E+03 -0.54127990773E+03 -0.14044744254E+04  0.17473923312E+04  0.25500000920E-02 0.  1.
       -2    1    3    3    0  502 -0.88760780136E+03  0.54127990773E+03  0.15444604718E+04  0.18617705810E+04  0.25500000920E-02 0. -1.
</event>
<event>
 5   0  0.1298250E-07  0.3583982E+04  0.7818609E-02  0.8094171E-01
       -1   -1    0    0    0  501  0.00000000000E+00  0.00000000000E+00  0.19069904765E+04  0.19069904765E+04  0.50400001928E-02 0. -1.
        1   -1    0    0  501    0  0.00000000000E+00  0.00000000000E+00 -0.16839268554E+04  0.16839268554E+04  0.50400001928E-02 0.  1.
    10030    2    1    2    0    0  0.00000000000E+00  0.00000000000E+00  0.22306362107E+03  0.35909173319E+04  0.35839824087E+04 0.  0.
        2    1    3    3  502    0 -0.11595144920E+04 -0.11414496244E+04  0.86388516111E+03  0.18421939838E+04  0.25500000920E-02 0. -1.
       -2    1    3    3    0  502  0.11595144920E+04  0.11414496244E+04 -0.64082154004E+03  0.17487233482E+04  0.25500000920E-02 0.  1.
</event>
<event>
 5   0  0.3880259E-07  0.3670057E+04  0.7818609E-02  0.8074630E-01
       -2   -1    0    0    0  501  0.00000000000E+00  0.00000000000E+00  0.18643863163E+04  0.18643863163E+04  0.25500000920E-02 0. -1.
        2   -1    0    0  501    0  0.00000000000E+00  0.00000000000E+00 -0.18061332660E+04  0.18061332660E+04  0.25500000920E-02 0.  1.
    10030    2    1    2    0    0  0.00000000000E+00  0.00000000000E+00  0.58253050293E+02  0.36705195823E+04  0.36700573001E+04 0.  0.
        5    1    3    3  502    0  0.13830747083E+04 -0.97184771655E+03 -0.68505334891E+03  0.18239253860E+04  0.46999998093E+01 0.  1.
       -5    1    3    3    0  502 -0.13830747083E+04  0.97184771655E+03  0.74330639920E+03  0.18465941963E+04  0.46999998093E+01 0. -1.
</event>
<event>
 5   0  0.4115358E-07  0.3595977E+04  0.7818609E-02  0.8091414E-01
        2   -1    0    0  501    0  0.00000000000E+00  0.00000000000E+00  0.24143595062E+04  0.24143595062E+04  0.25500000920E-02 0. -1.
       -2   -1    0    0    0  501  0.00000000000E+00  0.00000000000E+00 -0.13389733940E+04  0.13389733940E+04  0.25500000920E-02 0.  1.
    10030    2    1    2    0    0  0.00000000000E+00  0.00000000000E+00  0.10753861122E+04  0.37533329002E+04  0.35959772760E+04 0.  0.
        3    1    3    3  502    0 -0.63419046453E+03 -0.88720028064E+03 -0.95434955038E+03  0.14491738880E+04  0.10100000352E+00 0.  1.
       -3    1    3    3    0  502  0.63419046453E+03  0.88720028064E+03  0.20297356625E+04  0.23041590121E+04  0.10100000352E+00 0. -1.
</event>
<event>
 5   0  0.1298250E-07  0.3596599E+04  0.7818609E-02  0.8091271E-01
       -1   -1    0    0    0  501  0.00000000000E+00  0.00000000000E+00  0.14240353773E+04  0.14240353773E+04  0.50400001928E-02 0. -1.
        1   -1    0    0  501    0  0.00000000000E+00  0.00000000000E+00 -0.22709276477E+04  0.22709276477E+04  0.50400001928E-02 0.  1.
    10030    2    1    2    0    0  0.00000000000E+00  0.00000000000E+00 -0.84689227034E+03  0.36949630250E+04  0.35965991212E+04 0.  0.
        2    1    3    3  502    0 -0.11279847478E+04  0.13555683523E+04 -0.78516373312E+03  0.19303878462E+04  0.25500000920E-02 0.  1.
       -2    1    3    3    0  502  0.11279847478E+04 -0.13555683523E+04 -0.61728537212E+02  0.17645751787E+04  0.25500000920E-02 0. -1.
</event>
<event>
 5   0  0.4200635E-07  0.3624682E+04  0.7818609E-02  0.8084861E-01
       -2   -1    0    0    0  501  0.00000000000E+00  0.00000000000E+00  0.15023456349E+04  0.15023456349E+04  0.25500000920E-02 0. -1.
        2   -1    0    0  501    0  0.00000000000E+00  0.00000000000E+00 -0.21863007781E+04  0.21863007781E+04  0.25500000920E-02 0.  1.
    10030    2    1    2    0    0  0.00000000000E+00  0.00000000000E+00 -0.68395514325E+03  0.36886464130E+04  0.36246817408E+04 0.  0.
        4    1    3    3  502    0 -0.99383001335E+02  0.14901504451E+04 -0.13868153461E+04  0.20380588184E+04  0.12699999809E+01 0.  1.
       -4    1    3    3    0  502  0.99383001335E+02 -0.14901504451E+04  0.70286020290E+03  0.16505875946E+04  0.12699999809E+01 0. -1.
</event>
<event>
 5   0  0.1348226E-07  0.3597471E+04  0.7818609E-02  0.8091071E-01
       -1   -1    0    0    0  501  0.00000000000E+00  0.00000000000E+00  0.17508105447E+04  0.17508105447E+04  0.50400001928E-02 0. -1.
        1   -1    0    0  501    0  0.00000000000E+00  0.00000000000E+00 -0.18479727460E+04  0.18479727460E+04  0.50400001928E-02 0.  1.
    10030    2    1    2    0    0  0.00000000000E+00  0.00000000000E+00 -0.97162201339E+02  0.35987832907E+04  0.35974714287E+04 0.  0.
        4    1    3    3  502    0  0.14265775337E+04 -0.78868383187E+03  0.71215851197E+03  0.17788527217E+04  0.12699999809E+01 0. -1.
       -4    1    3    3    0  502 -0.14265775337E+04  0.78868383187E+03 -0.80932071331E+03  0.18199305691E+04  0.12699999809E+01 0.  1.
</event>
<event>
 5   0  0.1370997E-07  0.3601279E+04  0.7818609E-02  0.8090199E-01
        1   -1    0    0  501    0  0.00000000000E+00  0.00000000000E+00  0.17387720350E+04  0.17387720350E+04  0.50400001928E-02 0. -1.
       -1   -1    0    0    0  501  0.00000000000E+00  0.00000000000E+00 -0.18647080263E+04  0.18647080263E+04  0.50400001928E-02 0.  1.
    10030    2    1    2    0    0  0.00000000000E+00  0.00000000000E+00 -0.12593599130E+03  0.36034800613E+04  0.36012787560E+04 0.  0.
        3    1    3    3  502    0 -0.29268057518E+03 -0.12989212940E+03  0.17100542423E+04  0.17397756769E+04  0.10100000352E+00 0. -1.
       -3    1    3    3    0  502  0.29268057518E+03  0.12989212940E+03 -0.18359902336E+04  0.18637043844E+04  0.10100000352E+00 0.  1.
</event>
<event>
 5   0  0.3993751E-07  0.3608521E+04  0.7818609E-02  0.8088543E-01
        2   -1    0    0  501    0  0.00000000000E+00  0.00000000000E+00  0.28339396956E+04  0.28339396956E+04  0.25500000920E-02 0.  1.
       -2   -1    0    0    0  501  0.00000000000E+00  0.00000000000E+00 -0.11487030634E+04  0.11487030634E+04  0.25500000920E-02 0. -1.
    10030    2    1    2    0    0  0.00000000000E+00  0.00000000000E+00  0.16852366322E+04  0.39826427590E+04  0.36085205888E+04 0.  0.
        1    1    3    3  502    0 -0.78906684151E+03 -0.14098399490E+04  0.17290575492E+04  0.23664139897E+04  0.50400001928E-02 0. -1.
       -1    1    3    3    0  502  0.78906684151E+03  0.14098399490E+04 -0.43820916973E+02  0.16162287694E+04  0.50400001928E-02 0.  1.
</event>
<event>
 5   0  0.1298250E-07  0.3859777E+04  0.7818609E-02  0.8033447E-01
        1   -1    0    0  501    0  0.00000000000E+00  0.00000000000E+00  0.14277899479E+04  0.14277899480E+04  0.50400001928E-02 0. -1.
       -1   -1    0    0    0  501  0.00000000000E+00  0.00000000000E+00 -0.26085560412E+04  0.26085560412E+04  0.50400001928E-02 0.  1.
    10030    2    1    2    0    0  0.00000000000E+00  0.00000000000E+00 -0.11807660933E+04  0.40363459892E+04  0.38597772445E+04 0.  0.
        2    1    3    3  502    0  0.11544796135E+04  0.12989024046E+04  0.28735813907E+03  0.17614043644E+04  0.25500000920E-02 0.  1.
       -2    1    3    3    0  502 -0.11544796135E+04 -0.12989024046E+04 -0.14681242324E+04  0.22749416248E+04  0.25500000920E-02 0. -1.
</event>
<event>
 5   0  0.3993751E-07  0.3614889E+04  0.7818609E-02  0.8087090E-01
       -2   -1    0    0    0  501  0.00000000000E+00  0.00000000000E+00  0.11300712710E+04  0.11300712710E+04  0.25500000920E-02 0.  1.
        2   -1    0    0  501    0  0.00000000000E+00  0.00000000000E+00 -0.28908405368E+04  0.28908405368E+04  0.25500000920E-02 0. -1.
    10030    2    1    2    0    0  0.00000000000E+00  0.00000000000E+00 -0.17607692658E+04  0.40209118078E+04  0.36148891212E+04 0.  0.
        1    1    3    3  502    0 -0.68900578901E+03 -0.60836924039E+03 -0.26114675364E+04  0.27685022672E+04  0.50400001928E-02 0. -1.
       -1    1    3    3    0  502  0.68900578901E+03  0.60836924039E+03  0.85069827055E+03  0.12524095406E+04  0.50400001928E-02 0.  1.
</event>
<event>
 5   0  0.4115358E-07  0.3646092E+04  0.7818609E-02  0.8080015E-01
        2   -1    0    0  501    0  0.00000000000E+00  0.00000000000E+00  0.14108531829E+04  0.14108531829E+04  0.25500000920E-02 0.  1.
       -2   -1    0    0    0  501  0.00000000000E+00  0.00000000000E+00 -0.23556647244E+04  0.23556647244E+04  0.25500000920E-02 0. -1.
    10030    2    1    2    0    0  0.00000000000E+00  0.00000000000E+00 -0.94481154152E+03  0.37665179072E+04  0.36460921953E+04 0.  0.
        3    1    3    3  502    0 -0.16022125838E+04  0.75281904140E+03 -0.92230773022E+03  0.19961145338E+04  0.10100000352E+00 0. -1.
       -3    1    3    3    0  502  0.16022125838E+04 -0.75281904140E+03 -0.22503811297E+02  0.17704033734E+04  0.10100000352E+00 0.  1.
</event>
<event>
 5   0  0.1298250E-07  0.3610100E+04  0.7818609E-02  0.8088182E-01
       -1   -1    0    0    0  501  0.00000000000E+00  0.00000000000E+00  0.12062957368E+04  0.12062957368E+04  0.50400001928E-02 0. -1.
        1   -1    0    0  501    0  0.00000000000E+00  0.00000000000E+00 -0.27010000803E+04  0.27010000803E+04  0.50400001928E-02 0.  1.
    10030    2    1    2    0    0  0.00000000000E+00  0.00000000000E+00 -0.14947043436E+04  0.39072958171E+04  0.36100996562E+04 0.  0.
        1    1    3    3  502    0 -0.62217439996E+03  0.34578905509E+03 -0.25426831718E+04  0.26404372303E+04  0.50400001928E-02 0.  1.
       -1    1    3    3    0  502  0.62217439996E+03 -0.34578905509E+03  0.10479788283E+04  0.12668585869E+04  0.50400001928E-02 0. -1.
</event>
<event>
 5   0  0.1298250E-07  0.3597616E+04  0.7818609E-02  0.8091038E-01
        1   -1    0    0  501    0  0.00000000000E+00  0.00000000000E+00  0.18829371083E+04  0.18829371083E+04  0.50400001928E-02 0. -1.
       -1   -1    0    0    0  501  0.00000000000E+00  0.00000000000E+00 -0.17184373324E+04  0.17184373324E+04  0.50400001928E-02 0.  1.
    10030    2    1    2    0    0  0.00000000000E+00  0.00000000000E+00  0.16449977587E+03  0.36013744407E+04  0.35976155556E+04 0.  0.
        1    1    3    3  502    0  0.15543728651E+04 -0.77507833056E+03 -0.38609361648E+03  0.17792947207E+04  0.50400001928E-02 0.  1.
       -1    1    3    3    0  502 -0.15543728651E+04  0.77507833056E+03  0.55059339235E+03  0.18220797200E+04  0.50400001928E-02 0. -1.
</event>
<event>
 5   0  0.3993751E-07  0.3599385E+04  0.7818609E-02  0.8090632E-01
       -2   -1    0    0    0  501  0.00000000000E+00  0.00000000000E+00  0.14784488618E+04  0.14784488618E+04  0.25500000920E-02 0. -1.
        2   -1    0    0  501    0  0.00000000000E+00  0.00000000000E+00 -0.21907378941E+04  0.21907378941E+04  0.25500000920E-02 0.  1.
    10030    2    1    2    0    0  0.00000000000E+00  0.00000000000E+00 -0.71228903229E+03  0.36691867558E+04  0.35993854731E+04 0.  0.
        1    1    3    3  502    0 -0.10413905924E+04  0.13664717275E+04 -0.90240444661E+03  0.19406373008E+04  0.50400001928E-02 0.  1.
       -1    1    3    3    0  502  0.10413905924E+04 -0.13664717275E+04  0.19011541432E+03  0.17285494551E+04  0.50400001928E-02 0. -1.
</event>
<event>
 5   0  0.1298250E-07  0.3646709E+04  0.7818609E-02  0.8079875E-01
        1   -1    0    0  501    0  0.00000000000E+00  0.00000000000E+00  0.24336601221E+04  0.24336601221E+04  0.50400001928E-02 0.  1.
       -1   -1    0    0    0  501  0.00000000000E+00  0.00000000000E+00 -0.13660993088E+04  0.13660993088E+04  0.50400001928E-02 0. -1.
    10030    2    1    2    0    0  0.00000000000E+00  0.00000000000E+00  0.10675608132E+04  0.37997594309E+04  0.36467088783E+04 0.  0.
        2    1    3    3  502    0  0.14548293629E+03 -0.17947257577E+04  0.83291019824E+03  0.19839216790E+04  0.25500000920E-02 0. -1.
       -2    1    3    3    0  502 -0.14548293629E+03  0.17947257577E+04  0.23465061500E+03  0.18158377519E+04  0.25500000920E-02 0.  1.
</event>
<event>
 5   0  0.1298250E-07  0.3604954E+04  0.7818609E-02  0.8089358E-01
       -1   -1    0    0    0  501  0.00000000000E+00  0.00000000000E+00  0.10839513299E+04  0.10839513299E+04  0.50400001928E-02 0. -1.
        1   -1    0    0  501    0  0.00000000000E+00  0.00000000000E+00 -0.29972956275E+04  0.29972956275E+04  0.50400001928E-02 0.  1.
    10030    2    1    2    0    0  0.00000000000E+00  0.00000000000E+00 -0.19133442976E+04  0.40812469574E+04  0.36049535817E+04 0.  0.
        1    1    3    3  502    0  0.10197607894E+04 -0.45920411195E+03 -0.25569904902E+04  0.27908745674E+04  0.50400001928E-02 0.  1.
       -1    1    3    3    0  502 -0.10197607894E+04  0.45920411195E+03  0.64364619251E+03  0.12903723901E+04  0.50400001928E-02 0. -1.
</event>
<event>
 5   0  0.4115358E-07  0.3616065E+04  0.7818609E-02  0.8086822E-01
        2   -1    0    0  501    0  0.00000000000E+00  0.00000000000E+00  0.20928282833E+04  0.20928282833E+04  0.25500000920E-02 0. -1.
       -2   -1    0    0    0  501  0.00000000000E+00  0.00000000000E+00 -0.15619921615E+04  0.15619921615E+04  0.25500000920E-02 0.  1.
    10030    2    1    2    0    0  0.00000000000E+00  0.00000000000E+00  0.53083612186E+03  0.36548204448E+04  0.36160649186E+04 0.  0.
        3    1    3    3  502    0  0.13975441287E+04  0.33785619603E+02  0.14243151189E+04  0.19957316021E+04  0.10100000352E+00 0. -1.
       -3    1    3    3    0  502 -0.13975441287E+04 -0.33785619603E+02 -0.89347899702E+03  0.16590888427E+04  0.10100000352E+00 0.  1.
</event>
<event>
 5   0  0.1348226E-07  0.3575189E+04  0.7818609E-02  0.8096199E-01
        1   -1    0    0  501    0  0.00000000000E+00  0.00000000000E+00  0.15526225676E+04  0.15526225676E+04  0.50400001928E-02 0.  1.
       -1   -1    0    0    0  501  0.00000000000E+00  0.00000000000E+00 -0.20581266737E+04  0.20581266737E+04  0.50400001928E-02 0. -1.
    10030    2    1    2    0    0  0.00000000000E+00  0.00000000000E+00 -0.50550410610E+03  0.36107492414E+04  0.35751889017E+04 0.  0.
        4    1    3    3  502    0  0.16956027279E+04 -0.28419521730E+03 -0.74716882086E+03  0.18745928603E+04  0.12699999809E+01 0. -1.
       -4    1    3    3    0  502 -0.16956027279E+04  0.28419521730E+03  0.24166471476E+03  0.17361563811E+04  0.12699999809E+01 0.  1.
</event>
<event>
 5   0  0.1298250E-07  0.3576217E+04  0.7818609E-02  0.8095961E-01
       -1   -1    0    0    0  501  0.00000000000E+00  0.00000000000E+00  0.15664643218E+04  0.15664643218E+04  0.50400001928E-02 0.  1.
        1   -1    0    0  501    0  0.00000000000E+00  0.00000000000E+00 -0.20411139631E+04  0.20411139632E+04  0.50400001928E-02 0. -1.
    10030    2    1    2    0    0  0.00000000000E+00  0.00000000000E+00 -0.47464964139E+03  0.36075782849E+04  0.35762171075E+04 0.  0.
        1    1    3    3  502    0  0.14006141623E+04 -0.36432797605E+03  0.82206424356E+03  0.16644051569E+04  0.50400001928E-02 0.  1.
       -1    1    3    3    0  502 -0.14006141623E+04  0.36432797605E+03 -0.12967138850E+04  0.19431731280E+04  0.50400001928E-02 0. -1.
</event>
<event>
 5   0  0.1298250E-07  0.3609544E+04  0.7818609E-02  0.8088309E-01
       -1   -1    0    0    0  501  0.00000000000E+00  0.00000000000E+00  0.14371515535E+04  0.14371515535E+04  0.50400001928E-02 0. -1.
        1   -1    0    0  501    0  0.00000000000E+00  0.00000000000E+00 -0.22664287619E+04  0.22664287619E+04  0.50400001928E-02 0.  1.
    10030    2    1    2    0    0  0.00000000000E+00  0.00000000000E+00 -0.82927720835E+03  0.37035803154E+04  0.36095438028E+04 0.  0.
        1    1    3    3  502    0  0.24621834395E+03  0.14440558773E+04  0.66699793424E+03  0.16095984263E+04  0.50400001928E-02 0. -1.
       -1    1    3    3    0  502 -0.24621834395E+03 -0.14440558773E+04 -0.14962751426E+04  0.20939818891E+04  0.50400001928E-02 0.  1.
</event>
<event>
 5   0  0.4120440E-07  0.3597691E+04  0.7818609E-02  0.8091021E-01
        2   -1    0    0  501    0  0.00000000000E+00  0.00000000000E+00  0.32171887198E+04  0.32171887198E+04  0.25500000920E-02 0.  1.
       -2   -1    0    0    0  501  0.00000000000E+00  0.00000000000E+00 -0.10057991078E+04  0.10057991078E+04  0.25500000920E-02 0. -1.
    10030    2    1    2    0    0  0.00000000000E+00  0.00000000000E+00  0.22113896120E+04  0.42229878277E+04  0.35976912286E+04 0.  0.
        2    1    3    3  502    0  0.12186129238E+04 -0.23400525259E+03 -0.42298940804E+03  0.13109904483E+04  0.25500000920E-02 0. -1.
       -2    1    3    3    0  502 -0.12186129238E+04  0.23400525259E+03  0.26343790201E+04  0.29119973794E+04  0.25500000920E-02 0.  1.
</event>
<event>
 5   0  0.4200635E-07  0.3609051E+04  0.7818609E-02  0.8088422E-01
        2   -1    0    0  501    0  0.00000000000E+00  0.00000000000E+00  0.22039274681E+04  0.22039274681E+04  0.25500000920E-02 0.  1.
       -2   -1    0    0    0  501  0.00000000000E+00  0.00000000000E+00 -0.14775046050E+04  0.14775046050E+04  0.25500000920E-02 0. -1.
    10030    2    1    2    0    0  0.00000000000E+00  0.00000000000E+00  0.72642286304E+03  0.36814320731E+04  0.36090513896E+04 0.  0.
        4    1    3    3  502    0  0.97856887172E+03 -0.92705369282E+03 -0.86055135764E+03  0.15992422700E+04  0.12699999809E+01 0. -1.
       -4    1    3    3    0  502 -0.97856887172E+03  0.92705369282E+03  0.15869742207E+04  0.20821898031E+04  0.12699999809E+01 0.  1.
</event>
<event>
 5   0  0.4115358E-07  0.3610076E+04  0.7818609E-02  0.8088188E-01
        2   -1    0    0  501    0  0.00000000000E+00  0.00000000000E+00  0.26771746307E+04  0.26771746307E+04  0.25500000920E-02 0. -1.
       -2   -1    0    0    0  501  0.00000000000E+00  0.00000000000E+00 -0.12170150886E+04  0.12170150886E+04  0.25500000920E-02 0.  1.
    10030    2    1    2    0    0  0.00000000000E+00  0.00000000000E+00  0.14601595422E+04  0.38941897193E+04  0.36100758554E+04 0.  0.
        3    1    3    3  502    0  0.14292361149E+03  0.49583393684E+03 -0.11357547104E+04  0.12474843582E+04  0.10100000352E+00 0.  1.
       -3    1    3    3    0  502 -0.14292361149E+03 -0.49583393684E+03  0.25959142525E+04  0.26467053611E+04  0.10100000352E+00 0. -1.
</event>
<event>
 5   0  0.1370997E-07  0.3596039E+04  0.7818609E-02  0.8091399E-01
       -1   -1    0    0    0  501  0.00000000000E+00  0.00000000000E+00  0.19461615824E+04  0.19461615824E+04  0.50400001928E-02 0. -1.
        1   -1    0    0  501    0  0.00000000000E+00  0.00000000000E+00 -0.16611544655E+04  0.16611544655E+04  0.50400001928E-02 0.  1.
    10030    2    1    2    0    0  0.00000000000E+00  0.00000000000E+00  0.28500711692E+03  0.36073160479E+04  0.35960394898E+04 0.  0.
        3    1    3    3  502    0  0.12867221453E+04 -0.83627921842E+03  0.10823825070E+04  0.18779160556E+04  0.10100000352E+00 0. -1.
       -3    1    3    3    0  502 -0.12867221453E+04  0.83627921842E+03 -0.79737539005E+03  0.17293999922E+04  0.10100000352E+00 0.  1.
</event>
<event>
 5   0  0.3880259E-07  0.3593608E+04  0.7818609E-02  0.8091957E-01
        2   -1    0    0  501    0  0.00000000000E+00  0.00000000000E+00  0.24604928185E+04  0.24604928185E+04  0.25500000920E-02 0. -1.
       -2   -1    0    0    0  501  0.00000000000E+00  0.00000000000E+00 -0.13121376525E+04  0.13121376525E+04  0.25500000920E-02 0.  1.
    10030    2    1    2    0    0  0.00000000000E+00  0.00000000000E+00  0.11483551659E+04  0.37726304710E+04  0.35936083653E+04 0.  0.
        5    1    3    3  502    0  0.20023701970E+03  0.12026253897E+04 -0.81145354448E+03  0.14645414425E+04  0.46999998093E+01 0.  1.
       -5    1    3    3    0  502 -0.20023701970E+03 -0.12026253897E+04  0.19598087104E+04  0.23080890285E+04  0.46999998093E+01 0. -1.
</event>
<event>
 5   0  0.4120440E-07  0.3584464E+04  0.7818609E-02  0.8094060E-01
       -2   -1    0    0    0  501  0.00000000000E+00  0.00000000000E+00  0.13845348049E+04  0.13845348049E+04  0.25500000920E-02 0. -1.
        2   -1    0    0  501    0  0.00000000000E+00  0.00000000000E+00 -0.23199821614E+04  0.23199821614E+04  0.25500000920E-02 0.  1.
    10030    2    1    2    0    0  0.00000000000E+00  0.00000000000E+00 -0.93544735653E+03  0.37045169663E+04  0.35844642831E+04 0.  0.
        2    1    3    3  502    0 -0.11740579744E+04 -0.16812158403E+03 -0.18563850079E+04  0.22029167692E+04  0.25500000920E-02 0.  1.
       -2    1    3    3    0  502  0.11740579744E+04  0.16812158403E+03  0.92093765139E+03  0.15016001971E+04  0.25500000920E-02 0. -1.
</event>
<event>
 5   0  0.1370997E-07  0.3473197E+04  0.7818609E-02  0.8120172E-01
        1   -1    0    0  501    0  0.00000000000E+00  0.00000000000E+00  0.23799226796E+04  0.23799226796E+04  0.50400001928E-02 0. -1.
       -1   -1    0    0    0  501  0.00000000000E+00  0.00000000000E+00 -0.12671730198E+04  0.12671730198E+04  0.50400001928E-02 0.  1.
    10030    2    1    2    0    0  0.00000000000E+00  0.00000000000E+00  0.11127496598E+04  0.36470956994E+04  0.34731966882E+04 0.  0.
        3    1    3    3  502    0 -0.56530457656E+03  0.61263699503E+03  0.21560955349E+04  0.23116317436E+04  0.10100000352E+00 0. -1.
       -3    1    3    3    0  502  0.56530457656E+03 -0.61263699503E+03 -0.10433458751E+04  0.13354639558E+04  0.10100000352E+00 0.  1.
</event>
<event>
 5   0  0.3880259E-07  0.3688442E+04  0.7818609E-02  0.8070528E-01
       -2   -1    0    0    0  501  0.00000000000E+00  0.00000000000E+00  0.13891944074E+04  0.13891944074E+04  0.25500000920E-02 0. -1.
        2   -1    0    0  501    0  0.00000000000E+00  0.00000000000E+00 -0.24482898619E+04  0.24482898619E+04  0.25500000920E-02 0.  1.
    10030    2    1    2    0    0  0.00000000000E+00  0.00000000000E+00 -0.10590954545E+04  0.38374842692E+04  0.36884417218E+04 0.  0.
        5    1    3    3  502    0 -0.16376278048E+04  0.71958785542E+03 -0.99657039291E+03  0.20476342805E+04  0.46999998093E+01 0.  1.
       -5    1    3    3    0  502  0.16376278048E+04 -0.71958785542E+03 -0.62525061612E+02  0.17898499887E+04  0.46999998093E+01 0. -1.
</event>
<event>
 5   0  0.3880259E-07  0.3587729E+04  0.7818609E-02  0.8093308E-01
        2   -1    0    0  501    0  0.00000000000E+00  0.00000000000E+00  0.11882820312E+04  0.11882820312E+04  0.25500000920E-02 0.  1.
       -2   -1    0    0    0  501  0.00000000000E+00  0.00000000000E+00 -0.27080689898E+04  0.27080689898E+04  0.25500000920E-02 0. -1.
    10030    2    1    2    0    0  0.00000000000E+00  0.00000000000E+00 -0.15197869586E+04  0.38963510210E+04  0.35877289306E+04 0.  0.
        5    1    3    3  502    0 -0.23866332628E+03 -0.17315107216E+04 -0.32164903169E+03  0.17772365493E+04  0.46999998093E+01 0.  1.
       -5    1    3    3    0  502  0.23866332628E+03  0.17315107216E+04 -0.11981379269E+04  0.21191144718E+04  0.46999998093E+01 0. -1.
</event>
<event>
 5   0  0.3993751E-07  0.3586561E+04  0.7818609E-02  0.8093577E-01
        2   -1    0    0  501    0  0.00000000000E+00  0.00000000000E+00  0.20146573885E+04  0.20146573885E+04  0.25500000920E-02 0.  1.
       -2   -1    0    0    0  501  0.00000000000E+00  0.00000000000E+00 -0.15962293165E+04  0.15962293165E+04  0.25500000920E-02 0. -1.
    10030    2    1    2    0    0  0.00000000000E+00  0.00000000000E+00  0.41842807202E+03  0.36108867050E+04  0.35865611308E+04 0.  0.
        1    1    3    3  502    0  0.16328017185E+04  0.21713374078E+03  0.92301260145E+03  0.18881580378E+04  0.50400001928E-02 0. -1.
       -1    1    3    3    0  502 -0.16328017185E+04 -0.21713374078E+03 -0.50458452944E+03  0.17227286672E+04  0.50400001928E-02 0.  1.
</event>
<event>
 5   0  0.4200635E-07  0.3927415E+04  0.7818609E-02  0.8019351E-01
        2   -1    0    0  501    0  0.00000000000E+00  0.00000000000E+00  0.25097515127E+04  0.25097515127E+04  0.25500000920E-02 0. -1.
       -2   -1    0    0    0  501  0.00000000000E+00  0.00000000000E+00 -0.15364655740E+04  0.15364655740E+04  0.25500000920E-02 0.  1.
    10030    2    1    2    0    0  0.00000000000E+00  0.00000000000E+00  0.97328593873E+03  0.40462170866E+04  0.39274148232E+04 0.  0.
        4    1    3    3  502    0 -0.16988295702E+04 -0.80101374312E+03 -0.10384392598E+03  0.18810715295E+04  0.12699999809E+01 0.  1.
       -4    1    3    3    0  502  0.16988295702E+04  0.80101374312E+03  0.10771298647E+04  0.21651455571E+04  0.12699999809E+01 0. -1.
</event>
<event>
 5   0  0.1370997E-07  0.3593581E+04  0.7818609E-02  0.8091964E-01
       -1   -1    0    0    0  501  0.00000000000E+00  0.00000000000E+00  0.14200886138E+04  0.14200886138E+04  0.50400001928E-02 0. -1.
        1   -1    0    0  501    0  0.00000000000E+00  0.00000000000E+00 -0.22734189200E+04  0.22734189200E+04  0.50400001928E-02 0.  1.
    10030    2    1    2    0    0  0.00000000000E+00  0.00000000000E+00 -0.85333030624E+03  0.36935075339E+04  0.35935811235E+04 0.  0.
        3    1    3    3  502    0 -0.11240715672E+04  0.11530906596E+04 -0.12458868137E+04  0.20360228192E+04  0.10100000352E+00 0.  1.
       -3    1    3    3    0  502  0.11240715672E+04 -0.11530906596E+04  0.39255650751E+03  0.16574847146E+04  0.10100000352E+00 0. -1.
</event>
<event>
 5   0  0.1348226E-07  0.3595463E+04  0.7818609E-02  0.8091532E-01
       -1   -1    0    0    0  501  0.00000000000E+00  0.00000000000E+00  0.13940432672E+04  0.13940432672E+04  0.50400001928E-02 0. -1.
        1   -1    0    0  501    0  0.00000000000E+00  0.00000000000E+00 -0.23183203129E+04  0.23183203129E+04  0.50400001928E-02 0.  1.
    10030    2    1    2    0    0  0.00000000000E+00  0.00000000000E+00 -0.92427704574E+03  0.37123635801E+04  0.35954631542E+04 0.  0.
        4    1    3    3  502    0  0.48614023783E+03 -0.81675047557E+03  0.11133913845E+04  0.14639179137E+04  0.12699999809E+01 0. -1.
       -4    1    3    3    0  502 -0.48614023783E+03  0.81675047557E+03 -0.20376684302E+04  0.22484456664E+04  0.12699999809E+01 0.  1.
</event>
<event>
 5   0  0.3993751E-07  0.3637782E+04  0.7818609E-02  0.8081892E-01
        2   -1    0    0  501    0  0.00000000000E+00  0.00000000000E+00  0.27808057429E+04  0.27808057429E+04  0.25500000920E-02 0. -1.
       -2   -1    0    0    0  501  0.00000000000E+00  0.00000000000E+00 -0.11897141512E+04  0.11897141512E+04  0.25500000920E-02 0.  1.
    10030    2    1    2    0    0  0.00000000000E+00  0.00000000000E+00  0.15910915917E+04  0.39705198942E+04  0.36377817110E+04 0.  0.
        1    1    3    3  502    0  0.38954926117E+03 -0.72108428287E+03 -0.97675409785E+03  0.12750528372E+04  0.50400001928E-02 0.  1.
       -1    1    3    3    0  502 -0.38954926117E+03  0.72108428287E+03  0.25678456896E+04  0.26954670570E+04  0.50400001928E-02 0. -1.
</event>
<event>
 5   0  0.1298250E-07  0.3621922E+04  0.7818609E-02  0.8085489E-01
       -1   -1    0    0    0  501  0.00000000000E+00  0.00000000000E+00  0.19097482812E+04  0.19097482812E+04  0.50400001928E-02 0.  1.
        1   -1    0    0  501    0  0.00000000000E+00  0.00000000000E+00 -0.17172839934E+04  0.17172839934E+04  0.50400001928E-02 0. -1.
    10030    2    1    2    0    0  0.00000000000E+00  0.00000000000E+00  0.19246428777E+03  0.36270322745E+04  0.36219222270E+04 0.  0.
        1    1    3    3  502    0  0.44141162190E+03 -0.39247413830E+03  0.18105761788E+04  0.19044858278E+04  0.50400001928E-02 0.  1.
       -1    1    3    3    0  502 -0.44141162190E+03  0.39247413830E+03 -0.16181118910E+04  0.17225464467E+04  0.50400001928E-02 0. -1.
</event>
<event>
 5   0  0.4200635E-07  0.3498805E+04  0.7818609E-02  0.8114073E-01
        2   -1    0    0  501    0  0.00000000000E+00  0.00000000000E+00  0.18677590088E+04  0.18677590088E+04  0.25500000920E-02 0.  1.
       -2   -1    0    0    0  501  0.00000000000E+00  0.00000000000E+00 -0.16385463198E+04  0.16385463198E+04  0.25500000920E-02 0. -1.
    10030    2    1    2    0    0  0.00000000000E+00  0.00000000000E+00  0.22921268902E+03  0.35063053285E+04  0.34988053104E+04 0.  0.
        4    1    3    3  502    0 -0.52816245817E+03  0.13179031556E+03 -0.15515108829E+04  0.16442359630E+04  0.12699999809E+01 0. -1.
       -4    1    3    3    0  502  0.52816245817E+03 -0.13179031556E+03  0.17807235719E+04  0.18620693655E+04  0.12699999809E+01 0.  1.
</event>
<event>
 5   0  0.3880259E-07  0.3607794E+04  0.7818609E-02  0.8088709E-01
       -2   -1    0    0    0  501  0.00000000000E+00  0.00000000000E+00  0.12091183572E+04  0.12091183572E+04  0.25500000920E-02 0.  1.
        2   -1    0    0  501    0  0.00000000000E+00  0.00000000000E+00 -0.26912542637E+04  0.26912542637E+04  0.25500000920E-02 0. -1.
    10030    2    1    2    0    0  0.00000000000E+00  0.00000000000E+00 -0.14821359065E+04  0.39003726209E+04  0.36077943035E+04 0.  0.
        5    1    3    3  502    0  0.17674265134E+04  0.24541468333E+03 -0.10270950236E+04  0.20588761800E+04  0.46999998093E+01 0. -1.
       -5    1    3    3    0  502 -0.17674265134E+04 -0.24541468333E+03 -0.45504088287E+03  0.18414964409E+04  0.46999998093E+01 0.  1.
</event>
<event>
 5   0  0.3880259E-07  0.3600883E+04  0.7818609E-02  0.8090289E-01
        2   -1    0    0  501    0  0.00000000000E+00  0.00000000000E+00  0.32060593072E+04  0.32060593072E+04  0.25500000920E-02 0.  1.
       -2   -1    0    0    0  501  0.00000000000E+00  0.00000000000E+00 -0.10110822246E+04  0.10110822246E+04  0.25500000920E-02 0. -1.
    10030    2    1    2    0    0  0.00000000000E+00  0.00000000000E+00  0.21949770826E+04  0.42171415318E+04  0.36008829897E+04 0.  0.
        5    1    3    3  502    0 -0.13722837553E+04  0.78197476659E+03  0.21096418127E+04  0.26353857229E+04  0.46999998093E+01 0. -1.
       -5    1    3    3    0  502  0.13722837553E+04 -0.78197476659E+03  0.85335269899E+02  0.15817558089E+04  0.46999998093E+01 0.  1.
</event>
<event>
 5   0  0.1348226E-07  0.3602305E+04  0.7818609E-02  0.8089964E-01
        1   -1    0    0  501    0  0.00000000000E+00  0.00000000000E+00  0.11803365928E+04  0.11803365928E+04  0.50400001928E-02 0. -1.
       -1   -1    0    0    0  501  0.00000000000E+00  0.00000000000E+00 -0.27484962278E+04  0.27484962278E+04  0.50400001928E-02 0.  1.
    10030    2    1    2    0    0  0.00000000000E+00  0.00000000000E+00 -0.15681596350E+04  0.39288328206E+04  0.36023051913E+04 0.  0.
        4    1    3    3  502    0 -0.17077472017E+03  0.51246887424E+03  0.10899122732E+04  0.12164286778E+04  0.12699999809E+01 0. -1.
       -4    1    3    3    0  502  0.17077472017E+03 -0.51246887424E+03 -0.26580719081E+04  0.27124041428E+04  0.12699999809E+01 0.  1.
</event>
<event>
 5   0  0.1348226E-07  0.3466640E+04  0.7818609E-02  0.8121742E-01
       -1   -1    0    0    0  501  0.00000000000E+00  0.00000000000E+00  0.29049279616E+04  0.29049279616E+04  0.50400001928E-02 0.  1.
        1   -1    0    0  501    0  0.00000000000E+00  0.00000000000E+00 -0.10342421181E+04  0.10342421182E+04  0.50400001928E-02 0. -1.
    10030    2    1    2    0    0  0.00000000000E+00  0.00000000000E+00  0.18706858435E+04  0.39391700798E+04  0.34666403610E+04 0.  0.
        4    1    3    3  502    0 -0.85938470028E+03 -0.15048937531E+04  0.97387638624E+03  0.19878843276E+04  0.12699999809E+01 0. -1.
       -4    1    3    3    0  502  0.85938470028E+03  0.15048937531E+04  0.89680945723E+03  0.19512857522E+04  0.12699999809E+01 0.  1.
</event>
<event>
 5   0  0.1298250E-07  0.3557593E+04  0.7818609E-02  0.8100275E-01
        1   -1    0    0  501    0  0.00000000000E+00  0.00000000000E+00  0.18894993779E+04  0.18894993779E+04  0.50400001928E-02 0. -1.
       -1   -1    0    0    0  501  0.00000000000E+00  0.00000000000E+00 -0.16745790830E+04  0.16745790830E+04  0.50400001928E-02 0.  1.
    10030    2    1    2    0    0  0.00000000000E+00  0.00000000000E+00  0.21492029485E+03  0.35640784609E+04  0.35575925205E+04 0.  0.
        1    1    3    3  502    0  0.68953339403E+03 -0.68128239450E+03  0.16016598219E+04  0.18721421387E+04  0.50400001928E-02 0. -1.
       -1    1    3    3    0  502 -0.68953339403E+03  0.68128239450E+03 -0.13867395270E+04  0.16919363222E+04  0.50400001928E-02 0.  1.
</event>
<event>
 5   0  0.3880259E-07  0.3605860E+04  0.7818609E-02  0.8089151E-01
       -2   -1    0    0    0  501  0.00000000000E+00  0.00000000000E+00  0.12669018926E+04  0.12669018926E+04  0.25500000920E-02 0. -1.
        2   -1    0    0  501    0  0.00000000000E+00  0.00000000000E+00 -0.25657524301E+04  0.25657524301E+04  0.25500000920E-02 0.  1.
    10030    2    1    2    0    0  0.00000000000E+00  0.00000000000E+00 -0.12988505375E+04  0.38326543227E+04  0.36058600137E+04 0.  0.
        5    1    3    3  502    0  0.79093409769E+03  0.15442381518E+04 -0.12840418687E+03  0.17397580123E+04  0.46999998093E+01 0. -1.
       -5    1    3    3    0  502 -0.79093409769E+03 -0.15442381518E+04 -0.11704463507E+04  0.20928963104E+04  0.46999998093E+01 0.  1.
</event>
<event>
 5   0  0.3993751E-07  0.3593298E+04  0.7818609E-02  0.8092029E-01
        2   -1    0    0  501    0  0.00000000000E+00  0.00000000000E+00  0.24446644408E+04  0.24446644408E+04  0.25500000920E-02 0.  1.
       -2   -1    0    0    0  501  0.00000000000E+00  0.00000000000E+00 -0.13204050870E+04  0.13204050870E+04  0.25500000920E-02 0. -1.
    10030    2    1    2    0    0  0.00000000000E+00  0.00000000000E+00  0.11242593538E+04  0.37650695278E+04  0.35932978521E+04 0.  0.
        1    1    3    3  502    0 -0.14586771365E+04  0.15120379706E+03 -0.52544062905E+03  0.15577834996E+04  0.50400001928E-02 0.  1.
       -1    1    3    3    0  502  0.14586771365E+04 -0.15120379706E+03  0.16496999829E+04  0.22072860282E+04  0.50400001928E-02 0. -1.
</event>
<event>
 5   0  0.3993751E-07  0.3614249E+04  0.7818609E-02  0.8087236E-01
        2   -1    0    0  501    0  0.00000000000E+00  0.00000000000E+00  0.89160545674E+03  0.89160545675E+03  0.25500000920E-02 0.  1.
       -2   -1    0    0    0  501  0.00000000000E+00  0.00000000000E+00 -0.36627175003E+04  0.36627175003E+04  0.25500000920E-02 0. -1.
    10030    2    1    2    0    0  0.00000000000E+00  0.00000000000E+00 -0.27711120435E+04  0.45543229570E+04  0.36142489730E+04 0.  0.
        1    1    3    3  502    0 -0.15829051065E+04 -0.32216511697E+03 -0.24064098637E+04  0.28983076736E+04  0.50400001928E-02 0. -1.
       -1    1    3    3    0  502  0.15829051065E+04  0.32216511697E+03 -0.36470217985E+03  0.16560152834E+04  0.50400001928E-02 0.  1.
</event>
<event>
 5   0  0.3993751E-07  0.3601172E+04  0.7818609E-02  0.8090223E-01
        2   -1    0    0  501    0  0.00000000000E+00  0.00000000000E+00  0.22243813887E+04  0.22243813887E+04  0.25500000920E-02 0.  1.
       -2   -1    0    0    0  501  0.00000000000E+00  0.00000000000E+00 -0.14575331313E+04  0.14575331313E+04  0.25500000920E-02 0. -1.
    10030    2    1    2    0    0  0.00000000000E+00  0.00000000000E+00  0.76684825741E+03  0.36819145201E+04  0.36011717931E+04 0.  0.
        1    1    3    3  502    0  0.16959407371E+03 -0.53207171315E+03  0.21336011809E+04  0.22054742023E+04  0.50400001928E-02 0.  1.
       -1    1    3    3    0  502 -0.16959407371E+03  0.53207171315E+03 -0.13667529235E+04  0.14764403177E+04  0.50400001928E-02 0. -1.
</event>
<event>
 5   0  0.1298250E-07  0.3424599E+04  0.7818609E-02  0.8131895E-01
       -1   -1    0    0    0  501  0.00000000000E+00  0.00000000000E+00  0.12233460509E+04  0.12233460509E+04  0.50400001928E-02 0.  1.
        1   -1    0    0  501    0  0.00000000000E+00  0.00000000000E+00 -0.23966805837E+04  0.23966805837E+04  0.50400001928E-02 0. -1.
    10030    2    1    2    0    0  0.00000000000E+00  0.00000000000E+00 -0.11733345328E+04  0.36200266346E+04  0.34245990874E+04 0.  0.
        2    1    3    3  502    0 -0.22431137096E+03  0.10455976096E+03  0.12043408424E+04  0.12295060794E+04  0.25500000920E-02 0.  1.
       -2    1    3    3    0  502  0.22431137096E+03 -0.10455976096E+03 -0.23776753752E+04  0.23905205551E+04  0.25500000920E-02 0. -1.
</event>
<event>
 5   0  0.1361743E-07  0.3594696E+04  0.7818609E-02  0.8091708E-01
        1   -1    0    0  501    0  0.00000000000E+00  0.00000000000E+00  0.15929673065E+04  0.15929673065E+04  0.50400001928E-02 0. -1.
       -1   -1    0    0    0  501  0.00000000000E+00  0.00000000000E+00 -0.20279516097E+04  0.20279516097E+04  0.50400001928E-02 0.  1.
    10030    2    1    2    0    0  0.00000000000E+00  0.00000000000E+00 -0.43498430320E+03  0.36209189161E+04  0.35946964341E+04 0.  0.
        5    1    3    3  502    0 -0.88173959703E+03 -0.25588067606E+03  0.13389327396E+04  0.16234847115E+04  0.46999998093E+01 0. -1.
       -5    1    3    3    0  502  0.88173959703E+03  0.25588067606E+03 -0.17739170428E+04  0.19974342047E+04  0.46999998093E+01 0.  1.
</event>
<event>
 5   0  0.3880259E-07  0.3604137E+04  0.7818609E-02  0.8089545E-01
        2   -1    0    0  501    0  0.00000000000E+00  0.00000000000E+00  0.22686352372E+04  0.22686352372E+04  0.25500000920E-02 0.  1.
       -2   -1    0    0    0  501  0.00000000000E+00  0.00000000000E+00 -0.14314560519E+04  0.14314560519E+04  0.25500000920E-02 0. -1.
    10030    2    1    2    0    0  0.00000000000E+00  0.00000000000E+00  0.83717918535E+03  0.37000912891E+04  0.36041374224E+04 0.  0.
        5    1    3    3  502    0 -0.69833391062E+03  0.31848817282E+03  0.20924340596E+04  0.22287681240E+04  0.46999998093E+01 0.  1.
       -5    1    3    3    0  502  0.69833391062E+03 -0.31848817282E+03 -0.12552548742E+04  0.14713231651E+04  0.46999998093E+01 0. -1.
</event>
<event>
 5   0  0.1348226E-07  0.3187825E+04  0.7818609E-02  0.8192040E-01
        1   -1    0    0  501    0  0.00000000000E+00  0.00000000000E+00  0.21082935213E+04  0.21082935213E+04  0.50400001928E-02 0. -1.
       -1   -1    0    0    0  501  0.00000000000E+00  0.00000000000E+00 -0.12050296963E+04  0.12050296963E+04  0.50400001928E-02 0.  1.
    10030    2    1    2    0    0  0.00000000000E+00  0.00000000000E+00  0.90326382507E+03  0.33133232176E+04  0.31878245257E+04 0.  0.
        4    1    3    3  502    0 -0.12217421707E+04 -0.89916707729E+03  0.96017863100E+03  0.17952994126E+04  0.12699999809E+01 0. -1.
       -4    1    3    3    0  502  0.12217421707E+04  0.89916707729E+03 -0.56914805933E+02  0.15180238050E+04  0.12699999809E+01 0.  1.
</event>
<event>
 5   0  0.4120440E-07  0.3632043E+04  0.7818609E-02  0.8083191E-01
       -2   -1    0    0    0  501  0.00000000000E+00  0.00000000000E+00  0.25076311778E+04  0.25076311778E+04  0.25500000920E-02 0.  1.
        2   -1    0    0  501    0  0.00000000000E+00  0.00000000000E+00 -0.13151592561E+04  0.13151592561E+04  0.25500000920E-02 0. -1.
    10030    2    1    2    0    0  0.00000000000E+00  0.00000000000E+00  0.11924719216E+04  0.38227904339E+04  0.36320431464E+04 0.  0.
        2    1    3    3  502    0  0.61468351896E+03  0.17076454960E+04  0.52929229909E+03  0.18905129744E+04  0.25500000920E-02 0. -1.
       -2    1    3    3    0  502 -0.61468351896E+03 -0.17076454960E+04  0.66317962255E+03  0.19322774595E+04  0.25500000920E-02 0.  1.
</event>
<event>
 5   0  0.1298250E-07  0.3621499E+04  0.7818609E-02  0.8085585E-01
        1   -1    0    0  501    0  0.00000000000E+00  0.00000000000E+00  0.19823507820E+04  0.19823507820E+04  0.50400001928E-02 0. -1.
       -1   -1    0    0    0  501  0.00000000000E+00  0.00000000000E+00 -0.16540031876E+04  0.16540031876E+04  0.50400001928E-02 0.  1.
    10030    2    1    2    0    0  0.00000000000E+00  0.00000000000E+00  0.32834759437E+03  0.36363539697E+04  0.36214994201E+04 0.  0.
        1    1    3    3  502    0  0.13793622162E+04 -0.16858923411E+02  0.13419685494E+04  0.19245269378E+04  0.50400001928E-02 0. -1.
       -1    1    3    3    0  502 -0.13793622162E+04  0.16858923411E+02 -0.10136209550E+04  0.17118270319E+04  0.50400001928E-02 0.  1.
</event>
<event>
 5   0  0.4115358E-07  0.3585863E+04  0.7818609E-02  0.8093738E-01
        2   -1    0    0  501    0  0.00000000000E+00  0.00000000000E+00  0.17172900151E+04  0.17172900151E+04  0.25500000920E-02 0.  1.
       -2   -1    0    0    0  501  0.00000000000E+00  0.00000000000E+00 -0.18719048755E+04  0.18719048755E+04  0.25500000920E-02 0. -1.
    10030    2    1    2    0    0  0.00000000000E+00  0.00000000000E+00 -0.15461486043E+03  0.35891948906E+04  0.35858631049E+04 0.  0.
        3    1    3    3  502    0  0.55034139910E+03  0.16520919364E+04 -0.50469376695E+03  0.18130083371E+04  0.10100000352E+00 0. -1.
       -3    1    3    3    0  502 -0.55034139910E+03 -0.16520919364E+04  0.35007890652E+03  0.17761865535E+04  0.10100000352E+00 0.  1.
</event>
<event>
 5   0  0.3880259E-07  0.3498172E+04  0.7818609E-02  0.8114223E-01
       -2   -1    0    0    0  501  0.00000000000E+00  0.00000000000E+00  0.14067157210E+04  0.14067157210E+04  0.25500000920E-02 0.  1.
        2   -1    0    0  501    0  0.00000000000E+00  0.00000000000E+00 -0.21747833033E+04  0.21747833033E+04  0.25500000920E-02 0. -1.
    10030    2    1    2    0    0  0.00000000000E+00  0.00000000000E+00 -0.76806758226E+03  0.35814990243E+04  0.34981720156E+04 0.  0.
        5    1    3    3  502    0 -0.61592159126E+03 -0.45079078448E+03 -0.19952769354E+04  0.21362874051E+04  0.46999998093E+01 0. -1.
       -5    1    3    3    0  502  0.61592159126E+03  0.45079078448E+03  0.12272093532E+04  0.14452116193E+04  0.46999998093E+01 0.  1.
</event>
<event>
 5   0  0.1298250E-07  0.3598108E+04  0.7818609E-02  0.8090925E-01
        1   -1    0    0  501    0  0.00000000000E+00  0.00000000000E+00  0.21325931639E+04  0.21325931639E+04  0.50400001928E-02 0. -1.
       -1   -1    0    0    0  501  0.00000000000E+00  0.00000000000E+00 -0.15176804281E+04  0.15176804281E+04  0.50400001928E-02 0.  1.
    10030    2    1    2    0    0  0.00000000000E+00  0.00000000000E+00  0.61491273583E+03  0.36502735920E+04  0.35981077838E+04 0.  0.
        1    1    3    3  502    0  0.77798064051E+03  0.65237440574E+03 -0.11992522077E+04  0.15713217684E+04  0.50400001928E-02 0.  1.
       -1    1    3    3    0  502 -0.77798064051E+03 -0.65237440574E+03  0.18141649435E+04  0.20789518236E+04  0.50400001928E-02 0. -1.
</event>
<event>
 5   0  0.1348226E-07  0.3594424E+04  0.7818609E-02  0.8091770E-01
        1   -1    0    0  501    0  0.00000000000E+00  0.00000000000E+00  0.25407627418E+04  0.25407627418E+04  0.50400001928E-02 0.  1.
       -1   -1    0    0    0  501  0.00000000000E+00  0.00000000000E+00 -0.12712601391E+04  0.12712601391E+04  0.50400001928E-02 0. -1.
    10030    2    1    2    0    0  0.00000000000E+00  0.00000000000E+00  0.12695026027E+04  0.38120228809E+04  0.35944236792E+04 0.  0.
        4    1    3    3  502    0  0.88125786410E+03 -0.14855905410E+04  0.11611608542E+04  0.20813194903E+04  0.12699999809E+01 0.  1.
       -4    1    3    3    0  502 -0.88125786410E+03  0.14855905410E+04  0.10834174857E+03  0.17307033905E+04  0.12699999809E+01 0. -1.
</event>
<event>
 5   0  0.1298250E-07  0.3581782E+04  0.7818609E-02  0.8094677E-01
       -3   -1    0    0    0  501  0.00000000000E+00  0.00000000000E+00  0.12464717013E+04  0.12464717054E+04  0.10100000352E+00 0.  1.
        3   -1    0    0  501    0  0.00000000000E+00  0.00000000000E+00 -0.25730958236E+04  0.25730958256E+04  0.10100000352E+00 0. -1.
    10030    2    1    2    0    0  0.00000000000E+00  0.00000000000E+00 -0.13266241223E+04  0.38195675310E+04  0.35817823164E+04 0.  0.
        5    1    3    3  502    0 -0.79542127990E+02  0.16603564154E+04 -0.13740084013E+04  0.21566250377E+04  0.46999998093E+01 0. -1.
       -5    1    3    3    0  502  0.79542127990E+02 -0.16603564154E+04  0.47384278959E+02  0.16629424933E+04  0.46999998093E+01 0.  1.
</event>
<event>
 5   0  0.1361743E-07  0.4018988E+04  0.7818609E-02  0.8000727E-01
        1   -1    0    0  501    0  0.00000000000E+00  0.00000000000E+00  0.16013578168E+04  0.16013578168E+04  0.50400001928E-02 0. -1.
       -1   -1    0    0    0  501  0.00000000000E+00  0.00000000000E+00 -0.25216509522E+04  0.25216509522E+04  0.50400001928E-02 0.  1.
    10030    2    1    2    0    0  0.00000000000E+00  0.00000000000E+00 -0.92029313535E+03  0.41230087690E+04  0.40189876654E+04 0.  0.
        5    1    3    3  502    0  0.64264877461E+03  0.17033260543E+03  0.14852556342E+04  0.16272728822E+04  0.46999998093E+01 0. -1.
       -5    1    3    3    0  502 -0.64264877461E+03 -0.17033260543E+03 -0.24055487696E+04  0.24957358868E+04  0.46999998093E+01 0.  1.
</event>
<event>
 5   0  0.3880259E-07  0.3607462E+04  0.7818609E-02  0.8088784E-01
        2   -1    0    0  501    0  0.00000000000E+00  0.00000000000E+00  0.23653696932E+04  0.23653696932E+04  0.25500000920E-02 0. -1.
       -2   -1    0    0    0  501  0.00000000000E+00  0.00000000000E+00 -0.13754493042E+04  0.13754493042E+04  0.25500000920E-02 0.  1.
    10030    2    1    2    0    0  0.00000000000E+00  0.00000000000E+00  0.98992038903E+03  0.37408189974E+04  0.36074623206E+04 0.  0.
        5    1    3    3  502    0 -0.13162136741E+04  0.19966794115E+03  0.17569699018E+04  0.22043708963E+04  0.46999998093E+01 0. -1.
       -5    1    3    3    0  502  0.13162136741E+04 -0.19966794115E+03 -0.76704951276E+03  0.15364481011E+04  0.46999998093E+01 0.  1.
</event>
<event>
 5   0  0.3880259E-07  0.3593983E+04  0.7818609E-02  0.8091871E-01
        2   -1    0    0  501    0  0.00000000000E+00  0.00000000000E+00  0.18991371937E+04  0.18991371937E+04  0.25500000920E-02 0.  1.
       -2   -1    0    0    0  501  0.00000000000E+00  0.00000000000E+00 -0.17003397720E+04  0.17003397720E+04  0.25500000920E-02 0. -1.
    10030    2    1    2    0    0  0.00000000000E+00  0.00000000000E+00  0.19879742174E+03  0.35994769657E+04  0.35939830289E+04 0.  0.
        5    1    3    3  502    0  0.84116823779E+03  0.12169956600E+04 -0.92221646324E+03  0.17433151568E+04  0.46999998093E+01 0. -1.
       -5    1    3    3    0  502 -0.84116823779E+03 -0.12169956600E+04  0.11210138850E+04  0.18561618089E+04  0.46999998093E+01 0.  1.
</event>
<event>
 5   0  0.4115358E-07  0.3619269E+04  0.7818609E-02  0.8086092E-01
       -2   -1    0    0    0  501  0.00000000000E+00  0.00000000000E+00  0.11438278736E+04  0.11438278736E+04  0.25500000920E-02 0.  1.
        2   -1    0    0  501    0  0.00000000000E+00  0.00000000000E+00 -0.28629973960E+04  0.28629973960E+04  0.25500000920E-02 0. -1.
    10030    2    1    2    0    0  0.00000000000E+00  0.00000000000E+00 -0.17191695224E+04  0.40068252696E+04  0.36192685579E+04 0.  0.
        3    1    3    3  502    0  0.27061728567E+03 -0.97763142130E+03 -0.25186487302E+04  0.27152510653E+04  0.10100000352E+00 0. -1.
       -3    1    3    3    0  502 -0.27061728567E+03  0.97763142130E+03  0.79947920780E+03  0.12915742043E+04  0.10100000352E+00 0.  1.
</event>
<event>
 5   0  0.3880259E-07  0.3468648E+04  0.7818609E-02  0.8121260E-01
       -2   -1    0    0    0  501  0.00000000000E+00  0.00000000000E+00  0.22298258599E+04  0.22298258599E+04  0.25500000920E-02 0. -1.
        2   -1    0    0  501    0  0.00000000000E+00  0.00000000000E+00 -0.13489304308E+04  0.13489304308E+04  0.25500000920E-02 0.  1.
    10030    2    1    2    0    0  0.00000000000E+00  0.00000000000E+00  0.88089542914E+03  0.35787562907E+04  0.34686481273E+04 0.  0.
        5    1    3    3  502    0 -0.11212417773E+04  0.10422821737E+04  0.12813807182E+04  0.19963701780E+04  0.46999998093E+01 0. -1.
       -5    1    3    3    0  502  0.11212417773E+04 -0.10422821737E+04 -0.40048528906E+03  0.15823861127E+04  0.46999998093E+01 0.  1.
</event>
<event>
 5   0  0.1298250E-07  0.3597487E+04  0.7818609E-02  0.8091068E-01
        1   -1    0    0  501    0  0.00000000000E+00  0.00000000000E+00  0.23892376309E+04  0.23892376309E+04  0.50400001928E-02 0.  1.
       -1   -1    0    0    0  501  0.00000000000E+00  0.00000000000E+00 -0.13541886549E+04  0.13541886549E+04  0.50400001928E-02 0. -1.
    10030    2    1    2    0    0  0.00000000000E+00  0.00000000000E+00  0.10350489760E+04  0.37434262857E+04  0.35974871749E+04 0.  0.
        2    1    3    3  502    0 -0.31582139764E+02 -0.19108555250E+02  0.23888434688E+04  0.23891286459E+04  0.25500000920E-02 0.  1.
       -2    1    3    3    0  502  0.31582139764E+02  0.19108555250E+02 -0.13537944928E+04  0.13542976398E+04  0.25500000920E-02 0. -1.
</event>
<event>
 5   0  0.4115358E-07  0.3597937E+04  0.7818609E-02  0.8090964E-01
        2   -1    0    0  501    0  0.00000000000E+00  0.00000000000E+00  0.17179494898E+04  0.17179494898E+04  0.25500000920E-02 0. -1.
       -2   -1    0    0    0  501  0.00000000000E+00  0.00000000000E+00 -0.18838083528E+04  0.18838083528E+04  0.25500000920E-02 0.  1.
    10030    2    1    2    0    0  0.00000000000E+00  0.00000000000E+00 -0.16585886304E+03  0.36017578426E+04  0.35979369636E+04 0.  0.
        3    1    3    3  502    0 -0.67688202257E+03 -0.90564495842E+03 -0.14836743139E+04  0.18653824120E+04  0.10100000352E+00 0.  1.
       -3    1    3    3    0  502  0.67688202257E+03  0.90564495842E+03  0.13178154508E+04  0.17363754306E+04  0.10100000352E+00 0. -1.
</event>
<event>
 5   0  0.4200635E-07  0.3598606E+04  0.7818609E-02  0.8090811E-01
       -2   -1    0    0    0  501  0.00000000000E+00  0.00000000000E+00  0.12759487963E+04  0.12759487963E+04  0.25500000920E-02 0.  1.
        2   -1    0    0  501    0  0.00000000000E+00  0.00000000000E+00 -0.25373205844E+04  0.25373205844E+04  0.25500000920E-02 0. -1.
    10030    2    1    2    0    0  0.00000000000E+00  0.00000000000E+00 -0.12613717881E+04  0.38132693806E+04  0.35986059220E+04 0.  0.
        4    1    3    3  502    0  0.13079445570E+04  0.12255859527E+04 -0.46411603767E+03  0.18515359033E+04  0.12699999809E+01 0.  1.
       -4    1    3    3    0  502 -0.13079445570E+04 -0.12255859527E+04 -0.79725575045E+03  0.19617334774E+04  0.12699999809E+01 0. -1.
</event>
<event>
 5   0  0.4115358E-07  0.3613182E+04  0.7818609E-02  0.8087479E-01
        2   -1    0    0  501    0  0.00000000000E+00  0.00000000000E+00  0.22221984963E+04  0.22221984963E+04  0.25500000920E-02 0.  1.
       -2   -1    0    0    0  501  0.00000000000E+00  0.00000000000E+00 -0.14687127189E+04  0.14687127189E+04  0.25500000920E-02 0. -1.
    10030    2    1    2    0    0  0.00000000000E+00  0.00000000000E+00  0.75348577746E+03  0.36909112152E+04  0.36131820853E+04 0.  0.
        3    1    3    3  502    0 -0.70489476138E+03  0.84359488269E+02 -0.13202531446E+04  0.14990201880E+04  0.10100000352E+00 0. -1.
       -3    1    3    3    0  502  0.70489476138E+03 -0.84359488269E+02  0.20737389221E+04  0.21918910272E+04  0.10100000352E+00 0.  1.
</event>
<event>
 5   0  0.1298250E-07  0.3533716E+04  0.7818609E-02  0.8105846E-01
       -1   -1    0    0    0  501  0.00000000000E+00  0.00000000000E+00  0.17744562272E+04  0.17744562272E+04  0.50400001928E-02 0.  1.
        1   -1    0    0  501    0  0.00000000000E+00  0.00000000000E+00 -0.17592925120E+04  0.17592925120E+04  0.50400001928E-02 0. -1.
    10030    2    1    2    0    0  0.00000000000E+00  0.00000000000E+00  0.15163715197E+02  0.35337487392E+04  0.35337162045E+04 0.  0.
        2    1    3    3  502    0  0.10117424836E+04  0.97232701773E+03 -0.10660875968E+04  0.17622671326E+04  0.25500000920E-02 0. -1.
       -2    1    3    3    0  502 -0.10117424836E+04 -0.97232701773E+03  0.10812513120E+04  0.17714816066E+04  0.25500000920E-02 0.  1.
</event>
<event>
 5   0  0.4120440E-07  0.3612912E+04  0.7818609E-02  0.8087540E-01
       -2   -1    0    0    0  501  0.00000000000E+00  0.00000000000E+00  0.12772975407E+04  0.12772975407E+04  0.25500000920E-02 0.  1.
        2   -1    0    0  501    0  0.00000000000E+00  0.00000000000E+00 -0.25548342060E+04  0.25548342060E+04  0.25500000920E-02 0. -1.
    10030    2    1    2    0    0  0.00000000000E+00  0.00000000000E+00 -0.12775366653E+04  0.38321317467E+04  0.36129120932E+04 0.  0.
        2    1    3    3  502    0  0.25903980482E+03 -0.11738495643E+04 -0.20690148965E+04  0.23928742261E+04  0.25500000920E-02 0. -1.
       -2    1    3    3    0  502 -0.25903980482E+03  0.11738495643E+04  0.79147823116E+03  0.14392575206E+04  0.25500000920E-02 0.  1.
</event>
<event>
 5   0  0.1348226E-07  0.3591069E+04  0.7818609E-02  0.8092541E-01
        1   -1    0    0  501    0  0.00000000000E+00  0.00000000000E+00  0.20701338831E+04  0.20701338831E+04  0.50400001928E-02 0. -1.
       -1   -1    0    0    0  501  0.00000000000E+00  0.00000000000E+00 -0.15573600769E+04  0.15573600769E+04  0.50400001928E-02 0.  1.
    10030    2    1    2    0    0  0.00000000000E+00  0.00000000000E+00  0.51277380620E+03  0.36274939601E+04  0.35910688456E+04 0.  0.
        4    1    3    3  502    0  0.10369536190E+04 -0.54772963942E+03 -0.11170594068E+04  0.16195999188E+04  0.12699999809E+01 0.  1.
       -4    1    3    3    0  502 -0.10369536190E+04  0.54772963942E+03  0.16298332130E+04  0.20078940412E+04  0.12699999809E+01 0. -1.
</event>
<event>
 5   0  0.1348226E-07  0.3558081E+04  0.7818609E-02  0.8100162E-01
        1   -1    0    0  501    0  0.00000000000E+00  0.00000000000E+00  0.18666005689E+04  0.18666005689E+04  0.50400001928E-02 0. -1.
       -1   -1    0    0    0  501  0.00000000000E+00  0.00000000000E+00 -0.16955876286E+04  0.16955876286E+04  0.50400001928E-02 0.  1.
    10030    2    1    2    0    0  0.00000000000E+00  0.00000000000E+00  0.17101294034E+03  0.35621881975E+04  0.35580808491E+04 0.  0.
        4    1    3    3  502    0 -0.17511495758E+04 -0.83056592983E+02  0.38844457485E+03  0.17956375010E+04  0.12699999809E+01 0. -1.
       -4    1    3    3    0  502  0.17511495758E+04  0.83056592983E+02 -0.21743163451E+03  0.17665506964E+04  0.12699999809E+01 0.  1.
</event>
<event>
 5   0  0.4200635E-07  0.3617674E+04  0.7818609E-02  0.8086455E-01
        2   -1    0    0  501    0  0.00000000000E+00  0.00000000000E+00  0.16190293221E+04  0.16190293221E+04  0.25500000920E-02 0. -1.
       -2   -1    0    0    0  501  0.00000000000E+00  0.00000000000E+00 -0.20208969817E+04  0.20208969817E+04  0.25500000920E-02 0.  1.
    10030    2    1    2    0    0  0.00000000000E+00  0.00000000000E+00 -0.40186765968E+03  0.36399263038E+04  0.36176740982E+04 0.  0.
        4    1    3    3  502    0  0.13394010536E+04  0.77048588307E+03 -0.11470615050E+04  0.19244207927E+04  0.12699999809E+01 0.  1.
       -4    1    3    3    0  502 -0.13394010536E+04 -0.77048588307E+03  0.74519384530E+03  0.17155055110E+04  0.12699999809E+01 0. -1.
</event>
<event>
 5   0  0.1370997E-07  0.3693589E+04  0.7818609E-02  0.8069384E-01
       -1   -1    0    0    0  501  0.00000000000E+00  0.00000000000E+00  0.12663671671E+04  0.12663671671E+04  0.50400001928E-02 0. -1.
        1   -1    0    0  501    0  0.00000000000E+00  0.00000000000E+00 -0.26932554037E+04  0.26932554037E+04  0.50400001928E-02 0.  1.
    10030    2    1    2    0    0  0.00000000000E+00  0.00000000000E+00 -0.14268882365E+04  0.39596225708E+04  0.36935891574E+04 0.  0.
        3    1    3    3  502    0 -0.15784448153E+04  0.73550467113E+02  0.31130957802E+03  0.16105313936E+04  0.10100000352E+00 0. -1.
       -3    1    3    3    0  502  0.15784448153E+04 -0.73550467113E+02 -0.17381978146E+04  0.23490911772E+04  0.10100000352E+00 0.  1.
</event>
<event>
 5   0  0.1298250E-07  0.3616954E+04  0.7818609E-02  0.8086619E-01
       -1   -1    0    0    0  501  0.00000000000E+00  0.00000000000E+00  0.13600368194E+04  0.13600368194E+04  0.50400001928E-02 0. -1.
        1   -1    0    0  501    0  0.00000000000E+00  0.00000000000E+00 -0.24047803994E+04  0.24047803994E+04  0.50400001928E-02 0.  1.
    10030    2    1    2    0    0  0.00000000000E+00  0.00000000000E+00 -0.10447435801E+04  0.37648172188E+04  0.36169544569E+04 0.  0.
        2    1    3    3  502    0 -0.12110166443E+04  0.68991098339E+03 -0.17218940151E+04  0.22152781940E+04  0.25500000920E-02 0.  1.
       -2    1    3    3    0  502  0.12110166443E+04 -0.68991098339E+03  0.67715043503E+03  0.15495390248E+04  0.25500000920E-02 0. -1.
</event>
<event>
 5   0  0.4115358E-07  0.3603960E+04  0.7818609E-02  0.8089585E-01
       -2   -1    0    0    0  501  0.00000000000E+00  0.00000000000E+00  0.17472172558E+04  0.17472172558E+04  0.25500000920E-02 0. -1.
        2   -1    0    0  501    0  0.00000000000E+00  0.00000000000E+00 -0.18584586942E+04  0.18584586942E+04  0.25500000920E-02 0.  1.
    10030    2    1    2    0    0  0.00000000000E+00  0.00000000000E+00 -0.11124143831E+03  0.36056759500E+04  0.36039595446E+04 0.  0.
        3    1    3    3  502    0 -0.17735198564E+04 -0.13438678215E+03  0.23382417012E+03  0.17939080916E+04  0.10100000352E+00 0.  1.
       -3    1    3    3    0  502  0.17735198564E+04  0.13438678215E+03 -0.34506560843E+03  0.18117678584E+04  0.10100000352E+00 0. -1.
</event>
<event>
 5   0  0.4115358E-07  0.3599454E+04  0.7818609E-02  0.8090617E-01
        2   -1    0    0  501    0  0.00000000000E+00  0.00000000000E+00  0.16414807713E+04  0.16414807713E+04  0.25500000920E-02 0.  1.
       -2   -1    0    0    0  501  0.00000000000E+00  0.00000000000E+00 -0.19732293397E+04  0.19732293397E+04  0.25500000920E-02 0. -1.
    10030    2    1    2    0    0  0.00000000000E+00  0.00000000000E+00 -0.33174856840E+03  0.36147101111E+04  0.35994544134E+04 0.  0.
        3    1    3    3  502    0 -0.14219682140E+04 -0.15183786362E+03  0.93144609170E+03  0.17066458831E+04  0.10100000352E+00 0.  1.
       -3    1    3    3    0  502  0.14219682140E+04  0.15183786362E+03 -0.12631946601E+04  0.19080642279E+04  0.10100000352E+00 0. -1.
</event>
<event>
 5   0  0.4200635E-07  0.3596392E+04  0.7818609E-02  0.8091319E-01
        2   -1    0    0  501    0  0.00000000000E+00  0.00000000000E+00  0.22093637977E+04  0.22093637977E+04  0.25500000920E-02 0.  1.
       -2   -1    0    0    0  501  0.00000000000E+00  0.00000000000E+00 -0.14635472214E+04  0.14635472214E+04  0.25500000920E-02 0. -1.
    10030    2    1    2    0    0  0.00000000000E+00  0.00000000000E+00  0.74581657631E+03  0.36729110190E+04  0.35963916623E+04 0.  0.
        4    1    3    3  502    0 -0.13141121742E+04  0.18347578445E+03  0.16123833427E+04  0.20881417161E+04  0.12699999809E+01 0.  1.
       -4    1    3    3    0  502  0.13141121742E+04 -0.18347578445E+03 -0.86656676638E+03  0.15847693029E+04  0.12699999809E+01 0. -1.
</event>
<event>
 5   0  0.1298250E-07  0.3593058E+04  0.7818609E-02  0.8092084E-01
        1   -1    0    0  501    0  0.00000000000E+00  0.00000000000E+00  0.11212111258E+04  0.11212111258E+04  0.50400001928E-02 0.  1.
       -1   -1    0    0    0  501  0.00000000000E+00  0.00000000000E+00 -0.28785987690E+04  0.28785987690E+04  0.50400001928E-02 0. -1.
    10030    2    1    2    0    0  0.00000000000E+00  0.00000000000E+00 -0.17573876432E+04  0.39998098948E+04  0.35930582888E+04 0.  0.
        1    1    3    3  502    0 -0.14859130909E+04 -0.99484893373E+03 -0.10710395507E+04  0.20844154658E+04  0.50400001928E-02 0. -1.
       -1    1    3    3    0  502  0.14859130909E+04  0.99484893373E+03 -0.68634809253E+03  0.19153944291E+04  0.50400001928E-02 0.  1.
</event>
<event>
 5   0  0.4200635E-07  0.3574536E+04  0.7818609E-02  0.8096350E-01
       -2   -1    0    0    0  501  0.00000000000E+00  0.00000000000E+00  0.22759970141E+04  0.22759970141E+04  0.25500000920E-02 0. -1.
        2   -1    0    0  501    0  0.00000000000E+00  0.00000000000E+00 -0.14034846707E+04  0.14034846707E+04  0.25500000920E-02 0.  1.
    10030    2    1    2    0    0  0.00000000000E+00  0.00000000000E+00  0.87251234343E+03  0.36794816848E+04  0.35745360090E+04 0.  0.
        4    1    3    3  502    0  0.42765845511E+02  0.13122670194E+04 -0.81196730036E+03  0.15437506786E+04  0.12699999809E+01 0. -1.
       -4    1    3    3    0  502 -0.42765845511E+02 -0.13122670194E+04  0.16844796438E+04  0.21357310062E+04  0.12699999809E+01 0.  1.
</event>
<event>
 5   0  0.1370997E-07  0.3643118E+04  0.7818609E-02  0.8080686E-01
       -1   -1    0    0    0  501  0.00000000000E+00  0.00000000000E+00  0.26906518630E+04  0.26906518630E+04  0.50400001928E-02 0.  1.
        1   -1    0    0  501    0  0.00000000000E+00  0.00000000000E+00 -0.12331871847E+04  0.12331871847E+04  0.50400001928E-02 0. -1.
    10030    2    1    2    0    0  0.00000000000E+00  0.00000000000E+00  0.14574646783E+04  0.39238390477E+04  0.36431181128E+04 0.  0.
        3    1    3    3  502    0  0.54354788151E+03 -0.13426342657E+04  0.19183621886E+04  0.24037937865E+04  0.10100000352E+00 0.  1.
       -3    1    3    3    0  502 -0.54354788151E+03  0.13426342657E+04 -0.46089751023E+03  0.15200452612E+04  0.10100000352E+00 0. -1.
</event>
<event>
 5   0  0.4115358E-07  0.3609033E+04  0.7818609E-02  0.8088426E-01
       -2   -1    0    0    0  501  0.00000000000E+00  0.00000000000E+00  0.27798656104E+04  0.27798656105E+04  0.25500000920E-02 0.  1.
        2   -1    0    0  501    0  0.00000000000E+00  0.00000000000E+00 -0.11713802025E+04  0.11713802025E+04  0.25500000920E-02 0. -1.
    10030    2    1    2    0    0  0.00000000000E+00  0.00000000000E+00  0.16084854079E+04  0.39512458130E+04  0.36090328576E+04 0.  0.
        3    1    3    3  502    0 -0.56642482225E+03 -0.73285136466E+03  0.24997568775E+04  0.26658380782E+04  0.10100000352E+00 0.  1.
       -3    1    3    3    0  502  0.56642482225E+03  0.73285136466E+03 -0.89127146962E+03  0.12854077348E+04  0.10100000352E+00 0. -1.
</event>
<event>
 5   0  0.4115358E-07  0.3457204E+04  0.7818609E-02  0.8124008E-01
        2   -1    0    0  501    0  0.00000000000E+00  0.00000000000E+00  0.12749425237E+04  0.12749425237E+04  0.25500000920E-02 0. -1.
       -2   -1    0    0    0  501  0.00000000000E+00  0.00000000000E+00 -0.23436855077E+04  0.23436855077E+04  0.25500000920E-02 0.  1.
    10030    2    1    2    0    0  0.00000000000E+00  0.00000000000E+00 -0.10687429840E+04  0.36186280313E+04  0.34572036769E+04 0.  0.
        3    1    3    3  502    0 -0.16355107947E+04 -0.29425060127E+03 -0.36135759788E+02  0.16621626814E+04  0.10100000352E+00 0.  1.
       -3    1    3    3    0  502  0.16355107947E+04  0.29425060127E+03 -0.10326072242E+04  0.19564653500E+04  0.10100000352E+00 0. -1.
</event>
<event>
 5   0  0.1298250E-07  0.3634199E+04  0.7818609E-02  0.8082703E-01
        1   -1    0    0  501    0  0.00000000000E+00  0.00000000000E+00  0.17238613365E+04  0.17238613365E+04  0.50400001928E-02 0. -1.
       -1   -1    0    0    0  501  0.00000000000E+00  0.00000000000E+00 -0.19153806883E+04  0.19153806883E+04  0.50400001928E-02 0.  1.
    10030    2    1    2    0    0  0.00000000000E+00  0.00000000000E+00 -0.19151935177E+03  0.36392420249E+04  0.36341990663E+04 0.  0.
        1    1    3    3  502    0 -0.88265594907E+03 -0.14226077418E+04 -0.80310832123E+03  0.18568460591E+04  0.50400001928E-02 0.  1.
       -1    1    3    3    0  502  0.88265594907E+03  0.14226077418E+04  0.61158896945E+03  0.17823959658E+04  0.50400001928E-02 0. -1.
</event>
<event>
 5   0  0.1298250E-07  0.3602252E+04  0.7818609E-02  0.8089976E-01
       -1   -1    0    0    0  501  0.00000000000E+00  0.00000000000E+00  0.17070607711E+04  0.17070607711E+04  0.50400001928E-02 0.  1.
        1   -1    0    0  501    0  0.00000000000E+00  0.00000000000E+00 -0.19003748748E+04  0.19003748748E+04  0.50400001928E-02 0. -1.
    10030    2    1    2    0    0  0.00000000000E+00  0.00000000000E+00 -0.19331410370E+03  0.36074356458E+04  0.36022522949E+04 0.  0.
        1    1    3    3  502    0 -0.93690088343E+03 -0.13917055277E+03 -0.16308221541E+04  0.18859301701E+04  0.50400001928E-02 0. -1.
       -1    1    3    3    0  502  0.93690088343E+03  0.13917055277E+03  0.14375080504E+04  0.17215054758E+04  0.50400001928E-02 0.  1.
</event>
<event>
 5   0  0.3993751E-07  0.3775119E+04  0.7818609E-02  0.8051515E-01
        2   -1    0    0  501    0  0.00000000000E+00  0.00000000000E+00  0.22452470032E+04  0.22452470032E+04  0.25500000920E-02 0.  1.
       -2   -1    0    0    0  501  0.00000000000E+00  0.00000000000E+00 -0.15868546941E+04  0.15868546941E+04  0.25500000920E-02 0. -1.
    10030    2    1    2    0    0  0.00000000000E+00  0.00000000000E+00  0.65839230910E+03  0.38321016973E+04  0.37751189367E+04 0.  0.
        1    1    3    3  502    0  0.93655597143E+03  0.81350731148E+03  0.17733259372E+04  0.21641663783E+04  0.50400001928E-02 0.  1.
       -1    1    3    3    0  502 -0.93655597143E+03 -0.81350731148E+03 -0.11149336281E+04  0.16679353190E+04  0.50400001928E-02 0. -1.
</event>
<event>
 5   0  0.1348226E-07  0.3609054E+04  0.7818609E-02  0.8088421E-01
        1   -1    0    0  501    0  0.00000000000E+00  0.00000000000E+00  0.24503779857E+04  0.24503779857E+04  0.50400001928E-02 0.  1.
       -1   -1    0    0    0  501  0.00000000000E+00  0.00000000000E+00 -0.13289039543E+04  0.13289039543E+04  0.50400001928E-02 0. -1.
    10030    2    1    2    0    0  0.00000000000E+00  0.00000000000E+00  0.11214740314E+04  0.37792819400E+04  0.36090536126E+04 0.  0.
        4    1    3    3  502    0  0.13334637741E+04  0.90929560022E+03 -0.28440609110E+03  0.16388509887E+04  0.12699999809E+01 0. -1.
       -4    1    3    3    0  502 -0.13334637741E+04 -0.90929560022E+03  0.14058801225E+04  0.21404309513E+04  0.12699999809E+01 0.  1.
</event>
<event>
 5   0  0.3880259E-07  0.3608784E+04  0.7818609E-02  0.8088483E-01
        2   -1    0    0  501    0  0.00000000000E+00  0.00000000000E+00  0.21682462517E+04  0.21682462517E+04  0.25500000920E-02 0.  1.
       -2   -1    0    0    0  501  0.00000000000E+00  0.00000000000E+00 -0.15015959174E+04  0.15015959174E+04  0.25500000920E-02 0. -1.
    10030    2    1    2    0    0  0.00000000000E+00  0.00000000000E+00  0.66665033434E+03  0.36698421691E+04  0.36087835731E+04 0.  0.
        5    1    3    3  502    0  0.15051227610E+04  0.41240218942E+03  0.12543743932E+04  0.20022355755E+04  0.46999998093E+01 0.  1.
       -5    1    3    3    0  502 -0.15051227610E+04 -0.41240218942E+03 -0.58772405886E+03  0.16676065936E+04  0.46999998093E+01 0. -1.
</event>
<event>
 5   0  0.1298250E-07  0.3602122E+04  0.7818609E-02  0.8090006E-01
       -1   -1    0    0    0  501  0.00000000000E+00  0.00000000000E+00  0.16696107499E+04  0.16696107499E+04  0.50400001928E-02 0.  1.
        1   -1    0    0  501    0  0.00000000000E+00  0.00000000000E+00 -0.19428607348E+04  0.19428607348E+04  0.50400001928E-02 0. -1.
    10030    2    1    2    0    0  0.00000000000E+00  0.00000000000E+00 -0.27324998495E+03  0.36124714847E+04  0.36021222457E+04 0.  0.
        2    1    3    3  502    0  0.57634421893E+03 -0.25440570149E+03 -0.18287564080E+04  0.19342298001E+04  0.25500000920E-02 0. -1.
       -2    1    3    3    0  502 -0.57634421893E+03  0.25440570149E+03  0.15555064231E+04  0.16782416846E+04  0.25500000920E-02 0.  1.
</event>
<event>
 5   0  0.1361743E-07  0.3601027E+04  0.7818609E-02  0.8090256E-01
       -1   -1    0    0    0  501  0.00000000000E+00  0.00000000000E+00  0.12554640119E+04  0.12554640119E+04  0.50400001928E-02 0. -1.
        1   -1    0    0  501    0  0.00000000000E+00  0.00000000000E+00 -0.25821924808E+04  0.25821924808E+04  0.50400001928E-02 0.  1.
    10030    2    1    2    0    0  0.00000000000E+00  0.00000000000E+00 -0.13267284689E+04  0.38376564927E+04  0.36010274820E+04 0.  0.
        5    1    3    3  502    0 -0.25054721273E+03 -0.30178754062E+03 -0.25361011125E+04  0.25662580868E+04  0.46999998093E+01 0.  1.
       -5    1    3    3    0  502  0.25054721273E+03  0.30178754062E+03  0.12093726436E+04  0.12713984059E+04  0.46999998093E+01 0. -1.
</event>
<event>
 5   0  0.1298250E-07  0.3576827E+04  0.7818609E-02  0.8095820E-01
       -1   -1    0    0    0  501  0.00000000000E+00  0.00000000000E+00  0.12613494870E+04  0.12613494870E+04  0.50400001928E-02 0.  1.
        1   -1    0    0  501    0  0.00000000000E+00  0.00000000000E+00 -0.25357149843E+04  0.25357149843E+04  0.50400001928E-02 0. -1.
    10030    2    1    2    0    0  0.00000000000E+00  0.00000000000E+00 -0.12743654973E+04  0.37970644713E+04  0.35768269707E+04 0.  0.
        1    1    3    3  502    0 -0.30918848031E+03 -0.11527916421E+04  0.77670263032E+03  0.14240059910E+04  0.50400001928E-02 0.  1.
       -1    1    3    3    0  502  0.30918848031E+03  0.11527916421E+04 -0.20510681277E+04  0.23730584803E+04  0.50400001928E-02 0. -1.
</event>
<event>
 5   0  0.3880259E-07  0.3594709E+04  0.7818609E-02  0.8091705E-01
       -2   -1    0    0    0  501  0.00000000000E+00  0.00000000000E+00  0.15144725959E+04  0.15144725959E+04  0.25500000920E-02 0. -1.
        2   -1    0    0  501    0  0.00000000000E+00  0.00000000000E+00 -0.21330742712E+04  0.21330742712E+04  0.25500000920E-02 0.  1.
    10030    2    1    2    0    0  0.00000000000E+00  0.00000000000E+00 -0.61860167538E+03  0.36475468671E+04  0.35947086273E+04 0.  0.
        5    1    3    3  502    0 -0.30274127883E+03 -0.16170842021E+04 -0.10437121387E+04  0.19483251056E+04  0.46999998093E+01 0.  1.
       -5    1    3    3    0  502  0.30274127883E+03  0.16170842021E+04  0.42511046328E+03  0.16992217615E+04  0.46999998093E+01 0. -1.
</event>
<event>
 5   0  0.1298250E-07  0.3511733E+04  0.7818609E-02  0.8111015E-01
        1   -1    0    0  501    0  0.00000000000E+00  0.00000000000E+00  0.17692466689E+04  0.17692466690E+04  0.50400001928E-02 0. -1.
       -1   -1    0    0    0  501  0.00000000000E+00  0.00000000000E+00 -0.17425872966E+04  0.17425872966E+04  0.50400001928E-02 0.  1.
    10030    2    1    2    0    0  0.00000000000E+00  0.00000000000E+00  0.26659372321E+02  0.35118339656E+04  0.35117327745E+04 0.  0.
        2    1    3    3  502    0 -0.49656365220E+03 -0.96221958924E+03 -0.13689636556E+04  0.17454235844E+04  0.25500000920E-02 0.  1.
       -2    1    3    3    0  502  0.49656365220E+03  0.96221958924E+03  0.13956230279E+04  0.17664103812E+04  0.25500000920E-02 0. -1.
</event>
<event>
 5   0  0.1370997E-07  0.3596148E+04  0.7818609E-02  0.8091375E-01
        1   -1    0    0  501    0  0.00000000000E+00  0.00000000000E+00  0.18837536755E+04  0.18837536755E+04  0.50400001928E-02 0. -1.
       -1   -1    0    0    0  501  0.00000000000E+00  0.00000000000E+00 -0.17162908885E+04  0.17162908885E+04  0.50400001928E-02 0.  1.
    10030    2    1    2    0    0  0.00000000000E+00  0.00000000000E+00  0.16746278708E+03  0.36000445640E+04  0.35961475328E+04 0.  0.
        3    1    3    3  502    0  0.12137845129E+04  0.47386551696E+03 -0.11566625315E+04  0.17423230452E+04  0.10100000352E+00 0.  1.
       -3    1    3    3    0  502 -0.12137845129E+04 -0.47386551696E+03  0.13241253185E+04  0.18577215188E+04  0.10100000352E+00 0. -1.
</event>
<event>
 5   0  0.4115358E-07  0.3601132E+04  0.7818609E-02  0.8090233E-01
       -2   -1    0    0    0  501  0.00000000000E+00  0.00000000000E+00  0.12253091661E+04  0.12253091661E+04  0.25500000920E-02 0.  1.
        2   -1    0    0  501    0  0.00000000000E+00  0.00000000000E+00 -0.26458932278E+04  0.26458932278E+04  0.25500000920E-02 0. -1.
    10030    2    1    2    0    0  0.00000000000E+00  0.00000000000E+00 -0.14205840618E+04  0.38712023939E+04  0.36011316135E+04 0.  0.
        3    1    3    3  502    0  0.98993404504E+03 -0.72701608255E+03 -0.21256644800E+04  0.24549890610E+04  0.10100000352E+00 0. -1.
       -3    1    3    3    0  502 -0.98993404504E+03  0.72701608255E+03  0.70508041828E+03  0.14162133329E+04  0.10100000352E+00 0.  1.
</event>
<event>
 5   0  0.3880259E-07  0.3502263E+04  0.7818609E-02  0.8113254E-01
        2   -1    0    0  501    0  0.00000000000E+00  0.00000000000E+00  0.20035716755E+04  0.20035716755E+04  0.25500000920E-02 0.  1.
       -2   -1    0    0    0  501  0.00000000000E+00  0.00000000000E+00 -0.15304974533E+04  0.15304974533E+04  0.25500000920E-02 0. -1.
    10030    2    1    2    0    0  0.00000000000E+00  0.00000000000E+00  0.47307422222E+03  0.35340691288E+04  0.35022628952E+04 0.  0.
        5    1    3    3  502    0  0.81048052066E+03  0.98998876181E+03 -0.96993078405E+03  0.16055354991E+04  0.46999998093E+01 0. -1.
       -5    1    3    3    0  502 -0.81048052066E+03 -0.98998876181E+03  0.14430050063E+04  0.19285336297E+04  0.46999998093E+01 0.  1.
</event>
<event>
 5   0  0.3993751E-07  0.3603436E+04  0.7818609E-02  0.8089705E-01
        2   -1    0    0  501    0  0.00000000000E+00  0.00000000000E+00  0.27749328463E+04  0.27749328463E+04  0.25500000920E-02 0. -1.
       -2   -1    0    0    0  501  0.00000000000E+00  0.00000000000E+00 -0.11698259442E+04  0.11698259442E+04  0.25500000920E-02 0.  1.
    10030    2    1    2    0    0  0.00000000000E+00  0.00000000000E+00  0.16051069021E+04  0.39447587905E+04  0.36034363804E+04 0.  0.
        1    1    3    3  502    0  0.10762812527E+03 -0.11010334815E+04 -0.75423497720E+03  0.13389282810E+04  0.50400001928E-02 0.  1.
       -1    1    3    3    0  502 -0.10762812527E+03  0.11010334815E+04  0.23593418793E+04  0.26058305095E+04  0.50400001928E-02 0. -1.
</event>
<event>
 5   0  0.1348226E-07  0.3591718E+04  0.7818609E-02  0.8092391E-01
        1   -1    0    0  501    0  0.00000000000E+00  0.00000000000E+00  0.18728093471E+04  0.18728093471E+04  0.50400001928E-02 0. -1.
       -1   -1    0    0    0  501  0.00000000000E+00  0.00000000000E+00 -0.17220708520E+04  0.17220708520E+04  0.50400001928E-02 0.  1.
    10030    2    1    2    0    0  0.00000000000E+00  0.00000000000E+00  0.15073849504E+03  0.35948801991E+04  0.35917184678E+04 0.  0.
        4    1    3    3  502    0  0.95694247166E+03 -0.14144227454E+04 -0.48079803161E+03  0.17741192060E+04  0.12699999809E+01 0. -1.
       -4    1    3    3    0  502 -0.95694247166E+03  0.14144227454E+04  0.63153652665E+03  0.18207609932E+04  0.12699999809E+01 0.  1.
</event>
<event>
 5   0  0.1361743E-07  0.3609731E+04  0.7818609E-02  0.8088266E-01
        1   -1    0    0  501    0  0.00000000000E+00  0.00000000000E+00  0.12206262869E+04  0.12206262869E+04  0.50400001928E-02 0. -1.
       -1   -1    0    0    0  501  0.00000000000E+00  0.00000000000E+00 -0.26687441462E+04  0.26687441462E+04  0.50400001928E-02 0.  1.
    10030    2    1    2    0    0  0.00000000000E+00  0.00000000000E+00 -0.14481178593E+04  0.38893704331E+04  0.36097308808E+04 0.  0.
        5    1    3    3  502    0 -0.19984778549E+03  0.21174928803E+03  0.11951477391E+04  0.12301126398E+04  0.46999998093E+01 0. -1.
       -5    1    3    3    0  502  0.19984778549E+03 -0.21174928803E+03 -0.26432655983E+04  0.26592577934E+04  0.46999998093E+01 0.  1.
</event>
<event>
 5   0  0.1370997E-07  0.3605775E+04  0.7818609E-02  0.8089170E-01
       -1   -1    0    0    0  501  0.00000000000E+00  0.00000000000E+00  0.17511393533E+04  0.17511393533E+04  0.50400001928E-02 0.  1.
        1   -1    0    0  501    0  0.00000000000E+00  0.00000000000E+00 -0.18561649177E+04  0.18561649177E+04  0.50400001928E-02 0. -1.
    10030    2    1    2    0    0  0.00000000000E+00  0.00000000000E+00 -0.10502556432E+03  0.36073042710E+04  0.36057750532E+04 0.  0.
        3    1    3    3  502    0  0.16283479810E+04 -0.48371841413E+03 -0.65684079741E+03  0.18212469615E+04  0.10100000352E+00 0. -1.
       -3    1    3    3    0  502 -0.16283479810E+04  0.48371841413E+03  0.55181523309E+03  0.17860573095E+04  0.10100000352E+00 0.  1.
</event>
<event>
 5   0  0.4120440E-07  0.3595620E+04  0.7818609E-02  0.8091496E-01
        2   -1    0    0  501    0  0.00000000000E+00  0.00000000000E+00  0.23934935391E+04  0.23934935391E+04  0.25500000920E-02 0.  1.
       -2   -1    0    0    0  501  0.00000000000E+00  0.00000000000E+00 -0.13503777011E+04  0.13503777011E+04  0.25500000920E-02 0. -1.
    10030    2    1    2    0    0  0.00000000000E+00  0.00000000000E+00  0.10431158380E+04  0.37438712402E+04  0.35956197256E+04 0.  0.
        2    1    3    3  502    0 -0.55026728599E+03  0.58591530110E+03  0.21959759232E+04  0.23384612636E+04  0.25500000920E-02 0.  1.
       -2    1    3    3    0  502  0.55026728599E+03 -0.58591530110E+03 -0.11528600852E+04  0.14054099765E+04  0.25500000920E-02 0. -1.
</event>
<event>
 5   0  0.1370997E-07  0.3596617E+04  0.7818609E-02  0.8091267E-01
        1   -1    0    0  501    0  0.00000000000E+00  0.00000000000E+00  0.29425096240E+04  0.29425096240E+04  0.50400001928E-02 0.  1.
       -1   -1    0    0    0  501  0.00000000000E+00  0.00000000000E+00 -0.10990325315E+04  0.10990325315E+04  0.50400001928E-02 0. -1.
    10030    2    1    2    0    0  0.00000000000E+00  0.00000000000E+00  0.18434770925E+04  0.40415421555E+04  0.35966171890E+04 0.  0.
        3    1    3    3  502    0 -0.18924441931E+03 -0.10823306737E+04  0.25214564874E+04  0.27504537745E+04  0.10100000352E+00 0.  1.
       -3    1    3    3    0  502  0.18924441931E+03  0.10823306737E+04 -0.67797939493E+03  0.12910883810E+04  0.10100000352E+00 0. -1.
</event>
<event>
 5   0  0.1298250E-07  0.3602159E+04  0.7818609E-02  0.8089997E-01
       -1   -1    0    0    0  501  0.00000000000E+00  0.00000000000E+00  0.10369938337E+04  0.10369938337E+04  0.50400001928E-02 0. -1.
        1   -1    0    0  501    0  0.00000000000E+00  0.00000000000E+00 -0.31281638877E+04  0.31281638877E+04  0.50400001928E-02 0.  1.
    10030    2    1    2    0    0  0.00000000000E+00  0.00000000000E+00 -0.20911700540E+04  0.41651577214E+04  0.36021586097E+04 0.  0.
        2    1    3    3  502    0  0.54901763683E+03 -0.85171090899E+03  0.67611242229E+03  0.12181789054E+04  0.25500000920E-02 0. -1.
       -2    1    3    3    0  502 -0.54901763683E+03  0.85171090899E+03 -0.27672824763E+04  0.29469788160E+04  0.25500000920E-02 0.  1.
</event>
<event>
 5   0  0.1348226E-07  0.3606417E+04  0.7818609E-02  0.8089023E-01
       -1   -1    0    0    0  501  0.00000000000E+00  0.00000000000E+00  0.19104053235E+04  0.19104053235E+04  0.50400001928E-02 0.  1.
        1   -1    0    0  501    0  0.00000000000E+00  0.00000000000E+00 -0.17020266603E+04  0.17020266603E+04  0.50400001928E-02 0. -1.
    10030    2    1    2    0    0  0.00000000000E+00  0.00000000000E+00  0.20837866321E+03  0.36124319837E+04  0.36064169434E+04 0.  0.
        4    1    3    3  502    0  0.91991957338E+03 -0.15493199158E+04  0.33965650843E+02  0.18021652258E+04  0.12699999809E+01 0. -1.
       -4    1    3    3    0  502 -0.91991957338E+03  0.15493199158E+04  0.17441301236E+03  0.18102667579E+04  0.12699999809E+01 0.  1.
</event>
<event>
 5   0  0.3993751E-07  0.3603531E+04  0.7818609E-02  0.8089683E-01
        2   -1    0    0  501    0  0.00000000000E+00  0.00000000000E+00  0.23864281480E+04  0.23864281480E+04  0.25500000920E-02 0. -1.
       -2   -1    0    0    0  501  0.00000000000E+00  0.00000000000E+00 -0.13603422598E+04  0.13603422598E+04  0.25500000920E-02 0.  1.
    10030    2    1    2    0    0  0.00000000000E+00  0.00000000000E+00  0.10260858882E+04  0.37467704078E+04  0.36035310792E+04 0.  0.
        1    1    3    3  502    0  0.11427949216E+04 -0.40066945821E+03  0.19001808315E+04  0.22532650621E+04  0.50400001928E-02 0. -1.
       -1    1    3    3    0  502 -0.11427949216E+04  0.40066945821E+03 -0.87409494327E+03  0.14935053457E+04  0.50400001928E-02 0.  1.
</event>
<event>
 5   0  0.4115358E-07  0.3590375E+04  0.7818609E-02  0.8092700E-01
       -2   -1    0    0    0  501  0.00000000000E+00  0.00000000000E+00  0.26486235234E+04  0.26486235234E+04  0.25500000920E-02 0.  1.
        2   -1    0    0  501    0  0.00000000000E+00  0.00000000000E+00 -0.12167446161E+04  0.12167446161E+04  0.25500000920E-02 0. -1.
    10030    2    1    2    0    0  0.00000000000E+00  0.00000000000E+00  0.14318789073E+04  0.38653681395E+04  0.35903751404E+04 0.  0.
        3    1    3    3  502    0 -0.10363940792E+04 -0.93800908227E+03  0.19285873782E+04  0.23818948363E+04  0.10100000352E+00 0.  1.
       -3    1    3    3    0  502  0.10363940792E+04  0.93800908227E+03 -0.49670847092E+03  0.14834733031E+04  0.10100000352E+00 0. -1.
</event>
<event>
 5   0  0.1298250E-07  0.3601376E+04  0.7818609E-02  0.8090177E-01
        1   -1    0    0  501    0  0.00000000000E+00  0.00000000000E+00  0.22156293924E+04  0.22156293924E+04  0.50400001928E-02 0.  1.
       -1   -1    0    0    0  501  0.00000000000E+00  0.00000000000E+00 -0.14634562238E+04  0.14634562238E+04  0.50400001928E-02 0. -1.
    10030    2    1    2    0    0  0.00000000000E+00  0.00000000000E+00  0.75217316858E+03  0.36790856162E+04  0.36013756394E+04 0.  0.
        2    1    3    3  502    0  0.14132987743E+04 -0.49320146568E+03 -0.64641819837E+03  0.16304961203E+04  0.25500000920E-02 0. -1.
       -2    1    3    3    0  502 -0.14132987743E+04  0.49320146568E+03  0.13985913670E+04  0.20485894959E+04  0.25500000920E-02 0.  1.
</event>
<event>
 5   0  0.1361743E-07  0.3625008E+04  0.7818609E-02  0.8084787E-01
       -1   -1    0    0    0  501  0.00000000000E+00  0.00000000000E+00  0.16906362267E+04  0.16906362267E+04  0.50400001928E-02 0.  1.
        1   -1    0    0  501    0  0.00000000000E+00  0.00000000000E+00 -0.19431567674E+04  0.19431567674E+04  0.50400001928E-02 0. -1.
    10030    2    1    2    0    0  0.00000000000E+00  0.00000000000E+00 -0.25252054071E+03  0.36337929941E+04  0.36250082621E+04 0.  0.
        5    1    3    3  502    0  0.17573581656E+04  0.32536566915E+03  0.17609726287E+03  0.17958849843E+04  0.46999998093E+01 0. -1.
       -5    1    3    3    0  502 -0.17573581656E+04 -0.32536566915E+03 -0.42861780357E+03  0.18379080098E+04  0.46999998093E+01 0.  1.
</event>
<event>
 5   0  0.3880259E-07  0.3587577E+04  0.7818609E-02  0.8093343E-01
       -2   -1    0    0    0  501  0.00000000000E+00  0.00000000000E+00  0.20549559069E+04  0.20549559069E+04  0.25500000920E-02 0. -1.
        2   -1    0    0  501    0  0.00000000000E+00  0.00000000000E+00 -0.15658128499E+04  0.15658128499E+04  0.25500000920E-02 0.  1.
    10030    2    1    2    0    0  0.00000000000E+00  0.00000000000E+00  0.48914305709E+03  0.36207687568E+04  0.35875765441E+04 0.  0.
        5    1    3    3  502    0 -0.13658579640E+04  0.16757163877E+03  0.14058719854E+04  0.19672687568E+04  0.46999998093E+01 0. -1.
       -5    1    3    3    0  502  0.13658579640E+04 -0.16757163877E+03 -0.91672892831E+03  0.16535000000E+04  0.46999998093E+01 0.  1.
</event>
<event>
 5   0  0.3993751E-07  0.3602583E+04  0.7818609E-02  0.8089900E-01
       -2   -1    0    0    0  501  0.00000000000E+00  0.00000000000E+00  0.10226384985E+04  0.10226384985E+04  0.25500000920E-02 0.  1.
        2   -1    0    0  501    0  0.00000000000E+00  0.00000000000E+00 -0.31728226315E+04  0.31728226315E+04  0.25500000920E-02 0. -1.
    10030    2    1    2    0    0  0.00000000000E+00  0.00000000000E+00 -0.21501841331E+04  0.41954611300E+04  0.36025827245E+04 0.  0.
        1    1    3    3  502    0  0.11371772493E+04 -0.10635636455E+04 -0.21298552611E+04  0.26382992927E+04  0.50400001928E-02 0. -1.
       -1    1    3    3    0  502 -0.11371772493E+04  0.10635636455E+04 -0.20328871938E+02  0.15571618373E+04  0.50400001928E-02 0.  1.
</event>
<event>
 5   0  0.1298250E-07  0.3577041E+04  0.7818609E-02  0.8095771E-01
        3   -1    0    0  501    0  0.00000000000E+00  0.00000000000E+00  0.17212951363E+04  0.17212951393E+04  0.10100000352E+00 0.  1.
       -3   -1    0    0    0  501  0.00000000000E+00  0.00000000000E+00 -0.18583718262E+04  0.18583718290E+04  0.10100000352E+00 0. -1.
    10030    2    1    2    0    0  0.00000000000E+00  0.00000000000E+00 -0.13707668990E+03  0.35796669683E+04  0.35770414570E+04 0.  0.
        5    1    3    3  502    0  0.26554940979E+03  0.15243895042E+04 -0.96613841518E+03  0.18242054097E+04  0.46999998093E+01 0. -1.
       -5    1    3    3    0  502 -0.26554940979E+03 -0.15243895042E+04  0.82906172528E+03  0.17554615586E+04  0.46999998093E+01 0.  1.
</event>
<event>
 5   0  0.1348226E-07  0.3654628E+04  0.7818609E-02  0.8078092E-01
        1   -1    0    0  501    0  0.00000000000E+00  0.00000000000E+00  0.11265777362E+04  0.11265777362E+04  0.50400001928E-02 0. -1.
       -1   -1    0    0    0  501  0.00000000000E+00  0.00000000000E+00 -0.29639114137E+04  0.29639114137E+04  0.50400001928E-02 0.  1.
    10030    2    1    2    0    0  0.00000000000E+00  0.00000000000E+00 -0.18373336775E+04  0.40904891499E+04  0.36546280854E+04 0.  0.
        4    1    3    3  502    0  0.96462974134E+03 -0.78131344254E+02  0.81617599376E+03  0.12660015444E+04  0.12699999809E+01 0. -1.
       -4    1    3    3    0  502 -0.96462974134E+03  0.78131344254E+02 -0.26535096713E+04  0.28244876055E+04  0.12699999809E+01 0.  1.
</event>
<event>
 5   0  0.4200635E-07  0.3156843E+04  0.7818609E-02  0.8200309E-01
        2   -1    0    0  501    0  0.00000000000E+00  0.00000000000E+00  0.26653204961E+04  0.26653204961E+04  0.25500000920E-02 0. -1.
       -2   -1    0    0    0  501  0.00000000000E+00  0.00000000000E+00 -0.93475255486E+03  0.93475255486E+03  0.25500000920E-02 0.  1.
    10030    2    1    2    0    0  0.00000000000E+00  0.00000000000E+00  0.17305679413E+04  0.36000730510E+04  0.31568434508E+04 0.  0.
        4    1    3    3  502    0 -0.48135769196E+03 -0.62285404302E+03  0.24254954951E+04  0.25500357638E+04  0.12699999809E+01 0. -1.
       -4    1    3    3    0  502  0.48135769196E+03  0.62285404302E+03 -0.69492755389E+03  0.10500372872E+04  0.12699999809E+01 0.  1.
</event>
<event>
 5   0  0.4115358E-07  0.3601939E+04  0.7818609E-02  0.8090048E-01
        2   -1    0    0  501    0  0.00000000000E+00  0.00000000000E+00  0.16591640833E+04  0.16591640833E+04  0.25500000920E-02 0. -1.
       -2   -1    0    0    0  501  0.00000000000E+00  0.00000000000E+00 -0.19548946432E+04  0.19548946432E+04  0.25500000920E-02 0.  1.
    10030    2    1    2    0    0  0.00000000000E+00  0.00000000000E+00 -0.29573055982E+03  0.36140587265E+04  0.36019389104E+04 0.  0.
        3    1    3    3  502    0  0.12954346471E+04 -0.75786152982E+03 -0.11466976535E+04  0.18887616425E+04  0.10100000352E+00 0.  1.
       -3    1    3    3    0  502 -0.12954346471E+04  0.75786152982E+03  0.85096709369E+03  0.17252970840E+04  0.10100000352E+00 0. -1.
</event>
<event>
 5   0  0.3880259E-07  0.3600804E+04  0.7818609E-02  0.8090308E-01
        2   -1    0    0  501    0  0.00000000000E+00  0.00000000000E+00  0.25174681433E+04  0.25174681433E+04  0.25500000920E-02 0.  1.
       -2   -1    0    0    0  501  0.00000000000E+00  0.00000000000E+00 -0.12875819714E+04  0.12875819714E+04  0.25500000920E-02 0. -1.
    10030    2    1    2    0    0  0.00000000000E+00  0.00000000000E+00  0.12298861718E+04  0.38050501147E+04  0.36008035742E+04 0.  0.
        5    1    3    3  502    0 -0.12953933539E+04  0.16356540646E+03  0.19248642798E+04  0.23259239388E+04  0.46999998093E+01 0.  1.
       -5    1    3    3    0  502  0.12953933539E+04 -0.16356540646E+03 -0.69497810803E+03  0.14791261759E+04  0.46999998093E+01 0. -1.
</event>
<event>
 5   0  0.3880259E-07  0.3605115E+04  0.7818609E-02  0.8089321E-01
       -2   -1    0    0    0  501  0.00000000000E+00  0.00000000000E+00  0.13896478270E+04  0.13896478270E+04  0.25500000920E-02 0.  1.
        2   -1    0    0  501    0  0.00000000000E+00  0.00000000000E+00 -0.23381561271E+04  0.23381561271E+04  0.25500000920E-02 0. -1.
    10030    2    1    2    0    0  0.00000000000E+00  0.00000000000E+00 -0.94850830008E+03  0.37278039541E+04  0.36051150225E+04 0.  0.
        5    1    3    3  502    0 -0.16642233227E+04  0.20616552432E+02 -0.11900008326E+04  0.20460176885E+04  0.46999998093E+01 0. -1.
       -5    1    3    3    0  502  0.16642233227E+04 -0.20616552432E+02  0.24149253251E+03  0.16817862656E+04  0.46999998093E+01 0.  1.
</event>
<event>
 5   0  0.3880259E-07  0.3578872E+04  0.7818609E-02  0.8095349E-01
       -2   -1    0    0    0  501  0.00000000000E+00  0.00000000000E+00  0.29490912740E+04  0.29490912740E+04  0.25500000920E-02 0. -1.
        2   -1    0    0  501    0  0.00000000000E+00  0.00000000000E+00 -0.10857856077E+04  0.10857856077E+04  0.25500000920E-02 0.  1.
    10030    2    1    2    0    0  0.00000000000E+00  0.00000000000E+00  0.18633056663E+04  0.40348768817E+04  0.35788718116E+04 0.  0.
        5    1    3    3  502    0 -0.10349343127E+04 -0.62974459781E+03  0.24164177945E+04  0.27031027242E+04  0.46999998093E+01 0. -1.
       -5    1    3    3    0  502  0.10349343127E+04  0.62974459781E+03 -0.55311212816E+03  0.13317741575E+04  0.46999998093E+01 0.  1.
</event>
<event>
 5   0  0.1361743E-07  0.3602158E+04  0.7818609E-02  0.8089998E-01
       -1   -1    0    0    0  501  0.00000000000E+00  0.00000000000E+00  0.19207503722E+04  0.19207503722E+04  0.50400001928E-02 0.  1.
        1   -1    0    0  501    0  0.00000000000E+00  0.00000000000E+00 -0.16888636804E+04  0.16888636804E+04  0.50400001928E-02 0. -1.
    10030    2    1    2    0    0  0.00000000000E+00  0.00000000000E+00  0.23188669177E+03  0.36096140526E+04  0.36021579880E+04 0.  0.
        5    1    3    3  502    0  0.15558759437E+04  0.89957420685E+02  0.10205972357E+04  0.18629232666E+04  0.46999998093E+01 0.  1.
       -5    1    3    3    0  502 -0.15558759437E+04 -0.89957420685E+02 -0.78871054392E+03  0.17466907860E+04  0.46999998093E+01 0. -1.
</event>
<event>
 5   0  0.3993751E-07  0.3574398E+04  0.7818609E-02  0.8096381E-01
        2   -1    0    0  501    0  0.00000000000E+00  0.00000000000E+00  0.23368006450E+04  0.23368006450E+04  0.25500000920E-02 0.  1.
       -2   -1    0    0    0  501  0.00000000000E+00  0.00000000000E+00 -0.13668604664E+04  0.13668604664E+04  0.25500000920E-02 0. -1.
    10030    2    1    2    0    0  0.00000000000E+00  0.00000000000E+00  0.96994017864E+03  0.37036611114E+04  0.35743980861E+04 0.  0.
        1    1    3    3  502    0 -0.16640223144E+04 -0.28320013232E+03 -0.12355691691E+03  0.16924653289E+04  0.50400001928E-02 0. -1.
       -1    1    3    3    0  502  0.16640223144E+04  0.28320013232E+03  0.10934970956E+04  0.20111957825E+04  0.50400001928E-02 0.  1.
</event>
<event>
 5   0  0.1298250E-07  0.3597266E+04  0.7818609E-02  0.8091118E-01
       -1   -1    0    0    0  501  0.00000000000E+00  0.00000000000E+00  0.14547303137E+04  0.14547303137E+04  0.50400001928E-02 0.  1.
        1   -1    0    0  501    0  0.00000000000E+00  0.00000000000E+00 -0.22238356864E+04  0.22238356864E+04  0.50400001928E-02 0. -1.
    10030    2    1    2    0    0  0.00000000000E+00  0.00000000000E+00 -0.76910537268E+03  0.36785660001E+04  0.35972662875E+04 0.  0.
        2    1    3    3  502    0  0.71369075070E+03  0.11624576865E+04  0.81429914859E+03  0.15886300589E+04  0.25500000920E-02 0.  1.
       -2    1    3    3    0  502 -0.71369075070E+03 -0.11624576865E+04 -0.15834045213E+04  0.20899359412E+04  0.25500000920E-02 0. -1.
</event>
<event>
 5   0  0.1298250E-07  0.3596901E+04  0.7818609E-02  0.8091202E-01
        1   -1    0    0  501    0  0.00000000000E+00  0.00000000000E+00  0.30142227790E+04  0.30142227790E+04  0.50400001928E-02 0.  1.
       -1   -1    0    0    0  501  0.00000000000E+00  0.00000000000E+00 -0.10730543701E+04  0.10730543701E+04  0.50400001928E-02 0. -1.
    10030    2    1    2    0    0  0.00000000000E+00  0.00000000000E+00  0.19411684089E+04  0.40872771491E+04  0.35969014029E+04 0.  0.
        2    1    3    3  502    0 -0.15759576808E+04 -0.27477389627E+02 -0.13526808004E+02  0.15762552437E+04  0.25500000920E-02 0. -1.
       -2    1    3    3    0  502  0.15759576808E+04  0.27477389627E+02  0.19546952169E+04  0.25110219054E+04  0.25500000920E-02 0.  1.
</event>
<event>
 5   0  0.1370997E-07  0.3591783E+04  0.7818609E-02  0.8092376E-01
        1   -1    0    0  501    0  0.00000000000E+00  0.00000000000E+00  0.28960548182E+04  0.28960548182E+04  0.50400001928E-02 0.  1.
       -1   -1    0    0    0  501  0.00000000000E+00  0.00000000000E+00 -0.11136621867E+04  0.11136621867E+04  0.50400001928E-02 0. -1.
    10030    2    1    2    0    0  0.00000000000E+00  0.00000000000E+00  0.17823926316E+04  0.40097170049E+04  0.35917832572E+04 0.  0.
        3    1    3    3  502    0 -0.87846824775E+03  0.15601447132E+04  0.73543035515E+03  0.19356176807E+04  0.10100000352E+00 0. -1.
       -3    1    3    3    0  502  0.87846824775E+03 -0.15601447132E+04  0.10469622764E+04  0.20740993242E+04  0.10100000352E+00 0.  1.
</event>
<event>
 5   0  0.3993751E-07  0.3597351E+04  0.7818609E-02  0.8091099E-01
        2   -1    0    0  501    0  0.00000000000E+00  0.00000000000E+00  0.15468905536E+04  0.15468905536E+04  0.25500000920E-02 0.  1.
       -2   -1    0    0    0  501  0.00000000000E+00  0.00000000000E+00 -0.20914427761E+04  0.20914427761E+04  0.25500000920E-02 0. -1.
    10030    2    1    2    0    0  0.00000000000E+00  0.00000000000E+00 -0.54455222255E+03  0.36383333297E+04  0.35973507328E+04 0.  0.
        1    1    3    3  502    0 -0.19957584087E+03  0.24950463176E+03  0.15179599283E+04  0.15512206231E+04  0.50400001928E-02 0.  1.
       -1    1    3    3    0  502  0.19957584087E+03 -0.24950463176E+03 -0.20625121509E+04  0.20871127066E+04  0.50400001928E-02 0. -1.
</event>
<event>
 5   0  0.1348226E-07  0.3585699E+04  0.7818609E-02  0.8093775E-01
        1   -1    0    0  501    0  0.00000000000E+00  0.00000000000E+00  0.28131179484E+04  0.28131179484E+04  0.50400001928E-02 0.  1.
       -1   -1    0    0    0  501  0.00000000000E+00  0.00000000000E+00 -0.11426147239E+04  0.11426147239E+04  0.50400001928E-02 0. -1.
    10030    2    1    2    0    0  0.00000000000E+00  0.00000000000E+00  0.16705032246E+04  0.39557326723E+04  0.35856993671E+04 0.  0.
        4    1    3    3  502    0  0.15140619863E+04  0.40809243944E+03 -0.12356887786E+03  0.15729570935E+04  0.12699999809E+01 0. -1.
       -4    1    3    3    0  502 -0.15140619863E+04 -0.40809243944E+03  0.17940721024E+04  0.23827755788E+04  0.12699999809E+01 0.  1.
</event>
<event>
 5   0  0.1348226E-07  0.3596682E+04  0.7818609E-02  0.8091252E-01
        1   -1    0    0  501    0  0.00000000000E+00  0.00000000000E+00  0.21124028232E+04  0.21124028232E+04  0.50400001928E-02 0. -1.
       -1   -1    0    0    0  501  0.00000000000E+00  0.00000000000E+00 -0.15309726548E+04  0.15309726548E+04  0.50400001928E-02 0.  1.
    10030    2    1    2    0    0  0.00000000000E+00  0.00000000000E+00  0.58143016841E+03  0.36433754781E+04  0.35966823370E+04 0.  0.
        4    1    3    3  502    0 -0.84114341754E+02  0.13582611524E+04  0.14815966158E+04  0.20117352523E+04  0.12699999809E+01 0.  1.
       -4    1    3    3    0  502  0.84114341754E+02 -0.13582611524E+04 -0.90016644736E+03  0.16316402258E+04  0.12699999809E+01 0. -1.
</event>
<event>
 5   0  0.1361743E-07  0.3505743E+04  0.7818609E-02  0.8112430E-01
       -1   -1    0    0    0  501  0.00000000000E+00  0.00000000000E+00  0.11459402054E+04  0.11459402054E+04  0.50400001928E-02 0.  1.
        1   -1    0    0  501    0  0.00000000000E+00  0.00000000000E+00 -0.26812550049E+04  0.26812550049E+04  0.50400001928E-02 0. -1.
    10030    2    1    2    0    0  0.00000000000E+00  0.00000000000E+00 -0.15353147995E+04  0.38271952103E+04  0.35057426665E+04 0.  0.
        5    1    3    3  502    0 -0.16622132844E+04 -0.30089305154E+03 -0.12785956680E+04  0.21185652229E+04  0.46999998093E+01 0. -1.
       -5    1    3    3    0  502  0.16622132844E+04  0.30089305154E+03 -0.25671913156E+03  0.17086299874E+04  0.46999998093E+01 0.  1.
</event>
<event>
 5   0  0.4120440E-07  0.3592285E+04  0.7818609E-02  0.8092261E-01
        2   -1    0    0  501    0  0.00000000000E+00  0.00000000000E+00  0.21868283042E+04  0.21868283042E+04  0.25500000920E-02 0.  1.
       -2   -1    0    0    0  501  0.00000000000E+00  0.00000000000E+00 -0.14752541671E+04  0.14752541671E+04  0.25500000920E-02 0. -1.
    10030    2    1    2    0    0  0.00000000000E+00  0.00000000000E+00  0.71157413711E+03  0.36620824713E+04  0.35922848264E+04 0.  0.
        2    1    3    3  502    0  0.14109713886E+04 -0.72372540926E+03  0.12156861938E+04  0.19981270353E+04  0.25500000920E-02 0.  1.
       -2    1    3    3    0  502 -0.14109713886E+04  0.72372540926E+03 -0.50411205670E+03  0.16639554360E+04  0.25500000920E-02 0. -1.
</event>
<event>
 5   0  0.4200635E-07  0.3588493E+04  0.7818609E-02  0.8093133E-01
        2   -1    0    0  501    0  0.00000000000E+00  0.00000000000E+00  0.16769887703E+04  0.16769887703E+04  0.25500000920E-02 0.  1.
       -2   -1    0    0    0  501  0.00000000000E+00  0.00000000000E+00 -0.19197031505E+04  0.19197031505E+04  0.25500000920E-02 0. -1.
    10030    2    1    2    0    0  0.00000000000E+00  0.00000000000E+00 -0.24271438025E+03  0.35966919208E+04  0.35884930685E+04 0.  0.
        4    1    3    3  502    0  0.15168842030E+04  0.73679378279E+03  0.49283670413E+03  0.17568985154E+04  0.12699999809E+01 0.  1.
       -4    1    3    3    0  502 -0.15168842030E+04 -0.73679378279E+03 -0.73555108438E+03  0.18397934053E+04  0.12699999809E+01 0. -1.
</event>
<event>
 5   0  0.3880259E-07  0.3599757E+04  0.7818609E-02  0.8090547E-01
        2   -1    0    0  501    0  0.00000000000E+00  0.00000000000E+00  0.21642064211E+04  0.21642064211E+04  0.25500000920E-02 0. -1.
       -2   -1    0    0    0  501  0.00000000000E+00  0.00000000000E+00 -0.14968824157E+04  0.14968824157E+04  0.25500000920E-02 0.  1.
    10030    2    1    2    0    0  0.00000000000E+00  0.00000000000E+00  0.66732400542E+03  0.36610888368E+04  0.35997569560E+04 0.  0.
        5    1    3    3  502    0  0.64561401984E+03  0.87145156438E+03  0.17945528451E+04  0.20968279127E+04  0.46999998093E+01 0. -1.
       -5    1    3    3    0  502 -0.64561401984E+03 -0.87145156438E+03 -0.11272288396E+04  0.15642609241E+04  0.46999998093E+01 0.  1.
</event>
<event>
 5   0  0.4115358E-07  0.3608893E+04  0.7818609E-02  0.8088458E-01
       -2   -1    0    0    0  501  0.00000000000E+00  0.00000000000E+00  0.14362623914E+04  0.14362623914E+04  0.25500000920E-02 0. -1.
        2   -1    0    0  501    0  0.00000000000E+00  0.00000000000E+00 -0.22670138886E+04  0.22670138886E+04  0.25500000920E-02 0.  1.
    10030    2    1    2    0    0  0.00000000000E+00  0.00000000000E+00 -0.83075149720E+03  0.37032762799E+04  0.36088927880E+04 0.  0.
        3    1    3    3  502    0 -0.97272530024E+03 -0.99847028491E+03 -0.15911560971E+04  0.21153995261E+04  0.10100000352E+00 0.  1.
       -3    1    3    3    0  502  0.97272530024E+03  0.99847028491E+03  0.76040459990E+03  0.15878767538E+04  0.10100000352E+00 0. -1.
</event>
<event>
 5   0  0.3880259E-07  0.3680442E+04  0.7818609E-02  0.8072310E-01
        2   -1    0    0  501    0  0.00000000000E+00  0.00000000000E+00  0.20734071926E+04  0.20734071926E+04  0.25500000920E-02 0.  1.
       -2   -1    0    0    0  501  0.00000000000E+00  0.00000000000E+00 -0.16332599924E+04  0.16332599925E+04  0.25500000920E-02 0. -1.
    10030    2    1    2    0    0  0.00000000000E+00  0.00000000000E+00  0.44014720018E+03  0.37066671851E+04  0.36804418299E+04 0.  0.
        5    1    3    3  502    0 -0.10521367534E+04 -0.26693840659E+03  0.17166443030E+04  0.20310434790E+04  0.46999998093E+01 0.  1.
       -5    1    3    3    0  502  0.10521367534E+04  0.26693840659E+03 -0.12764971028E+04  0.16756237060E+04  0.46999998093E+01 0. -1.
</event>
<event>
 5   0  0.4120440E-07  0.3618455E+04  0.7818609E-02  0.8086278E-01
       -2   -1    0    0    0  501  0.00000000000E+00  0.00000000000E+00  0.26431533417E+04  0.26431533417E+04  0.25500000920E-02 0.  1.
        2   -1    0    0  501    0  0.00000000000E+00  0.00000000000E+00 -0.12384083794E+04  0.12384083794E+04  0.25500000920E-02 0. -1.
    10030    2    1    2    0    0  0.00000000000E+00  0.00000000000E+00  0.14047449623E+04  0.38815617211E+04  0.36184545024E+04 0.  0.
        2    1    3    3  502    0 -0.73558169439E+03  0.59844778936E+03 -0.95046949836E+03  0.13426140373E+04  0.25500000920E-02 0. -1.
       -2    1    3    3    0  502  0.73558169439E+03 -0.59844778936E+03  0.23552144606E+04  0.25389476838E+04  0.25500000920E-02 0.  1.
</event>
<event>
 5   0  0.1298250E-07  0.3586102E+04  0.7818609E-02  0.8093683E-01
        1   -1    0    0  501    0  0.00000000000E+00  0.00000000000E+00  0.23084475915E+04  0.23084475915E+04  0.50400001928E-02 0.  1.
       -1   -1    0    0    0  501  0.00000000000E+00  0.00000000000E+00 -0.13927243581E+04  0.13927243582E+04  0.50400001928E-02 0. -1.
    10030    2    1    2    0    0  0.00000000000E+00  0.00000000000E+00  0.91572323336E+03  0.37011719497E+04  0.35861016105E+04 0.  0.
        1    1    3    3  502    0 -0.37867048612E+03 -0.14558179670E+04 -0.54927524215E+03  0.16014058142E+04  0.50400001928E-02 0. -1.
       -1    1    3    3    0  502  0.37867048612E+03  0.14558179670E+04  0.14649984755E+04  0.20997661354E+04  0.50400001928E-02 0.  1.
</event>
<event>
 5   0  0.1348226E-07  0.3605887E+04  0.7818609E-02  0.8089145E-01
        1   -1    0    0  501    0  0.00000000000E+00  0.00000000000E+00  0.26114231970E+04  0.26114231970E+04  0.50400001928E-02 0. -1.
       -1   -1    0    0    0  501  0.00000000000E+00  0.00000000000E+00 -0.12447638644E+04  0.12447638644E+04  0.50400001928E-02 0.  1.
    10030    2    1    2    0    0  0.00000000000E+00  0.00000000000E+00  0.13666593325E+04  0.38561870614E+04  0.36058869812E+04 0.  0.
        4    1    3    3  502    0  0.17615187850E+04 -0.11241333589E+03  0.29037494744E+03  0.17888276639E+04  0.12699999809E+01 0.  1.
       -4    1    3    3    0  502 -0.17615187850E+04  0.11241333589E+03  0.10762843851E+04  0.20673593975E+04  0.12699999809E+01 0. -1.
</event>
<event>
 5   0  0.4200635E-07  0.3593062E+04  0.7818609E-02  0.8092083E-01
        2   -1    0    0  501    0  0.00000000000E+00  0.00000000000E+00  0.18998828753E+04  0.18998828753E+04  0.25500000920E-02 0. -1.
       -2   -1    0    0    0  501  0.00000000000E+00  0.00000000000E+00 -0.16988017167E+04  0.16988017167E+04  0.25500000920E-02 0.  1.
    10030    2    1    2    0    0  0.00000000000E+00  0.00000000000E+00  0.20108115858E+03  0.35986845920E+04  0.35930623653E+04 0.  0.
        4    1    3    3  502    0  0.69322596252E+03  0.13169651244E+04 -0.90729600931E+03  0.17430281224E+04  0.12699999809E+01 0. -1.
       -4    1    3    3    0  502 -0.69322596252E+03 -0.13169651244E+04  0.11083771679E+04  0.18556564696E+04  0.12699999809E+01 0.  1.
</event>
<event>
 5   0  0.4200635E-07  0.3600376E+04  0.7818609E-02  0.8090406E-01
       -2   -1    0    0    0  501  0.00000000000E+00  0.00000000000E+00  0.14442937180E+04  0.14442937180E+04  0.25500000920E-02 0.  1.
        2   -1    0    0  501    0  0.00000000000E+00  0.00000000000E+00 -0.22437795183E+04  0.22437795183E+04  0.25500000920E-02 0. -1.
    10030    2    1    2    0    0  0.00000000000E+00  0.00000000000E+00 -0.79948580022E+03  0.36880732363E+04  0.36003759042E+04 0.  0.
        4    1    3    3  502    0 -0.13009866051E+04  0.12439482656E+04 -0.37260967746E+03  0.18381547864E+04  0.12699999809E+01 0. -1.
       -4    1    3    3    0  502  0.13009866051E+04 -0.12439482656E+04 -0.42687612276E+03  0.18499184499E+04  0.12699999809E+01 0.  1.
</event>
<event>
 5   0  0.1298250E-07  0.3625649E+04  0.7818609E-02  0.8084642E-01
        1   -1    0    0  501    0  0.00000000000E+00  0.00000000000E+00  0.22674169953E+04  0.22674169953E+04  0.50400001928E-02 0.  1.
       -1   -1    0    0    0  501  0.00000000000E+00  0.00000000000E+00 -0.14493725811E+04  0.14493725811E+04  0.50400001928E-02 0. -1.
    10030    2    1    2    0    0  0.00000000000E+00  0.00000000000E+00  0.81804441417E+03  0.37167895764E+04  0.36256486443E+04 0.  0.
        2    1    3    3  502    0 -0.58487069410E+03  0.15183102650E+04 -0.41044211367E+03  0.16780353149E+04  0.25500000920E-02 0. -1.
       -2    1    3    3    0  502  0.58487069410E+03 -0.15183102650E+04  0.12284865278E+04  0.20387542615E+04  0.25500000920E-02 0.  1.
</event>
<event>
 5   0  0.1298250E-07  0.3587409E+04  0.7818609E-02  0.8093382E-01
       -1   -1    0    0    0  501  0.00000000000E+00  0.00000000000E+00  0.21273850220E+04  0.21273850220E+04  0.50400001928E-02 0. -1.
        1   -1    0    0  501    0  0.00000000000E+00  0.00000000000E+00 -0.15123616111E+04  0.15123616111E+04  0.50400001928E-02 0.  1.
    10030    2    1    2    0    0  0.00000000000E+00  0.00000000000E+00  0.61502341093E+03  0.36397466331E+04  0.35874087803E+04 0.  0.
        2    1    3    3  502    0  0.15835262540E+04 -0.84241944902E+03  0.31991769724E+03  0.18219696095E+04  0.25500000920E-02 0.  1.
       -2    1    3    3    0  502 -0.15835262540E+04  0.84241944902E+03  0.29510571369E+03  0.18177770235E+04  0.25500000920E-02 0. -1.
</event>
<event>
 5   0  0.4120440E-07  0.3582310E+04  0.7818609E-02  0.8094556E-01
        2   -1    0    0  501    0  0.00000000000E+00  0.00000000000E+00  0.16453515281E+04  0.16453515281E+04  0.25500000920E-02 0. -1.
       -2   -1    0    0    0  501  0.00000000000E+00  0.00000000000E+00 -0.19498793026E+04  0.19498793026E+04  0.25500000920E-02 0.  1.
    10030    2    1    2    0    0  0.00000000000E+00  0.00000000000E+00 -0.30452777449E+03  0.35952308306E+04  0.35823103663E+04 0.  0.
        2    1    3    3  502    0  0.74852465105E+03  0.85793051402E+02  0.14785854211E+04  0.16594771611E+04  0.25500000920E-02 0. -1.
       -2    1    3    3    0  502 -0.74852465105E+03 -0.85793051402E+02 -0.17831131956E+04  0.19357536695E+04  0.25500000920E-02 0.  1.
</event>
<event>
 5   0  0.4115358E-07  0.3594544E+04  0.7818609E-02  0.8091743E-01
       -2   -1    0    0    0  501  0.00000000000E+00  0.00000000000E+00  0.12155746358E+04  0.12155746358E+04  0.25500000920E-02 0.  1.
        2   -1    0    0  501    0  0.00000000000E+00  0.00000000000E+00 -0.26573328254E+04  0.26573328254E+04  0.25500000920E-02 0. -1.
    10030    2    1    2    0    0  0.00000000000E+00  0.00000000000E+00 -0.14417581896E+04  0.38729074612E+04  0.35945438551E+04 0.  0.
        3    1    3    3  502    0  0.12138616972E+04 -0.85737029928E+03 -0.18099164359E+04  0.23418671109E+04  0.10100000352E+00 0. -1.
       -3    1    3    3    0  502 -0.12138616972E+04  0.85737029928E+03  0.36815824626E+03  0.15310403504E+04  0.10100000352E+00 0.  1.
</event>
<event>
 5   0  0.4120440E-07  0.3603959E+04  0.7818609E-02  0.8089585E-01
        2   -1    0    0  501    0  0.00000000000E+00  0.00000000000E+00  0.14217323754E+04  0.14217323754E+04  0.25500000920E-02 0. -1.
       -2   -1    0    0    0  501  0.00000000000E+00  0.00000000000E+00 -0.22839247164E+04  0.22839247164E+04  0.25500000920E-02 0.  1.
    10030    2    1    2    0    0  0.00000000000E+00  0.00000000000E+00 -0.86219234106E+03  0.37056570918E+04  0.36039587746E+04 0.  0.
        2    1    3    3  502    0 -0.12636200533E+03  0.38612419609E+03  0.13740263975E+04  0.14328320880E+04  0.25500000920E-02 0. -1.
       -2    1    3    3    0  502  0.12636200533E+03 -0.38612419609E+03 -0.22362187386E+04  0.22728250038E+04  0.25500000920E-02 0.  1.
</event>
<event>
 5   0  0.3993751E-07  0.3617956E+04  0.7818609E-02  0.8086391E-01
       -2   -1    0    0    0  501  0.00000000000E+00  0.00000000000E+00  0.14344787455E+04  0.14344787455E+04  0.25500000920E-02 0. -1.
        2   -1    0    0  501    0  0.00000000000E+00  0.00000000000E+00 -0.22812481947E+04  0.22812481947E+04  0.25500000920E-02 0.  1.
    10030    2    1    2    0    0  0.00000000000E+00  0.00000000000E+00 -0.84676944921E+03  0.37157269402E+04  0.36179563560E+04 0.  0.
        1    1    3    3  502    0  0.70241732757E+03 -0.16101072944E+04 -0.86699054723E+03  0.19589558981E+04  0.50400001928E-02 0. -1.
       -1    1    3    3    0  502 -0.70241732757E+03  0.16101072944E+04  0.20221098013E+02  0.17567710421E+04  0.50400001928E-02 0.  1.
</event>
<event>
 5   0  0.1361743E-07  0.3596785E+04  0.7818609E-02  0.8091229E-01
       -1   -1    0    0    0  501  0.00000000000E+00  0.00000000000E+00  0.18242920867E+04  0.18242920867E+04  0.50400001928E-02 0. -1.
        1   -1    0    0  501    0  0.00000000000E+00  0.00000000000E+00 -0.17728602234E+04  0.17728602234E+04  0.50400001928E-02 0.  1.
    10030    2    1    2    0    0  0.00000000000E+00  0.00000000000E+00  0.51431863309E+02  0.35971523100E+04  0.35967846064E+04 0.  0.
        5    1    3    3  502    0 -0.45568321851E+02 -0.36643789609E+03  0.17859639275E+04  0.18237440730E+04  0.46999998093E+01 0. -1.
       -5    1    3    3    0  502  0.45568321851E+02  0.36643789609E+03 -0.17345320641E+04  0.17734082370E+04  0.46999998093E+01 0.  1.
</event>
<event>
 5   0  0.3880259E-07  0.3598449E+04  0.7818609E-02  0.8090847E-01
       -2   -1    0    0    0  501  0.00000000000E+00  0.00000000000E+00  0.24387934526E+04  0.24387934526E+04  0.25500000920E-02 0. -1.
        2   -1    0    0  501    0  0.00000000000E+00  0.00000000000E+00 -0.13273815827E+04  0.13273815827E+04  0.25500000920E-02 0.  1.
    10030    2    1    2    0    0  0.00000000000E+00  0.00000000000E+00  0.11114118699E+04  0.37661750353E+04  0.35984493955E+04 0.  0.
        5    1    3    3  502    0 -0.52522278619E+03 -0.16158570440E+04  0.11751848519E+04  0.20658979858E+04  0.46999998093E+01 0. -1.
       -5    1    3    3    0  502  0.52522278619E+03  0.16158570440E+04 -0.63772982044E+02  0.17002770495E+04  0.46999998093E+01 0.  1.
</event>
<event>
 5   0  0.4200635E-07  0.3446760E+04  0.7818609E-02  0.8126524E-01
       -2   -1    0    0    0  501  0.00000000000E+00  0.00000000000E+00  0.16567777517E+04  0.16567777517E+04  0.25500000920E-02 0.  1.
        2   -1    0    0  501    0  0.00000000000E+00  0.00000000000E+00 -0.17926591722E+04  0.17926591723E+04  0.25500000920E-02 0. -1.
    10030    2    1    2    0    0  0.00000000000E+00  0.00000000000E+00 -0.13588142057E+03  0.34494369239E+04  0.34467595407E+04 0.  0.
        4    1    3    3  502    0  0.77455359671E+03  0.13374088917E+04  0.69517399858E+03  0.16946575816E+04  0.12699999809E+01 0.  1.
       -4    1    3    3    0  502 -0.77455359671E+03 -0.13374088917E+04 -0.83105541914E+03  0.17547793423E+04  0.12699999809E+01 0. -1.
</event>
<event>
 5   0  0.4120440E-07  0.3603300E+04  0.7818609E-02  0.8089736E-01
        2   -1    0    0  501    0  0.00000000000E+00  0.00000000000E+00  0.22646905653E+04  0.22646905653E+04  0.25500000920E-02 0.  1.
       -2   -1    0    0    0  501  0.00000000000E+00  0.00000000000E+00 -0.14332828141E+04  0.14332828141E+04  0.25500000920E-02 0. -1.
    10030    2    1    2    0    0  0.00000000000E+00  0.00000000000E+00  0.83140775124E+03  0.36979733794E+04  0.36032996358E+04 0.  0.
        2    1    3    3  502    0  0.23547004674E+03 -0.13657520124E+04 -0.76572331394E+03  0.15833688439E+04  0.25500000920E-02 0. -1.
       -2    1    3    3    0  502 -0.23547004674E+03  0.13657520124E+04  0.15971310652E+04  0.21146045355E+04  0.25500000920E-02 0.  1.
</event>
<event>
 5   0  0.1361743E-07  0.3596604E+04  0.7818609E-02  0.8091270E-01
       -1   -1    0    0    0  501  0.00000000000E+00  0.00000000000E+00  0.14081851965E+04  0.14081851965E+04  0.50400001928E-02 0.  1.
        1   -1    0    0  501    0  0.00000000000E+00  0.00000000000E+00 -0.22964954786E+04  0.22964954786E+04  0.50400001928E-02 0. -1.
    10030    2    1    2    0    0  0.00000000000E+00  0.00000000000E+00 -0.88831028204E+03  0.37046806751E+04  0.35966044747E+04 0.  0.
        5    1    3    3  502    0 -0.13584785598E+04  0.11530749698E+04 -0.69397764103E+03  0.19122429081E+04  0.46999998093E+01 0.  1.
       -5    1    3    3    0  502  0.13584785598E+04 -0.11530749698E+04 -0.19433264102E+03  0.17924377670E+04  0.46999998093E+01 0. -1.
</event>
<event>
 5   0  0.1361743E-07  0.3538626E+04  0.7818609E-02  0.8104697E-01
        1   -1    0    0  501    0  0.00000000000E+00  0.00000000000E+00  0.23646521943E+04  0.23646521943E+04  0.50400001928E-02 0. -1.
       -1   -1    0    0    0  501  0.00000000000E+00  0.00000000000E+00 -0.13238596976E+04  0.13238596976E+04  0.50400001928E-02 0.  1.
    10030    2    1    2    0    0  0.00000000000E+00  0.00000000000E+00  0.10407924967E+04  0.36885118919E+04  0.35386255744E+04 0.  0.
        5    1    3    3  502    0  0.32909939965E+03 -0.15450496248E+04  0.13509926866E+04  0.20786264905E+04  0.46999998093E+01 0.  1.
       -5    1    3    3    0  502 -0.32909939965E+03  0.15450496248E+04 -0.31020018996E+03  0.16098854014E+04  0.46999998093E+01 0. -1.
</event>
<event>
 5   0  0.3993751E-07  0.3342762E+04  0.7818609E-02  0.8152099E-01
       -2   -1    0    0    0  501  0.00000000000E+00  0.00000000000E+00  0.18555297669E+04  0.18555297669E+04  0.25500000920E-02 0.  1.
        2   -1    0    0  501    0  0.00000000000E+00  0.00000000000E+00 -0.15055075755E+04  0.15055075755E+04  0.25500000920E-02 0. -1.
    10030    2    1    2    0    0  0.00000000000E+00  0.00000000000E+00  0.35002219138E+03  0.33610373425E+04  0.33427618047E+04 0.  0.
        1    1    3    3  502    0 -0.14914229026E+04  0.38839211751E+03 -0.47530423268E+03  0.16127941049E+04  0.50400001928E-02 0. -1.
       -1    1    3    3    0  502  0.14914229026E+04 -0.38839211751E+03  0.82532642406E+03  0.17482432375E+04  0.50400001928E-02 0.  1.
</event>
<event>
 5   0  0.3880259E-07  0.3557943E+04  0.7818609E-02  0.8100194E-01
       -2   -1    0    0    0  501  0.00000000000E+00  0.00000000000E+00  0.17894104803E+04  0.17894104803E+04  0.25500000920E-02 0. -1.
        2   -1    0    0  501    0  0.00000000000E+00  0.00000000000E+00 -0.17685935783E+04  0.17685935783E+04  0.25500000920E-02 0.  1.
    10030    2    1    2    0    0  0.00000000000E+00  0.00000000000E+00  0.20816902022E+02  0.35580040586E+04  0.35579431611E+04 0.  0.
        5    1    3    3  502    0  0.34871584989E+03 -0.46107216035E+02  0.17542815182E+04  0.17892049504E+04  0.46999998093E+01 0. -1.
       -5    1    3    3    0  502 -0.34871584989E+03  0.46107216035E+02 -0.17334646162E+04  0.17687991082E+04  0.46999998093E+01 0.  1.
</event>
<event>
 5   0  0.3880259E-07  0.3594290E+04  0.7818609E-02  0.8091801E-01
        2   -1    0    0  501    0  0.00000000000E+00  0.00000000000E+00  0.16076502501E+04  0.16076502501E+04  0.25500000920E-02 0. -1.
       -2   -1    0    0    0  501  0.00000000000E+00  0.00000000000E+00 -0.20089755780E+04  0.20089755780E+04  0.25500000920E-02 0.  1.
    10030    2    1    2    0    0  0.00000000000E+00  0.00000000000E+00 -0.40132532790E+03  0.36166258282E+04  0.35942899664E+04 0.  0.
        5    1    3    3  502    0  0.14494657566E+04  0.99807922290E+03  0.16573597829E+03  0.17676548360E+04  0.46999998093E+01 0.  1.
       -5    1    3    3    0  502 -0.14494657566E+04 -0.99807922290E+03 -0.56706130619E+03  0.18489709921E+04  0.46999998093E+01 0. -1.
</event>
<event>
 5   0  0.1348226E-07  0.3706981E+04  0.7818609E-02  0.8066416E-01
       -1   -1    0    0    0  501  0.00000000000E+00  0.00000000000E+00  0.24078040148E+04  0.24078040148E+04  0.50400001928E-02 0.  1.
        1   -1    0    0  501    0  0.00000000000E+00  0.00000000000E+00 -0.14267888381E+04  0.14267888381E+04  0.50400001928E-02 0. -1.
    10030    2    1    2    0    0  0.00000000000E+00  0.00000000000E+00  0.98101517672E+03  0.38345928530E+04  0.37069814635E+04 0.  0.
        4    1    3    3  502    0  0.56304879490E+03 -0.61282090051E+03  0.22036761688E+04  0.23555813871E+04  0.12699999809E+01 0.  1.
       -4    1    3    3    0  502 -0.56304879490E+03  0.61282090051E+03 -0.12226609921E+04  0.14790114658E+04  0.12699999809E+01 0. -1.
</event>
<event>
 5   0  0.1348226E-07  0.3499211E+04  0.7818609E-02  0.8113977E-01
        1   -1    0    0  501    0  0.00000000000E+00  0.00000000000E+00  0.17426825323E+04  0.17426825323E+04  0.50400001928E-02 0. -1.
       -1   -1    0    0    0  501  0.00000000000E+00  0.00000000000E+00 -0.17565555157E+04  0.17565555157E+04  0.50400001928E-02 0.  1.
    10030    2    1    2    0    0  0.00000000000E+00  0.00000000000E+00 -0.13872983446E+02  0.34992380480E+04  0.34992105476E+04 0.  0.
        4    1    3    3  502    0 -0.71467945206E+03  0.52441058480E+03  0.15014996470E+04  0.17436387193E+04  0.12699999809E+01 0. -1.
       -4    1    3    3    0  502  0.71467945206E+03 -0.52441058480E+03 -0.15153726305E+04  0.17555993286E+04  0.12699999809E+01 0.  1.
</event>
<event>
 5   0  0.1298250E-07  0.3614188E+04  0.7818609E-02  0.8087250E-01
       -1   -1    0    0    0  501  0.00000000000E+00  0.00000000000E+00  0.17536006077E+04  0.17536006077E+04  0.50400001928E-02 0. -1.
        1   -1    0    0  501    0  0.00000000000E+00  0.00000000000E+00 -0.18622189770E+04  0.18622189771E+04  0.50400001928E-02 0.  1.
    10030    2    1    2    0    0  0.00000000000E+00  0.00000000000E+00 -0.10861836933E+03  0.36158195848E+04  0.36141877814E+04 0.  0.
        2    1    3    3  502    0 -0.14391312071E+04 -0.51354205530E+03  0.91088764736E+03  0.17789155067E+04  0.25500000920E-02 0. -1.
       -2    1    3    3    0  502  0.14391312071E+04  0.51354205530E+03 -0.10195060167E+04  0.18369040781E+04  0.25500000920E-02 0.  1.
</event>
<event>
 5   0  0.3993751E-07  0.3645531E+04  0.7818609E-02  0.8080141E-01
        2   -1    0    0  501    0  0.00000000000E+00  0.00000000000E+00  0.13198396873E+04  0.13198396873E+04  0.25500000920E-02 0. -1.
       -2   -1    0    0    0  501  0.00000000000E+00  0.00000000000E+00 -0.25173315386E+04  0.25173315386E+04  0.25500000920E-02 0.  1.
    10030    2    1    2    0    0  0.00000000000E+00  0.00000000000E+00 -0.11974918513E+04  0.38371712259E+04  0.36455310015E+04 0.  0.
        1    1    3    3  502    0 -0.68239900646E+03  0.16539793654E+04 -0.23237053248E+03  0.18042483780E+04  0.50400001928E-02 0. -1.
       -1    1    3    3    0  502  0.68239900646E+03 -0.16539793654E+04 -0.96512131880E+03  0.20329228478E+04  0.50400001928E-02 0.  1.
</event>
<event>
 5   0  0.3880259E-07  0.3597907E+04  0.7818609E-02  0.8090971E-01
       -2   -1    0    0    0  501  0.00000000000E+00  0.00000000000E+00  0.18139404419E+04  0.18139404419E+04  0.25500000920E-02 0. -1.
        2   -1    0    0  501    0  0.00000000000E+00  0.00000000000E+00 -0.17840900518E+04  0.17840900518E+04  0.25500000920E-02 0.  1.
    10030    2    1    2    0    0  0.00000000000E+00  0.00000000000E+00  0.29850390050E+02  0.35980304937E+04  0.35979066675E+04 0.  0.
        5    1    3    3  502    0 -0.52643473722E+02  0.15756625319E+04  0.88140019892E+03  0.18062037954E+04  0.46999998093E+01 0. -1.
       -5    1    3    3    0  502  0.52643473722E+02 -0.15756625319E+04 -0.85154980887E+03  0.17918266983E+04  0.46999998093E+01 0.  1.
</event>
<event>
 5   0  0.4115358E-07  0.3604890E+04  0.7818609E-02  0.8089372E-01
       -2   -1    0    0    0  501  0.00000000000E+00  0.00000000000E+00  0.13477835343E+04  0.13477835343E+04  0.25500000920E-02 0. -1.
        2   -1    0    0  501    0  0.00000000000E+00  0.00000000000E+00 -0.24104821886E+04  0.24104821886E+04  0.25500000920E-02 0.  1.
    10030    2    1    2    0    0  0.00000000000E+00  0.00000000000E+00 -0.10626986543E+04  0.37582657229E+04  0.36048901251E+04 0.  0.
        3    1    3    3  502    0 -0.59565704964E+03 -0.85622535503E+03  0.10011866432E+04  0.14457883261E+04  0.10100000352E+00 0. -1.
       -3    1    3    3    0  502  0.59565704964E+03  0.85622535503E+03 -0.20638852974E+04  0.23124773968E+04  0.10100000352E+00 0.  1.
</event>
<event>
 5   0  0.1348226E-07  0.3611989E+04  0.7818609E-02  0.8087751E-01
       -1   -1    0    0    0  501  0.00000000000E+00  0.00000000000E+00  0.20386659068E+04  0.20386659068E+04  0.50400001928E-02 0.  1.
        1   -1    0    0  501    0  0.00000000000E+00  0.00000000000E+00 -0.15998774936E+04  0.15998774936E+04  0.50400001928E-02 0. -1.
    10030    2    1    2    0    0  0.00000000000E+00  0.00000000000E+00  0.43878841321E+03  0.36385434004E+04  0.36119887604E+04 0.  0.
        4    1    3    3  502    0  0.27908043972E+03  0.65975983779E+03  0.18894258752E+04  0.20206683761E+04  0.12699999809E+01 0.  1.
       -4    1    3    3    0  502 -0.27908043972E+03 -0.65975983779E+03 -0.14506374620E+04  0.16178750243E+04  0.12699999809E+01 0. -1.
</event>
<event>
 5   0  0.3993751E-07  0.3590093E+04  0.7818609E-02  0.8092765E-01
       -2   -1    0    0    0  501  0.00000000000E+00  0.00000000000E+00  0.17711023264E+04  0.17711023264E+04  0.25500000920E-02 0. -1.
        2   -1    0    0  501    0  0.00000000000E+00  0.00000000000E+00 -0.18193143177E+04  0.18193143177E+04  0.25500000920E-02 0.  1.
    10030    2    1    2    0    0  0.00000000000E+00  0.00000000000E+00 -0.48211991264E+02  0.35904166441E+04  0.35900929351E+04 0.  0.
        1    1    3    3  502    0  0.53862044347E+03  0.10628419931E+04  0.13185673803E+04  0.17771789501E+04  0.50400001928E-02 0. -1.
       -1    1    3    3    0  502 -0.53862044347E+03 -0.10628419931E+04 -0.13667793715E+04  0.18132376940E+04  0.50400001928E-02 0.  1.
</event>
<event>
 5   0  0.1348226E-07  0.3598759E+04  0.7818609E-02  0.8090776E-01
        1   -1    0    0  501    0  0.00000000000E+00  0.00000000000E+00  0.15415132986E+04  0.15415132986E+04  0.50400001928E-02 0.  1.
       -1   -1    0    0    0  501  0.00000000000E+00  0.00000000000E+00 -0.21003816126E+04  0.21003816126E+04  0.50400001928E-02 0. -1.
    10030    2    1    2    0    0  0.00000000000E+00  0.00000000000E+00 -0.55886831408E+03  0.36418949112E+04  0.35987587793E+04 0.  0.
        4    1    3    3  502    0 -0.15916437540E+03  0.96101178768E+03  0.12516071487E+04  0.15860009527E+04  0.12699999809E+01 0.  1.
       -4    1    3    3    0  502  0.15916437540E+03 -0.96101178768E+03 -0.18104754627E+04  0.20558939585E+04  0.12699999809E+01 0. -1.
</event>
<event>
 5   0  0.4115358E-07  0.3598606E+04  0.7818609E-02  0.8090811E-01
        2   -1    0    0  501    0  0.00000000000E+00  0.00000000000E+00  0.16218647602E+04  0.16218647602E+04  0.25500000920E-02 0.  1.
       -2   -1    0    0    0  501  0.00000000000E+00  0.00000000000E+00 -0.19961537485E+04  0.19961537485E+04  0.25500000920E-02 0. -1.
    10030    2    1    2    0    0  0.00000000000E+00  0.00000000000E+00 -0.37428898831E+03  0.36180185087E+04  0.35986060749E+04 0.  0.
        3    1    3    3  502    0 -0.16572500891E+04  0.70071141336E+03 -0.18299091766E+03  0.18085795611E+04  0.10100000352E+00 0. -1.
       -3    1    3    3    0  502  0.16572500891E+04 -0.70071141336E+03 -0.19129807065E+03  0.18094389475E+04  0.10100000352E+00 0.  1.
</event>
<event>
 5   0  0.4200635E-07  0.3601002E+04  0.7818609E-02  0.8090262E-01
        2   -1    0    0  501    0  0.00000000000E+00  0.00000000000E+00  0.23867803174E+04  0.23867803174E+04  0.25500000920E-02 0.  1.
       -2   -1    0    0    0  501  0.00000000000E+00  0.00000000000E+00 -0.13582329451E+04  0.13582329451E+04  0.25500000920E-02 0. -1.
    10030    2    1    2    0    0  0.00000000000E+00  0.00000000000E+00  0.10285473722E+04  0.37450132625E+04  0.36010018939E+04 0.  0.
        4    1    3    3  502    0  0.12091127475E+04 -0.28673002019E+01 -0.87318645247E+03  0.14914483066E+04  0.12699999809E+01 0. -1.
       -4    1    3    3    0  502 -0.12091127475E+04  0.28673002019E+01  0.19017338247E+04  0.22535649559E+04  0.12699999809E+01 0.  1.
</event>
<event>
 5   0  0.1298250E-07  0.3598833E+04  0.7818609E-02  0.8090759E-01
       -1   -1    0    0    0  501  0.00000000000E+00  0.00000000000E+00  0.13888740296E+04  0.13888740296E+04  0.50400001928E-02 0. -1.
        1   -1    0    0  501    0  0.00000000000E+00  0.00000000000E+00 -0.23313124775E+04  0.23313124775E+04  0.50400001928E-02 0.  1.
    10030    2    1    2    0    0  0.00000000000E+00  0.00000000000E+00 -0.94243844794E+03  0.37201865071E+04  0.35988327857E+04 0.  0.
        1    1    3    3  502    0 -0.34081192166E+03  0.74997173231E+02  0.13535597667E+04  0.13978202260E+04  0.50400001928E-02 0. -1.
       -1    1    3    3    0  502  0.34081192166E+03 -0.74997173231E+02 -0.22959982147E+04  0.23223662811E+04  0.50400001928E-02 0.  1.
</event>
<event>
 5   0  0.3993751E-07  0.3578729E+04  0.7818609E-02  0.8095382E-01
        2   -1    0    0  501    0  0.00000000000E+00  0.00000000000E+00  0.20512182255E+04  0.20512182255E+04  0.25500000920E-02 0. -1.
       -2   -1    0    0    0  501  0.00000000000E+00  0.00000000000E+00 -0.15609380969E+04  0.15609380969E+04  0.25500000920E-02 0.  1.
    10030    2    1    2    0    0  0.00000000000E+00  0.00000000000E+00  0.49028012858E+03  0.36121563224E+04  0.35787286419E+04 0.  0.
        1    1    3    3  502    0  0.77759609629E+03  0.15579660167E+04 -0.17091264628E+03  0.17496070790E+04  0.50400001928E-02 0.  1.
       -1    1    3    3    0  502 -0.77759609629E+03 -0.15579660167E+04  0.66119277486E+03  0.18625492433E+04  0.50400001928E-02 0. -1.
</event>
<event>
 5   0  0.1361743E-07  0.3491422E+04  0.7818609E-02  0.8115826E-01
        1   -1    0    0  501    0  0.00000000000E+00  0.00000000000E+00  0.14756783346E+04  0.14756783346E+04  0.50400001928E-02 0.  1.
       -1   -1    0    0    0  501  0.00000000000E+00  0.00000000000E+00 -0.20651566826E+04  0.20651566826E+04  0.50400001928E-02 0. -1.
    10030    2    1    2    0    0  0.00000000000E+00  0.00000000000E+00 -0.58947834800E+03  0.35408350173E+04  0.34914220450E+04 0.  0.
        5    1    3    3  502    0 -0.15514367773E+04  0.28456041348E+03 -0.10533593949E+04  0.18967126318E+04  0.46999998093E+01 0.  1.
       -5    1    3    3    0  502  0.15514367773E+04 -0.28456041348E+03  0.46388104687E+03  0.16441223855E+04  0.46999998093E+01 0. -1.
</event>
<event>
 5   0  0.1361743E-07  0.3591402E+04  0.7818609E-02  0.8092464E-01
       -1   -1    0    0    0  501  0.00000000000E+00  0.00000000000E+00  0.21005372558E+04  0.21005372558E+04  0.50400001928E-02 0.  1.
        1   -1    0    0  501    0  0.00000000000E+00  0.00000000000E+00 -0.15351033896E+04  0.15351033896E+04  0.50400001928E-02 0. -1.
    10030    2    1    2    0    0  0.00000000000E+00  0.00000000000E+00  0.56543386621E+03  0.36356406454E+04  0.35914018775E+04 0.  0.
        5    1    3    3  502    0  0.12759402952E+04 -0.11653417069E+04  0.77707113331E+03  0.18947048759E+04  0.46999998093E+01 0. -1.
       -5    1    3    3    0  502 -0.12759402952E+04  0.11653417069E+04 -0.21163726710E+03  0.17409357695E+04  0.46999998093E+01 0.  1.
</event>
<event>
 5   0  0.1298250E-07  0.3605834E+04  0.7818609E-02  0.8089157E-01
        1   -1    0    0  501    0  0.00000000000E+00  0.00000000000E+00  0.15630280081E+04  0.15630280082E+04  0.50400001928E-02 0. -1.
       -1   -1    0    0    0  501  0.00000000000E+00  0.00000000000E+00 -0.20796233914E+04  0.20796233914E+04  0.50400001928E-02 0.  1.
    10030    2    1    2    0    0  0.00000000000E+00  0.00000000000E+00 -0.51659538328E+03  0.36426513996E+04  0.36058339436E+04 0.  0.
        1    1    3    3  502    0  0.30378933361E+03  0.25530086945E+03 -0.20349599454E+04  0.20732892882E+04  0.50400001928E-02 0.  1.
       -1    1    3    3    0  502 -0.30378933361E+03 -0.25530086945E+03  0.15183645621E+04  0.15693621114E+04  0.50400001928E-02 0. -1.
</event>
<event>
 5   0  0.1370997E-07  0.3629307E+04  0.7818609E-02  0.8083811E-01
        1   -1    0    0  501    0  0.00000000000E+00  0.00000000000E+00  0.10064704583E+04  0.10064704583E+04  0.50400001928E-02 0.  1.
       -1   -1    0    0    0  501  0.00000000000E+00  0.00000000000E+00 -0.32717978670E+04  0.32717978671E+04  0.50400001928E-02 0. -1.
    10030    2    1    2    0    0  0.00000000000E+00  0.00000000000E+00 -0.22653274088E+04  0.42782683253E+04  0.36293073161E+04 0.  0.
        3    1    3    3  502    0  0.12323327807E+04  0.45212735011E+03 -0.26096651321E+04  0.29212010090E+04  0.10100000352E+00 0. -1.
       -3    1    3    3    0  502 -0.12323327807E+04 -0.45212735011E+03  0.34433772328E+03  0.13570673163E+04  0.10100000352E+00 0.  1.
</event>
<event>
 5   0  0.1370997E-07  0.3631823E+04  0.7818609E-02  0.8083241E-01
       -1   -1    0    0    0  501  0.00000000000E+00  0.00000000000E+00  0.16416017148E+04  0.16416017148E+04  0.50400001928E-02 0.  1.
        1   -1    0    0  501    0  0.00000000000E+00  0.00000000000E+00 -0.20087305078E+04  0.20087305078E+04  0.50400001928E-02 0. -1.
    10030    2    1    2    0    0  0.00000000000E+00  0.00000000000E+00 -0.36712879296E+03  0.36503322226E+04  0.36318234793E+04 0.  0.
        3    1    3    3  502    0  0.37879421599E+03  0.40926464406E+03 -0.19205361691E+04  0.19998604436E+04  0.10100000352E+00 0. -1.
       -3    1    3    3    0  502 -0.37879421599E+03 -0.40926464406E+03  0.15534073761E+04  0.16504717790E+04  0.10100000352E+00 0.  1.
</event>
<event>
 5   0  0.1348226E-07  0.3636698E+04  0.7818609E-02  0.8082137E-01
        1   -1    0    0  501    0  0.00000000000E+00  0.00000000000E+00  0.13033409368E+04  0.13033409368E+04  0.50400001928E-02 0.  1.
       -1   -1    0    0    0  501  0.00000000000E+00  0.00000000000E+00 -0.25368599674E+04  0.25368599674E+04  0.50400001928E-02 0. -1.
    10030    2    1    2    0    0  0.00000000000E+00  0.00000000000E+00 -0.12335190306E+04  0.38402009042E+04  0.36366981983E+04 0.  0.
        4    1    3    3  502    0  0.81176338069E+02 -0.17466951521E+04 -0.89987454428E+02  0.17508948876E+04  0.12699999809E+01 0. -1.
       -4    1    3    3    0  502 -0.81176338069E+02  0.17466951521E+04 -0.11435315762E+04  0.20893060166E+04  0.12699999809E+01 0.  1.
</event>
<event>
 5   0  0.1370997E-07  0.3612811E+04  0.7818609E-02  0.8087563E-01
        1   -1    0    0  501    0  0.00000000000E+00  0.00000000000E+00  0.18148401028E+04  0.18148401028E+04  0.50400001928E-02 0.  1.
       -1   -1    0    0    0  501  0.00000000000E+00  0.00000000000E+00 -0.17980100732E+04  0.17980100732E+04  0.50400001928E-02 0. -1.
    10030    2    1    2    0    0  0.00000000000E+00  0.00000000000E+00  0.16830029548E+02  0.36128501760E+04  0.36128109755E+04 0.  0.
        3    1    3    3  502    0  0.70839951559E+02 -0.13995228944E+04 -0.11315175902E+04  0.18011148486E+04  0.10100000352E+00 0. -1.
       -3    1    3    3    0  502 -0.70839951559E+02  0.13995228944E+04  0.11483476198E+04  0.18117353274E+04  0.10100000352E+00 0.  1.
</event>
<event>
 5   0  0.1298250E-07  0.3615778E+04  0.7818609E-02  0.8086887E-01
        1   -1    0    0  501    0  0.00000000000E+00  0.00000000000E+00  0.23436220997E+04  0.23436220997E+04  0.50400001928E-02 0. -1.
       -1   -1    0    0    0  501  0.00000000000E+00  0.00000000000E+00 -0.13946197805E+04  0.13946197805E+04  0.50400001928E-02 0.  1.
    10030    2    1    2    0    0  0.00000000000E+00  0.00000000000E+00  0.94900231924E+03  0.37382418802E+04  0.36157775032E+04 0.  0.
        1    1    3    3  502    0 -0.13282018511E+04 -0.10561611279E+04 -0.17021012140E+03  0.17054524241E+04  0.50400001928E-02 0. -1.
       -1    1    3    3    0  502  0.13282018511E+04  0.10561611279E+04  0.11192124406E+04  0.20327894561E+04  0.50400001928E-02 0.  1.
</event>
<event>
 5   0  0.1361743E-07  0.3589852E+04  0.7818609E-02  0.8092820E-01
        1   -1    0    0  501    0  0.00000000000E+00  0.00000000000E+00  0.36696738017E+04  0.36696738017E+04  0.50400001928E-02 0.  1.
       -1   -1    0    0    0  501  0.00000000000E+00  0.00000000000E+00 -0.87794146233E+03  0.87794146234E+03  0.50400001928E-02 0. -1.
    10030    2    1    2    0    0  0.00000000000E+00  0.00000000000E+00  0.27917323394E+04  0.45476152641E+04  0.35898516871E+04 0.  0.
        5    1    3    3  502    0 -0.54613545569E+03 -0.18431117629E+03  0.35492364759E+04  0.35957386164E+04  0.46999998093E+01 0.  1.
       -5    1    3    3    0  502  0.54613545569E+03  0.18431117629E+03 -0.75750413647E+03  0.95187664770E+03  0.46999998093E+01 0. -1.
</event>
<event>
 5   0  0.4115358E-07  0.3608333E+04  0.7818609E-02  0.8088586E-01
        2   -1    0    0  501    0  0.00000000000E+00  0.00000000000E+00  0.15615339431E+04  0.15615339431E+04  0.25500000920E-02 0.  1.
       -2   -1    0    0    0  501  0.00000000000E+00  0.00000000000E+00 -0.20844999326E+04  0.20844999326E+04  0.25500000920E-02 0. -1.
    10030    2    1    2    0    0  0.00000000000E+00  0.00000000000E+00 -0.52296598955E+03  0.36460338757E+04  0.36083333544E+04 0.  0.
        3    1    3    3  502    0 -0.11972438256E+04 -0.13163446357E+04 -0.56269387094E+03  0.18662208820E+04  0.10100000352E+00 0. -1.
       -3    1    3    3    0  502  0.11972438256E+04  0.13163446357E+04  0.39727881395E+02  0.17798129937E+04  0.10100000352E+00 0.  1.
</event>
<event>
 5   0  0.4120440E-07  0.3613921E+04  0.7818609E-02  0.8087310E-01
        2   -1    0    0  501    0  0.00000000000E+00  0.00000000000E+00  0.17382919034E+04  0.17382919034E+04  0.25500000920E-02 0.  1.
       -2   -1    0    0    0  501  0.00000000000E+00  0.00000000000E+00 -0.18783415130E+04  0.18783415130E+04  0.25500000920E-02 0. -1.
    10030    2    1    2    0    0  0.00000000000E+00  0.00000000000E+00 -0.14004960964E+03  0.36166334164E+04  0.36139207760E+04 0.  0.
        2    1    3    3  502    0  0.13855608851E+04 -0.81621347387E+03 -0.89473222909E+03  0.18402524726E+04  0.25500000920E-02 0. -1.
       -2    1    3    3    0  502 -0.13855608851E+04  0.81621347387E+03  0.75468261945E+03  0.17763809438E+04  0.25500000920E-02 0.  1.
</event>
<event>
 5   0  0.1361743E-07  0.3619370E+04  0.7818609E-02  0.8086069E-01
       -1   -1    0    0    0  501  0.00000000000E+00  0.00000000000E+00  0.12496217062E+04  0.12496217062E+04  0.50400001928E-02 0.  1.
        1   -1    0    0  501    0  0.00000000000E+00  0.00000000000E+00 -0.26207616305E+04  0.26207616305E+04  0.50400001928E-02 0. -1.
    10030    2    1    2    0    0  0.00000000000E+00  0.00000000000E+00 -0.13711399243E+04  0.38703833367E+04  0.36193704536E+04 0.  0.
        5    1    3    3  502    0  0.13686868778E+04  0.11256424483E+04 -0.29329993153E+03  0.17962242707E+04  0.46999998093E+01 0. -1.
       -5    1    3    3    0  502 -0.13686868778E+04 -0.11256424483E+04 -0.10778399928E+04  0.20741590660E+04  0.46999998093E+01 0.  1.
</event>
<event>
 5   0  0.4115358E-07  0.3596657E+04  0.7818609E-02  0.8091258E-01
       -2   -1    0    0    0  501  0.00000000000E+00  0.00000000000E+00  0.15216602583E+04  0.15216602583E+04  0.25500000920E-02 0.  1.
        2   -1    0    0  501    0  0.00000000000E+00  0.00000000000E+00 -0.21253002084E+04  0.21253002084E+04  0.25500000920E-02 0. -1.
    10030    2    1    2    0    0  0.00000000000E+00  0.00000000000E+00 -0.60363995009E+03  0.36469604666E+04  0.35966567053E+04 0.  0.
        3    1    3    3  502    0 -0.22534487462E+01  0.18603003872E+03  0.15118759573E+04  0.15232797425E+04  0.10100000352E+00 0.  1.
       -3    1    3    3    0  502  0.22534487462E+01 -0.18603003872E+03 -0.21155159074E+04  0.21236807241E+04  0.10100000352E+00 0. -1.
</event>
<event>
 5   0  0.3993751E-07  0.3605419E+04  0.7818609E-02  0.8089252E-01
       -2   -1    0    0    0  501  0.00000000000E+00  0.00000000000E+00  0.24730437901E+04  0.24730437901E+04  0.25500000920E-02 0. -1.
        2   -1    0    0  501    0  0.00000000000E+00  0.00000000000E+00 -0.13140735779E+04  0.13140735779E+04  0.25500000920E-02 0.  1.
    10030    2    1    2    0    0  0.00000000000E+00  0.00000000000E+00  0.11589702122E+04  0.37871173680E+04  0.36054189779E+04 0.  0.
        1    1    3    3  502    0 -0.49165947216E+02 -0.85423815289E+03 -0.10871795823E+04  0.13835098685E+04  0.50400001928E-02 0.  1.
       -1    1    3    3    0  502  0.49165947216E+02  0.85423815289E+03  0.22461497945E+04  0.24036074994E+04  0.50400001928E-02 0. -1.
</event>
<event>
 5   0  0.4200635E-07  0.3606157E+04  0.7818609E-02  0.8089083E-01
       -2   -1    0    0    0  501  0.00000000000E+00  0.00000000000E+00  0.18281855076E+04  0.18281855076E+04  0.25500000920E-02 0.  1.
        2   -1    0    0  501    0  0.00000000000E+00  0.00000000000E+00 -0.17783164267E+04  0.17783164267E+04  0.25500000920E-02 0. -1.
    10030    2    1    2    0    0  0.00000000000E+00  0.00000000000E+00  0.49869080842E+02  0.36065019343E+04  0.36061571342E+04 0.  0.
        4    1    3    3  502    0 -0.68017711323E+03 -0.22827453030E+03 -0.16294124096E+04  0.17803754043E+04  0.12699999809E+01 0. -1.
       -4    1    3    3    0  502  0.68017711323E+03  0.22827453030E+03  0.16792814905E+04  0.18261265300E+04  0.12699999809E+01 0.  1.
</event>
<event>
 5   0  0.4120440E-07  0.3699537E+04  0.7818609E-02  0.8068064E-01
       -2   -1    0    0    0  501  0.00000000000E+00  0.00000000000E+00  0.14987629720E+04  0.14987629720E+04  0.25500000920E-02 0.  1.
        2   -1    0    0  501    0  0.00000000000E+00  0.00000000000E+00 -0.22829786809E+04  0.22829786809E+04  0.25500000920E-02 0. -1.
    10030    2    1    2    0    0  0.00000000000E+00  0.00000000000E+00 -0.78421570891E+03  0.37817416530E+04  0.36995372213E+04 0.  0.
        2    1    3    3  502    0 -0.89600212964E+03 -0.46052137452E+03  0.11937323327E+04  0.15620168484E+04  0.25500000920E-02 0.  1.
       -2    1    3    3    0  502  0.89600212964E+03  0.46052137452E+03 -0.19779480416E+04  0.22197248045E+04  0.25500000920E-02 0. -1.
</event>
<event>
 5   0  0.1361743E-07  0.3570280E+04  0.7818609E-02  0.8097333E-01
        1   -1    0    0  501    0  0.00000000000E+00  0.00000000000E+00  0.15248328439E+04  0.15248328439E+04  0.50400001928E-02 0. -1.
       -1   -1    0    0    0  501  0.00000000000E+00  0.00000000000E+00 -0.20898850244E+04  0.20898850244E+04  0.50400001928E-02 0.  1.
    10030    2    1    2    0    0  0.00000000000E+00  0.00000000000E+00 -0.56505218048E+03  0.36147178683E+04  0.35702802832E+04 0.  0.
        5    1    3    3  502    0 -0.12098814112E+04 -0.79339163380E+03  0.77615604703E+03  0.16418658938E+04  0.46999998093E+01 0. -1.
       -5    1    3    3    0  502  0.12098814112E+04  0.79339163380E+03 -0.13412082275E+04  0.19728519745E+04  0.46999998093E+01 0.  1.
</event>
<event>
 5   0  0.4120440E-07  0.3656175E+04  0.7818609E-02  0.8077744E-01
        2   -1    0    0  501    0  0.00000000000E+00  0.00000000000E+00  0.28943681256E+04  0.28943681256E+04  0.25500000920E-02 0. -1.
       -2   -1    0    0    0  501  0.00000000000E+00  0.00000000000E+00 -0.11546230846E+04  0.11546230846E+04  0.25500000920E-02 0.  1.
    10030    2    1    2    0    0  0.00000000000E+00  0.00000000000E+00  0.17397450411E+04  0.40489912102E+04  0.36561751890E+04 0.  0.
        2    1    3    3  502    0  0.84289388923E+03 -0.10199579658E+04  0.22667917300E+04  0.26247150527E+04  0.25500000920E-02 0. -1.
       -2    1    3    3    0  502 -0.84289388923E+03  0.10199579658E+04 -0.52704668897E+03  0.14242761575E+04  0.25500000920E-02 0.  1.
</event>
<event>
 5   0  0.1361743E-07  0.3409244E+04  0.7818609E-02  0.8135641E-01
       -1   -1    0    0    0  501  0.00000000000E+00  0.00000000000E+00  0.10936128681E+04  0.10936128681E+04  0.50400001928E-02 0.  1.
        1   -1    0    0  501    0  0.00000000000E+00  0.00000000000E+00 -0.26570055806E+04  0.26570055806E+04  0.50400001928E-02 0. -1.
    10030    2    1    2    0    0  0.00000000000E+00  0.00000000000E+00 -0.15633927124E+04  0.37506184487E+04  0.34092436074E+04 0.  0.
        5    1    3    3  502    0 -0.40750551663E+01 -0.64257648445E+03  0.95525595305E+03  0.11512850083E+04  0.46999998093E+01 0.  1.
       -5    1    3    3    0  502  0.40750551663E+01  0.64257648445E+03 -0.25186486655E+04  0.25993334404E+04  0.46999998093E+01 0. -1.
</event>
<event>
 5   0  0.1348226E-07  0.3592506E+04  0.7818609E-02  0.8092210E-01
       -1   -1    0    0    0  501  0.00000000000E+00  0.00000000000E+00  0.12715307924E+04  0.12715307924E+04  0.50400001928E-02 0. -1.
        1   -1    0    0  501    0  0.00000000000E+00  0.00000000000E+00 -0.25375125924E+04  0.25375125924E+04  0.50400001928E-02 0.  1.
    10030    2    1    2    0    0  0.00000000000E+00  0.00000000000E+00 -0.12659818000E+04  0.38090433849E+04  0.35925063103E+04 0.  0.
        4    1    3    3  502    0 -0.90517281952E+03  0.13318796072E+04  0.21076569249E+03  0.16240889481E+04  0.12699999809E+01 0. -1.
       -4    1    3    3    0  502  0.90517281952E+03 -0.13318796072E+04 -0.14767474925E+04  0.21849544368E+04  0.12699999809E+01 0.  1.
</event>
<event>
 5   0  0.1298250E-07  0.3607296E+04  0.7818609E-02  0.8088823E-01
       -1   -1    0    0    0  501  0.00000000000E+00  0.00000000000E+00  0.26949607093E+04  0.26949607093E+04  0.50400001928E-02 0.  1.
        1   -1    0    0  501    0  0.00000000000E+00  0.00000000000E+00 -0.12071216337E+04  0.12071216337E+04  0.50400001928E-02 0. -1.
    10030    2    1    2    0    0  0.00000000000E+00  0.00000000000E+00  0.14878390757E+04  0.39020823430E+04  0.36072955932E+04 0.  0.
        2    1    3    3  502    0 -0.10270176364E+04 -0.77279032550E+03 -0.62486198587E+03  0.14291335186E+04  0.25500000920E-02 0. -1.
       -2    1    3    3    0  502  0.10270176364E+04  0.77279032550E+03  0.21127010615E+04  0.24729488244E+04  0.25500000920E-02 0.  1.
</event>
<event>
 5   0  0.1348226E-07  0.3591938E+04  0.7818609E-02  0.8092341E-01
        1   -1    0    0  501    0  0.00000000000E+00  0.00000000000E+00  0.30448022765E+04  0.30448022765E+04  0.50400001928E-02 0.  1.
       -1   -1    0    0    0  501  0.00000000000E+00  0.00000000000E+00 -0.10593479298E+04  0.10593479298E+04  0.50400001928E-02 0. -1.
    10030    2    1    2    0    0  0.00000000000E+00  0.00000000000E+00  0.19854543467E+04  0.41041502063E+04  0.35919381890E+04 0.  0.
        4    1    3    3  502    0 -0.48089965891E+03 -0.16962178078E+04  0.60175734314E+03  0.18629366190E+04  0.12699999809E+01 0.  1.
       -4    1    3    3    0  502  0.48089965891E+03  0.16962178078E+04  0.13836970036E+04  0.22412135873E+04  0.12699999809E+01 0. -1.
</event>
<event>
 5   0  0.3993751E-07  0.3602494E+04  0.7818609E-02  0.8089921E-01
        2   -1    0    0  501    0  0.00000000000E+00  0.00000000000E+00  0.14597893047E+04  0.14597893047E+04  0.25500000920E-02 0.  1.
       -2   -1    0    0    0  501  0.00000000000E+00  0.00000000000E+00 -0.22225744078E+04  0.22225744078E+04  0.25500000920E-02 0. -1.
    10030    2    1    2    0    0  0.00000000000E+00  0.00000000000E+00 -0.76278510311E+03  0.36823637125E+04  0.36024937748E+04 0.  0.
        1    1    3    3  502    0  0.16402542578E+03 -0.17775205754E+04 -0.62757789684E+03  0.18921780447E+04  0.50400001928E-02 0. -1.
       -1    1    3    3    0  502 -0.16402542578E+03  0.17775205754E+04 -0.13520720627E+03  0.17901856678E+04  0.50400001928E-02 0.  1.
</event>
<event>
 5   0  0.4200635E-07  0.3592246E+04  0.7818609E-02  0.8092270E-01
       -2   -1    0    0    0  501  0.00000000000E+00  0.00000000000E+00  0.18096020448E+04  0.18096020448E+04  0.25500000920E-02 0.  1.
        2   -1    0    0  501    0  0.00000000000E+00  0.00000000000E+00 -0.17827445276E+04  0.17827445276E+04  0.25500000920E-02 0. -1.
    10030    2    1    2    0    0  0.00000000000E+00  0.00000000000E+00  0.26857517167E+02  0.35923465723E+04  0.35922461733E+04 0.  0.
        4    1    3    3  502    0 -0.74046412195E+03 -0.63129267942E+03  0.15231858160E+04  0.18074607066E+04  0.12699999809E+01 0.  1.
       -4    1    3    3    0  502  0.74046412195E+03  0.63129267942E+03 -0.14963282988E+04  0.17848858657E+04  0.12699999809E+01 0. -1.
</event>
<event>
 5   0  0.1370997E-07  0.3564804E+04  0.7818609E-02  0.8098602E-01
        1   -1    0    0  501    0  0.00000000000E+00  0.00000000000E+00  0.15291730745E+04  0.15291730745E+04  0.50400001928E-02 0.  1.
       -1   -1    0    0    0  501  0.00000000000E+00  0.00000000000E+00 -0.20775647198E+04  0.20775647198E+04  0.50400001928E-02 0. -1.
    10030    2    1    2    0    0  0.00000000000E+00  0.00000000000E+00 -0.54839164528E+03  0.36067377942E+04  0.35648035177E+04 0.  0.
        3    1    3    3  502    0  0.16969666403E+04 -0.54438020949E+03 -0.30472408128E+03  0.18080106102E+04  0.10100000352E+00 0. -1.
       -3    1    3    3    0  502 -0.16969666403E+04  0.54438020949E+03 -0.24366756400E+03  0.17987271840E+04  0.10100000352E+00 0.  1.
</event>
<event>
 5   0  0.4115358E-07  0.3611288E+04  0.7818609E-02  0.8087911E-01
       -2   -1    0    0    0  501  0.00000000000E+00  0.00000000000E+00  0.14163564762E+04  0.14163564762E+04  0.25500000920E-02 0. -1.
        2   -1    0    0  501    0  0.00000000000E+00  0.00000000000E+00 -0.23019280023E+04  0.23019280023E+04  0.25500000920E-02 0.  1.
    10030    2    1    2    0    0  0.00000000000E+00  0.00000000000E+00 -0.88557152608E+03  0.37182844786E+04  0.36112882100E+04 0.  0.
        3    1    3    3  502    0 -0.72417029016E+03 -0.73578451040E+03  0.10825066903E+04  0.14958683765E+04  0.10100000352E+00 0. -1.
       -3    1    3    3    0  502  0.72417029016E+03  0.73578451040E+03 -0.19680782164E+04  0.22224161021E+04  0.10100000352E+00 0.  1.
</event>
<event>
 5   0  0.1370997E-07  0.3616301E+04  0.7818609E-02  0.8086768E-01
        1   -1    0    0  501    0  0.00000000000E+00  0.00000000000E+00  0.18239802622E+04  0.18239802622E+04  0.50400001928E-02 0.  1.
       -1   -1    0    0    0  501  0.00000000000E+00  0.00000000000E+00 -0.17924585842E+04  0.17924585842E+04  0.50400001928E-02 0. -1.
    10030    2    1    2    0    0  0.00000000000E+00  0.00000000000E+00  0.31521678013E+02  0.36164388465E+04  0.36163014689E+04 0.  0.
        3    1    3    3  502    0  0.11662402915E+04  0.51209540345E+03  0.12991844201E+04  0.18194060260E+04  0.10100000352E+00 0.  1.
       -3    1    3    3    0  502 -0.11662402915E+04 -0.51209540345E+03 -0.12676627421E+04  0.17970328204E+04  0.10100000352E+00 0. -1.
</event>
<event>
 5   0  0.1298250E-07  0.3558607E+04  0.7818609E-02  0.8100040E-01
       -1   -1    0    0    0  501  0.00000000000E+00  0.00000000000E+00  0.13757454429E+04  0.13757454429E+04  0.50400001928E-02 0. -1.
        1   -1    0    0  501    0  0.00000000000E+00  0.00000000000E+00 -0.23012408712E+04  0.23012408712E+04  0.50400001928E-02 0.  1.
    10030    2    1    2    0    0  0.00000000000E+00  0.00000000000E+00 -0.92549542832E+03  0.36769863142E+04  0.35586073915E+04 0.  0.
        2    1    3    3  502    0  0.44940057429E+03  0.41866797997E+03  0.12627369889E+04  0.14041896085E+04  0.25500000920E-02 0. -1.
       -2    1    3    3    0  502 -0.44940057429E+03 -0.41866797997E+03 -0.21882324172E+04  0.22727967057E+04  0.25500000920E-02 0.  1.
</event>
<event>
 5   0  0.4120440E-07  0.3597268E+04  0.7818609E-02  0.8091118E-01
        2   -1    0    0  501    0  0.00000000000E+00  0.00000000000E+00  0.17284812356E+04  0.17284812356E+04  0.25500000920E-02 0.  1.
       -2   -1    0    0    0  501  0.00000000000E+00  0.00000000000E+00 -0.18716339581E+04  0.18716339581E+04  0.25500000920E-02 0. -1.
    10030    2    1    2    0    0  0.00000000000E+00  0.00000000000E+00 -0.14315272247E+03  0.36001151937E+04  0.35972679503E+04 0.  0.
        2    1    3    3  502    0  0.37613115982E+03  0.93275995582E+03  0.14207673328E+04  0.17407169783E+04  0.25500000920E-02 0.  1.
       -2    1    3    3    0  502 -0.37613115982E+03 -0.93275995582E+03 -0.15639200552E+04  0.18593982155E+04  0.25500000920E-02 0. -1.
</event>
<event>
 5   0  0.1298250E-07  0.3732372E+04  0.7818609E-02  0.8060825E-01
       -3   -1    0    0    0  501  0.00000000000E+00  0.00000000000E+00  0.22848778466E+04  0.22848778489E+04  0.10100000352E+00 0. -1.
        3   -1    0    0  501    0  0.00000000000E+00  0.00000000000E+00 -0.15242173816E+04  0.15242173850E+04  0.10100000352E+00 0.  1.
    10030    2    1    2    0    0  0.00000000000E+00  0.00000000000E+00  0.76066046501E+03  0.38090952338E+04  0.37323721890E+04 0.  0.
        3    1    3    3  502    0  0.82890793306E+02 -0.70845828606E+03  0.21402692544E+04  0.22560001148E+04  0.10100000352E+00 0. -1.
       -3    1    3    3    0  502 -0.82890793306E+02  0.70845828606E+03 -0.13796087894E+04  0.15530951190E+04  0.10100000352E+00 0.  1.
</event>
<event>
 5   0  0.1298250E-07  0.3436809E+04  0.7818609E-02  0.8128931E-01
        1   -1    0    0  501    0  0.00000000000E+00  0.00000000000E+00  0.21393653121E+04  0.21393653121E+04  0.50400001928E-02 0.  1.
       -1   -1    0    0    0  501  0.00000000000E+00  0.00000000000E+00 -0.13802756584E+04  0.13802756585E+04  0.50400001928E-02 0. -1.
    10030    2    1    2    0    0  0.00000000000E+00  0.00000000000E+00  0.75908965364E+03  0.35196409705E+04  0.34368089064E+04 0.  0.
        1    1    3    3  502    0  0.37859574202E+03  0.28591193756E+03  0.20709665658E+04  0.21246135857E+04  0.50400001928E-02 0.  1.
       -1    1    3    3    0  502 -0.37859574202E+03 -0.28591193756E+03 -0.13118769121E+04  0.13950273849E+04  0.50400001928E-02 0. -1.
</event>
<event>
 5   0  0.4200635E-07  0.3608076E+04  0.7818609E-02  0.8088644E-01
        2   -1    0    0  501    0  0.00000000000E+00  0.00000000000E+00  0.17293232581E+04  0.17293232581E+04  0.25500000920E-02 0. -1.
       -2   -1    0    0    0  501  0.00000000000E+00  0.00000000000E+00 -0.18819808728E+04  0.18819808728E+04  0.25500000920E-02 0.  1.
    10030    2    1    2    0    0  0.00000000000E+00  0.00000000000E+00 -0.15265761468E+03  0.36113041309E+04  0.36080761049E+04 0.  0.
        4    1    3    3  502    0  0.12734998597E+04  0.11582458679E+04  0.46379859875E+03  0.17828197150E+04  0.12699999809E+01 0.  1.
       -4    1    3    3    0  502 -0.12734998597E+04 -0.11582458679E+04 -0.61645621343E+03  0.18284844159E+04  0.12699999809E+01 0. -1.
</event>
<event>
 5   0  0.1298250E-07  0.3552422E+04  0.7818609E-02  0.8101478E-01
        1   -1    0    0  501    0  0.00000000000E+00  0.00000000000E+00  0.20746991319E+04  0.20746991319E+04  0.50400001928E-02 0. -1.
       -1   -1    0    0    0  501  0.00000000000E+00  0.00000000000E+00 -0.15206668619E+04  0.15206668619E+04  0.50400001928E-02 0.  1.
    10030    2    1    2    0    0  0.00000000000E+00  0.00000000000E+00  0.55403226996E+03  0.35953659938E+04  0.35524223951E+04 0.  0.
        1    1    3    3  502    0  0.13315715952E+04  0.98499867998E+03 -0.37231648234E+03  0.16976233021E+04  0.50400001928E-02 0.  1.
       -1    1    3    3    0  502 -0.13315715952E+04 -0.98499867998E+03  0.92634875230E+03  0.18977426917E+04  0.50400001928E-02 0. -1.
</event>
<event>
 5   0  0.4200635E-07  0.3678501E+04  0.7818609E-02  0.8072743E-01
       -2   -1    0    0    0  501  0.00000000000E+00  0.00000000000E+00  0.13984911550E+04  0.13984911550E+04  0.25500000920E-02 0. -1.
        2   -1    0    0  501    0  0.00000000000E+00  0.00000000000E+00 -0.24189224448E+04  0.24189224448E+04  0.25500000920E-02 0.  1.
    10030    2    1    2    0    0  0.00000000000E+00  0.00000000000E+00 -0.10204312898E+04  0.38174135998E+04  0.36785005879E+04 0.  0.
        4    1    3    3  502    0  0.18217850088E+04 -0.22662602325E+03 -0.62661208912E+03  0.19398206865E+04  0.12699999809E+01 0.  1.
       -4    1    3    3    0  502 -0.18217850088E+04  0.22662602325E+03 -0.39381920065E+03  0.18775929133E+04  0.12699999809E+01 0. -1.
</event>
<event>
 5   0  0.3880259E-07  0.3629444E+04  0.7818609E-02  0.8083780E-01
       -2   -1    0    0    0  501  0.00000000000E+00  0.00000000000E+00  0.15556243929E+04  0.15556243929E+04  0.25500000920E-02 0. -1.
        2   -1    0    0  501    0  0.00000000000E+00  0.00000000000E+00 -0.21169733491E+04  0.21169733491E+04  0.25500000920E-02 0.  1.
    10030    2    1    2    0    0  0.00000000000E+00  0.00000000000E+00 -0.56134895617E+03  0.36725977420E+04  0.36294436934E+04 0.  0.
        5    1    3    3  502    0 -0.52999198791E+03  0.15442995557E+04  0.52085524354E+03  0.17137867136E+04  0.46999998093E+01 0. -1.
       -5    1    3    3    0  502  0.52999198791E+03 -0.15442995557E+04 -0.10822041997E+04  0.19588110284E+04  0.46999998093E+01 0.  1.
</event>
<event>
 5   0  0.1348226E-07  0.3638535E+04  0.7818609E-02  0.8081721E-01
        1   -1    0    0  501    0  0.00000000000E+00  0.00000000000E+00  0.13924225602E+04  0.13924225602E+04  0.50400001928E-02 0.  1.
       -1   -1    0    0    0  501  0.00000000000E+00  0.00000000000E+00 -0.23769614414E+04  0.23769614414E+04  0.50400001928E-02 0. -1.
    10030    2    1    2    0    0  0.00000000000E+00  0.00000000000E+00 -0.98453888119E+03  0.37693840017E+04  0.36385352745E+04 0.  0.
        4    1    3    3  502    0  0.50573625912E+03 -0.16938123589E+04 -0.93780973655E+03  0.20010642633E+04  0.12699999809E+01 0. -1.
       -4    1    3    3    0  502 -0.50573625912E+03  0.16938123589E+04 -0.46729144640E+02  0.17683197383E+04  0.12699999809E+01 0.  1.
</event>
<event>
 5   0  0.3880259E-07  0.3592901E+04  0.7818609E-02  0.8092120E-01
        2   -1    0    0  501    0  0.00000000000E+00  0.00000000000E+00  0.21964692637E+04  0.21964692637E+04  0.25500000920E-02 0.  1.
       -2   -1    0    0    0  501  0.00000000000E+00  0.00000000000E+00 -0.14692827016E+04  0.14692827016E+04  0.25500000920E-02 0. -1.
    10030    2    1    2    0    0  0.00000000000E+00  0.00000000000E+00  0.72718656207E+03  0.36657519653E+04  0.35929009415E+04 0.  0.
        5    1    3    3  502    0 -0.11807811139E+04  0.89913249774E+03 -0.66912042916E+03  0.16280133680E+04  0.46999998093E+01 0. -1.
       -5    1    3    3    0  502  0.11807811139E+04 -0.89913249774E+03  0.13963069912E+04  0.20377385974E+04  0.46999998093E+01 0.  1.
</event>
<event>
 5   0  0.1298250E-07  0.3605323E+04  0.7818609E-02  0.8089274E-01
       -1   -1    0    0    0  501  0.00000000000E+00  0.00000000000E+00  0.13483769870E+04  0.13483769870E+04  0.50400001928E-02 0. -1.
        1   -1    0    0  501    0  0.00000000000E+00  0.00000000000E+00 -0.24099995195E+04  0.24099995196E+04  0.50400001928E-02 0.  1.
    10030    2    1    2    0    0  0.00000000000E+00  0.00000000000E+00 -0.10616225326E+04  0.37583765066E+04  0.36053226712E+04 0.  0.
        2    1    3    3  502    0  0.59818752696E+03 -0.12992808630E+04  0.61286322020E+03  0.15561363710E+04  0.25500000920E-02 0. -1.
       -2    1    3    3    0  502 -0.59818752696E+03  0.12992808630E+04 -0.16744857528E+04  0.22022401356E+04  0.25500000920E-02 0.  1.
</event>
<event>
 5   0  0.4120440E-07  0.3596796E+04  0.7818609E-02  0.8091226E-01
        2   -1    0    0  501    0  0.00000000000E+00  0.00000000000E+00  0.14478574855E+04  0.14478574855E+04  0.25500000920E-02 0.  1.
       -2   -1    0    0    0  501  0.00000000000E+00  0.00000000000E+00 -0.22338073392E+04  0.22338073392E+04  0.25500000920E-02 0. -1.
    10030    2    1    2    0    0  0.00000000000E+00  0.00000000000E+00 -0.78594985368E+03  0.36816648246E+04  0.35967956167E+04 0.  0.
        2    1    3    3  502    0  0.17655549751E+04  0.15868553997E+03 -0.82723726790E+02  0.17746009934E+04  0.25500000920E-02 0.  1.
       -2    1    3    3    0  502 -0.17655549751E+04 -0.15868553997E+03 -0.70322612689E+03  0.19070638312E+04  0.25500000920E-02 0. -1.
</event>
<event>
 5   0  0.1361743E-07  0.3599647E+04  0.7818609E-02  0.8090573E-01
       -1   -1    0    0    0  501  0.00000000000E+00  0.00000000000E+00  0.23710670810E+04  0.23710670810E+04  0.50400001928E-02 0. -1.
        1   -1    0    0  501    0  0.00000000000E+00  0.00000000000E+00 -0.13662052520E+04  0.13662052521E+04  0.50400001928E-02 0.  1.
    10030    2    1    2    0    0  0.00000000000E+00  0.00000000000E+00  0.10048618289E+04  0.37372723330E+04  0.35996468155E+04 0.  0.
        5    1    3    3  502    0 -0.15211276693E+04  0.95163555489E+03  0.64890125392E+03  0.19080184861E+04  0.46999998093E+01 0. -1.
       -5    1    3    3    0  502  0.15211276693E+04 -0.95163555489E+03  0.35596057502E+03  0.18292538470E+04  0.46999998093E+01 0.  1.
</event>
</LesHouchesEvents>
