<LesHouchesEvents version="3.0">
<header>
<!--
#*********************************************************************
#                                                                    *
#                        MadGraph5_aMC@NLO                           *
#                                                                    *
#                           Going Beyond                             *
#                                                                    *
#                   http://madgraph.hep.uiuc.edu                     *
#                   http://madgraph.phys.ucl.ac.be                   *
#                   http://amcatnlo.cern.ch                          *
#                                                                    *
#                     The MadGraph5_aMC@NLO team                     *
#                                                                    *
#....................................................................*
#                                                                    *
# This file contains all the information necessary to reproduce      *
# the events generated:                                              *
#                                                                    *
# 1. software version                                                *
# 2. proc_card          : code generation info including model       *
# 3. param_card         : model primary parameters in the LH format  *
# 4. run_card           : running parameters (collider and cuts)     *
# 5. pythia_card        : present only if pythia has been run        *
# 6. pgs_card           : present only if pgs has been run           *
# 7. delphes_cards      : present only if delphes has been run       *
#                                                                    *
#                                                                    *
#*********************************************************************
-->
<MGVersion>
#5.2.2.3
</MGVersion>
<MG5ProcCard>
#************************************************************
#*                     MadGraph5_aMC@NLO                    *
#*                                                          *
#*                *                       *                 *
#*                  *        * *        *                   *
#*                    * * * * 5 * * * *                     *
#*                  *        * *        *                   *
#*                *                       *                 *
#*                                                          *
#*                                                          *
#*         VERSION 2.2.3                 2015-02-10         *
#*                                                          *
#*    The MadGraph5_aMC@NLO Development Team - Find us at   *
#*    https://server06.fynu.ucl.ac.be/projects/madgraph     *
#*                                                          *
#************************************************************
#*                                                          *
#*               Command File for MadGraph5_aMC@NLO         *
#*                                                          *
#*     run as ./bin/mg5_aMC  filename                       *
#*                                                          *
#************************************************************
set group_subprocesses Auto
set ignore_six_quark_processes False
set loop_optimized_output True
set gauge unitary
set complex_mass_scheme False
import model sm
define p = g u c d s u~ c~ d~ s~
define j = g u c d s u~ c~ d~ s~
define l+ = e+ mu+
define l- = e- mu-
define vl = ve vm vt
define vl~ = ve~ vm~ vt~
import model Zprime_UFO
generate p p > zph, zph > j j
add process p p > zph, zph > b b~
output Dijet_signal
</MG5ProcCard>
<MGProcCard>
#*********************************************************************
#                        MadGraph/MadEvent                           *
#                   http://madgraph.hep.uiuc.edu                     *
#                                                                    *
#                          proc_card.dat                             *
#*********************************************************************
#                                                                    *
#            This Files is generated by MADGRAPH 5                   *
#                                                                    *
# WARNING: This Files is generated for MADEVENT (compatibility issue)*
#          This files is NOT a valid MG4 proc_card.dat               *
#          Running this in MG4 will NEVER reproduce the result of MG5*
#                                                                    *
#*********************************************************************
#*********************************************************************
# Process(es) requested : mg2 input                                  *
#*********************************************************************
# Begin PROCESS # This is TAG. Do not modify this line
p p > zph , zph > j j           #Process
# Be carefull the coupling are here in MG5 convention
          
end_coup           # End the couplings input

done               # this tells MG there are no more procs
# End PROCESS  # This is TAG. Do not modify this line
#*********************************************************************
# Model information                                                  *
#*********************************************************************
# Begin MODEL  # This is TAG. Do not modify this line
Zprime_UFO
# End   MODEL  # This is TAG. Do not modify this line
#*********************************************************************
# Start multiparticle definitions                                    *
#*********************************************************************
# Begin MULTIPARTICLES # This is TAG. Do not modify this line

# End  MULTIPARTICLES # This is TAG. Do not modify this line
</MGProcCard>
<MGRunCard>
#*********************************************************************
#                       MadGraph5_aMC@NLO                            *
#                                                                    *
#                     run_card.dat MadEvent                          *
#                                                                    *
#  This file is used to set the parameters of the run.               *
#                                                                    *
#  Some notation/conventions:                                        *
#                                                                    *
#   Lines starting with a '# ' are info or comments                  *
#                                                                    *
#   mind the format:   value    = variable     ! comment             *
#*********************************************************************
#
#*******************                                                 
# Running parameters
#*******************                                                 
#                                                                    
#*********************************************************************
# Tag name for the run (one word)                                    *
#*********************************************************************
  tag_1     = run_tag ! name of the run 
#*********************************************************************
# Run to generate the grid pack                                      *
#*********************************************************************
  .false.     = gridpack  !True = setting up the grid pack
#*********************************************************************
# Number of events and rnd seed                                      *
# Warning: Do not generate more than 1M events in a single run       *
# If you want to run Pythia, avoid more than 50k events in a run.    *
#*********************************************************************
  2000 = nevents ! Number of unweighted events requested 
 2109 = iseed   ! rnd seed (0=assigned automatically=default))
#*********************************************************************
# Collider type and energy                                           *
# lpp: 0=No PDF, 1=proton, -1=antiproton, 2=photon from proton,      *
#                                         3=photon from electron     *
#*********************************************************************
        1     = lpp1    ! beam 1 type 
        1     = lpp2    ! beam 2 type
     4000     = ebeam1  ! beam 1 total energy in GeV
     4000     = ebeam2  ! beam 2 total energy in GeV
#*********************************************************************
# Beam polarization from -100 (left-handed) to 100 (right-handed)    *
#*********************************************************************
        0     = polbeam1 ! beam polarization for beam 1
        0     = polbeam2 ! beam polarization for beam 2
#*********************************************************************
# PDF CHOICE: this automatically fixes also alpha_s and its evol.    *
#*********************************************************************
 'nn23lo1'    = pdlabel     ! PDF set                                     
 230000    = lhaid     ! if pdlabel=lhapdf, this is the lhapdf number
#*********************************************************************
# Renormalization and factorization scales                           *
#*********************************************************************
 F        = fixed_ren_scale  ! if .true. use fixed ren scale
 F        = fixed_fac_scale  ! if .true. use fixed fac scale
 91.1880  = scale            ! fixed ren scale
 91.1880  = dsqrt_q2fact1    ! fixed fact scale for pdf1
 91.1880  = dsqrt_q2fact2    ! fixed fact scale for pdf2
 1        = scalefact        ! scale factor for event-by-event scales
#*********************************************************************
# Matching - Warning! ickkw > 1 is still beta
#*********************************************************************
 0        = ickkw            ! 0 no matching, 1 MLM, 2 CKKW matching
 1        = highestmult      ! for ickkw=2, highest mult group
 1        = ktscheme         ! for ickkw=1, 1 Durham kT, 2 Pythia pTE
 1        = alpsfact         ! scale factor for QCD emission vx
 F        = chcluster        ! cluster only according to channel diag
 T        = pdfwgt           ! for ickkw=1, perform pdf reweighting
 5        = asrwgtflavor     ! highest quark flavor for a_s reweight
 T        = clusinfo         ! include clustering tag in output
 3.0      = lhe_version       ! Change the way clustering information pass to shower.        
#*********************************************************************
#**********************************************************
#
#**********************************************************
# Automatic ptj and mjj cuts if xqcut > 0
# (turn off for VBF and single top processes)
#**********************************************************
   T  = auto_ptj_mjj  ! Automatic setting of ptj and mjj
#**********************************************************
#                                                                    
#**********************************
# BW cutoff (M+/-bwcutoff*Gamma)
#**********************************
  15  = bwcutoff      ! (M+/-bwcutoff*Gamma)
#**********************************************************
# Apply pt/E/eta/dr/mij cuts on decay products or not
# (note that etmiss/ptll/ptheavy/ht/sorted cuts always apply)
#**********************************************************
   T  = cut_decays    ! Cut decay products 
#*************************************************************
# Number of helicities to sum per event (0 = all helicities)
# 0 gives more stable result, but longer run time (needed for
# long decay chains e.g.).
# Use >=2 if most helicities contribute, e.g. pure QCD.
#*************************************************************
   0  = nhel          ! Number of helicities used per event
#*******************                                                 
# Standard Cuts
#*******************                                                 
#                                                                    
#*********************************************************************
# Minimum and maximum pt's (for max, -1 means no cut)                *
#*********************************************************************
 20  = ptj       ! minimum pt for the jets 
  0  = ptb       ! minimum pt for the b 
 10  = pta       ! minimum pt for the photons 
 10  = ptl       ! minimum pt for the charged leptons 
  0  = misset    ! minimum missing Et (sum of neutrino's momenta)
  0  = ptheavy   ! minimum pt for one heavy final state
 1.0 = ptonium   ! minimum pt for the quarkonium states
 -1  = ptjmax    ! maximum pt for the jets
 -1  = ptbmax    ! maximum pt for the b
 -1  = ptamax    ! maximum pt for the photons
 -1  = ptlmax    ! maximum pt for the charged leptons
 -1  = missetmax ! maximum missing Et (sum of neutrino's momenta)
#*********************************************************************
# Minimum and maximum E's (in the center of mass frame)              *
#*********************************************************************
  0  = ej     ! minimum E for the jets 
  0  = eb     ! minimum E for the b 
  0  = ea     ! minimum E for the photons 
  0  = el     ! minimum E for the charged leptons 
 -1   = ejmax ! maximum E for the jets
 -1   = ebmax ! maximum E for the b
 -1   = eamax ! maximum E for the photons
 -1   = elmax ! maximum E for the charged leptons
#*********************************************************************
# Maximum and minimum absolute rapidity (for max, -1 means no cut)   *
#*********************************************************************
   5  = etaj    ! max rap for the jets 
  -1  = etab    ! max rap for the b
 2.5  = etaa    ! max rap for the photons 
 2.5  = etal    ! max rap for the charged leptons 
 0.6  = etaonium ! max rap for the quarkonium states
   0  = etajmin ! min rap for the jets
   0  = etabmin ! min rap for the b
   0  = etaamin ! min rap for the photons
   0  = etalmin ! main rap for the charged leptons
#*********************************************************************
# Minimum and maximum DeltaR distance                                *
#*********************************************************************
 0.4 = drjj    ! min distance between jets 
 0   = drbb    ! min distance between b's 
 0.4 = drll    ! min distance between leptons 
 0.4 = draa    ! min distance between gammas 
 0   = drbj    ! min distance between b and jet 
 0.4 = draj    ! min distance between gamma and jet 
 0.4 = drjl    ! min distance between jet and lepton 
 0   = drab    ! min distance between gamma and b 
 0   = drbl    ! min distance between b and lepton 
 0.4 = dral    ! min distance between gamma and lepton 
 -1  = drjjmax ! max distance between jets
 -1  = drbbmax ! max distance between b's
 -1  = drllmax ! max distance between leptons
 -1  = draamax ! max distance between gammas
 -1  = drbjmax ! max distance between b and jet
 -1  = drajmax ! max distance between gamma and jet
 -1  = drjlmax ! max distance between jet and lepton
 -1  = drabmax ! max distance between gamma and b
 -1  = drblmax ! max distance between b and lepton
 -1  = dralmax ! maxdistance between gamma and lepton
#*********************************************************************
# Minimum and maximum invariant mass for pairs                       *
# WARNING: for four lepton final state mmll cut require to have      *
#          different lepton masses for each flavor!                  *           
#*********************************************************************
 0   = mmjj    ! min invariant mass of a jet pair 
 0   = mmbb    ! min invariant mass of a b pair 
 0   = mmaa    ! min invariant mass of gamma gamma pair
 0   = mmll    ! min invariant mass of l+l- (same flavour) lepton pair
 -1  = mmjjmax ! max invariant mass of a jet pair
 -1  = mmbbmax ! max invariant mass of a b pair
 -1  = mmaamax ! max invariant mass of gamma gamma pair
 -1  = mmllmax ! max invariant mass of l+l- (same flavour) lepton pair
#*********************************************************************
# Minimum and maximum invariant mass for all letpons                 *
#*********************************************************************
 0   = mmnl    ! min invariant mass for all letpons (l+- and vl) 
 -1  = mmnlmax ! max invariant mass for all letpons (l+- and vl) 
#*********************************************************************
# Minimum and maximum pt for 4-momenta sum of leptons                *
#*********************************************************************
 0   = ptllmin  ! Minimum pt for 4-momenta sum of leptons(l and vl)
 -1  = ptllmax  ! Maximum pt for 4-momenta sum of leptons(l and vl)
#*********************************************************************
# Inclusive cuts                                                     *
#*********************************************************************
 0  = xptj ! minimum pt for at least one jet  
 0  = xptb ! minimum pt for at least one b 
 0  = xpta ! minimum pt for at least one photon 
 0  = xptl ! minimum pt for at least one charged lepton 
#*********************************************************************
# Control the pt's of the jets sorted by pt                          *
#*********************************************************************
 0   = ptj1min ! minimum pt for the leading jet in pt
 0   = ptj2min ! minimum pt for the second jet in pt
 0   = ptj3min ! minimum pt for the third jet in pt
 0   = ptj4min ! minimum pt for the fourth jet in pt
 -1  = ptj1max ! maximum pt for the leading jet in pt 
 -1  = ptj2max ! maximum pt for the second jet in pt
 -1  = ptj3max ! maximum pt for the third jet in pt
 -1  = ptj4max ! maximum pt for the fourth jet in pt
 0   = cutuse  ! reject event if fails any (0) / all (1) jet pt cuts
#*********************************************************************
# Control the pt's of leptons sorted by pt                           *
#*********************************************************************
 0   = ptl1min ! minimum pt for the leading lepton in pt
 0   = ptl2min ! minimum pt for the second lepton in pt
 0   = ptl3min ! minimum pt for the third lepton in pt
 0   = ptl4min ! minimum pt for the fourth lepton in pt
 -1  = ptl1max ! maximum pt for the leading lepton in pt 
 -1  = ptl2max ! maximum pt for the second lepton in pt
 -1  = ptl3max ! maximum pt for the third lepton in pt
 -1  = ptl4max ! maximum pt for the fourth lepton in pt
#*********************************************************************
# Control the Ht(k)=Sum of k leading jets                            *
#*********************************************************************
 0   = htjmin ! minimum jet HT=Sum(jet pt)
 -1  = htjmax ! maximum jet HT=Sum(jet pt)
 0   = ihtmin  !inclusive Ht for all partons (including b)
 -1  = ihtmax  !inclusive Ht for all partons (including b)
 0   = ht2min ! minimum Ht for the two leading jets
 0   = ht3min ! minimum Ht for the three leading jets
 0   = ht4min ! minimum Ht for the four leading jets
 -1  = ht2max ! maximum Ht for the two leading jets
 -1  = ht3max ! maximum Ht for the three leading jets
 -1  = ht4max ! maximum Ht for the four leading jets
#***********************************************************************
# Photon-isolation cuts, according to hep-ph/9801442                   *
# When ptgmin=0, all the other parameters are ignored                  *
# When ptgmin>0, pta and draj are not going to be used                 *
#***********************************************************************
   0 = ptgmin ! Min photon transverse momentum
 0.4 = R0gamma ! Radius of isolation code
 1.0 = xn ! n parameter of eq.(3.4) in hep-ph/9801442
 1.0 = epsgamma ! epsilon_gamma parameter of eq.(3.4) in hep-ph/9801442
 .true. = isoEM ! isolate photons from EM energy (photons and leptons)
#*********************************************************************
# WBF cuts                                                           *
#*********************************************************************
 0   = xetamin ! minimum rapidity for two jets in the WBF case  
 0   = deltaeta ! minimum rapidity for two jets in the WBF case 
#*********************************************************************
# KT DURHAM CUT                                                      *
#*********************************************************************
 -1    =  ktdurham        
 0.4  =  dparameter 
#*********************************************************************
# maximal pdg code for quark to be considered as a light jet         *
# (otherwise b cuts are applied)                                     *
#*********************************************************************
 4 = maxjetflavor    ! Maximum jet pdg code
#*********************************************************************
# Jet measure cuts                                                   *
#*********************************************************************
 0   = xqcut   ! minimum kt jet measure between partons
#*********************************************************************
#
#*********************************************************************
# Store info for systematics studies                                 *
# WARNING: If use_syst is T, matched Pythia output is                *
#          meaningful ONLY if plotted taking matchscale              *
#          reweighting into account!                                 *
#*********************************************************************
   F  = use_syst      ! Enable systematics studies
#
#**************************************
# Parameter of the systematics study
#  will be used by SysCalc (if installed)
#**************************************                                  
#
0.5 1 2 = sys_scalefact  # factorization/renormalization scale factor
0.5 1 2 = sys_alpsfact  # \alpha_s emission scale factors
30 50 = sys_matchscale # variation of merging scale
# PDF sets and number of members (0 or none for all members).
CT10nlo.LHgrid = sys_pdf # matching scales
# MSTW2008nlo68cl.LHgrid 1  = sys_pdf
</MGRunCard>
<slha>
######################################################################
## PARAM_CARD AUTOMATICALY GENERATED BY MG5 FOLLOWING UFO MODEL   ####
######################################################################
##                                                                  ##
##  Width set on Auto will be computed following the information    ##
##        present in the decay.py files of the model.               ##
##        See  arXiv:1402.1178 for more details.                    ##
##                                                                  ##
######################################################################

###################################
## INFORMATION FOR CKMBLOCK
###################################
Block ckmblock 
    1 2.277360e-01 # cabi 

###################################
## INFORMATION FOR FRBLOCK
###################################
Block frblock 
    1 1.000000e+00 # gz 

###################################
## INFORMATION FOR MASS
###################################
Block mass 
    1 5.040000e-03 # MD 
    2 2.550000e-03 # MU 
    3 1.010000e-01 # MS 
    4 1.270000e+00 # MC 
    5 4.700000e+00 # MB 
    6 1.720000e+02 # MT 
   11 5.110000e-04 # Me 
   13 1.056600e-01 # MM 
   15 1.777000e+00 # MTA 
   23 9.118760e+01 # MZ 
   25 1.200000e+02 # MH 
  10030 4.000000e+03 # MZph 
  10031 3.000000e+02 # MZpl 
## Dependent parameters, given by model restrictions.
## Those values should be edited following the 
## analytical expression. MG5 ignores those values 
## but they are important for interfacing the output of MG5
## to external program such as Pythia.
  12 0.000000 # ve : 0.0 
  14 0.000000 # vm : 0.0 
  16 0.000000 # vt : 0.0 
  21 0.000000 # g : 0.0 
  22 0.000000 # a : 0.0 
  24 79.824360 # w+ : cmath.sqrt(MZ__exp__2/2. + cmath.sqrt(MZ__exp__4/4. - (aEW*cmath.pi*MZ__exp__2)/(Gf*sqrt__2))) 

###################################
## INFORMATION FOR SMINPUTS
###################################
Block sminputs 
    1 1.279000e+02 # aEWM1 
    2 1.166370e-05 # Gf 
    3 1.184000e-01 # aS 

###################################
## INFORMATION FOR YUKAWA
###################################
Block yukawa 
    1 5.040000e-03 # ymdo 
    2 2.550000e-03 # ymup 
    3 1.010000e-01 # yms 
    4 1.270000e+00 # ymc 
    5 4.700000e+00 # ymb 
    6 1.720000e+02 # ymt 
   11 5.110000e-04 # yme 
   13 1.056600e-01 # ymm 
   15 1.777000e+00 # ymtau 

###################################
## INFORMATION FOR DECAY
###################################
DECAY   6 1.508336e+00 # WT 
DECAY  23 2.495200e+00 # WZ 
DECAY  24 2.085000e+00 # WW 
DECAY  25 5.753088e-03 # WH 
## Dependent parameters, given by model restrictions.
## Those values should be edited following the 
## analytical expression. MG5 ignores those values 
## but they are important for interfacing the output of MG5
## to external program such as Pythia.
DECAY  1 0.000000 # d : 0.0 
DECAY  2 0.000000 # u : 0.0 
DECAY  3 0.000000 # s : 0.0 
DECAY  4 0.000000 # c : 0.0 
DECAY  5 0.000000 # b : 0.0 
DECAY  11 0.000000 # e- : 0.0 
DECAY  12 0.000000 # ve : 0.0 
DECAY  13 0.000000 # mu- : 0.0 
DECAY  14 0.000000 # vm : 0.0 
DECAY  15 0.000000 # ta- : 0.0 
DECAY  16 0.000000 # vt : 0.0 
DECAY  21 0.000000 # g : 0.0 
DECAY  22 0.000000 # a : 0.0 
DECAY  10030 0.308725 # zph : (gz__exp__2*MZph*(5 + cmath.sqrt(1 - (4*MT__exp__2)/MZph__exp__2)))/(144.*cmath.pi) 
DECAY  10031 0.132629 # zpl : (5*gz__exp__2*MZpl)/(144.*cmath.pi) 
#===========================================================
# QUANTUM NUMBERS OF NEW STATE(S) (NON SM PDG CODE)
#===========================================================

Block QNUMBERS 10030  # zph 
        1 0  # 3 times electric charge
        2 3  # number of spin states (2S+1)
        3 1  # colour rep (1: singlet, 3: triplet, 8: octet)
        4 0  # Particle/Antiparticle distinction (0=own anti)
Block QNUMBERS 10031  # zpl 
        1 0  # 3 times electric charge
        2 3  # number of spin states (2S+1)
        3 1  # colour rep (1: singlet, 3: triplet, 8: octet)
        4 0  # Particle/Antiparticle distinction (0=own anti)
</slha>
## END BANNER##
<MGGenerationInfo>
#  Number of Events        :         3780
#  Integrated weight (pb)  :  0.44120E-04
#  Max wgt                 :  0.18214E-07
#  Average wgt             :  0.11672E-07
</MGGenerationInfo>
</header>
<init>
     2212     2212  0.40000000000E+04  0.40000000000E+04 0 0  247000  247000 2   1
  0.44180065210E-04  0.10059676680E-06  0.18214330000E-07   0
</init>
<event>
 5   0  0.1819906E-07  0.4054269E+04  0.7818609E-02  0.7993687E-01
       -2   -1    0    0    0  501  0.00000000000E+00  0.00000000000E+00  0.15642437189E+04  0.15642437189E+04  0.25500000920E-02 0. -1.
        2   -1    0    0  501    0  0.00000000000E+00  0.00000000000E+00 -0.26270039722E+04  0.26270039722E+04  0.25500000920E-02 0.  1.
    10030    2    1    2    0    0  0.00000000000E+00  0.00000000000E+00 -0.10627602533E+04  0.41912476911E+04  0.40542690897E+04 0.  0.
        1    1    3    3  502    0  0.18012047802E+04 -0.91657793215E+03 -0.36851138413E+03  0.20543257790E+04  0.50400001928E-02 0.  1.
       -1    1    3    3    0  502 -0.18012047802E+04  0.91657793215E+03 -0.69424886913E+03  0.21369219121E+04  0.50400001928E-02 0. -1.
</event>
<event>
 5   0  0.1819906E-07  0.3996446E+04  0.7818609E-02  0.8005264E-01
        2   -1    0    0  501    0  0.00000000000E+00  0.00000000000E+00  0.13777536492E+04  0.13777536492E+04  0.25500000920E-02 0.  1.
       -2   -1    0    0    0  501  0.00000000000E+00  0.00000000000E+00 -0.28981197803E+04  0.28981197803E+04  0.25500000920E-02 0. -1.
    10030    2    1    2    0    0  0.00000000000E+00  0.00000000000E+00 -0.15203661312E+04  0.42758734295E+04  0.39964459726E+04 0.  0.
        1    1    3    3  502    0  0.13835922801E+04  0.14404189777E+04 -0.69457099467E+03  0.21146071256E+04  0.50400001928E-02 0.  1.
       -1    1    3    3    0  502 -0.13835922801E+04 -0.14404189777E+04 -0.82579513651E+03  0.21612663039E+04  0.50400001928E-02 0. -1.
</event>
<event>
 5   0  0.1773903E-07  0.4023903E+04  0.7818609E-02  0.7999742E-01
        2   -1    0    0  501    0  0.00000000000E+00  0.00000000000E+00  0.22996234229E+04  0.22996234229E+04  0.25500000920E-02 0. -1.
       -2   -1    0    0    0  501  0.00000000000E+00  0.00000000000E+00 -0.17602659679E+04  0.17602659679E+04  0.25500000920E-02 0.  1.
    10030    2    1    2    0    0  0.00000000000E+00  0.00000000000E+00  0.53935745507E+03  0.40598893908E+04  0.40239030060E+04 0.  0.
        3    1    3    3  502    0 -0.12401003342E+04 -0.14274484593E+04 -0.42384834820E+03  0.19378094270E+04  0.10100000352E+00 0.  1.
       -3    1    3    3    0  502  0.12401003342E+04  0.14274484593E+04  0.96320580327E+03  0.21220799638E+04  0.10100000352E+00 0. -1.
</event>
<event>
 5   0  0.1819906E-07  0.3628640E+04  0.7818609E-02  0.8083963E-01
        2   -1    0    0  501    0  0.00000000000E+00  0.00000000000E+00  0.13780416756E+04  0.13780416756E+04  0.25500000920E-02 0.  1.
       -2   -1    0    0    0  501  0.00000000000E+00  0.00000000000E+00 -0.23887212442E+04  0.23887212442E+04  0.25500000920E-02 0. -1.
    10030    2    1    2    0    0  0.00000000000E+00  0.00000000000E+00 -0.10106795686E+04  0.37667629198E+04  0.36286402003E+04 0.  0.
        1    1    3    3  502    0  0.64207191221E+03 -0.52691361915E+03 -0.21797682627E+04  0.23326559930E+04  0.50400001928E-02 0. -1.
       -1    1    3    3    0  502 -0.64207191221E+03  0.52691361915E+03  0.11690886942E+04  0.14341069268E+04  0.50400001928E-02 0.  1.
</event>
<event>
 5   0  0.1773903E-07  0.3969022E+04  0.7818609E-02  0.8010825E-01
       -2   -1    0    0    0  501  0.00000000000E+00  0.00000000000E+00  0.16798038352E+04  0.16798038352E+04  0.25500000920E-02 0.  1.
        2   -1    0    0  501    0  0.00000000000E+00  0.00000000000E+00 -0.23444903783E+04  0.23444903783E+04  0.25500000920E-02 0. -1.
    10030    2    1    2    0    0  0.00000000000E+00  0.00000000000E+00 -0.66468654311E+03  0.40242942135E+04  0.39690220101E+04 0.  0.
        3    1    3    3  502    0 -0.17393454815E+04  0.63030121015E+03 -0.10604533364E+04  0.21324079367E+04  0.10100000352E+00 0.  1.
       -3    1    3    3    0  502  0.17393454815E+04 -0.63030121015E+03  0.39576679332E+03  0.18918862768E+04  0.10100000352E+00 0. -1.
</event>
<event>
 5   0  0.5515000E-08  0.4003335E+04  0.7818609E-02  0.8003874E-01
       -1   -1    0    0    0  501  0.00000000000E+00  0.00000000000E+00  0.13489883700E+04  0.13489883700E+04  0.50400001928E-02 0.  1.
        1   -1    0    0  501    0  0.00000000000E+00  0.00000000000E+00 -0.29701321302E+04  0.29701321302E+04  0.50400001928E-02 0. -1.
    10030    2    1    2    0    0  0.00000000000E+00  0.00000000000E+00 -0.16211437602E+04  0.43191205002E+04  0.40033354598E+04 0.  0.
        3    1    3    3  502    0 -0.87528322458E+03 -0.45305536168E+03  0.10690639074E+04  0.14540555465E+04  0.10100000352E+00 0.  1.
       -3    1    3    3    0  502  0.87528322458E+03  0.45305536168E+03 -0.26902076676E+04  0.28650649537E+04  0.10100000352E+00 0. -1.
</event>
<event>
 5   0  0.5515000E-08  0.3954663E+04  0.7818609E-02  0.8013755E-01
       -1   -1    0    0    0  501  0.00000000000E+00  0.00000000000E+00  0.23184372261E+04  0.23184372261E+04  0.50400001928E-02 0. -1.
        1   -1    0    0  501    0  0.00000000000E+00  0.00000000000E+00 -0.16864117362E+04  0.16864117362E+04  0.50400001928E-02 0.  1.
    10030    2    1    2    0    0  0.00000000000E+00  0.00000000000E+00  0.63202548989E+03  0.40048489622E+04  0.39546629427E+04 0.  0.
        3    1    3    3  502    0 -0.79627763192E+03 -0.57078350045E+03 -0.14233364573E+04  0.17279289778E+04  0.10100000352E+00 0.  1.
       -3    1    3    3    0  502  0.79627763192E+03  0.57078350045E+03  0.20553619472E+04  0.22769199844E+04  0.10100000352E+00 0. -1.
</event>
<event>
 5   0  0.1819906E-07  0.3796807E+04  0.7818609E-02  0.8046840E-01
       -2   -1    0    0    0  501  0.00000000000E+00  0.00000000000E+00  0.20524410606E+04  0.20524410606E+04  0.25500000920E-02 0.  1.
        2   -1    0    0  501    0  0.00000000000E+00  0.00000000000E+00 -0.17559263676E+04  0.17559263676E+04  0.25500000920E-02 0. -1.
    10030    2    1    2    0    0  0.00000000000E+00  0.00000000000E+00  0.29651469298E+03  0.38083674281E+04  0.37968067510E+04 0.  0.
        1    1    3    3  502    0  0.40197979393E+03  0.12156959680E+03 -0.17087491267E+04  0.17595995282E+04  0.50400001928E-02 0. -1.
       -1    1    3    3    0  502 -0.40197979393E+03 -0.12156959680E+03  0.20052638196E+04  0.20487679000E+04  0.50400001928E-02 0.  1.
</event>
<event>
 5   0  0.5515000E-08  0.4016349E+04  0.7818609E-02  0.8001257E-01
       -1   -1    0    0    0  501  0.00000000000E+00  0.00000000000E+00  0.22905893604E+04  0.22905893604E+04  0.50400001928E-02 0.  1.
        1   -1    0    0  501    0  0.00000000000E+00  0.00000000000E+00 -0.17605792912E+04  0.17605792912E+04  0.50400001928E-02 0. -1.
    10030    2    1    2    0    0  0.00000000000E+00  0.00000000000E+00  0.53001006921E+03  0.40511686517E+04  0.40163486864E+04 0.  0.
        2    1    3    3  502    0  0.39353818925E+03 -0.19373540819E+04  0.62098258168E+03  0.20721564882E+04  0.25500000920E-02 0.  1.
       -2    1    3    3    0  502 -0.39353818925E+03  0.19373540819E+04 -0.90972512474E+02  0.19790121634E+04  0.25500000920E-02 0. -1.
</event>
<event>
 5   0  0.1819906E-07  0.4000620E+04  0.7818609E-02  0.8004421E-01
       -2   -1    0    0    0  501  0.00000000000E+00  0.00000000000E+00  0.21101503129E+04  0.21101503129E+04  0.25500000920E-02 0. -1.
        2   -1    0    0  501    0  0.00000000000E+00  0.00000000000E+00 -0.18961874234E+04  0.18961874234E+04  0.25500000920E-02 0.  1.
    10030    2    1    2    0    0  0.00000000000E+00  0.00000000000E+00  0.21396288945E+03  0.40063377363E+04  0.40006201943E+04 0.  0.
        1    1    3    3  502    0 -0.45002662591E+03  0.20830986425E+02 -0.18447221920E+04  0.18989359809E+04  0.50400001928E-02 0.  1.
       -1    1    3    3    0  502  0.45002662591E+03 -0.20830986425E+02  0.20586850814E+04  0.21074017554E+04  0.50400001928E-02 0. -1.
</event>
<event>
 5   0  0.5515000E-08  0.3354657E+04  0.7818609E-02  0.8149125E-01
        1   -1    0    0  501    0  0.00000000000E+00  0.00000000000E+00  0.26405166863E+04  0.26405166863E+04  0.50400001928E-02 0.  1.
       -1   -1    0    0    0  501  0.00000000000E+00  0.00000000000E+00 -0.10654852746E+04  0.10654852746E+04  0.50400001928E-02 0. -1.
    10030    2    1    2    0    0  0.00000000000E+00  0.00000000000E+00  0.15750314117E+04  0.37060019610E+04  0.33546574470E+04 0.  0.
        2    1    3    3  502    0  0.44987530690E+03 -0.77222441371E+03  0.23555808195E+04  0.25194204362E+04  0.25500000920E-02 0.  1.
       -2    1    3    3    0  502 -0.44987530690E+03  0.77222441371E+03 -0.78054940784E+03  0.11865815248E+04  0.25500000920E-02 0. -1.
</event>
<event>
 5   0  0.1821433E-07  0.3994389E+04  0.7818609E-02  0.8005679E-01
       -2   -1    0    0    0  501  0.00000000000E+00  0.00000000000E+00  0.20412924059E+04  0.20412924059E+04  0.25500000920E-02 0.  1.
        2   -1    0    0  501    0  0.00000000000E+00  0.00000000000E+00 -0.19540495096E+04  0.19540495096E+04  0.25500000920E-02 0. -1.
    10030    2    1    2    0    0  0.00000000000E+00  0.00000000000E+00  0.87242896362E+02  0.39953419155E+04  0.39943892773E+04 0.  0.
        5    1    3    3  502    0  0.18833021739E+04 -0.56595795680E+03  0.39245789983E+03  0.20052882038E+04  0.46999998093E+01 0.  1.
       -5    1    3    3    0  502 -0.18833021739E+04  0.56595795680E+03 -0.30521500347E+03  0.19900537117E+04  0.46999998093E+01 0. -1.
</event>
<event>
 5   0  0.5515000E-08  0.3793033E+04  0.7818609E-02  0.8047652E-01
       -1   -1    0    0    0  501  0.00000000000E+00  0.00000000000E+00  0.13116348519E+04  0.13116348519E+04  0.50400001928E-02 0. -1.
        1   -1    0    0  501    0  0.00000000000E+00  0.00000000000E+00 -0.27422077271E+04  0.27422077271E+04  0.50400001928E-02 0.  1.
    10030    2    1    2    0    0  0.00000000000E+00  0.00000000000E+00 -0.14305728752E+04  0.40538425790E+04  0.37930332063E+04 0.  0.
        5    1    3    3  502    0 -0.58986424518E+03  0.13165896182E+04  0.60037639279E+03  0.15626330195E+04  0.46999998093E+01 0. -1.
       -5    1    3    3    0  502  0.58986424518E+03 -0.13165896182E+04 -0.20309492679E+04  0.24912095595E+04  0.46999998093E+01 0.  1.
</event>
<event>
 5   0  0.5515000E-08  0.3867671E+04  0.7818609E-02  0.8031787E-01
       -1   -1    0    0    0  501  0.00000000000E+00  0.00000000000E+00  0.12836318605E+04  0.12836318605E+04  0.50400001928E-02 0. -1.
        1   -1    0    0  501    0  0.00000000000E+00  0.00000000000E+00 -0.29133891409E+04  0.29133891409E+04  0.50400001928E-02 0.  1.
    10030    2    1    2    0    0  0.00000000000E+00  0.00000000000E+00 -0.16297572804E+04  0.41970210015E+04  0.38676706806E+04 0.  0.
        1    1    3    3  502    0 -0.13646258835E+04 -0.11838544890E+04 -0.15635597855E+04  0.23892330267E+04  0.50400001928E-02 0.  1.
       -1    1    3    3    0  502  0.13646258835E+04  0.11838544890E+04 -0.66197494900E+02  0.18077879747E+04  0.50400001928E-02 0. -1.
</event>
<event>
 5   0  0.5515000E-08  0.4006557E+04  0.7818609E-02  0.8003225E-01
        1   -1    0    0  501    0  0.00000000000E+00  0.00000000000E+00  0.14454693091E+04  0.14454693091E+04  0.50400001928E-02 0. -1.
       -1   -1    0    0    0  501  0.00000000000E+00  0.00000000000E+00 -0.27763475179E+04  0.27763475179E+04  0.50400001928E-02 0.  1.
    10030    2    1    2    0    0  0.00000000000E+00  0.00000000000E+00 -0.13308782088E+04  0.42218168271E+04  0.40065571897E+04 0.  0.
        3    1    3    3  502    0 -0.12497141203E+04 -0.54266494808E+03 -0.22129669195E+04  0.25987483959E+04  0.10100000352E+00 0.  1.
       -3    1    3    3    0  502  0.12497141203E+04  0.54266494808E+03  0.88208871073E+03  0.16230684311E+04  0.10100000352E+00 0. -1.
</event>
<event>
 5   0  0.5515000E-08  0.3503227E+04  0.7818609E-02  0.8113026E-01
       -1   -1    0    0    0  501  0.00000000000E+00  0.00000000000E+00  0.18954742074E+04  0.18954742074E+04  0.50400001928E-02 0.  1.
        1   -1    0    0  501    0  0.00000000000E+00  0.00000000000E+00 -0.16186713972E+04  0.16186713972E+04  0.50400001928E-02 0. -1.
    10030    2    1    2    0    0  0.00000000000E+00  0.00000000000E+00  0.27680281020E+03  0.35141456046E+04  0.35032270173E+04 0.  0.
        3    1    3    3  502    0  0.13959929016E+04  0.20929226824E+03  0.11787211980E+04  0.18390168862E+04  0.10100000352E+00 0.  1.
       -3    1    3    3    0  502 -0.13959929016E+04 -0.20929226824E+03 -0.90191838783E+03  0.16751287184E+04  0.10100000352E+00 0. -1.
</event>
<event>
 5   0  0.1819906E-07  0.3982536E+04  0.7818609E-02  0.8008079E-01
        2   -1    0    0  501    0  0.00000000000E+00  0.00000000000E+00  0.13405388591E+04  0.13405388591E+04  0.25500000920E-02 0. -1.
       -2   -1    0    0    0  501  0.00000000000E+00  0.00000000000E+00 -0.29578763402E+04  0.29578763402E+04  0.25500000920E-02 0.  1.
    10030    2    1    2    0    0  0.00000000000E+00  0.00000000000E+00 -0.16173374811E+04  0.42984151994E+04  0.39825359632E+04 0.  0.
        1    1    3    3  502    0 -0.10737959343E+04 -0.51814617614E+03  0.91270848817E+03  0.15015158850E+04  0.50400001928E-02 0. -1.
       -1    1    3    3    0  502  0.10737959343E+04  0.51814617614E+03 -0.25300459693E+04  0.27968993144E+04  0.50400001928E-02 0.  1.
</event>
<event>
 5   0  0.5515000E-08  0.4001844E+04  0.7818609E-02  0.8004175E-01
        1   -1    0    0  501    0  0.00000000000E+00  0.00000000000E+00  0.20396228279E+04  0.20396228279E+04  0.50400001928E-02 0. -1.
       -1   -1    0    0    0  501  0.00000000000E+00  0.00000000000E+00 -0.19629555267E+04  0.19629555267E+04  0.50400001928E-02 0.  1.
    10030    2    1    2    0    0  0.00000000000E+00  0.00000000000E+00  0.76667301187E+02  0.40025783547E+04  0.40018440262E+04 0.  0.
        4    1    3    3  502    0 -0.38143646865E+03  0.17786688477E+03  0.19948513064E+04  0.20387652528E+04  0.12699999809E+01 0. -1.
       -4    1    3    3    0  502  0.38143646865E+03 -0.17786688477E+03 -0.19181840052E+04  0.19638131019E+04  0.12699999809E+01 0.  1.
</event>
<event>
 5   0  0.5515000E-08  0.3957786E+04  0.7818609E-02  0.8013117E-01
        1   -1    0    0  501    0  0.00000000000E+00  0.00000000000E+00  0.27052095555E+04  0.27052095555E+04  0.50400001928E-02 0. -1.
       -1   -1    0    0    0  501  0.00000000000E+00  0.00000000000E+00 -0.14475839498E+04  0.14475839498E+04  0.50400001928E-02 0.  1.
    10030    2    1    2    0    0  0.00000000000E+00  0.00000000000E+00  0.12576256057E+04  0.41527935052E+04  0.39577862162E+04 0.  0.
        3    1    3    3  502    0  0.23955331406E+03  0.14975099766E+04 -0.70508200798E+03  0.16724420972E+04  0.10100000352E+00 0.  1.
       -3    1    3    3    0  502 -0.23955331406E+03 -0.14975099766E+04  0.19627076137E+04  0.24803514080E+04  0.10100000352E+00 0. -1.
</event>
<event>
 5   0  0.1785559E-07  0.4093670E+04  0.7818609E-02  0.7985912E-01
        2   -1    0    0  501    0  0.00000000000E+00  0.00000000000E+00  0.29767803517E+04  0.29767803517E+04  0.25500000920E-02 0.  1.
       -2   -1    0    0    0  501  0.00000000000E+00  0.00000000000E+00 -0.14074040539E+04  0.14074040539E+04  0.25500000920E-02 0. -1.
    10030    2    1    2    0    0  0.00000000000E+00  0.00000000000E+00  0.15693762978E+04  0.43841844055E+04  0.40936696176E+04 0.  0.
        2    1    3    3  502    0  0.49054738102E+03 -0.19772959363E+04  0.99672006064E+03  0.22679918060E+04  0.25500000920E-02 0.  1.
       -2    1    3    3    0  502 -0.49054738102E+03  0.19772959363E+04  0.57265623714E+03  0.21161925996E+04  0.25500000920E-02 0. -1.
</event>
<event>
 5   0  0.5515000E-08  0.4029845E+04  0.7818609E-02  0.7998553E-01
       -1   -1    0    0    0  501  0.00000000000E+00  0.00000000000E+00  0.19214034184E+04  0.19214034184E+04  0.50400001928E-02 0.  1.
        1   -1    0    0  501    0  0.00000000000E+00  0.00000000000E+00 -0.21129930202E+04  0.21129930202E+04  0.50400001928E-02 0. -1.
    10030    2    1    2    0    0  0.00000000000E+00  0.00000000000E+00 -0.19158960172E+03  0.40343964386E+04  0.40298446680E+04 0.  0.
        3    1    3    3  502    0  0.10358977132E+04  0.79538990988E+03 -0.16318625060E+04  0.20901445954E+04  0.10100000352E+00 0. -1.
       -3    1    3    3    0  502 -0.10358977132E+04 -0.79538990988E+03  0.14402729043E+04  0.19442518432E+04  0.10100000352E+00 0.  1.
</event>
<event>
 5   0  0.1773903E-07  0.4010822E+04  0.7818609E-02  0.8002367E-01
       -2   -1    0    0    0  501  0.00000000000E+00  0.00000000000E+00  0.16556011344E+04  0.16556011344E+04  0.25500000920E-02 0. -1.
        2   -1    0    0  501    0  0.00000000000E+00  0.00000000000E+00 -0.24291320935E+04  0.24291320935E+04  0.25500000920E-02 0.  1.
    10030    2    1    2    0    0  0.00000000000E+00  0.00000000000E+00 -0.77353095916E+03  0.40847332279E+04  0.40108222845E+04 0.  0.
        3    1    3    3  502    0 -0.33394061010E+03  0.49103105855E+03  0.15640080672E+04  0.16729462262E+04  0.10100000352E+00 0. -1.
       -3    1    3    3    0  502  0.33394061010E+03 -0.49103105855E+03 -0.23375390263E+04  0.24117870016E+04  0.10100000352E+00 0.  1.
</event>
<event>
 5   0  0.5515000E-08  0.3988930E+04  0.7818609E-02  0.8006783E-01
       -1   -1    0    0    0  501  0.00000000000E+00  0.00000000000E+00  0.20125452834E+04  0.20125452834E+04  0.50400001928E-02 0. -1.
        1   -1    0    0  501    0  0.00000000000E+00  0.00000000000E+00 -0.19765470240E+04  0.19765470240E+04  0.50400001928E-02 0.  1.
    10030    2    1    2    0    0  0.00000000000E+00  0.00000000000E+00  0.35998259387E+02  0.39890923074E+04  0.39889298768E+04 0.  0.
        1    1    3    3  502    0  0.11596505366E+04 -0.79350932234E+03  0.14334874356E+04  0.20073197652E+04  0.50400001928E-02 0. -1.
       -1    1    3    3    0  502 -0.11596505366E+04  0.79350932234E+03 -0.13974891762E+04  0.19817725422E+04  0.50400001928E-02 0.  1.
</event>
<event>
 5   0  0.1785559E-07  0.3968646E+04  0.7818609E-02  0.8010902E-01
        2   -1    0    0  501    0  0.00000000000E+00  0.00000000000E+00  0.24364966493E+04  0.24364966493E+04  0.25500000920E-02 0.  1.
       -2   -1    0    0    0  501  0.00000000000E+00  0.00000000000E+00 -0.16160651521E+04  0.16160651521E+04  0.25500000920E-02 0. -1.
    10030    2    1    2    0    0  0.00000000000E+00  0.00000000000E+00  0.82043149712E+03  0.40525618014E+04  0.39686457782E+04 0.  0.
        2    1    3    3  502    0  0.94887887734E+03 -0.17103907304E+04  0.75154360218E+03  0.20953819128E+04  0.25500000920E-02 0. -1.
       -2    1    3    3    0  502 -0.94887887734E+03  0.17103907304E+04  0.68887894943E+02  0.19571798886E+04  0.25500000920E-02 0.  1.
</event>
<event>
 5   0  0.5515000E-08  0.4001555E+04  0.7818609E-02  0.8004233E-01
        1   -1    0    0  501    0  0.00000000000E+00  0.00000000000E+00  0.22278238447E+04  0.22278238447E+04  0.50400001928E-02 0.  1.
       -1   -1    0    0    0  501  0.00000000000E+00  0.00000000000E+00 -0.17968706528E+04  0.17968706528E+04  0.50400001928E-02 0. -1.
    10030    2    1    2    0    0  0.00000000000E+00  0.00000000000E+00  0.43095319191E+03  0.40246944975E+04  0.40015553406E+04 0.  0.
        2    1    3    3  502    0 -0.91846915791E+03  0.85223698289E+03 -0.13534209599E+04  0.18443540234E+04  0.25500000920E-02 0. -1.
       -2    1    3    3    0  502  0.91846915791E+03 -0.85223698289E+03  0.17843741518E+04  0.21803404740E+04  0.25500000920E-02 0.  1.
</event>
<event>
 5   0  0.1773903E-07  0.3955250E+04  0.7818609E-02  0.8013635E-01
        2   -1    0    0  501    0  0.00000000000E+00  0.00000000000E+00  0.23925362367E+04  0.23925362367E+04  0.25500000920E-02 0. -1.
       -2   -1    0    0    0  501  0.00000000000E+00  0.00000000000E+00 -0.16346674482E+04  0.16346674482E+04  0.25500000920E-02 0.  1.
    10030    2    1    2    0    0  0.00000000000E+00  0.00000000000E+00  0.75786878853E+03  0.40272036849E+04  0.39552502347E+04 0.  0.
        3    1    3    3  502    0  0.41239895624E+03 -0.11784418210E+03 -0.15867405980E+04  0.16436866751E+04  0.10100000352E+00 0.  1.
       -3    1    3    3    0  502 -0.41239895624E+03  0.11784418210E+03  0.23446093865E+04  0.23835170098E+04  0.10100000352E+00 0. -1.
</event>
<event>
 5   0  0.1821433E-07  0.3975271E+04  0.7818609E-02  0.8009554E-01
        2   -1    0    0  501    0  0.00000000000E+00  0.00000000000E+00  0.15613251257E+04  0.15613251257E+04  0.25500000920E-02 0. -1.
       -2   -1    0    0    0  501  0.00000000000E+00  0.00000000000E+00 -0.25303468544E+04  0.25303468544E+04  0.25500000920E-02 0.  1.
    10030    2    1    2    0    0  0.00000000000E+00  0.00000000000E+00 -0.96902172878E+03  0.40916719801E+04  0.39752706175E+04 0.  0.
        5    1    3    3  502    0 -0.94497625646E+03 -0.80874545660E+03 -0.20802697047E+04  0.24237560671E+04  0.46999998093E+01 0.  1.
       -5    1    3    3    0  502  0.94497625646E+03  0.80874545660E+03  0.11112479759E+04  0.16679159130E+04  0.46999998093E+01 0. -1.
</event>
<event>
 5   0  0.5515000E-08  0.4018606E+04  0.7818609E-02  0.8000804E-01
       -1   -1    0    0    0  501  0.00000000000E+00  0.00000000000E+00  0.32250059690E+04  0.32250059690E+04  0.50400001928E-02 0. -1.
        1   -1    0    0  501    0  0.00000000000E+00  0.00000000000E+00 -0.12518733016E+04  0.12518733017E+04  0.50400001928E-02 0.  1.
    10030    2    1    2    0    0  0.00000000000E+00  0.00000000000E+00  0.19731326673E+04  0.44768792706E+04  0.40186061615E+04 0.  0.
        2    1    3    3  502    0  0.16833457014E+04 -0.10907041608E+04  0.11184307396E+04  0.22965573444E+04  0.25500000920E-02 0. -1.
       -2    1    3    3    0  502 -0.16833457014E+04  0.10907041608E+04  0.85470192773E+03  0.21803219262E+04  0.25500000920E-02 0.  1.
</event>
<event>
 5   0  0.1773903E-07  0.3968959E+04  0.7818609E-02  0.8010838E-01
       -2   -1    0    0    0  501  0.00000000000E+00  0.00000000000E+00  0.14261524021E+04  0.14261524021E+04  0.25500000920E-02 0. -1.
        2   -1    0    0  501    0  0.00000000000E+00  0.00000000000E+00 -0.27613867529E+04  0.27613867529E+04  0.25500000920E-02 0.  1.
    10030    2    1    2    0    0  0.00000000000E+00  0.00000000000E+00 -0.13352343508E+04  0.41875391549E+04  0.39689587303E+04 0.  0.
        3    1    3    3  502    0 -0.16178783132E+04  0.90475081181E+03 -0.14151969529E+04  0.23321420827E+04  0.10100000352E+00 0.  1.
       -3    1    3    3    0  502  0.16178783132E+04 -0.90475081181E+03  0.79962602152E+02  0.18553970723E+04  0.10100000352E+00 0. -1.
</event>
<event>
 5   0  0.1819906E-07  0.3972684E+04  0.7818609E-02  0.8010080E-01
       -2   -1    0    0    0  501  0.00000000000E+00  0.00000000000E+00  0.22122666060E+04  0.22122666060E+04  0.25500000920E-02 0. -1.
        2   -1    0    0  501    0  0.00000000000E+00  0.00000000000E+00 -0.17834899154E+04  0.17834899154E+04  0.25500000920E-02 0.  1.
    10030    2    1    2    0    0  0.00000000000E+00  0.00000000000E+00  0.42877669061E+03  0.39957565214E+04  0.39726843227E+04 0.  0.
        1    1    3    3  502    0 -0.19183195443E+04 -0.46600227772E+03 -0.69971862973E+01  0.19741218193E+04  0.50400001928E-02 0.  1.
       -1    1    3    3    0  502  0.19183195443E+04  0.46600227772E+03  0.43577387691E+03  0.20216347021E+04  0.50400001928E-02 0. -1.
</event>
<event>
 5   0  0.5515000E-08  0.4069450E+04  0.7818609E-02  0.7990681E-01
       -1   -1    0    0    0  501  0.00000000000E+00  0.00000000000E+00  0.21765370781E+04  0.21765370781E+04  0.50400001928E-02 0. -1.
        1   -1    0    0  501    0  0.00000000000E+00  0.00000000000E+00 -0.19021528001E+04  0.19021528001E+04  0.50400001928E-02 0.  1.
    10030    2    1    2    0    0  0.00000000000E+00  0.00000000000E+00  0.27438427802E+03  0.40786898782E+04  0.40694501337E+04 0.  0.
        5    1    3    3  502    0 -0.11120293101E+04 -0.10480351373E+04 -0.12093974331E+04  0.19487562897E+04  0.46999998093E+01 0.  1.
       -5    1    3    3    0  502  0.11120293101E+04  0.10480351373E+04  0.14837817111E+04  0.21299335885E+04  0.46999998093E+01 0. -1.
</event>
<event>
 5   0  0.1773903E-07  0.4173136E+04  0.7818609E-02  0.7970502E-01
        2   -1    0    0  501    0  0.00000000000E+00  0.00000000000E+00  0.22839552386E+04  0.22839552386E+04  0.25500000920E-02 0. -1.
       -2   -1    0    0    0  501  0.00000000000E+00  0.00000000000E+00 -0.19062396111E+04  0.19062396111E+04  0.25500000920E-02 0.  1.
    10030    2    1    2    0    0  0.00000000000E+00  0.00000000000E+00  0.37771562743E+03  0.41901948497E+04  0.41731359651E+04 0.  0.
        3    1    3    3  502    0  0.19068615015E+04 -0.83284250013E+03  0.34447042883E+03  0.21091247717E+04  0.10100000352E+00 0. -1.
       -3    1    3    3    0  502 -0.19068615015E+04  0.83284250013E+03  0.33245198604E+02  0.20810700780E+04  0.10100000352E+00 0.  1.
</event>
<event>
 5   0  0.5515000E-08  0.3925126E+04  0.7818609E-02  0.8019824E-01
       -1   -1    0    0    0  501  0.00000000000E+00  0.00000000000E+00  0.16906426379E+04  0.16906426380E+04  0.50400001928E-02 0.  1.
        1   -1    0    0  501    0  0.00000000000E+00  0.00000000000E+00 -0.22782191129E+04  0.22782191129E+04  0.50400001928E-02 0. -1.
    10030    2    1    2    0    0  0.00000000000E+00  0.00000000000E+00 -0.58757647494E+03  0.39688617508E+04  0.39251264290E+04 0.  0.
        4    1    3    3  502    0 -0.11916364770E+04 -0.91274185060E+03 -0.15722167943E+04  0.21736978724E+04  0.12699999809E+01 0. -1.
       -4    1    3    3    0  502  0.11916364770E+04  0.91274185060E+03  0.98464031937E+03  0.17951638785E+04  0.12699999809E+01 0.  1.
</event>
<event>
 5   0  0.5515000E-08  0.3951379E+04  0.7818609E-02  0.8014427E-01
       -1   -1    0    0    0  501  0.00000000000E+00  0.00000000000E+00  0.25277474239E+04  0.25277474240E+04  0.50400001928E-02 0.  1.
        1   -1    0    0  501    0  0.00000000000E+00  0.00000000000E+00 -0.15442007394E+04  0.15442007395E+04  0.50400001928E-02 0. -1.
    10030    2    1    2    0    0  0.00000000000E+00  0.00000000000E+00  0.98354668450E+03  0.40719481634E+04  0.39513792231E+04 0.  0.
        1    1    3    3  502    0  0.56542136966E+03 -0.12535418236E+04  0.19536066177E+04  0.23890682798E+04  0.50400001928E-02 0.  1.
       -1    1    3    3    0  502 -0.56542136966E+03  0.12535418236E+04 -0.97005993320E+03  0.16828798836E+04  0.50400001928E-02 0. -1.
</event>
<event>
 5   0  0.5515000E-08  0.4002866E+04  0.7818609E-02  0.8003969E-01
        1   -1    0    0  501    0  0.00000000000E+00  0.00000000000E+00  0.24847075399E+04  0.24847075399E+04  0.50400001928E-02 0. -1.
       -1   -1    0    0    0  501  0.00000000000E+00  0.00000000000E+00 -0.16121552121E+04  0.16121552121E+04  0.50400001928E-02 0.  1.
    10030    2    1    2    0    0  0.00000000000E+00  0.00000000000E+00  0.87255232785E+03  0.40968627520E+04  0.40028660787E+04 0.  0.
        5    1    3    3  502    0 -0.14534932414E+04 -0.13738856471E+04  0.36031924520E+03  0.20322540251E+04  0.46999998093E+01 0.  1.
       -5    1    3    3    0  502  0.14534932414E+04  0.13738856471E+04  0.51223308265E+03  0.20646087269E+04  0.46999998093E+01 0. -1.
</event>
<event>
 5   0  0.1776653E-07  0.3990528E+04  0.7818609E-02  0.8006460E-01
        2   -1    0    0  501    0  0.00000000000E+00  0.00000000000E+00  0.28118119360E+04  0.28118119360E+04  0.25500000920E-02 0.  1.
       -2   -1    0    0    0  501  0.00000000000E+00  0.00000000000E+00 -0.14158407334E+04  0.14158407334E+04  0.25500000920E-02 0. -1.
    10030    2    1    2    0    0  0.00000000000E+00  0.00000000000E+00  0.13959712026E+04  0.42276526694E+04  0.39905277213E+04 0.  0.
        4    1    3    3  502    0 -0.77535906365E+03 -0.18187924110E+04  0.41393256854E+03  0.20200320037E+04  0.12699999809E+01 0. -1.
       -4    1    3    3    0  502  0.77535906365E+03  0.18187924110E+04  0.98203863407E+03  0.22076206657E+04  0.12699999809E+01 0.  1.
</event>
<event>
 5   0  0.1776653E-07  0.3922800E+04  0.7818609E-02  0.8020304E-01
       -2   -1    0    0    0  501  0.00000000000E+00  0.00000000000E+00  0.24855507394E+04  0.24855507394E+04  0.25500000920E-02 0. -1.
        2   -1    0    0  501    0  0.00000000000E+00  0.00000000000E+00 -0.15477814306E+04  0.15477814306E+04  0.25500000920E-02 0.  1.
    10030    2    1    2    0    0  0.00000000000E+00  0.00000000000E+00  0.93776930880E+03  0.40333321699E+04  0.39227996529E+04 0.  0.
        4    1    3    3  502    0  0.67407809747E+03  0.18295258228E+04  0.68830264623E+03  0.20676818332E+04  0.12699999809E+01 0. -1.
       -4    1    3    3    0  502 -0.67407809747E+03 -0.18295258228E+04  0.24946666257E+03  0.19656503367E+04  0.12699999809E+01 0.  1.
</event>
<event>
 5   0  0.5515000E-08  0.3979611E+04  0.7818609E-02  0.8008672E-01
        1   -1    0    0  501    0  0.00000000000E+00  0.00000000000E+00  0.16880383083E+04  0.16880383083E+04  0.50400001928E-02 0.  1.
       -1   -1    0    0    0  501  0.00000000000E+00  0.00000000000E+00 -0.23455189950E+04  0.23455189950E+04  0.50400001928E-02 0. -1.
    10030    2    1    2    0    0  0.00000000000E+00  0.00000000000E+00 -0.65748068668E+03  0.40335573032E+04  0.39796109942E+04 0.  0.
        2    1    3    3  502    0 -0.17284525311E+04  0.58572774098E+03 -0.11323952635E+04  0.21477765646E+04  0.25500000920E-02 0. -1.
       -2    1    3    3    0  502  0.17284525311E+04 -0.58572774098E+03  0.47491457682E+03  0.18857807386E+04  0.25500000920E-02 0.  1.
</event>
<event>
 5   0  0.5515000E-08  0.3966722E+04  0.7818609E-02  0.8011294E-01
        1   -1    0    0  501    0  0.00000000000E+00  0.00000000000E+00  0.16392786097E+04  0.16392786097E+04  0.50400001928E-02 0. -1.
       -1   -1    0    0    0  501  0.00000000000E+00  0.00000000000E+00 -0.23996658231E+04  0.23996658231E+04  0.50400001928E-02 0.  1.
    10030    2    1    2    0    0  0.00000000000E+00  0.00000000000E+00 -0.76038721342E+03  0.40389444328E+04  0.39667219989E+04 0.  0.
        5    1    3    3  502    0 -0.15957903191E+04  0.33361992155E+03  0.76990713436E+03  0.18029498274E+04  0.46999998093E+01 0. -1.
       -5    1    3    3    0  502  0.15957903191E+04 -0.33361992155E+03 -0.15302943478E+04  0.22359946054E+04  0.46999998093E+01 0.  1.
</event>
<event>
 5   0  0.5515000E-08  0.4030038E+04  0.7818609E-02  0.7998514E-01
       -1   -1    0    0    0  501  0.00000000000E+00  0.00000000000E+00  0.23578648001E+04  0.23578648001E+04  0.50400001928E-02 0.  1.
        1   -1    0    0  501    0  0.00000000000E+00  0.00000000000E+00 -0.17220248686E+04  0.17220248687E+04  0.50400001928E-02 0. -1.
    10030    2    1    2    0    0  0.00000000000E+00  0.00000000000E+00  0.63583993146E+03  0.40798896688E+04  0.40300381252E+04 0.  0.
        5    1    3    3  502    0 -0.56756741714E+03 -0.16810352090E+04 -0.64902194847E+03  0.18892495141E+04  0.46999998093E+01 0. -1.
       -5    1    3    3    0  502  0.56756741714E+03  0.16810352090E+04  0.12848618799E+04  0.21906401547E+04  0.46999998093E+01 0.  1.
</event>
<event>
 5   0  0.1785559E-07  0.4028304E+04  0.7818609E-02  0.7998861E-01
       -2   -1    0    0    0  501  0.00000000000E+00  0.00000000000E+00  0.18322480585E+04  0.18322480585E+04  0.25500000920E-02 0. -1.
        2   -1    0    0  501    0  0.00000000000E+00  0.00000000000E+00 -0.22141157159E+04  0.22141157159E+04  0.25500000920E-02 0.  1.
    10030    2    1    2    0    0  0.00000000000E+00  0.00000000000E+00 -0.38186765743E+03  0.40463637744E+04  0.40283044680E+04 0.  0.
        2    1    3    3  502    0 -0.13471555508E+04 -0.14939559819E+04 -0.29176646224E+03  0.20326977695E+04  0.25500000920E-02 0. -1.
       -2    1    3    3    0  502  0.13471555508E+04  0.14939559819E+04 -0.90101195189E+02  0.20136660049E+04  0.25500000920E-02 0.  1.
</event>
<event>
 5   0  0.1773903E-07  0.4004568E+04  0.7818609E-02  0.8003626E-01
        2   -1    0    0  501    0  0.00000000000E+00  0.00000000000E+00  0.20965678779E+04  0.20965678779E+04  0.25500000920E-02 0.  1.
       -2   -1    0    0    0  501  0.00000000000E+00  0.00000000000E+00 -0.19122396813E+04  0.19122396813E+04  0.25500000920E-02 0. -1.
    10030    2    1    2    0    0  0.00000000000E+00  0.00000000000E+00  0.18432819661E+03  0.40088075592E+04  0.40045675376E+04 0.  0.
        3    1    3    3  502    0  0.24833932137E+03  0.15856830959E+04 -0.11062153329E+04  0.19493013293E+04  0.10100000352E+00 0. -1.
       -3    1    3    3    0  502 -0.24833932137E+03 -0.15856830959E+04  0.12905435295E+04  0.20595062299E+04  0.10100000352E+00 0.  1.
</event>
<event>
 5   0  0.1819906E-07  0.3762532E+04  0.7818609E-02  0.8054243E-01
        2   -1    0    0  501    0  0.00000000000E+00  0.00000000000E+00  0.11959475422E+04  0.11959475422E+04  0.25500000920E-02 0.  1.
       -2   -1    0    0    0  501  0.00000000000E+00  0.00000000000E+00 -0.29592956747E+04  0.29592956747E+04  0.25500000920E-02 0. -1.
    10030    2    1    2    0    0  0.00000000000E+00  0.00000000000E+00 -0.17633481325E+04  0.41552432169E+04  0.37625323328E+04 0.  0.
        1    1    3    3  502    0  0.48225715209E+03  0.30996640699E+03 -0.28604804689E+04  0.29173617614E+04  0.50400001928E-02 0. -1.
       -1    1    3    3    0  502 -0.48225715209E+03 -0.30996640699E+03  0.10971323364E+04  0.12378814555E+04  0.50400001928E-02 0.  1.
</event>
<event>
 5   0  0.1785559E-07  0.4019022E+04  0.7818609E-02  0.8000720E-01
        2   -1    0    0  501    0  0.00000000000E+00  0.00000000000E+00  0.15693603476E+04  0.15693603476E+04  0.25500000920E-02 0.  1.
       -2   -1    0    0    0  501  0.00000000000E+00  0.00000000000E+00 -0.25731089225E+04  0.25731089225E+04  0.25500000920E-02 0. -1.
    10030    2    1    2    0    0  0.00000000000E+00  0.00000000000E+00 -0.10037485749E+04  0.41424692701E+04  0.40190223254E+04 0.  0.
        2    1    3    3  502    0  0.28673604205E+03  0.15252516011E+04 -0.18176122489E+04  0.23900469225E+04  0.25500000920E-02 0. -1.
       -2    1    3    3    0  502 -0.28673604205E+03 -0.15252516011E+04  0.81386367406E+03  0.17524223476E+04  0.25500000920E-02 0.  1.
</event>
<event>
 5   0  0.1773903E-07  0.4013715E+04  0.7818609E-02  0.8001785E-01
       -2   -1    0    0    0  501  0.00000000000E+00  0.00000000000E+00  0.33965089152E+04  0.33965089152E+04  0.25500000920E-02 0.  1.
        2   -1    0    0  501    0  0.00000000000E+00  0.00000000000E+00 -0.11857698419E+04  0.11857698419E+04  0.25500000920E-02 0. -1.
    10030    2    1    2    0    0  0.00000000000E+00  0.00000000000E+00  0.22107390733E+04  0.45822787570E+04  0.40137154056E+04 0.  0.
        3    1    3    3  502    0  0.47144565411E+03 -0.17742816594E+04  0.17989526442E+03  0.18446405417E+04  0.10100000352E+00 0. -1.
       -3    1    3    3    0  502 -0.47144565411E+03  0.17742816594E+04  0.20308438089E+04  0.27376382153E+04  0.10100000352E+00 0.  1.
</event>
<event>
 5   0  0.5515000E-08  0.4072920E+04  0.7818609E-02  0.7989996E-01
        1   -1    0    0  501    0  0.00000000000E+00  0.00000000000E+00  0.28509814721E+04  0.28509814721E+04  0.50400001928E-02 0. -1.
       -1   -1    0    0    0  501  0.00000000000E+00  0.00000000000E+00 -0.14546462747E+04  0.14546462747E+04  0.50400001928E-02 0.  1.
    10030    2    1    2    0    0  0.00000000000E+00  0.00000000000E+00  0.13963351974E+04  0.43056277468E+04  0.40729201208E+04 0.  0.
        5    1    3    3  502    0  0.31168291510E+03  0.10462954771E+04  0.25154773222E+04  0.27421759086E+04  0.46999998093E+01 0. -1.
       -5    1    3    3    0  502 -0.31168291510E+03 -0.10462954771E+04 -0.11191421248E+04  0.15634518383E+04  0.46999998093E+01 0.  1.
</event>
<event>
 5   0  0.1821433E-07  0.3990873E+04  0.7818609E-02  0.8006390E-01
       -2   -1    0    0    0  501  0.00000000000E+00  0.00000000000E+00  0.14643747463E+04  0.14643747463E+04  0.25500000920E-02 0. -1.
        2   -1    0    0  501    0  0.00000000000E+00  0.00000000000E+00 -0.27190900695E+04  0.27190900695E+04  0.25500000920E-02 0.  1.
    10030    2    1    2    0    0  0.00000000000E+00  0.00000000000E+00 -0.12547153232E+04  0.41834648157E+04  0.39908730025E+04 0.  0.
        5    1    3    3  502    0  0.54225116354E+03  0.24458978406E+03 -0.26239753956E+04  0.26905630365E+04  0.46999998093E+01 0.  1.
       -5    1    3    3    0  502 -0.54225116354E+03 -0.24458978406E+03  0.13692600723E+04  0.14929017793E+04  0.46999998093E+01 0. -1.
</event>
<event>
 5   0  0.5515000E-08  0.3995696E+04  0.7818609E-02  0.8005415E-01
        1   -1    0    0  501    0  0.00000000000E+00  0.00000000000E+00  0.14540237833E+04  0.14540237833E+04  0.50400001928E-02 0. -1.
       -1   -1    0    0    0  501  0.00000000000E+00  0.00000000000E+00 -0.27450701919E+04  0.27450701919E+04  0.50400001928E-02 0.  1.
    10030    2    1    2    0    0  0.00000000000E+00  0.00000000000E+00 -0.12910464086E+04  0.41990939752E+04  0.39956963578E+04 0.  0.
        5    1    3    3  502    0 -0.24926288029E+03  0.19729771192E+04 -0.84658553314E+03  0.21613652749E+04  0.46999998093E+01 0. -1.
       -5    1    3    3    0  502  0.24926288029E+03 -0.19729771192E+04 -0.44446087547E+03  0.20377287004E+04  0.46999998093E+01 0.  1.
</event>
<event>
 5   0  0.5515000E-08  0.3218743E+04  0.7818609E-02  0.8183885E-01
       -1   -1    0    0    0  501  0.00000000000E+00  0.00000000000E+00  0.13254794708E+04  0.13254794708E+04  0.50400001928E-02 0.  1.
        1   -1    0    0  501    0  0.00000000000E+00  0.00000000000E+00 -0.19540681275E+04  0.19540681275E+04  0.50400001928E-02 0. -1.
    10030    2    1    2    0    0  0.00000000000E+00  0.00000000000E+00 -0.62858865662E+03  0.32795475983E+04  0.32187433496E+04 0.  0.
        3    1    3    3  502    0  0.66822684558E+03  0.78210748809E+03 -0.15753574779E+04  0.18814809149E+04  0.10100000352E+00 0. -1.
       -3    1    3    3    0  502 -0.66822684558E+03 -0.78210748809E+03  0.94676882124E+03  0.13980666834E+04  0.10100000352E+00 0.  1.
</event>
<event>
 5   0  0.1773903E-07  0.3986195E+04  0.7818609E-02  0.8007337E-01
       -2   -1    0    0    0  501  0.00000000000E+00  0.00000000000E+00  0.15898343895E+04  0.15898343895E+04  0.25500000920E-02 0. -1.
        2   -1    0    0  501    0  0.00000000000E+00  0.00000000000E+00 -0.24986487488E+04  0.24986487488E+04  0.25500000920E-02 0.  1.
    10030    2    1    2    0    0  0.00000000000E+00  0.00000000000E+00 -0.90881435927E+03  0.40884831384E+04  0.39861950320E+04 0.  0.
        3    1    3    3  502    0  0.70506272085E+03  0.11153299689E+04  0.10776988160E+04  0.17036751827E+04  0.10100000352E+00 0. -1.
       -3    1    3    3    0  502 -0.70506272085E+03 -0.11153299689E+04 -0.19865131753E+04  0.23848079557E+04  0.10100000352E+00 0.  1.
</event>
<event>
 5   0  0.5515000E-08  0.3979265E+04  0.7818609E-02  0.8008743E-01
       -1   -1    0    0    0  501  0.00000000000E+00  0.00000000000E+00  0.16235091218E+04  0.16235091218E+04  0.50400001928E-02 0.  1.
        1   -1    0    0  501    0  0.00000000000E+00  0.00000000000E+00 -0.24383216452E+04  0.24383216452E+04  0.50400001928E-02 0. -1.
    10030    2    1    2    0    0  0.00000000000E+00  0.00000000000E+00 -0.81481252338E+03  0.40618307670E+04  0.39792649738E+04 0.  0.
        1    1    3    3  502    0 -0.11771997613E+04 -0.11336063533E+04 -0.15657539207E+04  0.22632825679E+04  0.50400001928E-02 0. -1.
       -1    1    3    3    0  502  0.11771997613E+04  0.11336063533E+04  0.75094139728E+03  0.17985481991E+04  0.50400001928E-02 0.  1.
</event>
<event>
 5   0  0.5515000E-08  0.3989349E+04  0.7818609E-02  0.8006699E-01
        1   -1    0    0  501    0  0.00000000000E+00  0.00000000000E+00  0.20671664851E+04  0.20671664851E+04  0.50400001928E-02 0.  1.
       -1   -1    0    0    0  501  0.00000000000E+00  0.00000000000E+00 -0.19247247257E+04  0.19247247257E+04  0.50400001928E-02 0. -1.
    10030    2    1    2    0    0  0.00000000000E+00  0.00000000000E+00  0.14244175942E+03  0.39918912108E+04  0.39893490426E+04 0.  0.
        5    1    3    3  502    0  0.12637323239E+04  0.42170900367E+03 -0.14142609054E+04  0.19429394918E+04  0.46999998093E+01 0.  1.
       -5    1    3    3    0  502 -0.12637323239E+04 -0.42170900367E+03  0.15567026648E+04  0.20489517190E+04  0.46999998093E+01 0. -1.
</event>
<event>
 5   0  0.5515000E-08  0.3866755E+04  0.7818609E-02  0.8031979E-01
       -1   -1    0    0    0  501  0.00000000000E+00  0.00000000000E+00  0.28245469211E+04  0.28245469212E+04  0.50400001928E-02 0. -1.
        1   -1    0    0  501    0  0.00000000000E+00  0.00000000000E+00 -0.13233801615E+04  0.13233801615E+04  0.50400001928E-02 0.  1.
    10030    2    1    2    0    0  0.00000000000E+00  0.00000000000E+00  0.15011667597E+04  0.41479270826E+04  0.38667554154E+04 0.  0.
        4    1    3    3  502    0  0.60732729172E+03 -0.10710770765E+04  0.23495750327E+04  0.26526509363E+04  0.12699999809E+01 0. -1.
       -4    1    3    3    0  502 -0.60732729172E+03  0.10710770765E+04 -0.84840827296E+03  0.14952761463E+04  0.12699999809E+01 0.  1.
</event>
<event>
 5   0  0.5515000E-08  0.4004404E+04  0.7818609E-02  0.8003659E-01
       -1   -1    0    0    0  501  0.00000000000E+00  0.00000000000E+00  0.13216373038E+04  0.13216373038E+04  0.50400001928E-02 0. -1.
        1   -1    0    0  501    0  0.00000000000E+00  0.00000000000E+00 -0.30332176474E+04  0.30332176474E+04  0.50400001928E-02 0.  1.
    10030    2    1    2    0    0  0.00000000000E+00  0.00000000000E+00 -0.17115803435E+04  0.43548549512E+04  0.40044043719E+04 0.  0.
        5    1    3    3  502    0 -0.15391390460E+04 -0.23692690288E+03 -0.22243801090E+04  0.27153217709E+04  0.46999998093E+01 0.  1.
       -5    1    3    3    0  502  0.15391390460E+04  0.23692690288E+03  0.51279976544E+03  0.16395331804E+04  0.46999998093E+01 0. -1.
</event>
<event>
 5   0  0.1776653E-07  0.3986182E+04  0.7818609E-02  0.8007340E-01
       -2   -1    0    0    0  501  0.00000000000E+00  0.00000000000E+00  0.22342729013E+04  0.22342729013E+04  0.25500000920E-02 0. -1.
        2   -1    0    0  501    0  0.00000000000E+00  0.00000000000E+00 -0.17779440223E+04  0.17779440223E+04  0.25500000920E-02 0.  1.
    10030    2    1    2    0    0  0.00000000000E+00  0.00000000000E+00  0.45632887896E+03  0.40122169236E+04  0.39861822081E+04 0.  0.
        4    1    3    3  502    0  0.20096075028E+03  0.29731977950E+03  0.22014858822E+04  0.22305438747E+04  0.12699999809E+01 0. -1.
       -4    1    3    3    0  502 -0.20096075028E+03 -0.29731977950E+03 -0.17451570032E+04  0.17816730489E+04  0.12699999809E+01 0.  1.
</event>
<event>
 5   0  0.1819906E-07  0.3975838E+04  0.7818609E-02  0.8009439E-01
        2   -1    0    0  501    0  0.00000000000E+00  0.00000000000E+00  0.20501714627E+04  0.20501714627E+04  0.25500000920E-02 0. -1.
       -2   -1    0    0    0  501  0.00000000000E+00  0.00000000000E+00 -0.19275569141E+04  0.19275569141E+04  0.25500000920E-02 0.  1.
    10030    2    1    2    0    0  0.00000000000E+00  0.00000000000E+00  0.12261454857E+03  0.39777283768E+04  0.39758381144E+04 0.  0.
        1    1    3    3  502    0 -0.26466681175E+03  0.19139053895E+04 -0.40661137305E+03  0.19744404701E+04  0.50400001928E-02 0.  1.
       -1    1    3    3    0  502  0.26466681175E+03 -0.19139053895E+04  0.52922592162E+03  0.20032879067E+04  0.50400001928E-02 0. -1.
</event>
<event>
 5   0  0.5515000E-08  0.3966767E+04  0.7818609E-02  0.8011284E-01
       -1   -1    0    0    0  501  0.00000000000E+00  0.00000000000E+00  0.26126189490E+04  0.26126189490E+04  0.50400001928E-02 0. -1.
        1   -1    0    0  501    0  0.00000000000E+00  0.00000000000E+00 -0.15056961868E+04  0.15056961868E+04  0.50400001928E-02 0.  1.
    10030    2    1    2    0    0  0.00000000000E+00  0.00000000000E+00  0.11069227621E+04  0.41183151358E+04  0.39667671417E+04 0.  0.
        4    1    3    3  502    0  0.93774085566E+02  0.69130758153E+03 -0.13741095959E+04  0.15410640953E+04  0.12699999809E+01 0.  1.
       -4    1    3    3    0  502 -0.93774085566E+02 -0.69130758153E+03  0.24810323580E+04  0.25772510405E+04  0.12699999809E+01 0. -1.
</event>
<event>
 5   0  0.1785559E-07  0.3993299E+04  0.7818609E-02  0.8005900E-01
       -2   -1    0    0    0  501  0.00000000000E+00  0.00000000000E+00  0.22121627933E+04  0.22121627933E+04  0.25500000920E-02 0.  1.
        2   -1    0    0  501    0  0.00000000000E+00  0.00000000000E+00 -0.18021317691E+04  0.18021317691E+04  0.25500000920E-02 0. -1.
    10030    2    1    2    0    0  0.00000000000E+00  0.00000000000E+00  0.41003102426E+03  0.40142945624E+04  0.39932988108E+04 0.  0.
        2    1    3    3  502    0 -0.12014671113E+04 -0.83965853236E+03 -0.11578630907E+04  0.18679391337E+04  0.25500000920E-02 0. -1.
       -2    1    3    3    0  502  0.12014671113E+04  0.83965853236E+03  0.15678941149E+04  0.21463554287E+04  0.25500000920E-02 0.  1.
</event>
<event>
 5   0  0.5515000E-08  0.3814739E+04  0.7818609E-02  0.8042999E-01
        1   -1    0    0  501    0  0.00000000000E+00  0.00000000000E+00  0.26604654350E+04  0.26604654350E+04  0.50400001928E-02 0. -1.
       -1   -1    0    0    0  501  0.00000000000E+00  0.00000000000E+00 -0.13674521993E+04  0.13674521993E+04  0.50400001928E-02 0.  1.
    10030    2    1    2    0    0  0.00000000000E+00  0.00000000000E+00  0.12930132357E+04  0.40279176343E+04  0.38147394722E+04 0.  0.
        5    1    3    3  502    0 -0.17639942678E+04  0.56890207108E+03  0.17111086718E+03  0.18613506822E+04  0.46999998093E+01 0.  1.
       -5    1    3    3    0  502  0.17639942678E+04 -0.56890207108E+03  0.11219023685E+04  0.21665669521E+04  0.46999998093E+01 0. -1.
</event>
<event>
 5   0  0.1785559E-07  0.3941162E+04  0.7818609E-02  0.8016522E-01
        2   -1    0    0  501    0  0.00000000000E+00  0.00000000000E+00  0.15468132768E+04  0.15468132768E+04  0.25500000920E-02 0.  1.
       -2   -1    0    0    0  501  0.00000000000E+00  0.00000000000E+00 -0.25104454600E+04  0.25104454600E+04  0.25500000920E-02 0. -1.
    10030    2    1    2    0    0  0.00000000000E+00  0.00000000000E+00 -0.96363218321E+03  0.40572587369E+04  0.39411624520E+04 0.  0.
        2    1    3    3  502    0 -0.16355450223E+04 -0.15463583576E+03  0.63848263611E+03  0.17625492442E+04  0.25500000920E-02 0.  1.
       -2    1    3    3    0  502  0.16355450223E+04  0.15463583576E+03 -0.16021148193E+04  0.22947094927E+04  0.25500000920E-02 0. -1.
</event>
<event>
 5   0  0.5515000E-08  0.4006667E+04  0.7818609E-02  0.8003203E-01
       -1   -1    0    0    0  501  0.00000000000E+00  0.00000000000E+00  0.23933992716E+04  0.23933992716E+04  0.50400001928E-02 0.  1.
        1   -1    0    0  501    0  0.00000000000E+00  0.00000000000E+00 -0.16768391144E+04  0.16768391144E+04  0.50400001928E-02 0. -1.
    10030    2    1    2    0    0  0.00000000000E+00  0.00000000000E+00  0.71656015719E+03  0.40702383859E+04  0.40066672010E+04 0.  0.
        4    1    3    3  502    0 -0.67480531980E+03  0.10950006300E+04 -0.12019779675E+04  0.17604377997E+04  0.12699999809E+01 0. -1.
       -4    1    3    3    0  502  0.67480531980E+03 -0.10950006300E+04  0.19185381247E+04  0.23098005862E+04  0.12699999809E+01 0.  1.
</event>
<event>
 5   0  0.5515000E-08  0.3965185E+04  0.7818609E-02  0.8011607E-01
       -1   -1    0    0    0  501  0.00000000000E+00  0.00000000000E+00  0.15316056255E+04  0.15316056255E+04  0.50400001928E-02 0.  1.
        1   -1    0    0  501    0  0.00000000000E+00  0.00000000000E+00 -0.25663745856E+04  0.25663745856E+04  0.50400001928E-02 0. -1.
    10030    2    1    2    0    0  0.00000000000E+00  0.00000000000E+00 -0.10347689601E+04  0.40979802111E+04  0.39651853689E+04 0.  0.
        4    1    3    3  502    0  0.12641889938E+04  0.23153752810E+03  0.10427711383E+04  0.16550397877E+04  0.12699999809E+01 0.  1.
       -4    1    3    3    0  502 -0.12641889938E+04 -0.23153752810E+03 -0.20775400984E+04  0.24429404234E+04  0.12699999809E+01 0. -1.
</event>
<event>
 5   0  0.5515000E-08  0.4043626E+04  0.7818609E-02  0.7995803E-01
        1   -1    0    0  501    0  0.00000000000E+00  0.00000000000E+00  0.17600852121E+04  0.17600852121E+04  0.50400001928E-02 0. -1.
       -1   -1    0    0    0  501  0.00000000000E+00  0.00000000000E+00 -0.23224604705E+04  0.23224604705E+04  0.50400001928E-02 0.  1.
    10030    2    1    2    0    0  0.00000000000E+00  0.00000000000E+00 -0.56237525841E+03  0.40825456827E+04  0.40436262587E+04 0.  0.
        4    1    3    3  502    0 -0.66613566840E+03  0.88586303282E+03  0.14260151061E+04  0.18061037449E+04  0.12699999809E+01 0. -1.
       -4    1    3    3    0  502  0.66613566840E+03 -0.88586303282E+03 -0.19883903645E+04  0.22764419378E+04  0.12699999809E+01 0.  1.
</event>
<event>
 5   0  0.1776653E-07  0.4007754E+04  0.7818609E-02  0.8002984E-01
       -2   -1    0    0    0  501  0.00000000000E+00  0.00000000000E+00  0.31234931910E+04  0.31234931910E+04  0.25500000920E-02 0. -1.
        2   -1    0    0  501    0  0.00000000000E+00  0.00000000000E+00 -0.12855869769E+04  0.12855869769E+04  0.25500000920E-02 0.  1.
    10030    2    1    2    0    0  0.00000000000E+00  0.00000000000E+00  0.18379062142E+04  0.44090801679E+04  0.40077535697E+04 0.  0.
        4    1    3    3  502    0 -0.32193428952E+03  0.15018607315E+04 -0.49689151930E+03  0.16143513058E+04  0.12699999809E+01 0.  1.
       -4    1    3    3    0  502  0.32193428952E+03 -0.15018607315E+04  0.23347977335E+04  0.27947288621E+04  0.12699999809E+01 0. -1.
</event>
<event>
 5   0  0.1821433E-07  0.4013058E+04  0.7818609E-02  0.8001918E-01
       -2   -1    0    0    0  501  0.00000000000E+00  0.00000000000E+00  0.24387935638E+04  0.24387935638E+04  0.25500000920E-02 0. -1.
        2   -1    0    0  501    0  0.00000000000E+00  0.00000000000E+00 -0.16508808714E+04  0.16508808714E+04  0.25500000920E-02 0.  1.
    10030    2    1    2    0    0  0.00000000000E+00  0.00000000000E+00  0.78791269247E+03  0.40896744352E+04  0.40130575096E+04 0.  0.
        5    1    3    3  502    0 -0.75337294982E+03 -0.18068294253E+04 -0.54828612874E+02  0.19583747446E+04  0.46999998093E+01 0.  1.
       -5    1    3    3    0  502  0.75337294982E+03  0.18068294253E+04  0.84274130534E+03  0.21312996906E+04  0.46999998093E+01 0. -1.
</event>
<event>
 5   0  0.1821433E-07  0.4031666E+04  0.7818609E-02  0.7998189E-01
        2   -1    0    0  501    0  0.00000000000E+00  0.00000000000E+00  0.13824459848E+04  0.13824459848E+04  0.25500000920E-02 0. -1.
       -2   -1    0    0    0  501  0.00000000000E+00  0.00000000000E+00 -0.29394146589E+04  0.29394146589E+04  0.25500000920E-02 0.  1.
    10030    2    1    2    0    0  0.00000000000E+00  0.00000000000E+00 -0.15569686741E+04  0.43218606438E+04  0.40316656573E+04 0.  0.
        5    1    3    3  502    0  0.85601366059E+03 -0.53237474062E+03 -0.26498100672E+04  0.28350833733E+04  0.46999998093E+01 0.  1.
       -5    1    3    3    0  502 -0.85601366059E+03  0.53237474062E+03  0.10928413931E+04  0.14867772705E+04  0.46999998093E+01 0. -1.
</event>
<event>
 5   0  0.1776653E-07  0.4097701E+04  0.7818609E-02  0.7985122E-01
        2   -1    0    0  501    0  0.00000000000E+00  0.00000000000E+00  0.27923731914E+04  0.27923731914E+04  0.25500000920E-02 0.  1.
       -2   -1    0    0    0  501  0.00000000000E+00  0.00000000000E+00 -0.15033052323E+04  0.15033052323E+04  0.25500000920E-02 0. -1.
    10030    2    1    2    0    0  0.00000000000E+00  0.00000000000E+00  0.12890679591E+04  0.42956784237E+04  0.40977014186E+04 0.  0.
        4    1    3    3  502    0  0.63378560952E+03  0.10177575666E+04  0.23862103803E+04  0.26704898905E+04  0.12699999809E+01 0.  1.
       -4    1    3    3    0  502 -0.63378560952E+03 -0.10177575666E+04 -0.10971424212E+04  0.16251885332E+04  0.12699999809E+01 0. -1.
</event>
<event>
 5   0  0.5515000E-08  0.3364125E+04  0.7818609E-02  0.8146768E-01
       -1   -1    0    0    0  501  0.00000000000E+00  0.00000000000E+00  0.15156843592E+04  0.15156843592E+04  0.50400001928E-02 0.  1.
        1   -1    0    0  501    0  0.00000000000E+00  0.00000000000E+00 -0.18667037292E+04  0.18667037292E+04  0.50400001928E-02 0. -1.
    10030    2    1    2    0    0  0.00000000000E+00  0.00000000000E+00 -0.35101937001E+03  0.33823880884E+04  0.33641246384E+04 0.  0.
        1    1    3    3  502    0 -0.86441346276E+03  0.12997015027E+04  0.45470980292E+03  0.16257907724E+04  0.50400001928E-02 0.  1.
       -1    1    3    3    0  502  0.86441346276E+03 -0.12997015027E+04 -0.80572917293E+03  0.17565973161E+04  0.50400001928E-02 0. -1.
</event>
<event>
 5   0  0.5515000E-08  0.3881032E+04  0.7818609E-02  0.8028986E-01
        1   -1    0    0  501    0  0.00000000000E+00  0.00000000000E+00  0.24990082794E+04  0.24990082794E+04  0.50400001928E-02 0.  1.
       -1   -1    0    0    0  501  0.00000000000E+00  0.00000000000E+00 -0.15068390268E+04  0.15068390268E+04  0.50400001928E-02 0. -1.
    10030    2    1    2    0    0  0.00000000000E+00  0.00000000000E+00  0.99216925266E+03  0.40058473062E+04  0.38810324418E+04 0.  0.
        2    1    3    3  502    0  0.12545261120E+04  0.62434016662E+03  0.18816292254E+04  0.23460956825E+04  0.25500000920E-02 0.  1.
       -2    1    3    3    0  502 -0.12545261120E+04 -0.62434016662E+03 -0.88945997279E+03  0.16597516237E+04  0.25500000920E-02 0. -1.
</event>
<event>
 5   0  0.1785559E-07  0.3989321E+04  0.7818609E-02  0.8006704E-01
        2   -1    0    0  501    0  0.00000000000E+00  0.00000000000E+00  0.22523434780E+04  0.22523434780E+04  0.25500000920E-02 0. -1.
       -2   -1    0    0    0  501  0.00000000000E+00  0.00000000000E+00 -0.17664584470E+04  0.17664584470E+04  0.25500000920E-02 0.  1.
    10030    2    1    2    0    0  0.00000000000E+00  0.00000000000E+00  0.48588503101E+03  0.40188019250E+04  0.39893213268E+04 0.  0.
        2    1    3    3  502    0  0.49515906432E+03  0.12708376514E+04 -0.12233065574E+04  0.18321271158E+04  0.25500000920E-02 0.  1.
       -2    1    3    3    0  502 -0.49515906432E+03 -0.12708376514E+04  0.17091915884E+04  0.21866748092E+04  0.25500000920E-02 0. -1.
</event>
<event>
 5   0  0.5515000E-08  0.3982898E+04  0.7818609E-02  0.8008006E-01
        1   -1    0    0  501    0  0.00000000000E+00  0.00000000000E+00  0.25830969802E+04  0.25830969802E+04  0.50400001928E-02 0. -1.
       -1   -1    0    0    0  501  0.00000000000E+00  0.00000000000E+00 -0.15353154211E+04  0.15353154211E+04  0.50400001928E-02 0.  1.
    10030    2    1    2    0    0  0.00000000000E+00  0.00000000000E+00  0.10477815591E+04  0.41184124013E+04  0.39828977531E+04 0.  0.
        2    1    3    3  502    0 -0.10231011478E+04  0.38897978556E+01 -0.12427834195E+04  0.16097396426E+04  0.25500000920E-02 0.  1.
       -2    1    3    3    0  502  0.10231011478E+04 -0.38897978556E+01  0.22905649786E+04  0.25086727587E+04  0.25500000920E-02 0. -1.
</event>
<event>
 5   0  0.1773903E-07  0.4158678E+04  0.7818609E-02  0.7973279E-01
       -2   -1    0    0    0  501  0.00000000000E+00  0.00000000000E+00  0.27881883938E+04  0.27881883938E+04  0.25500000920E-02 0.  1.
        2   -1    0    0  501    0  0.00000000000E+00  0.00000000000E+00 -0.15507022401E+04  0.15507022401E+04  0.25500000920E-02 0. -1.
    10030    2    1    2    0    0  0.00000000000E+00  0.00000000000E+00  0.12374861537E+04  0.43388906340E+04  0.41586776688E+04 0.  0.
        3    1    3    3  502    0 -0.17304706443E+04  0.90318617931E+03 -0.12880864535E+03  0.19562376140E+04  0.10100000352E+00 0. -1.
       -3    1    3    3    0  502  0.17304706443E+04 -0.90318617931E+03  0.13662947991E+04  0.23826530199E+04  0.10100000352E+00 0.  1.
</event>
<event>
 5   0  0.1821433E-07  0.3999747E+04  0.7818609E-02  0.8004598E-01
        2   -1    0    0  501    0  0.00000000000E+00  0.00000000000E+00  0.17624663404E+04  0.17624663404E+04  0.25500000920E-02 0.  1.
       -2   -1    0    0    0  501  0.00000000000E+00  0.00000000000E+00 -0.22692603200E+04  0.22692603200E+04  0.25500000920E-02 0. -1.
    10030    2    1    2    0    0  0.00000000000E+00  0.00000000000E+00 -0.50679397962E+03  0.40317266604E+04  0.39997474578E+04 0.  0.
        5    1    3    3  502    0  0.14657022273E+04  0.11450976297E+04 -0.99407893702E+03  0.21089681419E+04  0.46999998093E+01 0. -1.
       -5    1    3    3    0  502 -0.14657022273E+04 -0.11450976297E+04  0.48728495740E+03  0.19227585185E+04  0.46999998093E+01 0.  1.
</event>
<event>
 5   0  0.5515000E-08  0.3883389E+04  0.7818609E-02  0.8028493E-01
       -1   -1    0    0    0  501  0.00000000000E+00  0.00000000000E+00  0.14229802567E+04  0.14229802567E+04  0.50400001928E-02 0. -1.
        1   -1    0    0  501    0  0.00000000000E+00  0.00000000000E+00 -0.26494940950E+04  0.26494940950E+04  0.50400001928E-02 0.  1.
    10030    2    1    2    0    0  0.00000000000E+00  0.00000000000E+00 -0.12265138383E+04  0.40724743517E+04  0.38833891319E+04 0.  0.
        5    1    3    3  502    0  0.16622256642E+04  0.12525854006E+03 -0.16574664148E+04  0.23507234773E+04  0.46999998093E+01 0.  1.
       -5    1    3    3    0  502 -0.16622256642E+04 -0.12525854006E+03  0.43095257642E+03  0.17217508745E+04  0.46999998093E+01 0. -1.
</event>
<event>
 5   0  0.5515000E-08  0.3951849E+04  0.7818609E-02  0.8014331E-01
       -1   -1    0    0    0  501  0.00000000000E+00  0.00000000000E+00  0.17519556417E+04  0.17519556417E+04  0.50400001928E-02 0. -1.
        1   -1    0    0  501    0  0.00000000000E+00  0.00000000000E+00 -0.22285249934E+04  0.22285249934E+04  0.50400001928E-02 0.  1.
    10030    2    1    2    0    0  0.00000000000E+00  0.00000000000E+00 -0.47656935170E+03  0.39804806352E+04  0.39518486484E+04 0.  0.
        3    1    3    3  502    0 -0.87884165337E+03 -0.17503151595E+04  0.24972913862E+02  0.19587213855E+04  0.10100000352E+00 0. -1.
       -3    1    3    3    0  502  0.87884165337E+03  0.17503151595E+04 -0.50154226556E+03  0.20217592497E+04  0.10100000352E+00 0.  1.
</event>
<event>
 5   0  0.1773903E-07  0.4008954E+04  0.7818609E-02  0.8002743E-01
        2   -1    0    0  501    0  0.00000000000E+00  0.00000000000E+00  0.21573809005E+04  0.21573809005E+04  0.25500000920E-02 0. -1.
       -2   -1    0    0    0  501  0.00000000000E+00  0.00000000000E+00 -0.18624099494E+04  0.18624099494E+04  0.25500000920E-02 0.  1.
    10030    2    1    2    0    0  0.00000000000E+00  0.00000000000E+00  0.29497095104E+03  0.40197908499E+04  0.40089538055E+04 0.  0.
        3    1    3    3  502    0 -0.14576195188E+04  0.41067879024E+03 -0.11693108314E+04  0.19132693383E+04  0.10100000352E+00 0.  1.
       -3    1    3    3    0  502  0.14576195188E+04 -0.41067879024E+03  0.14642817824E+04  0.21065215116E+04  0.10100000352E+00 0. -1.
</event>
<event>
 5   0  0.1819906E-07  0.3931893E+04  0.7818609E-02  0.8018429E-01
       -2   -1    0    0    0  501  0.00000000000E+00  0.00000000000E+00  0.15402577128E+04  0.15402577128E+04  0.25500000920E-02 0. -1.
        2   -1    0    0  501    0  0.00000000000E+00  0.00000000000E+00 -0.25092850105E+04  0.25092850105E+04  0.25500000920E-02 0.  1.
    10030    2    1    2    0    0  0.00000000000E+00  0.00000000000E+00 -0.96902729767E+03  0.40495427233E+04  0.39318929747E+04 0.  0.
        1    1    3    3  502    0 -0.28689219998E+02 -0.15194748131E+04  0.79992690679E+03  0.17174137053E+04  0.50400001928E-02 0. -1.
       -1    1    3    3    0  502  0.28689219998E+02  0.15194748131E+04 -0.17689542045E+04  0.23321290180E+04  0.50400001928E-02 0.  1.
</event>
<event>
 5   0  0.1819906E-07  0.3992683E+04  0.7818609E-02  0.8006024E-01
        2   -1    0    0  501    0  0.00000000000E+00  0.00000000000E+00  0.27592409252E+04  0.27592409252E+04  0.25500000920E-02 0. -1.
       -2   -1    0    0    0  501  0.00000000000E+00  0.00000000000E+00 -0.14443752843E+04  0.14443752843E+04  0.25500000920E-02 0.  1.
    10030    2    1    2    0    0  0.00000000000E+00  0.00000000000E+00  0.13148656409E+04  0.42036162096E+04  0.39926830057E+04 0.  0.
        1    1    3    3  502    0 -0.18676037406E+04 -0.10629686603E+03  0.13915027000E+04  0.23314207084E+04  0.50400001928E-02 0.  1.
       -1    1    3    3    0  502  0.18676037406E+04  0.10629686603E+03 -0.76637059047E+02  0.18721955011E+04  0.50400001928E-02 0. -1.
</event>
<event>
 5   0  0.1785559E-07  0.3985546E+04  0.7818609E-02  0.8007469E-01
       -2   -1    0    0    0  501  0.00000000000E+00  0.00000000000E+00  0.21975500561E+04  0.21975500562E+04  0.25500000920E-02 0.  1.
        2   -1    0    0  501    0  0.00000000000E+00  0.00000000000E+00 -0.18070775364E+04  0.18070775364E+04  0.25500000920E-02 0. -1.
    10030    2    1    2    0    0  0.00000000000E+00  0.00000000000E+00  0.39047251976E+03  0.40046275925E+04  0.39855455544E+04 0.  0.
        2    1    3    3  502    0  0.28491353210E+03  0.38412364375E+03 -0.17485585855E+04  0.18127834458E+04  0.25500000920E-02 0. -1.
       -2    1    3    3    0  502 -0.28491353210E+03 -0.38412364375E+03  0.21390311052E+04  0.21918441468E+04  0.25500000920E-02 0.  1.
</event>
<event>
 5   0  0.5515000E-08  0.4003688E+04  0.7818609E-02  0.8003803E-01
       -1   -1    0    0    0  501  0.00000000000E+00  0.00000000000E+00  0.14249801886E+04  0.14249801886E+04  0.50400001928E-02 0. -1.
        1   -1    0    0  501    0  0.00000000000E+00  0.00000000000E+00 -0.28122351771E+04  0.28122351771E+04  0.50400001928E-02 0.  1.
    10030    2    1    2    0    0  0.00000000000E+00  0.00000000000E+00 -0.13872549885E+04  0.42372153657E+04  0.40036880063E+04 0.  0.
        1    1    3    3  502    0 -0.72372988593E+03 -0.80397526594E+03 -0.24762799543E+04  0.27022441763E+04  0.50400001928E-02 0.  1.
       -1    1    3    3    0  502  0.72372988593E+03  0.80397526594E+03  0.10890249658E+04  0.15349711894E+04  0.50400001928E-02 0. -1.
</event>
<event>
 5   0  0.1819906E-07  0.3990920E+04  0.7818609E-02  0.8006381E-01
       -2   -1    0    0    0  501  0.00000000000E+00  0.00000000000E+00  0.19124673203E+04  0.19124673203E+04  0.25500000920E-02 0. -1.
        2   -1    0    0  501    0  0.00000000000E+00  0.00000000000E+00 -0.20820545611E+04  0.20820545611E+04  0.25500000920E-02 0.  1.
    10030    2    1    2    0    0  0.00000000000E+00  0.00000000000E+00 -0.16958724085E+03  0.39945218814E+04  0.39909203486E+04 0.  0.
        1    1    3    3  502    0  0.94347195560E+03  0.16809408936E+02 -0.18446292841E+04  0.20719746820E+04  0.50400001928E-02 0.  1.
       -1    1    3    3    0  502 -0.94347195560E+03 -0.16809408936E+02  0.16750420432E+04  0.19225471994E+04  0.50400001928E-02 0. -1.
</event>
<event>
 5   0  0.1776653E-07  0.4012191E+04  0.7818609E-02  0.8002092E-01
        2   -1    0    0  501    0  0.00000000000E+00  0.00000000000E+00  0.13964426209E+04  0.13964426209E+04  0.25500000920E-02 0.  1.
       -2   -1    0    0    0  501  0.00000000000E+00  0.00000000000E+00 -0.28819073723E+04  0.28819073723E+04  0.25500000920E-02 0. -1.
    10030    2    1    2    0    0  0.00000000000E+00  0.00000000000E+00 -0.14854647514E+04  0.42783499933E+04  0.40121905659E+04 0.  0.
        4    1    3    3  502    0 -0.74863838246E+03  0.42460447462E+03  0.11895669225E+04  0.14682709095E+04  0.12699999809E+01 0.  1.
       -4    1    3    3    0  502  0.74863838246E+03 -0.42460447462E+03 -0.26750316739E+04  0.28100790838E+04  0.12699999809E+01 0. -1.
</event>
<event>
 5   0  0.1773903E-07  0.4026346E+04  0.7818609E-02  0.7999253E-01
       -2   -1    0    0    0  501  0.00000000000E+00  0.00000000000E+00  0.13150270936E+04  0.13150270936E+04  0.25500000920E-02 0.  1.
        2   -1    0    0  501    0  0.00000000000E+00  0.00000000000E+00 -0.30819642188E+04  0.30819642188E+04  0.25500000920E-02 0. -1.
    10030    2    1    2    0    0  0.00000000000E+00  0.00000000000E+00 -0.17669371252E+04  0.43969913124E+04  0.40263464577E+04 0.  0.
        3    1    3    3  502    0  0.99517442276E+03 -0.17439825793E+04 -0.72514293489E+03  0.21348722807E+04  0.10100000352E+00 0.  1.
       -3    1    3    3    0  502 -0.99517442276E+03  0.17439825793E+04 -0.10417941903E+04  0.22621190317E+04  0.10100000352E+00 0. -1.
</event>
<event>
 5   0  0.5515000E-08  0.3999570E+04  0.7818609E-02  0.8004633E-01
        1   -1    0    0  501    0  0.00000000000E+00  0.00000000000E+00  0.16855902745E+04  0.16855902745E+04  0.50400001928E-02 0.  1.
       -1   -1    0    0    0  501  0.00000000000E+00  0.00000000000E+00 -0.23725457486E+04  0.23725457486E+04  0.50400001928E-02 0. -1.
    10030    2    1    2    0    0  0.00000000000E+00  0.00000000000E+00 -0.68695547408E+03  0.40581360231E+04  0.39995699967E+04 0.  0.
        5    1    3    3  502    0 -0.14112945960E+04  0.14108057460E+04 -0.47574244578E+03  0.20514575926E+04  0.46999998093E+01 0. -1.
       -5    1    3    3    0  502  0.14112945960E+04 -0.14108057460E+04 -0.21121302830E+03  0.20066784304E+04  0.46999998093E+01 0.  1.
</event>
<event>
 5   0  0.5515000E-08  0.4018674E+04  0.7818609E-02  0.8000790E-01
       -1   -1    0    0    0  501  0.00000000000E+00  0.00000000000E+00  0.15143416634E+04  0.15143416634E+04  0.50400001928E-02 0. -1.
        1   -1    0    0  501    0  0.00000000000E+00  0.00000000000E+00 -0.26661327767E+04  0.26661327767E+04  0.50400001928E-02 0.  1.
    10030    2    1    2    0    0  0.00000000000E+00  0.00000000000E+00 -0.11517911133E+04  0.41804744401E+04  0.40186743804E+04 0.  0.
        2    1    3    3  502    0  0.10790410947E+04  0.16224788661E+04 -0.10862271556E+04  0.22308421703E+04  0.25500000920E-02 0.  1.
       -2    1    3    3    0  502 -0.10790410947E+04 -0.16224788661E+04 -0.65563957639E+02  0.19496322699E+04  0.25500000920E-02 0. -1.
</event>
<event>
 5   0  0.1819906E-07  0.3996153E+04  0.7818609E-02  0.8005323E-01
        2   -1    0    0  501    0  0.00000000000E+00  0.00000000000E+00  0.12027773675E+04  0.12027773675E+04  0.25500000920E-02 0.  1.
       -2   -1    0    0    0  501  0.00000000000E+00  0.00000000000E+00 -0.33192420316E+04  0.33192420316E+04  0.25500000920E-02 0. -1.
    10030    2    1    2    0    0  0.00000000000E+00  0.00000000000E+00 -0.21164646641E+04  0.45220193991E+04  0.39961527463E+04 0.  0.
        1    1    3    3  502    0 -0.38817606972E+02 -0.15220578110E+04 -0.25223855949E+04  0.29462850976E+04  0.50400001928E-02 0. -1.
       -1    1    3    3    0  502  0.38817606972E+02  0.15220578110E+04  0.40592093085E+03  0.15757343015E+04  0.50400001928E-02 0.  1.
</event>
<event>
 5   0  0.1776653E-07  0.3991765E+04  0.7818609E-02  0.8006210E-01
       -2   -1    0    0    0  501  0.00000000000E+00  0.00000000000E+00  0.20532275271E+04  0.20532275271E+04  0.25500000920E-02 0.  1.
        2   -1    0    0  501    0  0.00000000000E+00  0.00000000000E+00 -0.19401392255E+04  0.19401392255E+04  0.25500000920E-02 0. -1.
    10030    2    1    2    0    0  0.00000000000E+00  0.00000000000E+00  0.11308830166E+03  0.39933667526E+04  0.39917651555E+04 0.  0.
        4    1    3    3  502    0 -0.18576546159E+04  0.75341083354E+02  0.78277529012E+03  0.20172495429E+04  0.12699999809E+01 0.  1.
       -4    1    3    3    0  502  0.18576546159E+04 -0.75341083354E+02 -0.66968698845E+03  0.19761172096E+04  0.12699999809E+01 0. -1.
</event>
<event>
 5   0  0.1773903E-07  0.3961665E+04  0.7818609E-02  0.8012325E-01
        2   -1    0    0  501    0  0.00000000000E+00  0.00000000000E+00  0.25574648138E+04  0.25574648138E+04  0.25500000920E-02 0. -1.
       -2   -1    0    0    0  501  0.00000000000E+00  0.00000000000E+00 -0.15342137048E+04  0.15342137048E+04  0.25500000920E-02 0.  1.
    10030    2    1    2    0    0  0.00000000000E+00  0.00000000000E+00  0.10232511090E+04  0.40916785186E+04  0.39616650877E+04 0.  0.
        3    1    3    3  502    0  0.62509326788E+03  0.10133006116E+03  0.24501034227E+04  0.25306157683E+04  0.10100000352E+00 0. -1.
       -3    1    3    3    0  502 -0.62509326788E+03 -0.10133006116E+03 -0.14268523137E+04  0.15610627502E+04  0.10100000352E+00 0.  1.
</event>
<event>
 5   0  0.5515000E-08  0.3978675E+04  0.7818609E-02  0.8008862E-01
        1   -1    0    0  501    0  0.00000000000E+00  0.00000000000E+00  0.15206520564E+04  0.15206520564E+04  0.50400001928E-02 0.  1.
       -1   -1    0    0    0  501  0.00000000000E+00  0.00000000000E+00 -0.26024775952E+04  0.26024775952E+04  0.50400001928E-02 0. -1.
    10030    2    1    2    0    0  0.00000000000E+00  0.00000000000E+00 -0.10818255389E+04  0.41231296516E+04  0.39786746069E+04 0.  0.
        3    1    3    3  502    0 -0.19231580962E+04 -0.41989144713E+03 -0.83878038987E+03  0.21397192440E+04  0.10100000352E+00 0.  1.
       -3    1    3    3    0  502  0.19231580962E+04  0.41989144713E+03 -0.24304514901E+03  0.19834104076E+04  0.10100000352E+00 0. -1.
</event>
<event>
 5   0  0.1785559E-07  0.3907830E+04  0.7818609E-02  0.8023403E-01
        2   -1    0    0  501    0  0.00000000000E+00  0.00000000000E+00  0.23021230634E+04  0.23021230634E+04  0.25500000920E-02 0. -1.
       -2   -1    0    0    0  501  0.00000000000E+00  0.00000000000E+00 -0.16583750994E+04  0.16583750994E+04  0.25500000920E-02 0.  1.
    10030    2    1    2    0    0  0.00000000000E+00  0.00000000000E+00  0.64374796397E+03  0.39604981628E+04  0.39078298654E+04 0.  0.
        2    1    3    3  502    0  0.12497000794E+04  0.22671639415E+03  0.18266862244E+04  0.22248445281E+04  0.25500000920E-02 0. -1.
       -2    1    3    3    0  502 -0.12497000794E+04 -0.22671639415E+03 -0.11829382604E+04  0.17356536347E+04  0.25500000920E-02 0.  1.
</event>
<event>
 5   0  0.5515000E-08  0.3996735E+04  0.7818609E-02  0.8005206E-01
       -1   -1    0    0    0  501  0.00000000000E+00  0.00000000000E+00  0.17046748184E+04  0.17046748184E+04  0.50400001928E-02 0. -1.
        1   -1    0    0  501    0  0.00000000000E+00  0.00000000000E+00 -0.23426595143E+04  0.23426595143E+04  0.50400001928E-02 0.  1.
    10030    2    1    2    0    0  0.00000000000E+00  0.00000000000E+00 -0.63798469588E+03  0.40473343328E+04  0.39967350086E+04 0.  0.
        1    1    3    3  502    0 -0.14000914765E+04  0.10669056163E+04 -0.12769757928E+04  0.21746748980E+04  0.50400001928E-02 0.  1.
       -1    1    3    3    0  502  0.14000914765E+04 -0.10669056163E+04  0.63899109695E+03  0.18726594348E+04  0.50400001928E-02 0. -1.
</event>
<event>
 5   0  0.5515000E-08  0.3424988E+04  0.7818609E-02  0.8131800E-01
        1   -1    0    0  501    0  0.00000000000E+00  0.00000000000E+00  0.25258175489E+04  0.25258175489E+04  0.50400001928E-02 0. -1.
       -1   -1    0    0    0  501  0.00000000000E+00  0.00000000000E+00 -0.11610641886E+04  0.11610641886E+04  0.50400001928E-02 0.  1.
    10030    2    1    2    0    0  0.00000000000E+00  0.00000000000E+00  0.13647533602E+04  0.36868817375E+04  0.34249883521E+04 0.  0.
        2    1    3    3  502    0 -0.10626278675E+04  0.13029697172E+04  0.10323988861E+04  0.19730067230E+04  0.25500000920E-02 0.  1.
       -2    1    3    3    0  502  0.10626278675E+04 -0.13029697172E+04  0.33235447408E+03  0.17138750145E+04  0.25500000920E-02 0. -1.
</event>
<event>
 5   0  0.1821433E-07  0.3988621E+04  0.7818609E-02  0.8006846E-01
        2   -1    0    0  501    0  0.00000000000E+00  0.00000000000E+00  0.18873578630E+04  0.18873578630E+04  0.25500000920E-02 0.  1.
       -2   -1    0    0    0  501  0.00000000000E+00  0.00000000000E+00 -0.21073244448E+04  0.21073244448E+04  0.25500000920E-02 0. -1.
    10030    2    1    2    0    0  0.00000000000E+00  0.00000000000E+00 -0.21996658173E+03  0.39946823078E+04  0.39886214966E+04 0.  0.
        5    1    3    3  502    0  0.19141704933E+04 -0.52165625012E+03 -0.31297168206E+03  0.20085186792E+04  0.46999998093E+01 0. -1.
       -5    1    3    3    0  502 -0.19141704933E+04  0.52165625012E+03  0.93005100330E+02  0.19861636286E+04  0.46999998093E+01 0.  1.
</event>
<event>
 5   0  0.5515000E-08  0.4032988E+04  0.7818609E-02  0.7997925E-01
       -1   -1    0    0    0  501  0.00000000000E+00  0.00000000000E+00  0.21607427745E+04  0.21607427745E+04  0.50400001928E-02 0. -1.
        1   -1    0    0  501    0  0.00000000000E+00  0.00000000000E+00 -0.18818747393E+04  0.18818747393E+04  0.50400001928E-02 0.  1.
    10030    2    1    2    0    0  0.00000000000E+00  0.00000000000E+00  0.27886803515E+03  0.40426175138E+04  0.40329876000E+04 0.  0.
        1    1    3    3  502    0 -0.72874735177E+03  0.14935150759E+04  0.12843466128E+04  0.21002871724E+04  0.50400001928E-02 0. -1.
       -1    1    3    3    0  502  0.72874735177E+03 -0.14935150759E+04 -0.10054785777E+04  0.19423303414E+04  0.50400001928E-02 0.  1.
</event>
<event>
 5   0  0.1776653E-07  0.3671926E+04  0.7818609E-02  0.8074212E-01
       -2   -1    0    0    0  501  0.00000000000E+00  0.00000000000E+00  0.21785607634E+04  0.21785607634E+04  0.25500000920E-02 0.  1.
        2   -1    0    0  501    0  0.00000000000E+00  0.00000000000E+00 -0.15472415815E+04  0.15472415815E+04  0.25500000920E-02 0. -1.
    10030    2    1    2    0    0  0.00000000000E+00  0.00000000000E+00  0.63131918191E+03  0.37258023449E+04  0.36719258168E+04 0.  0.
        4    1    3    3  502    0 -0.89007288814E+03  0.16057693102E+04  0.30979866609E+03  0.18619080671E+04  0.12699999809E+01 0. -1.
       -4    1    3    3    0  502  0.89007288814E+03 -0.16057693102E+04  0.32152051583E+03  0.18638942778E+04  0.12699999809E+01 0.  1.
</event>
<event>
 5   0  0.1773903E-07  0.3984860E+04  0.7818609E-02  0.8007608E-01
        2   -1    0    0  501    0  0.00000000000E+00  0.00000000000E+00  0.18196483515E+04  0.18196483515E+04  0.25500000920E-02 0.  1.
       -2   -1    0    0    0  501  0.00000000000E+00  0.00000000000E+00 -0.21816181418E+04  0.21816181418E+04  0.25500000920E-02 0. -1.
    10030    2    1    2    0    0  0.00000000000E+00  0.00000000000E+00 -0.36196979027E+03  0.40012664933E+04  0.39848602763E+04 0.  0.
        3    1    3    3  502    0 -0.84695126344E+03  0.61841678301E+03 -0.18820707842E+04  0.21545199482E+04  0.10100000352E+00 0. -1.
       -3    1    3    3    0  502  0.84695126344E+03 -0.61841678301E+03  0.15201009939E+04  0.18467465452E+04  0.10100000352E+00 0.  1.
</event>
<event>
 5   0  0.1773903E-07  0.3843026E+04  0.7818609E-02  0.8036984E-01
       -2   -1    0    0    0  501  0.00000000000E+00  0.00000000000E+00  0.26357955733E+04  0.26357955733E+04  0.25500000920E-02 0.  1.
        2   -1    0    0  501    0  0.00000000000E+00  0.00000000000E+00 -0.14007957606E+04  0.14007957606E+04  0.25500000920E-02 0. -1.
    10030    2    1    2    0    0  0.00000000000E+00  0.00000000000E+00  0.12349998127E+04  0.40365913340E+04  0.38430255086E+04 0.  0.
        3    1    3    3  502    0  0.13416715733E+04  0.13639859070E+04  0.43057248329E+03  0.19611050045E+04  0.10100000352E+00 0. -1.
       -3    1    3    3    0  502 -0.13416715733E+04 -0.13639859070E+04  0.80442732942E+03  0.20754863294E+04  0.10100000352E+00 0.  1.
</event>
<event>
 5   0  0.5515000E-08  0.3981073E+04  0.7818609E-02  0.8008376E-01
       -1   -1    0    0    0  501  0.00000000000E+00  0.00000000000E+00  0.19317369087E+04  0.19317369087E+04  0.50400001928E-02 0. -1.
        1   -1    0    0  501    0  0.00000000000E+00  0.00000000000E+00 -0.20511263123E+04  0.20511263123E+04  0.50400001928E-02 0.  1.
    10030    2    1    2    0    0  0.00000000000E+00  0.00000000000E+00 -0.11938940360E+03  0.39828632210E+04  0.39810734240E+04 0.  0.
        5    1    3    3  502    0  0.18218738649E+04  0.34809945511E+03 -0.78238827455E+03  0.20130949089E+04  0.46999998093E+01 0.  1.
       -5    1    3    3    0  502 -0.18218738649E+04 -0.34809945511E+03  0.66299887094E+03  0.19697683120E+04  0.46999998093E+01 0. -1.
</event>
<event>
 5   0  0.1785559E-07  0.3951071E+04  0.7818609E-02  0.8014490E-01
        2   -1    0    0  501    0  0.00000000000E+00  0.00000000000E+00  0.29753647386E+04  0.29753647386E+04  0.25500000920E-02 0. -1.
       -2   -1    0    0    0  501  0.00000000000E+00  0.00000000000E+00 -0.13116848947E+04  0.13116848947E+04  0.25500000920E-02 0.  1.
    10030    2    1    2    0    0  0.00000000000E+00  0.00000000000E+00  0.16636798439E+04  0.42870496333E+04  0.39510712390E+04 0.  0.
        2    1    3    3  502    0 -0.94768864028E+01  0.78025428326E+03  0.28010672407E+04  0.29077249259E+04  0.25500000920E-02 0. -1.
       -2    1    3    3    0  502  0.94768864028E+01 -0.78025428326E+03 -0.11373873968E+04  0.13793247074E+04  0.25500000920E-02 0.  1.
</event>
<event>
 5   0  0.1776653E-07  0.3955601E+04  0.7818609E-02  0.8013564E-01
       -2   -1    0    0    0  501  0.00000000000E+00  0.00000000000E+00  0.25288277646E+04  0.25288277646E+04  0.25500000920E-02 0.  1.
        2   -1    0    0  501    0  0.00000000000E+00  0.00000000000E+00 -0.15468409893E+04  0.15468409893E+04  0.25500000920E-02 0. -1.
    10030    2    1    2    0    0  0.00000000000E+00  0.00000000000E+00  0.98198677532E+03  0.40756687540E+04  0.39556008096E+04 0.  0.
        4    1    3    3  502    0  0.10616071730E+04 -0.12367476419E+04 -0.66334254657E+03  0.17597100518E+04  0.12699999809E+01 0. -1.
       -4    1    3    3    0  502 -0.10616071730E+04  0.12367476419E+04  0.16453293219E+04  0.23159587021E+04  0.12699999809E+01 0.  1.
</event>
<event>
 5   0  0.1776653E-07  0.3819480E+04  0.7818609E-02  0.8041987E-01
       -2   -1    0    0    0  501  0.00000000000E+00  0.00000000000E+00  0.16416616939E+04  0.16416616939E+04  0.25500000920E-02 0. -1.
        2   -1    0    0  501    0  0.00000000000E+00  0.00000000000E+00 -0.22215944330E+04  0.22215944330E+04  0.25500000920E-02 0.  1.
    10030    2    1    2    0    0  0.00000000000E+00  0.00000000000E+00 -0.57993273914E+03  0.38632561269E+04  0.38194797971E+04 0.  0.
        4    1    3    3  502    0  0.62456702382E+03 -0.64594859011E+02  0.15342703648E+04  0.16577827445E+04  0.12699999809E+01 0. -1.
       -4    1    3    3    0  502 -0.62456702382E+03  0.64594859011E+02 -0.21142031039E+04  0.22054733824E+04  0.12699999809E+01 0.  1.
</event>
<event>
 5   0  0.5515000E-08  0.4022196E+04  0.7818609E-02  0.8000084E-01
       -1   -1    0    0    0  501  0.00000000000E+00  0.00000000000E+00  0.18458610979E+04  0.18458610979E+04  0.50400001928E-02 0.  1.
        1   -1    0    0  501    0  0.00000000000E+00  0.00000000000E+00 -0.21911261261E+04  0.21911261261E+04  0.50400001928E-02 0. -1.
    10030    2    1    2    0    0  0.00000000000E+00  0.00000000000E+00 -0.34526502828E+03  0.40369872240E+04  0.40221956575E+04 0.  0.
        4    1    3    3  502    0 -0.16082854528E+03 -0.84566749147E+03 -0.19968680561E+04  0.21745121231E+04  0.12699999809E+01 0. -1.
       -4    1    3    3    0  502  0.16082854528E+03  0.84566749147E+03  0.16516030278E+04  0.18624751009E+04  0.12699999809E+01 0.  1.
</event>
<event>
 5   0  0.5515000E-08  0.3969835E+04  0.7818609E-02  0.8010659E-01
       -1   -1    0    0    0  501  0.00000000000E+00  0.00000000000E+00  0.16242220010E+04  0.16242220010E+04  0.50400001928E-02 0.  1.
        1   -1    0    0  501    0  0.00000000000E+00  0.00000000000E+00 -0.24257142273E+04  0.24257142273E+04  0.50400001928E-02 0. -1.
    10030    2    1    2    0    0  0.00000000000E+00  0.00000000000E+00 -0.80149222625E+03  0.40499362283E+04  0.39698354707E+04 0.  0.
        5    1    3    3  502    0  0.58173337487E+03  0.15765699451E+04 -0.14784174543E+04  0.22382418927E+04  0.46999998093E+01 0. -1.
       -5    1    3    3    0  502 -0.58173337487E+03 -0.15765699451E+04  0.67692522805E+03  0.18116943356E+04  0.46999998093E+01 0.  1.
</event>
<event>
 5   0  0.5515000E-08  0.4031141E+04  0.7818609E-02  0.7998294E-01
        1   -1    0    0  501    0  0.00000000000E+00  0.00000000000E+00  0.21131519915E+04  0.21131519915E+04  0.50400001928E-02 0. -1.
       -1   -1    0    0    0  501  0.00000000000E+00  0.00000000000E+00 -0.19224949677E+04  0.19224949677E+04  0.50400001928E-02 0.  1.
    10030    2    1    2    0    0  0.00000000000E+00  0.00000000000E+00  0.19065702375E+03  0.40356469592E+04  0.40311408160E+04 0.  0.
        1    1    3    3  502    0  0.17214886569E+04 -0.10197404612E+04 -0.14811046404E+03  0.20063226345E+04  0.50400001928E-02 0.  1.
       -1    1    3    3    0  502 -0.17214886569E+04  0.10197404612E+04  0.33876748779E+03  0.20293243247E+04  0.50400001928E-02 0. -1.
</event>
<event>
 5   0  0.5515000E-08  0.3309432E+04  0.7818609E-02  0.8160500E-01
       -1   -1    0    0    0  501  0.00000000000E+00  0.00000000000E+00  0.10567893519E+04  0.10567893519E+04  0.50400001928E-02 0. -1.
        1   -1    0    0  501    0  0.00000000000E+00  0.00000000000E+00 -0.25909462761E+04  0.25909462761E+04  0.50400001928E-02 0.  1.
    10030    2    1    2    0    0  0.00000000000E+00  0.00000000000E+00 -0.15341569242E+04  0.36477356280E+04  0.33094316345E+04 0.  0.
        4    1    3    3  502    0  0.52724840777E+03 -0.66682519429E+03 -0.23318626815E+04  0.24819814466E+04  0.12699999809E+01 0.  1.
       -4    1    3    3    0  502 -0.52724840777E+03  0.66682519429E+03  0.79770575725E+03  0.11657541813E+04  0.12699999809E+01 0. -1.
</event>
<event>
 5   0  0.5515000E-08  0.4005639E+04  0.7818609E-02  0.8003410E-01
       -1   -1    0    0    0  501  0.00000000000E+00  0.00000000000E+00  0.14782130249E+04  0.14782130249E+04  0.50400001928E-02 0.  1.
        1   -1    0    0  501    0  0.00000000000E+00  0.00000000000E+00 -0.27136045128E+04  0.27136045128E+04  0.50400001928E-02 0. -1.
    10030    2    1    2    0    0  0.00000000000E+00  0.00000000000E+00 -0.12353914879E+04  0.41918175378E+04  0.40056387932E+04 0.  0.
        1    1    3    3  502    0 -0.17462235148E+04 -0.68891273737E+03 -0.13482762779E+04  0.23112218079E+04  0.50400001928E-02 0. -1.
       -1    1    3    3    0  502  0.17462235148E+04  0.68891273737E+03  0.11288479007E+03  0.18805957299E+04  0.50400001928E-02 0.  1.
</event>
<event>
 5   0  0.1785559E-07  0.3963670E+04  0.7818609E-02  0.8011916E-01
        2   -1    0    0  501    0  0.00000000000E+00  0.00000000000E+00  0.19548999524E+04  0.19548999524E+04  0.25500000920E-02 0. -1.
       -2   -1    0    0    0  501  0.00000000000E+00  0.00000000000E+00 -0.20091410928E+04  0.20091410928E+04  0.25500000920E-02 0.  1.
    10030    2    1    2    0    0  0.00000000000E+00  0.00000000000E+00 -0.54241140455E+02  0.39640410452E+04  0.39636699291E+04 0.  0.
        2    1    3    3  502    0  0.16886284892E+04 -0.80571755666E+01 -0.10645887674E+04  0.19962165053E+04  0.25500000920E-02 0.  1.
       -2    1    3    3    0  502 -0.16886284892E+04  0.80571755666E+01  0.10103476270E+04  0.19678245399E+04  0.25500000920E-02 0. -1.
</event>
<event>
 5   0  0.5515000E-08  0.3996824E+04  0.7818609E-02  0.8005187E-01
        1   -1    0    0  501    0  0.00000000000E+00  0.00000000000E+00  0.22427126347E+04  0.22427126347E+04  0.50400001928E-02 0. -1.
       -1   -1    0    0    0  501  0.00000000000E+00  0.00000000000E+00 -0.17807236907E+04  0.17807236907E+04  0.50400001928E-02 0.  1.
    10030    2    1    2    0    0  0.00000000000E+00  0.00000000000E+00  0.46198894399E+03  0.40234363255E+04  0.39968244996E+04 0.  0.
        4    1    3    3  502    0  0.17811997572E+04  0.90014297707E+03  0.33522105401E+03  0.20236859248E+04  0.12699999809E+01 0.  1.
       -4    1    3    3    0  502 -0.17811997572E+04 -0.90014297707E+03  0.12676788997E+03  0.19997504007E+04  0.12699999809E+01 0. -1.
</event>
<event>
 5   0  0.1776653E-07  0.4011898E+04  0.7818609E-02  0.8002151E-01
       -2   -1    0    0    0  501  0.00000000000E+00  0.00000000000E+00  0.18211589550E+04  0.18211589550E+04  0.25500000920E-02 0.  1.
        2   -1    0    0  501    0  0.00000000000E+00  0.00000000000E+00 -0.22094897174E+04  0.22094897174E+04  0.25500000920E-02 0. -1.
    10030    2    1    2    0    0  0.00000000000E+00  0.00000000000E+00 -0.38833076242E+03  0.40306486724E+04  0.40118982962E+04 0.  0.
        4    1    3    3  502    0  0.16791703751E+03  0.15855021658E+04  0.10288230095E+04  0.18974961520E+04  0.12699999809E+01 0.  1.
       -4    1    3    3    0  502 -0.16791703751E+03 -0.15855021658E+04 -0.14171537719E+04  0.21331525204E+04  0.12699999809E+01 0. -1.
</event>
<event>
 5   0  0.5515000E-08  0.3925452E+04  0.7818609E-02  0.8019756E-01
        1   -1    0    0  501    0  0.00000000000E+00  0.00000000000E+00  0.22406421354E+04  0.22406421354E+04  0.50400001928E-02 0.  1.
       -1   -1    0    0    0  501  0.00000000000E+00  0.00000000000E+00 -0.17192807119E+04  0.17192807119E+04  0.50400001928E-02 0. -1.
    10030    2    1    2    0    0  0.00000000000E+00  0.00000000000E+00  0.52136142352E+03  0.39599228473E+04  0.39254517222E+04 0.  0.
        1    1    3    3  502    0 -0.13147018647E+04  0.58709971952E+03  0.16062475850E+04  0.21571180723E+04  0.50400001928E-02 0.  1.
       -1    1    3    3    0  502  0.13147018647E+04 -0.58709971952E+03 -0.10848861614E+04  0.18028047750E+04  0.50400001928E-02 0. -1.
</event>
<event>
 5   0  0.5515000E-08  0.4031175E+04  0.7818609E-02  0.7998287E-01
        1   -1    0    0  501    0  0.00000000000E+00  0.00000000000E+00  0.29676705832E+04  0.29676705832E+04  0.50400001928E-02 0.  1.
       -1   -1    0    0    0  501  0.00000000000E+00  0.00000000000E+00 -0.13689504161E+04  0.13689504161E+04  0.50400001928E-02 0. -1.
    10030    2    1    2    0    0  0.00000000000E+00  0.00000000000E+00  0.15987201671E+04  0.43366209994E+04  0.40311754514E+04 0.  0.
        5    1    3    3  502    0 -0.36603080247E+03 -0.11611426357E+04  0.25274181084E+04  0.28053689871E+04  0.46999998093E+01 0.  1.
       -5    1    3    3    0  502  0.36603080247E+03  0.11611426357E+04 -0.92869794135E+03  0.15312520123E+04  0.46999998093E+01 0. -1.
</event>
<event>
 5   0  0.1785559E-07  0.3871415E+04  0.7818609E-02  0.8031001E-01
        2   -1    0    0  501    0  0.00000000000E+00  0.00000000000E+00  0.13498030397E+04  0.13498030397E+04  0.25500000920E-02 0.  1.
       -2   -1    0    0    0  501  0.00000000000E+00  0.00000000000E+00 -0.27759330769E+04  0.27759330769E+04  0.25500000920E-02 0. -1.
    10030    2    1    2    0    0  0.00000000000E+00  0.00000000000E+00 -0.14261300371E+04  0.41257361166E+04  0.38714146796E+04 0.  0.
        2    1    3    3  502    0 -0.11800923082E+04 -0.38245170596E+03  0.87051034909E+03  0.15154786146E+04  0.25500000920E-02 0.  1.
       -2    1    3    3    0  502  0.11800923082E+04  0.38245170596E+03 -0.22966403862E+04  0.26102575021E+04  0.25500000920E-02 0. -1.
</event>
<event>
 5   0  0.1773903E-07  0.3976061E+04  0.7818609E-02  0.8009393E-01
        2   -1    0    0  501    0  0.00000000000E+00  0.00000000000E+00  0.14882496364E+04  0.14882496364E+04  0.25500000920E-02 0. -1.
       -2   -1    0    0    0  501  0.00000000000E+00  0.00000000000E+00 -0.26556470065E+04  0.26556470065E+04  0.25500000920E-02 0.  1.
    10030    2    1    2    0    0  0.00000000000E+00  0.00000000000E+00 -0.11673973701E+04  0.41438966428E+04  0.39760612127E+04 0.  0.
        3    1    3    3  502    0  0.62151144320E+03  0.15514064571E+04 -0.17057724380E+04  0.23880532008E+04  0.10100000352E+00 0.  1.
       -3    1    3    3    0  502 -0.62151144320E+03 -0.15514064571E+04  0.53837506794E+03  0.17558434421E+04  0.10100000352E+00 0. -1.
</event>
<event>
 5   0  0.1821433E-07  0.3963050E+04  0.7818609E-02  0.8012042E-01
        2   -1    0    0  501    0  0.00000000000E+00  0.00000000000E+00  0.19107051016E+04  0.19107051016E+04  0.25500000920E-02 0. -1.
       -2   -1    0    0    0  501  0.00000000000E+00  0.00000000000E+00 -0.20549700151E+04  0.20549700151E+04  0.25500000920E-02 0.  1.
    10030    2    1    2    0    0  0.00000000000E+00  0.00000000000E+00 -0.14426491350E+03  0.39656751167E+04  0.39630501847E+04 0.  0.
        5    1    3    3  502    0 -0.53415271454E+03  0.35337322002E+03  0.18042703109E+04  0.19145770290E+04  0.46999998093E+01 0. -1.
       -5    1    3    3    0  502  0.53415271454E+03 -0.35337322002E+03 -0.19485352244E+04  0.20510980878E+04  0.46999998093E+01 0.  1.
</event>
<event>
 5   0  0.5515000E-08  0.3981580E+04  0.7818609E-02  0.8008273E-01
        1   -1    0    0  501    0  0.00000000000E+00  0.00000000000E+00  0.28333417689E+04  0.28333417689E+04  0.50400001928E-02 0. -1.
       -1   -1    0    0    0  501  0.00000000000E+00  0.00000000000E+00 -0.13987880869E+04  0.13987880869E+04  0.50400001928E-02 0.  1.
    10030    2    1    2    0    0  0.00000000000E+00  0.00000000000E+00  0.14345536820E+04  0.42321298559E+04  0.39815799440E+04 0.  0.
        4    1    3    3  502    0  0.16317959232E+04  0.11242366661E+04  0.51399055527E+03  0.20471575221E+04  0.12699999809E+01 0. -1.
       -4    1    3    3    0  502 -0.16317959232E+04 -0.11242366661E+04  0.92056312670E+03  0.21849723338E+04  0.12699999809E+01 0.  1.
</event>
<event>
 5   0  0.5515000E-08  0.3950295E+04  0.7818609E-02  0.8014649E-01
       -1   -1    0    0    0  501  0.00000000000E+00  0.00000000000E+00  0.13234743922E+04  0.13234743922E+04  0.50400001928E-02 0. -1.
        1   -1    0    0  501    0  0.00000000000E+00  0.00000000000E+00 -0.29477023265E+04  0.29477023265E+04  0.50400001928E-02 0.  1.
    10030    2    1    2    0    0  0.00000000000E+00  0.00000000000E+00 -0.16242279342E+04  0.42711767187E+04  0.39502954548E+04 0.  0.
        3    1    3    3  502    0  0.45855385367E+03  0.19151618271E+04 -0.97641845758E+03  0.21980694883E+04  0.10100000352E+00 0. -1.
       -3    1    3    3    0  502 -0.45855385367E+03 -0.19151618271E+04 -0.64780947665E+03  0.20731072304E+04  0.10100000352E+00 0.  1.
</event>
<event>
 5   0  0.5515000E-08  0.4061802E+04  0.7818609E-02  0.7992194E-01
       -1   -1    0    0    0  501  0.00000000000E+00  0.00000000000E+00  0.26962144451E+04  0.26962144451E+04  0.50400001928E-02 0.  1.
        1   -1    0    0  501    0  0.00000000000E+00  0.00000000000E+00 -0.15297595400E+04  0.15297595400E+04  0.50400001928E-02 0. -1.
    10030    2    1    2    0    0  0.00000000000E+00  0.00000000000E+00  0.11664549050E+04  0.42259739851E+04  0.40618024420E+04 0.  0.
        5    1    3    3  502    0  0.13811233667E+04  0.11768250503E+04  0.15323027521E+04  0.23749511084E+04  0.46999998093E+01 0.  1.
       -5    1    3    3    0  502 -0.13811233667E+04 -0.11768250503E+04 -0.36584784707E+03  0.18510228768E+04  0.46999998093E+01 0. -1.
</event>
<event>
 5   0  0.1773903E-07  0.3956205E+04  0.7818609E-02  0.8013440E-01
        2   -1    0    0  501    0  0.00000000000E+00  0.00000000000E+00  0.24650957145E+04  0.24650957145E+04  0.25500000920E-02 0. -1.
       -2   -1    0    0    0  501  0.00000000000E+00  0.00000000000E+00 -0.15873177558E+04  0.15873177558E+04  0.25500000920E-02 0.  1.
    10030    2    1    2    0    0  0.00000000000E+00  0.00000000000E+00  0.87777795872E+03  0.40524134702E+04  0.39562053522E+04 0.  0.
        3    1    3    3  502    0 -0.29044364129E+03  0.99941279498E+03 -0.12841918041E+04  0.16529767220E+04  0.10100000352E+00 0.  1.
       -3    1    3    3    0  502  0.29044364129E+03 -0.99941279498E+03  0.21619697628E+04  0.23994367483E+04  0.10100000352E+00 0. -1.
</event>
<event>
 5   0  0.1785559E-07  0.4047865E+04  0.7818609E-02  0.7994960E-01
        2   -1    0    0  501    0  0.00000000000E+00  0.00000000000E+00  0.13871153123E+04  0.13871153123E+04  0.25500000920E-02 0.  1.
       -2   -1    0    0    0  501  0.00000000000E+00  0.00000000000E+00 -0.29531088496E+04  0.29531088496E+04  0.25500000920E-02 0. -1.
    10030    2    1    2    0    0  0.00000000000E+00  0.00000000000E+00 -0.15659935373E+04  0.43402241620E+04  0.40478648714E+04 0.  0.
        2    1    3    3  502    0 -0.16471292541E+04  0.67070066090E+03 -0.18189177930E+04  0.25438820912E+04  0.25500000920E-02 0. -1.
       -2    1    3    3    0  502  0.16471292541E+04 -0.67070066090E+03  0.25292425567E+03  0.17963420708E+04  0.25500000920E-02 0.  1.
</event>
<event>
 5   0  0.5515000E-08  0.3916581E+04  0.7818609E-02  0.8021589E-01
       -1   -1    0    0    0  501  0.00000000000E+00  0.00000000000E+00  0.26563053459E+04  0.26563053459E+04  0.50400001928E-02 0.  1.
        1   -1    0    0  501    0  0.00000000000E+00  0.00000000000E+00 -0.14436979549E+04  0.14436979550E+04  0.50400001928E-02 0. -1.
    10030    2    1    2    0    0  0.00000000000E+00  0.00000000000E+00  0.12126073910E+04  0.41000033009E+04  0.39165814663E+04 0.  0.
        2    1    3    3  502    0  0.18338206635E+04  0.11261028733E+03  0.13157773560E+04  0.22598339216E+04  0.25500000920E-02 0. -1.
       -2    1    3    3    0  502 -0.18338206635E+04 -0.11261028733E+03 -0.10316996501E+03  0.18401693793E+04  0.25500000920E-02 0.  1.
</event>
<event>
 5   0  0.5515000E-08  0.3998780E+04  0.7818609E-02  0.8004793E-01
        1   -1    0    0  501    0  0.00000000000E+00  0.00000000000E+00  0.25442204249E+04  0.25442204249E+04  0.50400001928E-02 0. -1.
       -1   -1    0    0    0  501  0.00000000000E+00  0.00000000000E+00 -0.15712317959E+04  0.15712317959E+04  0.50400001928E-02 0.  1.
    10030    2    1    2    0    0  0.00000000000E+00  0.00000000000E+00  0.97298862901E+03  0.41154522208E+04  0.39987798276E+04 0.  0.
        2    1    3    3  502    0  0.16163413155E+04 -0.15993331659E+03  0.16864556055E+04  0.23414248703E+04  0.25500000920E-02 0. -1.
       -2    1    3    3    0  502 -0.16163413155E+04  0.15993331659E+03 -0.71346697646E+03  0.17740273505E+04  0.25500000920E-02 0.  1.
</event>
<event>
 5   0  0.1819906E-07  0.3806949E+04  0.7818609E-02  0.8044665E-01
       -2   -1    0    0    0  501  0.00000000000E+00  0.00000000000E+00  0.14997025691E+04  0.14997025691E+04  0.25500000920E-02 0.  1.
        2   -1    0    0  501    0  0.00000000000E+00  0.00000000000E+00 -0.24159554475E+04  0.24159554475E+04  0.25500000920E-02 0. -1.
    10030    2    1    2    0    0  0.00000000000E+00  0.00000000000E+00 -0.91625287842E+03  0.39156580165E+04  0.38069486948E+04 0.  0.
        1    1    3    3  502    0 -0.45921360152E+03  0.10554808644E+04  0.11011778116E+04  0.15929562328E+04  0.50400001928E-02 0.  1.
       -1    1    3    3    0  502  0.45921360152E+03 -0.10554808644E+04 -0.20174306900E+04  0.23227017837E+04  0.50400001928E-02 0. -1.
</event>
<event>
 5   0  0.5515000E-08  0.3994298E+04  0.7818609E-02  0.8005698E-01
        1   -1    0    0  501    0  0.00000000000E+00  0.00000000000E+00  0.17269078892E+04  0.17269078892E+04  0.50400001928E-02 0. -1.
       -1   -1    0    0    0  501  0.00000000000E+00  0.00000000000E+00 -0.23096800654E+04  0.23096800654E+04  0.50400001928E-02 0.  1.
    10030    2    1    2    0    0  0.00000000000E+00  0.00000000000E+00 -0.58277217617E+03  0.40365879546E+04  0.39942982996E+04 0.  0.
        3    1    3    3  502    0  0.35210522936E+03 -0.13549751132E+04  0.11480073814E+04  0.18104851858E+04  0.10100000352E+00 0. -1.
       -3    1    3    3    0  502 -0.35210522936E+03  0.13549751132E+04 -0.17307795576E+04  0.22261027688E+04  0.10100000352E+00 0.  1.
</event>
<event>
 5   0  0.1819906E-07  0.3206584E+04  0.7818609E-02  0.8187080E-01
       -2   -1    0    0    0  501  0.00000000000E+00  0.00000000000E+00  0.15939035101E+04  0.15939035101E+04  0.25500000920E-02 0. -1.
        2   -1    0    0  501    0  0.00000000000E+00  0.00000000000E+00 -0.16127360641E+04  0.16127360641E+04  0.25500000920E-02 0.  1.
    10030    2    1    2    0    0  0.00000000000E+00  0.00000000000E+00 -0.18832553948E+02  0.32066395742E+04  0.32065842720E+04 0.  0.
        1    1    3    3  502    0 -0.71338072841E+03  0.10996819261E+04 -0.93265117171E+03  0.16087419340E+04  0.50400001928E-02 0.  1.
       -1    1    3    3    0  502  0.71338072841E+03 -0.10996819261E+04  0.91381861776E+03  0.15978976401E+04  0.50400001928E-02 0. -1.
</event>
<event>
 5   0  0.5515000E-08  0.4026075E+04  0.7818609E-02  0.7999307E-01
        1   -1    0    0  501    0  0.00000000000E+00  0.00000000000E+00  0.15619158763E+04  0.15619158763E+04  0.50400001928E-02 0. -1.
       -1   -1    0    0    0  501  0.00000000000E+00  0.00000000000E+00 -0.25944548768E+04  0.25944548768E+04  0.50400001928E-02 0.  1.
    10030    2    1    2    0    0  0.00000000000E+00  0.00000000000E+00 -0.10325390004E+04  0.41563707531E+04  0.40260751421E+04 0.  0.
        2    1    3    3  502    0 -0.62982378726E+03  0.41015985660E+03  0.14116281762E+04  0.15992508305E+04  0.25500000920E-02 0. -1.
       -2    1    3    3    0  502  0.62982378726E+03 -0.41015985660E+03 -0.24441671767E+04  0.25571199226E+04  0.25500000920E-02 0.  1.
</event>
<event>
 5   0  0.5515000E-08  0.3979107E+04  0.7818609E-02  0.8008775E-01
        1   -1    0    0  501    0  0.00000000000E+00  0.00000000000E+00  0.11270248609E+04  0.11270248609E+04  0.50400001928E-02 0.  1.
       -1   -1    0    0    0  501  0.00000000000E+00  0.00000000000E+00 -0.35121881530E+04  0.35121881530E+04  0.50400001928E-02 0. -1.
    10030    2    1    2    0    0  0.00000000000E+00  0.00000000000E+00 -0.23851632921E+04  0.46392130139E+04  0.39791071182E+04 0.  0.
        4    1    3    3  502    0 -0.59632480047E+03 -0.11321317362E+04 -0.29687981442E+04  0.32328144967E+04  0.12699999809E+01 0. -1.
       -4    1    3    3    0  502  0.59632480047E+03  0.11321317362E+04  0.58363485209E+03  0.14063985172E+04  0.12699999809E+01 0.  1.
</event>
<event>
 5   0  0.1776653E-07  0.3969049E+04  0.7818609E-02  0.8010820E-01
        2   -1    0    0  501    0  0.00000000000E+00  0.00000000000E+00  0.30764933195E+04  0.30764933195E+04  0.25500000920E-02 0. -1.
       -2   -1    0    0    0  501  0.00000000000E+00  0.00000000000E+00 -0.12801384888E+04  0.12801384888E+04  0.25500000920E-02 0.  1.
    10030    2    1    2    0    0  0.00000000000E+00  0.00000000000E+00  0.17963548307E+04  0.43566318084E+04  0.39690490090E+04 0.  0.
        4    1    3    3  502    0 -0.12327928286E+04 -0.71152875734E+03 -0.61971383074E+03  0.15524490896E+04  0.12699999809E+01 0.  1.
       -4    1    3    3    0  502  0.12327928286E+04  0.71152875734E+03  0.24160686614E+04  0.28041827188E+04  0.12699999809E+01 0. -1.
</event>
<event>
 5   0  0.1785559E-07  0.4084992E+04  0.7818609E-02  0.7987617E-01
       -2   -1    0    0    0  501  0.00000000000E+00  0.00000000000E+00  0.21019091018E+04  0.21019091018E+04  0.25500000920E-02 0.  1.
        2   -1    0    0  501    0  0.00000000000E+00  0.00000000000E+00 -0.19847621383E+04  0.19847621383E+04  0.25500000920E-02 0. -1.
    10030    2    1    2    0    0  0.00000000000E+00  0.00000000000E+00  0.11714696351E+03  0.40866712401E+04  0.40849918499E+04 0.  0.
        2    1    3    3  502    0 -0.33819207769E+03 -0.85062588700E+03 -0.17680608714E+04  0.19909740144E+04  0.25500000920E-02 0. -1.
       -2    1    3    3    0  502  0.33819207769E+03  0.85062588700E+03  0.18852078349E+04  0.20956972257E+04  0.25500000920E-02 0.  1.
</event>
<event>
 5   0  0.5515000E-08  0.3648642E+04  0.7818609E-02  0.8079440E-01
       -1   -1    0    0    0  501  0.00000000000E+00  0.00000000000E+00  0.12238191630E+04  0.12238191630E+04  0.50400001928E-02 0. -1.
        1   -1    0    0  501    0  0.00000000000E+00  0.00000000000E+00 -0.27194758697E+04  0.27194758697E+04  0.50400001928E-02 0.  1.
    10030    2    1    2    0    0  0.00000000000E+00  0.00000000000E+00 -0.14956567067E+04  0.39432950327E+04  0.36486417652E+04 0.  0.
        5    1    3    3  502    0 -0.73270966678E+03 -0.21505510547E+03  0.10427783457E+04  0.12924863336E+04  0.46999998093E+01 0. -1.
       -5    1    3    3    0  502  0.73270966678E+03  0.21505510547E+03 -0.25384350524E+04  0.26508086991E+04  0.46999998093E+01 0.  1.
</event>
<event>
 5   0  0.1821433E-07  0.3850981E+04  0.7818609E-02  0.8035302E-01
       -2   -1    0    0    0  501  0.00000000000E+00  0.00000000000E+00  0.20717749009E+04  0.20717749009E+04  0.25500000920E-02 0.  1.
        2   -1    0    0  501    0  0.00000000000E+00  0.00000000000E+00 -0.17895347163E+04  0.17895347163E+04  0.25500000920E-02 0. -1.
    10030    2    1    2    0    0  0.00000000000E+00  0.00000000000E+00  0.28224018458E+03  0.38613096171E+04  0.38509807111E+04 0.  0.
        5    1    3    3  502    0 -0.72364869357E+03  0.64479907315E+03  0.18093306142E+04  0.20525916881E+04  0.46999998093E+01 0.  1.
       -5    1    3    3    0  502  0.72364869357E+03 -0.64479907315E+03 -0.15270904297E+04  0.18087179290E+04  0.46999998093E+01 0. -1.
</event>
<event>
 5   0  0.1785559E-07  0.3991500E+04  0.7818609E-02  0.8006264E-01
        2   -1    0    0  501    0  0.00000000000E+00  0.00000000000E+00  0.28994578293E+04  0.28994578293E+04  0.25500000920E-02 0.  1.
       -2   -1    0    0    0  501  0.00000000000E+00  0.00000000000E+00 -0.13737112051E+04  0.13737112051E+04  0.25500000920E-02 0. -1.
    10030    2    1    2    0    0  0.00000000000E+00  0.00000000000E+00  0.15257466243E+04  0.42731690344E+04  0.39914998227E+04 0.  0.
        2    1    3    3  502    0 -0.18194146870E+04 -0.80769782179E+03  0.61007019183E+03  0.20820257476E+04  0.25500000920E-02 0.  1.
       -2    1    3    3    0  502  0.18194146870E+04  0.80769782179E+03  0.91567643243E+03  0.21911432868E+04  0.25500000920E-02 0. -1.
</event>
<event>
 5   0  0.5515000E-08  0.3254289E+04  0.7818609E-02  0.8174625E-01
       -1   -1    0    0    0  501  0.00000000000E+00  0.00000000000E+00  0.15375965147E+04  0.15375965147E+04  0.50400001928E-02 0. -1.
        1   -1    0    0  501    0  0.00000000000E+00  0.00000000000E+00 -0.17219075911E+04  0.17219075911E+04  0.50400001928E-02 0.  1.
    10030    2    1    2    0    0  0.00000000000E+00  0.00000000000E+00 -0.18431107639E+03  0.32595041058E+04  0.32542889304E+04 0.  0.
        2    1    3    3  502    0 -0.12958350987E+04 -0.72205656246E+03  0.57753006244E+03  0.15918841841E+04  0.25500000920E-02 0. -1.
       -2    1    3    3    0  502  0.12958350987E+04  0.72205656246E+03 -0.76184113882E+03  0.16676199217E+04  0.25500000920E-02 0.  1.
</event>
<event>
 5   0  0.5515000E-08  0.4020408E+04  0.7818609E-02  0.8000442E-01
       -1   -1    0    0    0  501  0.00000000000E+00  0.00000000000E+00  0.14198988750E+04  0.14198988751E+04  0.50400001928E-02 0.  1.
        1   -1    0    0  501    0  0.00000000000E+00  0.00000000000E+00 -0.28459204397E+04  0.28459204397E+04  0.50400001928E-02 0. -1.
    10030    2    1    2    0    0  0.00000000000E+00  0.00000000000E+00 -0.14260215647E+04  0.42658193148E+04  0.40204075569E+04 0.  0.
        3    1    3    3  502    0  0.41093295567E+03  0.12933946054E+04  0.86047611830E+03  0.16069084167E+04  0.10100000352E+00 0.  1.
       -3    1    3    3    0  502 -0.41093295567E+03 -0.12933946054E+04 -0.22864976829E+04  0.26589108980E+04  0.10100000352E+00 0. -1.
</event>
<event>
 5   0  0.1819906E-07  0.4011787E+04  0.7818609E-02  0.8002173E-01
        2   -1    0    0  501    0  0.00000000000E+00  0.00000000000E+00  0.29385616072E+04  0.29385616072E+04  0.25500000920E-02 0. -1.
       -2   -1    0    0    0  501  0.00000000000E+00  0.00000000000E+00 -0.13692445928E+04  0.13692445928E+04  0.25500000920E-02 0.  1.
    10030    2    1    2    0    0  0.00000000000E+00  0.00000000000E+00  0.15693170144E+04  0.43078062000E+04  0.40117874277E+04 0.  0.
        1    1    3    3  502    0  0.86137653135E+03 -0.16146142138E+04  0.16666431998E+04  0.24752066871E+04  0.50400001928E-02 0. -1.
       -1    1    3    3    0  502 -0.86137653135E+03  0.16146142138E+04 -0.97326185481E+02  0.18325995129E+04  0.50400001928E-02 0.  1.
</event>
<event>
 5   0  0.5515000E-08  0.3936428E+04  0.7818609E-02  0.8017495E-01
       -1   -1    0    0    0  501  0.00000000000E+00  0.00000000000E+00  0.24605864962E+04  0.24605864962E+04  0.50400001928E-02 0.  1.
        1   -1    0    0  501    0  0.00000000000E+00  0.00000000000E+00 -0.15743672821E+04  0.15743672821E+04  0.50400001928E-02 0. -1.
    10030    2    1    2    0    0  0.00000000000E+00  0.00000000000E+00  0.88621921415E+03  0.40349537783E+04  0.39364282665E+04 0.  0.
        3    1    3    3  502    0 -0.17951550510E+03  0.12767076754E+04  0.19674966989E+04  0.23522864569E+04  0.10100000352E+00 0.  1.
       -3    1    3    3    0  502  0.17951550510E+03 -0.12767076754E+04 -0.10812774848E+04  0.16826673214E+04  0.10100000352E+00 0. -1.
</event>
<event>
 5   0  0.1785559E-07  0.4035520E+04  0.7818609E-02  0.7997419E-01
       -2   -1    0    0    0  501  0.00000000000E+00  0.00000000000E+00  0.32107596041E+04  0.32107596041E+04  0.25500000920E-02 0.  1.
        2   -1    0    0  501    0  0.00000000000E+00  0.00000000000E+00 -0.12680351702E+04  0.12680351702E+04  0.25500000920E-02 0. -1.
    10030    2    1    2    0    0  0.00000000000E+00  0.00000000000E+00  0.19427244339E+04  0.44787947743E+04  0.40355203387E+04 0.  0.
        2    1    3    3  502    0  0.17775808959E+04  0.42362789323E+03  0.19209766799E+04  0.26513026681E+04  0.25500000920E-02 0. -1.
       -2    1    3    3    0  502 -0.17775808959E+04 -0.42362789323E+03  0.21747754039E+02  0.18274921062E+04  0.25500000920E-02 0.  1.
</event>
<event>
 5   0  0.1773903E-07  0.3728437E+04  0.7818609E-02  0.8061689E-01
        2   -1    0    0  501    0  0.00000000000E+00  0.00000000000E+00  0.28309866050E+04  0.28309866050E+04  0.25500000920E-02 0. -1.
       -2   -1    0    0    0  501  0.00000000000E+00  0.00000000000E+00 -0.12275969329E+04  0.12275969329E+04  0.25500000920E-02 0.  1.
    10030    2    1    2    0    0  0.00000000000E+00  0.00000000000E+00  0.16033896721E+04  0.40585835380E+04  0.37284369237E+04 0.  0.
        3    1    3    3  502    0  0.36368687063E+03  0.87337386987E+02 -0.11863336166E+04  0.12438984762E+04  0.10100000352E+00 0.  1.
       -3    1    3    3    0  502 -0.36368687063E+03 -0.87337386987E+02  0.27897232887E+04  0.28146850618E+04  0.10100000352E+00 0. -1.
</event>
<event>
 5   0  0.1819906E-07  0.3980675E+04  0.7818609E-02  0.8008456E-01
       -2   -1    0    0    0  501  0.00000000000E+00  0.00000000000E+00  0.15815699826E+04  0.15815699826E+04  0.25500000920E-02 0. -1.
        2   -1    0    0  501    0  0.00000000000E+00  0.00000000000E+00 -0.25047541709E+04  0.25047541709E+04  0.25500000920E-02 0.  1.
    10030    2    1    2    0    0  0.00000000000E+00  0.00000000000E+00 -0.92318418831E+03  0.40863241535E+04  0.39806753249E+04 0.  0.
        1    1    3    3  502    0 -0.18834499868E+04 -0.13487590709E+03 -0.11074717593E+04  0.21890795008E+04  0.50400001928E-02 0.  1.
       -1    1    3    3    0  502  0.18834499868E+04  0.13487590709E+03  0.18428757102E+03  0.18972446527E+04  0.50400001928E-02 0. -1.
</event>
<event>
 5   0  0.1821433E-07  0.3741598E+04  0.7818609E-02  0.8058805E-01
       -2   -1    0    0    0  501  0.00000000000E+00  0.00000000000E+00  0.14617509407E+04  0.14617509407E+04  0.25500000920E-02 0.  1.
        2   -1    0    0  501    0  0.00000000000E+00  0.00000000000E+00 -0.23943127586E+04  0.23943127586E+04  0.25500000920E-02 0. -1.
    10030    2    1    2    0    0  0.00000000000E+00  0.00000000000E+00 -0.93256181792E+03  0.38560636993E+04  0.37415980154E+04 0.  0.
        5    1    3    3  502    0 -0.15845046848E+04 -0.62546023390E+02  0.55670877960E+03  0.16806290062E+04  0.46999998093E+01 0.  1.
       -5    1    3    3    0  502  0.15845046848E+04  0.62546023390E+02 -0.14892705975E+04  0.21754346931E+04  0.46999998093E+01 0. -1.
</event>
<event>
 5   0  0.5515000E-08  0.4134636E+04  0.7818609E-02  0.7977924E-01
       -1   -1    0    0    0  501  0.00000000000E+00  0.00000000000E+00  0.19366195648E+04  0.19366195648E+04  0.50400001928E-02 0. -1.
        1   -1    0    0  501    0  0.00000000000E+00  0.00000000000E+00 -0.22068374376E+04  0.22068374376E+04  0.50400001928E-02 0.  1.
    10030    2    1    2    0    0  0.00000000000E+00  0.00000000000E+00 -0.27021787276E+03  0.41434570024E+04  0.41346364087E+04 0.  0.
        4    1    3    3  502    0  0.51679257715E+03  0.11966579750E+04  0.14729132588E+04  0.19668604317E+04  0.12699999809E+01 0. -1.
       -4    1    3    3    0  502 -0.51679257715E+03 -0.11966579750E+04 -0.17431311316E+04  0.21765965707E+04  0.12699999809E+01 0.  1.
</event>
<event>
 5   0  0.5515000E-08  0.4004363E+04  0.7818609E-02  0.8003667E-01
       -1   -1    0    0    0  501  0.00000000000E+00  0.00000000000E+00  0.21549528124E+04  0.21549528124E+04  0.50400001928E-02 0.  1.
        1   -1    0    0  501    0  0.00000000000E+00  0.00000000000E+00 -0.18602402412E+04  0.18602402412E+04  0.50400001928E-02 0. -1.
    10030    2    1    2    0    0  0.00000000000E+00  0.00000000000E+00  0.29471257121E+03  0.40151930536E+04  0.40043625908E+04 0.  0.
        5    1    3    3  502    0  0.39439472748E+03  0.56056008208E+03 -0.17389369561E+04  0.18691438238E+04  0.46999998093E+01 0. -1.
       -5    1    3    3    0  502 -0.39439472748E+03 -0.56056008208E+03  0.20336495274E+04  0.21460492298E+04  0.46999998093E+01 0.  1.
</event>
<event>
 5   0  0.1776653E-07  0.4041577E+04  0.7818609E-02  0.7996211E-01
       -2   -1    0    0    0  501  0.00000000000E+00  0.00000000000E+00  0.22585841794E+04  0.22585841794E+04  0.25500000920E-02 0.  1.
        2   -1    0    0  501    0  0.00000000000E+00  0.00000000000E+00 -0.18080292996E+04  0.18080292996E+04  0.25500000920E-02 0. -1.
    10030    2    1    2    0    0  0.00000000000E+00  0.00000000000E+00  0.45055487983E+03  0.40666134789E+04  0.40415771040E+04 0.  0.
        4    1    3    3  502    0  0.11278146013E+03 -0.17869102681E+04  0.11680001517E+04  0.21377544133E+04  0.12699999809E+01 0.  1.
       -4    1    3    3    0  502 -0.11278146013E+03  0.17869102681E+04 -0.71744527189E+03  0.19288590657E+04  0.12699999809E+01 0. -1.
</event>
<event>
 5   0  0.5515000E-08  0.3974750E+04  0.7818609E-02  0.8009660E-01
       -1   -1    0    0    0  501  0.00000000000E+00  0.00000000000E+00  0.24896050432E+04  0.24896050432E+04  0.50400001928E-02 0.  1.
        1   -1    0    0  501    0  0.00000000000E+00  0.00000000000E+00 -0.15864605724E+04  0.15864605724E+04  0.50400001928E-02 0. -1.
    10030    2    1    2    0    0  0.00000000000E+00  0.00000000000E+00  0.90314447082E+03  0.40760656156E+04  0.39747504283E+04 0.  0.
        4    1    3    3  502    0 -0.37782635242E+03 -0.16055180370E+04  0.15885335971E+04  0.22899522969E+04  0.12699999809E+01 0.  1.
       -4    1    3    3    0  502  0.37782635242E+03  0.16055180370E+04 -0.68538912632E+03  0.17861133187E+04  0.12699999809E+01 0. -1.
</event>
<event>
 5   0  0.5515000E-08  0.3971189E+04  0.7818609E-02  0.8010384E-01
       -1   -1    0    0    0  501  0.00000000000E+00  0.00000000000E+00  0.14450316829E+04  0.14450316829E+04  0.50400001928E-02 0.  1.
        1   -1    0    0  501    0  0.00000000000E+00  0.00000000000E+00 -0.27283728781E+04  0.27283728781E+04  0.50400001928E-02 0. -1.
    10030    2    1    2    0    0  0.00000000000E+00  0.00000000000E+00 -0.12833411952E+04  0.41734045610E+04  0.39711888656E+04 0.  0.
        3    1    3    3  502    0 -0.62098134392E+03 -0.14201754003E+04  0.66251700688E+03  0.16856585632E+04  0.10100000352E+00 0.  1.
       -3    1    3    3    0  502  0.62098134392E+03  0.14201754003E+04 -0.19458582021E+04  0.24877459978E+04  0.10100000352E+00 0. -1.
</event>
<event>
 5   0  0.1819906E-07  0.3992435E+04  0.7818609E-02  0.8006074E-01
        2   -1    0    0  501    0  0.00000000000E+00  0.00000000000E+00  0.18096856353E+04  0.18096856353E+04  0.25500000920E-02 0.  1.
       -2   -1    0    0    0  501  0.00000000000E+00  0.00000000000E+00 -0.22019757334E+04  0.22019757334E+04  0.25500000920E-02 0. -1.
    10030    2    1    2    0    0  0.00000000000E+00  0.00000000000E+00 -0.39229009805E+03  0.40116613687E+04  0.39924347730E+04 0.  0.
        1    1    3    3  502    0  0.63499981773E+03  0.51058482247E+03  0.16349816907E+04  0.18267694870E+04  0.50400001928E-02 0.  1.
       -1    1    3    3    0  502 -0.63499981773E+03 -0.51058482247E+03 -0.20272717888E+04  0.21848918818E+04  0.50400001928E-02 0. -1.
</event>
<event>
 5   0  0.5515000E-08  0.4006224E+04  0.7818609E-02  0.8003292E-01
        1   -1    0    0  501    0  0.00000000000E+00  0.00000000000E+00  0.28370823027E+04  0.28370823027E+04  0.50400001928E-02 0. -1.
       -1   -1    0    0    0  501  0.00000000000E+00  0.00000000000E+00 -0.14142905244E+04  0.14142905244E+04  0.50400001928E-02 0.  1.
    10030    2    1    2    0    0  0.00000000000E+00  0.00000000000E+00  0.14227917783E+04  0.42513728271E+04  0.40062244658E+04 0.  0.
        5    1    3    3  502    0  0.19801311823E+03  0.18833563940E+04  0.14041811054E+04  0.23575383705E+04  0.46999998093E+01 0. -1.
       -5    1    3    3    0  502 -0.19801311823E+03 -0.18833563940E+04  0.18610672886E+02  0.18938344566E+04  0.46999998093E+01 0.  1.
</event>
<event>
 5   0  0.1776653E-07  0.3971831E+04  0.7818609E-02  0.8010253E-01
       -2   -1    0    0    0  501  0.00000000000E+00  0.00000000000E+00  0.15867816698E+04  0.15867816698E+04  0.25500000920E-02 0.  1.
        2   -1    0    0  501    0  0.00000000000E+00  0.00000000000E+00 -0.24854464787E+04  0.24854464787E+04  0.25500000920E-02 0. -1.
    10030    2    1    2    0    0  0.00000000000E+00  0.00000000000E+00 -0.89866480891E+03  0.40722281485E+04  0.39718312722E+04 0.  0.
        4    1    3    3  502    0 -0.70570729409E+03  0.15433827551E+04 -0.15068133888E+04  0.22694804064E+04  0.12699999809E+01 0. -1.
       -4    1    3    3    0  502  0.70570729409E+03 -0.15433827551E+04  0.60814857989E+03  0.18027477421E+04  0.12699999809E+01 0.  1.
</event>
<event>
 5   0  0.1819906E-07  0.3992886E+04  0.7818609E-02  0.8005983E-01
       -2   -1    0    0    0  501  0.00000000000E+00  0.00000000000E+00  0.15917824479E+04  0.15917824479E+04  0.25500000920E-02 0. -1.
        2   -1    0    0  501    0  0.00000000000E+00  0.00000000000E+00 -0.25039755347E+04  0.25039755347E+04  0.25500000920E-02 0.  1.
    10030    2    1    2    0    0  0.00000000000E+00  0.00000000000E+00 -0.91219308679E+03  0.40957579827E+04  0.39928858267E+04 0.  0.
        1    1    3    3  502    0 -0.12001432392E+04 -0.15628329096E+04 -0.78529133325E+03  0.21211961191E+04  0.50400001928E-02 0. -1.
       -1    1    3    3    0  502  0.12001432392E+04  0.15628329096E+04 -0.12690175354E+03  0.19745618635E+04  0.50400001928E-02 0.  1.
</event>
<event>
 5   0  0.1773903E-07  0.3931120E+04  0.7818609E-02  0.8018588E-01
       -2   -1    0    0    0  501  0.00000000000E+00  0.00000000000E+00  0.17768334195E+04  0.17768334195E+04  0.25500000920E-02 0. -1.
        2   -1    0    0  501    0  0.00000000000E+00  0.00000000000E+00 -0.21743319513E+04  0.21743319513E+04  0.25500000920E-02 0.  1.
    10030    2    1    2    0    0  0.00000000000E+00  0.00000000000E+00 -0.39749853188E+03  0.39511653708E+04  0.39311197774E+04 0.  0.
        3    1    3    3  502    0  0.13775212036E+04  0.56175738113E+01  0.12104806302E+04  0.18338101292E+04  0.10100000352E+00 0. -1.
       -3    1    3    3    0  502 -0.13775212036E+04 -0.56175738113E+01 -0.16079791621E+04  0.21173552417E+04  0.10100000352E+00 0.  1.
</event>
<event>
 5   0  0.1785559E-07  0.4075616E+04  0.7818609E-02  0.7989464E-01
       -2   -1    0    0    0  501  0.00000000000E+00  0.00000000000E+00  0.16636197388E+04  0.16636197388E+04  0.25500000920E-02 0.  1.
        2   -1    0    0  501    0  0.00000000000E+00  0.00000000000E+00 -0.24961599309E+04  0.24961599309E+04  0.25500000920E-02 0. -1.
    10030    2    1    2    0    0  0.00000000000E+00  0.00000000000E+00 -0.83254019204E+03  0.41597796697E+04  0.40756157485E+04 0.  0.
        2    1    3    3  502    0  0.12645866405E+04  0.18585757113E+02 -0.20471203369E+04  0.24062889426E+04  0.25500000920E-02 0. -1.
       -2    1    3    3    0  502 -0.12645866405E+04 -0.18585757113E+02  0.12145801449E+04  0.17534907271E+04  0.25500000920E-02 0.  1.
</event>
<event>
 5   0  0.1819906E-07  0.3999616E+04  0.7818609E-02  0.8004624E-01
        2   -1    0    0  501    0  0.00000000000E+00  0.00000000000E+00  0.33907853057E+04  0.33907853057E+04  0.25500000920E-02 0. -1.
       -2   -1    0    0    0  501  0.00000000000E+00  0.00000000000E+00 -0.11794410891E+04  0.11794410891E+04  0.25500000920E-02 0.  1.
    10030    2    1    2    0    0  0.00000000000E+00  0.00000000000E+00  0.22113442167E+04  0.45702263948E+04  0.39996157384E+04 0.  0.
        1    1    3    3  502    0  0.13355805619E+04  0.13558521439E+04  0.40395861592E+03  0.19455829555E+04  0.50400001928E-02 0.  1.
       -1    1    3    3    0  502 -0.13355805619E+04 -0.13558521439E+04  0.18073856007E+04  0.26246434393E+04  0.50400001928E-02 0. -1.
</event>
<event>
 5   0  0.1821433E-07  0.3987508E+04  0.7818609E-02  0.8007071E-01
       -2   -1    0    0    0  501  0.00000000000E+00  0.00000000000E+00  0.15900632439E+04  0.15900632439E+04  0.25500000920E-02 0.  1.
        2   -1    0    0  501    0  0.00000000000E+00  0.00000000000E+00 -0.24999357486E+04  0.24999357486E+04  0.25500000920E-02 0. -1.
    10030    2    1    2    0    0  0.00000000000E+00  0.00000000000E+00 -0.90987250467E+03  0.40899989925E+04  0.39875084681E+04 0.  0.
        5    1    3    3  502    0  0.79492975624E+03 -0.13834639988E+04 -0.16811330308E+04  0.23177826280E+04  0.46999998093E+01 0. -1.
       -5    1    3    3    0  502 -0.79492975624E+03  0.13834639988E+04  0.77126052617E+03  0.17722163645E+04  0.46999998093E+01 0.  1.
</event>
<event>
 5   0  0.1785559E-07  0.3973878E+04  0.7818609E-02  0.8009837E-01
       -2   -1    0    0    0  501  0.00000000000E+00  0.00000000000E+00  0.17159553551E+04  0.17159553551E+04  0.25500000920E-02 0. -1.
        2   -1    0    0  501    0  0.00000000000E+00  0.00000000000E+00 -0.23007166303E+04  0.23007166303E+04  0.25500000920E-02 0.  1.
    10030    2    1    2    0    0  0.00000000000E+00  0.00000000000E+00 -0.58476127517E+03  0.40166719853E+04  0.39738782177E+04 0.  0.
        2    1    3    3  502    0 -0.11982401131E+04 -0.14698538907E+04  0.30702926862E+03  0.19210717843E+04  0.25500000920E-02 0. -1.
       -2    1    3    3    0  502  0.11982401131E+04  0.14698538907E+04 -0.89179054379E+03  0.20956002010E+04  0.25500000920E-02 0.  1.
</event>
<event>
 5   0  0.5515000E-08  0.3993080E+04  0.7818609E-02  0.8005944E-01
       -1   -1    0    0    0  501  0.00000000000E+00  0.00000000000E+00  0.16393472714E+04  0.16393472714E+04  0.50400001928E-02 0. -1.
        1   -1    0    0  501    0  0.00000000000E+00  0.00000000000E+00 -0.24315605037E+04  0.24315605038E+04  0.50400001928E-02 0.  1.
    10030    2    1    2    0    0  0.00000000000E+00  0.00000000000E+00 -0.79221323235E+03  0.40709077752E+04  0.39930800528E+04 0.  0.
        5    1    3    3  502    0 -0.14507534724E+04  0.36932626146E+03 -0.17428620454E+04  0.22975373173E+04  0.46999998093E+01 0.  1.
       -5    1    3    3    0  502  0.14507534724E+04 -0.36932626146E+03  0.95064881306E+03  0.17733704579E+04  0.46999998093E+01 0. -1.
</event>
<event>
 5   0  0.5515000E-08  0.3689830E+04  0.7818609E-02  0.8070219E-01
        1   -1    0    0  501    0  0.00000000000E+00  0.00000000000E+00  0.15897465619E+04  0.15897465619E+04  0.50400001928E-02 0. -1.
       -1   -1    0    0    0  501  0.00000000000E+00  0.00000000000E+00 -0.21410396895E+04  0.21410396895E+04  0.50400001928E-02 0.  1.
    10030    2    1    2    0    0  0.00000000000E+00  0.00000000000E+00 -0.55129312759E+03  0.37307862513E+04  0.36898295273E+04 0.  0.
        1    1    3    3  502    0 -0.44012407241E+03  0.53542804758E+03 -0.20043962046E+04  0.21208480706E+04  0.50400001928E-02 0.  1.
       -1    1    3    3    0  502  0.44012407241E+03 -0.53542804758E+03  0.14531030771E+04  0.16099381807E+04  0.50400001928E-02 0. -1.
</event>
<event>
 5   0  0.1785559E-07  0.3969186E+04  0.7818609E-02  0.8010792E-01
        2   -1    0    0  501    0  0.00000000000E+00  0.00000000000E+00  0.20606157753E+04  0.20606157753E+04  0.25500000920E-02 0.  1.
       -2   -1    0    0    0  501  0.00000000000E+00  0.00000000000E+00 -0.19113750830E+04  0.19113750830E+04  0.25500000920E-02 0. -1.
    10030    2    1    2    0    0  0.00000000000E+00  0.00000000000E+00  0.14924069229E+03  0.39719908582E+04  0.39691861374E+04 0.  0.
        2    1    3    3  502    0  0.71590185109E+03 -0.14838272275E+03  0.19209381025E+04  0.20553676281E+04  0.25500000920E-02 0.  1.
       -2    1    3    3    0  502 -0.71590185109E+03  0.14838272275E+03 -0.17716974102E+04  0.19166232301E+04  0.25500000920E-02 0. -1.
</event>
<event>
 5   0  0.1821433E-07  0.3925252E+04  0.7818609E-02  0.8019798E-01
        2   -1    0    0  501    0  0.00000000000E+00  0.00000000000E+00  0.19838264671E+04  0.19838264671E+04  0.25500000920E-02 0. -1.
       -2   -1    0    0    0  501  0.00000000000E+00  0.00000000000E+00 -0.19416523052E+04  0.19416523052E+04  0.25500000920E-02 0.  1.
    10030    2    1    2    0    0  0.00000000000E+00  0.00000000000E+00  0.42174161948E+02  0.39254787723E+04  0.39252522125E+04 0.  0.
        5    1    3    3  502    0 -0.14430091566E+04 -0.13134510081E+04 -0.18975716864E+03  0.19604741390E+04  0.46999998093E+01 0.  1.
       -5    1    3    3    0  502  0.14430091566E+04  0.13134510081E+04  0.23193133059E+03  0.19650046333E+04  0.46999998093E+01 0. -1.
</event>
<event>
 5   0  0.1821433E-07  0.3905467E+04  0.7818609E-02  0.8023893E-01
        2   -1    0    0  501    0  0.00000000000E+00  0.00000000000E+00  0.26640158706E+04  0.26640158706E+04  0.25500000920E-02 0.  1.
       -2   -1    0    0    0  501  0.00000000000E+00  0.00000000000E+00 -0.14313609772E+04  0.14313609772E+04  0.25500000920E-02 0. -1.
    10030    2    1    2    0    0  0.00000000000E+00  0.00000000000E+00  0.12326548934E+04  0.40953768479E+04  0.39054671219E+04 0.  0.
        5    1    3    3  502    0 -0.80316009886E+03  0.95943050695E+03 -0.95576401836E+03  0.15745094445E+04  0.46999998093E+01 0. -1.
       -5    1    3    3    0  502  0.80316009886E+03 -0.95943050695E+03  0.21884189117E+04  0.25208674034E+04  0.46999998093E+01 0.  1.
</event>
<event>
 5   0  0.5515000E-08  0.3996312E+04  0.7818609E-02  0.8005291E-01
        1   -1    0    0  501    0  0.00000000000E+00  0.00000000000E+00  0.19584964540E+04  0.19584964540E+04  0.50400001928E-02 0. -1.
       -1   -1    0    0    0  501  0.00000000000E+00  0.00000000000E+00 -0.20386186489E+04  0.20386186489E+04  0.50400001928E-02 0.  1.
    10030    2    1    2    0    0  0.00000000000E+00  0.00000000000E+00 -0.80122194967E+02  0.39971151029E+04  0.39963119973E+04 0.  0.
        4    1    3    3  502    0 -0.17312133697E+04  0.33121185687E+03  0.90131068138E+03  0.19796877488E+04  0.12699999809E+01 0. -1.
       -4    1    3    3    0  502  0.17312133697E+04 -0.33121185687E+03 -0.98143287635E+03  0.20174273541E+04  0.12699999809E+01 0.  1.
</event>
<event>
 5   0  0.1819906E-07  0.4095064E+04  0.7818609E-02  0.7985639E-01
       -2   -1    0    0    0  501  0.00000000000E+00  0.00000000000E+00  0.18921680110E+04  0.18921680110E+04  0.25500000920E-02 0. -1.
        2   -1    0    0  501    0  0.00000000000E+00  0.00000000000E+00 -0.22156524507E+04  0.22156524507E+04  0.25500000920E-02 0.  1.
    10030    2    1    2    0    0  0.00000000000E+00  0.00000000000E+00 -0.32348443964E+03  0.41078204617E+04  0.40950637068E+04 0.  0.
        1    1    3    3  502    0  0.15080811289E+03 -0.93440720127E+03  0.16595477501E+04  0.19104864929E+04  0.50400001928E-02 0. -1.
       -1    1    3    3    0  502 -0.15080811289E+03  0.93440720127E+03 -0.19830321897E+04  0.21973339688E+04  0.50400001928E-02 0.  1.
</event>
<event>
 5   0  0.1776653E-07  0.3976532E+04  0.7818609E-02  0.8009298E-01
       -2   -1    0    0    0  501  0.00000000000E+00  0.00000000000E+00  0.14512185102E+04  0.14512185102E+04  0.25500000920E-02 0. -1.
        2   -1    0    0  501    0  0.00000000000E+00  0.00000000000E+00 -0.27240564818E+04  0.27240564818E+04  0.25500000920E-02 0.  1.
    10030    2    1    2    0    0  0.00000000000E+00  0.00000000000E+00 -0.12728379716E+04  0.41752749921E+04  0.39765317498E+04 0.  0.
        4    1    3    3  502    0  0.68486844220E+03 -0.12889461884E+04 -0.20539966634E+04  0.25197878811E+04  0.12699999809E+01 0.  1.
       -4    1    3    3    0  502 -0.68486844220E+03  0.12889461884E+04  0.78115869182E+03  0.16554871109E+04  0.12699999809E+01 0. -1.
</event>
<event>
 5   0  0.1785559E-07  0.3303996E+04  0.7818609E-02  0.8161879E-01
       -2   -1    0    0    0  501  0.00000000000E+00  0.00000000000E+00  0.16319957333E+04  0.16319957333E+04  0.25500000920E-02 0. -1.
        2   -1    0    0  501    0  0.00000000000E+00  0.00000000000E+00 -0.16722456945E+04  0.16722456945E+04  0.25500000920E-02 0.  1.
    10030    2    1    2    0    0  0.00000000000E+00  0.00000000000E+00 -0.40249961183E+02  0.33042414278E+04  0.33039962703E+04 0.  0.
        2    1    3    3  502    0  0.23820779309E+03 -0.37297907808E+02  0.16143046261E+04  0.16322112340E+04  0.25500000920E-02 0. -1.
       -2    1    3    3    0  502 -0.23820779309E+03  0.37297907808E+02 -0.16545545873E+04  0.16720301938E+04  0.25500000920E-02 0.  1.
</event>
<event>
 5   0  0.1785559E-07  0.3985280E+04  0.7818609E-02  0.8007523E-01
        2   -1    0    0  501    0  0.00000000000E+00  0.00000000000E+00  0.19573304861E+04  0.19573304861E+04  0.25500000920E-02 0. -1.
       -2   -1    0    0    0  501  0.00000000000E+00  0.00000000000E+00 -0.20285860448E+04  0.20285860448E+04  0.25500000920E-02 0.  1.
    10030    2    1    2    0    0  0.00000000000E+00  0.00000000000E+00 -0.71255558626E+02  0.39859165309E+04  0.39852795682E+04 0.  0.
        2    1    3    3  502    0 -0.11143937801E+02 -0.11659279198E+04  0.15805207080E+04  0.19640666511E+04  0.25500000920E-02 0. -1.
       -2    1    3    3    0  502  0.11143937801E+02  0.11659279198E+04 -0.16517762666E+04  0.20218498798E+04  0.25500000920E-02 0.  1.
</event>
<event>
 5   0  0.5515000E-08  0.3986472E+04  0.7818609E-02  0.8007281E-01
       -1   -1    0    0    0  501  0.00000000000E+00  0.00000000000E+00  0.18747873948E+04  0.18747873948E+04  0.50400001928E-02 0. -1.
        1   -1    0    0  501    0  0.00000000000E+00  0.00000000000E+00 -0.21191676749E+04  0.21191676749E+04  0.50400001928E-02 0.  1.
    10030    2    1    2    0    0  0.00000000000E+00  0.00000000000E+00 -0.24438028004E+03  0.39939550697E+04  0.39864715448E+04 0.  0.
        2    1    3    3  502    0  0.58775172039E+03 -0.56634864962E+03 -0.19440608316E+04  0.21084533182E+04  0.25500000920E-02 0.  1.
       -2    1    3    3    0  502 -0.58775172039E+03  0.56634864962E+03  0.16996805516E+04  0.18855017516E+04  0.25500000920E-02 0. -1.
</event>
<event>
 5   0  0.5515000E-08  0.4027837E+04  0.7818609E-02  0.7998954E-01
       -1   -1    0    0    0  501  0.00000000000E+00  0.00000000000E+00  0.26226177380E+04  0.26226177380E+04  0.50400001928E-02 0.  1.
        1   -1    0    0  501    0  0.00000000000E+00  0.00000000000E+00 -0.15464961479E+04  0.15464961480E+04  0.50400001928E-02 0. -1.
    10030    2    1    2    0    0  0.00000000000E+00  0.00000000000E+00  0.10761215900E+04  0.41691138859E+04  0.40278372506E+04 0.  0.
        3    1    3    3  502    0  0.14224942184E+03  0.15392531498E+04 -0.79808161903E+03  0.17396750955E+04  0.10100000352E+00 0. -1.
       -3    1    3    3    0  502 -0.14224942184E+03 -0.15392531498E+04  0.18742032090E+04  0.24294387904E+04  0.10100000352E+00 0.  1.
</event>
<event>
 5   0  0.1821433E-07  0.3971602E+04  0.7818609E-02  0.8010300E-01
        2   -1    0    0  501    0  0.00000000000E+00  0.00000000000E+00  0.16036352085E+04  0.16036352085E+04  0.25500000920E-02 0. -1.
       -2   -1    0    0    0  501  0.00000000000E+00  0.00000000000E+00 -0.24590411351E+04  0.24590411351E+04  0.25500000920E-02 0.  1.
    10030    2    1    2    0    0  0.00000000000E+00  0.00000000000E+00 -0.85540592667E+03  0.40626763436E+04  0.39716016635E+04 0.  0.
        5    1    3    3  502    0 -0.11872402807E+04  0.83138684651E+03 -0.18162695287E+04  0.23237040826E+04  0.46999998093E+01 0.  1.
       -5    1    3    3    0  502  0.11872402807E+04 -0.83138684651E+03  0.96086360205E+03  0.17389722610E+04  0.46999998093E+01 0. -1.
</event>
<event>
 5   0  0.1819906E-07  0.4004339E+04  0.7818609E-02  0.8003672E-01
        2   -1    0    0  501    0  0.00000000000E+00  0.00000000000E+00  0.25760477801E+04  0.25760477801E+04  0.25500000920E-02 0. -1.
       -2   -1    0    0    0  501  0.00000000000E+00  0.00000000000E+00 -0.15561369202E+04  0.15561369202E+04  0.25500000920E-02 0.  1.
    10030    2    1    2    0    0  0.00000000000E+00  0.00000000000E+00  0.10199108600E+04  0.41321847003E+04  0.40043391758E+04 0.  0.
        1    1    3    3  502    0 -0.96820456524E+03 -0.17499992405E+04  0.41334130844E+03  0.20422459350E+04  0.50400001928E-02 0. -1.
       -1    1    3    3    0  502  0.96820456524E+03  0.17499992405E+04  0.60656955152E+03  0.20899387653E+04  0.50400001928E-02 0.  1.
</event>
<event>
 5   0  0.5515000E-08  0.3892424E+04  0.7818609E-02  0.8026607E-01
        1   -1    0    0  501    0  0.00000000000E+00  0.00000000000E+00  0.13235859698E+04  0.13235859698E+04  0.50400001928E-02 0.  1.
       -1   -1    0    0    0  501  0.00000000000E+00  0.00000000000E+00 -0.28617260304E+04  0.28617260304E+04  0.50400001928E-02 0. -1.
    10030    2    1    2    0    0  0.00000000000E+00  0.00000000000E+00 -0.15381400606E+04  0.41853120002E+04  0.38924236271E+04 0.  0.
        4    1    3    3  502    0  0.10296016268E+03  0.17702621094E+04  0.93348176655E+02  0.17757094993E+04  0.12699999809E+01 0.  1.
       -4    1    3    3    0  502 -0.10296016268E+03 -0.17702621094E+04 -0.16314882373E+04  0.24096025009E+04  0.12699999809E+01 0. -1.
</event>
<event>
 5   0  0.5515000E-08  0.4134436E+04  0.7818609E-02  0.7977962E-01
       -1   -1    0    0    0  501  0.00000000000E+00  0.00000000000E+00  0.27795751010E+04  0.27795751010E+04  0.50400001928E-02 0.  1.
        1   -1    0    0  501    0  0.00000000000E+00  0.00000000000E+00 -0.15374256268E+04  0.15374256268E+04  0.50400001928E-02 0. -1.
    10030    2    1    2    0    0  0.00000000000E+00  0.00000000000E+00  0.12421494742E+04  0.43170007278E+04  0.41344358705E+04 0.  0.
        3    1    3    3  502    0 -0.62456572058E+03 -0.88407294571E+03 -0.12178643502E+04  0.16293743886E+04  0.10100000352E+00 0. -1.
       -3    1    3    3    0  502  0.62456572058E+03  0.88407294571E+03  0.24600138244E+04  0.26876263392E+04  0.10100000352E+00 0.  1.
</event>
<event>
 5   0  0.1821433E-07  0.3930496E+04  0.7818609E-02  0.8018716E-01
        2   -1    0    0  501    0  0.00000000000E+00  0.00000000000E+00  0.24842831423E+04  0.24842831423E+04  0.25500000920E-02 0.  1.
       -2   -1    0    0    0  501  0.00000000000E+00  0.00000000000E+00 -0.15546535560E+04  0.15546535560E+04  0.25500000920E-02 0. -1.
    10030    2    1    2    0    0  0.00000000000E+00  0.00000000000E+00  0.92962958635E+03  0.40389366983E+04  0.39304959591E+04 0.  0.
        5    1    3    3  502    0 -0.15536490637E+04 -0.10997516043E+04  0.96707229054E+03  0.21350714062E+04  0.46999998093E+01 0.  1.
       -5    1    3    3    0  502  0.15536490637E+04  0.10997516043E+04 -0.37442704192E+02  0.19038652921E+04  0.46999998093E+01 0. -1.
</event>
<event>
 5   0  0.5515000E-08  0.4012469E+04  0.7818609E-02  0.8002036E-01
       -1   -1    0    0    0  501  0.00000000000E+00  0.00000000000E+00  0.17562159963E+04  0.17562159963E+04  0.50400001928E-02 0. -1.
        1   -1    0    0  501    0  0.00000000000E+00  0.00000000000E+00 -0.22918463638E+04  0.22918463639E+04  0.50400001928E-02 0.  1.
    10030    2    1    2    0    0  0.00000000000E+00  0.00000000000E+00 -0.53563036759E+03  0.40480623601E+04  0.40124691875E+04 0.  0.
        2    1    3    3  502    0  0.30427435490E+03 -0.19454815457E+04  0.11964357552E+03  0.19727635218E+04  0.25500000920E-02 0. -1.
       -2    1    3    3    0  502 -0.30427435490E+03  0.19454815457E+04 -0.65527394311E+03  0.20752988383E+04  0.25500000920E-02 0.  1.
</event>
<event>
 5   0  0.1785559E-07  0.3994820E+04  0.7818609E-02  0.8005592E-01
       -2   -1    0    0    0  501  0.00000000000E+00  0.00000000000E+00  0.27358244951E+04  0.27358244951E+04  0.25500000920E-02 0.  1.
        2   -1    0    0  501    0  0.00000000000E+00  0.00000000000E+00 -0.14582977097E+04  0.14582977097E+04  0.25500000920E-02 0. -1.
    10030    2    1    2    0    0  0.00000000000E+00  0.00000000000E+00  0.12775267854E+04  0.41941222048E+04  0.39948199436E+04 0.  0.
        2    1    3    3  502    0  0.44733817773E+02 -0.16947904665E+04 -0.47001744107E+03  0.17593272108E+04  0.25500000920E-02 0. -1.
       -2    1    3    3    0  502 -0.44733817773E+02  0.16947904665E+04  0.17475442264E+04  0.24347949940E+04  0.25500000920E-02 0.  1.
</event>
<event>
 5   0  0.1776653E-07  0.4043901E+04  0.7818609E-02  0.7995748E-01
       -2   -1    0    0    0  501  0.00000000000E+00  0.00000000000E+00  0.15645616954E+04  0.15645616954E+04  0.25500000920E-02 0.  1.
        2   -1    0    0  501    0  0.00000000000E+00  0.00000000000E+00 -0.26130541696E+04  0.26130541696E+04  0.25500000920E-02 0. -1.
    10030    2    1    2    0    0  0.00000000000E+00  0.00000000000E+00 -0.10484924742E+04  0.41776158649E+04  0.40439013151E+04 0.  0.
        4    1    3    3  502    0  0.12018624788E+04 -0.15780467921E+04 -0.92909434059E+03  0.21904161711E+04  0.12699999809E+01 0.  1.
       -4    1    3    3    0  502 -0.12018624788E+04  0.15780467921E+04 -0.11939813359E+03  0.19871996938E+04  0.12699999809E+01 0. -1.
</event>
<event>
 5   0  0.5515000E-08  0.4008905E+04  0.7818609E-02  0.8002752E-01
        1   -1    0    0  501    0  0.00000000000E+00  0.00000000000E+00  0.13470888850E+04  0.13470888850E+04  0.50400001928E-02 0.  1.
       -1   -1    0    0    0  501  0.00000000000E+00  0.00000000000E+00 -0.29826024439E+04  0.29826024439E+04  0.50400001928E-02 0. -1.
    10030    2    1    2    0    0  0.00000000000E+00  0.00000000000E+00 -0.16355135589E+04  0.43296913289E+04  0.40089053871E+04 0.  0.
        1    1    3    3  502    0  0.14184244240E+03  0.50242735286E+03  0.12723725688E+04  0.13753125017E+04  0.50400001928E-02 0.  1.
       -1    1    3    3    0  502 -0.14184244240E+03 -0.50242735286E+03 -0.29078861277E+04  0.29543788272E+04  0.50400001928E-02 0. -1.
</event>
<event>
 5   0  0.5515000E-08  0.4005377E+04  0.7818609E-02  0.8003463E-01
        1   -1    0    0  501    0  0.00000000000E+00  0.00000000000E+00  0.16152614252E+04  0.16152614252E+04  0.50400001928E-02 0. -1.
       -1   -1    0    0    0  501  0.00000000000E+00  0.00000000000E+00 -0.24830411326E+04  0.24830411326E+04  0.50400001928E-02 0.  1.
    10030    2    1    2    0    0  0.00000000000E+00  0.00000000000E+00 -0.86777970738E+03  0.40983025578E+04  0.40053766658E+04 0.  0.
        1    1    3    3  502    0  0.16230532430E+04  0.16039236991E+03 -0.16230638708E+04  0.23009484720E+04  0.50400001928E-02 0.  1.
       -1    1    3    3    0  502 -0.16230532430E+04 -0.16039236991E+03  0.75528416346E+03  0.17973540858E+04  0.50400001928E-02 0. -1.
</event>
<event>
 5   0  0.5515000E-08  0.4042013E+04  0.7818609E-02  0.7996124E-01
        1   -1    0    0  501    0  0.00000000000E+00  0.00000000000E+00  0.22490636531E+04  0.22490636531E+04  0.50400001928E-02 0.  1.
       -1   -1    0    0    0  501  0.00000000000E+00  0.00000000000E+00 -0.18160749926E+04  0.18160749926E+04  0.50400001928E-02 0. -1.
    10030    2    1    2    0    0  0.00000000000E+00  0.00000000000E+00  0.43298866057E+03  0.40651386457E+04  0.40420134869E+04 0.  0.
        5    1    3    3  502    0  0.14652692854E+04 -0.13778556243E+04  0.41497071903E+03  0.20537095676E+04  0.46999998093E+01 0. -1.
       -5    1    3    3    0  502 -0.14652692854E+04  0.13778556243E+04  0.18017941540E+02  0.20114290781E+04  0.46999998093E+01 0.  1.
</event>
<event>
 5   0  0.1819906E-07  0.3950681E+04  0.7818609E-02  0.8014570E-01
       -2   -1    0    0    0  501  0.00000000000E+00  0.00000000000E+00  0.19315671969E+04  0.19315671969E+04  0.25500000920E-02 0.  1.
        2   -1    0    0  501    0  0.00000000000E+00  0.00000000000E+00 -0.20201060404E+04  0.20201060404E+04  0.25500000920E-02 0. -1.
    10030    2    1    2    0    0  0.00000000000E+00  0.00000000000E+00 -0.88538843476E+02  0.39516732374E+04  0.39506812385E+04 0.  0.
        1    1    3    3  502    0 -0.14190290038E+04 -0.10769751129E+04  0.80943879705E+03  0.19567089394E+04  0.50400001928E-02 0.  1.
       -1    1    3    3    0  502  0.14190290038E+04  0.10769751129E+04 -0.89797764053E+03  0.19949642980E+04  0.50400001928E-02 0. -1.
</event>
<event>
 5   0  0.1776653E-07  0.3235304E+04  0.7818609E-02  0.8179555E-01
        2   -1    0    0  501    0  0.00000000000E+00  0.00000000000E+00  0.22372953057E+04  0.22372953057E+04  0.25500000920E-02 0.  1.
       -2   -1    0    0    0  501  0.00000000000E+00  0.00000000000E+00 -0.11696253707E+04  0.11696253708E+04  0.25500000920E-02 0. -1.
    10030    2    1    2    0    0  0.00000000000E+00  0.00000000000E+00  0.10676699349E+04  0.34069206764E+04  0.32353036033E+04 0.  0.
        4    1    3    3  502    0  0.98604093443E+03 -0.73767175533E+03  0.16384584174E+04  0.20496301963E+04  0.12699999809E+01 0.  1.
       -4    1    3    3    0  502 -0.98604093443E+03  0.73767175533E+03 -0.57078848246E+03  0.13572904802E+04  0.12699999809E+01 0. -1.
</event>
<event>
 5   0  0.5515000E-08  0.4036088E+04  0.7818609E-02  0.7997306E-01
        1   -1    0    0  501    0  0.00000000000E+00  0.00000000000E+00  0.13630632209E+04  0.13630632209E+04  0.50400001928E-02 0. -1.
       -1   -1    0    0    0  501  0.00000000000E+00  0.00000000000E+00 -0.29877570127E+04  0.29877570127E+04  0.50400001928E-02 0.  1.
    10030    2    1    2    0    0  0.00000000000E+00  0.00000000000E+00 -0.16246937918E+04  0.43508202336E+04  0.40360880550E+04 0.  0.
        4    1    3    3  502    0  0.28872129636E+03  0.18782448856E+04 -0.15445293142E+04  0.24488234425E+04  0.12699999809E+01 0.  1.
       -4    1    3    3    0  502 -0.28872129636E+03 -0.18782448856E+04 -0.80164477663E+02  0.19019967911E+04  0.12699999809E+01 0. -1.
</event>
<event>
 5   0  0.1819906E-07  0.4005355E+04  0.7818609E-02  0.8003467E-01
       -2   -1    0    0    0  501  0.00000000000E+00  0.00000000000E+00  0.35141106940E+04  0.35141106940E+04  0.25500000920E-02 0. -1.
        2   -1    0    0  501    0  0.00000000000E+00  0.00000000000E+00 -0.11413175782E+04  0.11413175782E+04  0.25500000920E-02 0.  1.
    10030    2    1    2    0    0  0.00000000000E+00  0.00000000000E+00  0.23727931158E+04  0.46554282722E+04  0.40053545695E+04 0.  0.
        1    1    3    3  502    0 -0.79731194630E+03  0.31925951282E+03  0.32891928537E+04  0.33994738718E+04  0.50400001928E-02 0. -1.
       -1    1    3    3    0  502  0.79731194630E+03 -0.31925951282E+03 -0.91639973790E+03  0.12559544004E+04  0.50400001928E-02 0.  1.
</event>
<event>
 5   0  0.5515000E-08  0.4011070E+04  0.7818609E-02  0.8002317E-01
       -1   -1    0    0    0  501  0.00000000000E+00  0.00000000000E+00  0.18503922673E+04  0.18503922673E+04  0.50400001928E-02 0. -1.
        1   -1    0    0  501    0  0.00000000000E+00  0.00000000000E+00 -0.21736850776E+04  0.21736850776E+04  0.50400001928E-02 0.  1.
    10030    2    1    2    0    0  0.00000000000E+00  0.00000000000E+00 -0.32329281033E+03  0.40240773449E+04  0.40110697123E+04 0.  0.
        5    1    3    3  502    0 -0.85406941873E+03  0.75257825311E+03 -0.18181640528E+04  0.21451226566E+04  0.46999998093E+01 0.  1.
       -5    1    3    3    0  502  0.85406941873E+03 -0.75257825311E+03  0.14948712425E+04  0.18789546883E+04  0.46999998093E+01 0. -1.
</event>
<event>
 5   0  0.1785559E-07  0.4007164E+04  0.7818609E-02  0.8003103E-01
       -2   -1    0    0    0  501  0.00000000000E+00  0.00000000000E+00  0.30216836314E+04  0.30216836314E+04  0.25500000920E-02 0. -1.
        2   -1    0    0  501    0  0.00000000000E+00  0.00000000000E+00 -0.13285113191E+04  0.13285113191E+04  0.25500000920E-02 0.  1.
    10030    2    1    2    0    0  0.00000000000E+00  0.00000000000E+00  0.16931723123E+04  0.43501949505E+04  0.40071640381E+04 0.  0.
        2    1    3    3  502    0 -0.10249759772E+04 -0.63908078242E+03  0.25819718882E+04  0.28505400948E+04  0.25500000920E-02 0. -1.
       -2    1    3    3    0  502  0.10249759772E+04  0.63908078242E+03 -0.88879957590E+03  0.14996548557E+04  0.25500000920E-02 0.  1.
</event>
<event>
 5   0  0.1785559E-07  0.4036929E+04  0.7818609E-02  0.7997138E-01
        2   -1    0    0  501    0  0.00000000000E+00  0.00000000000E+00  0.33613692953E+04  0.33613692953E+04  0.25500000920E-02 0.  1.
       -2   -1    0    0    0  501  0.00000000000E+00  0.00000000000E+00 -0.12120654117E+04  0.12120654117E+04  0.25500000920E-02 0. -1.
    10030    2    1    2    0    0  0.00000000000E+00  0.00000000000E+00  0.21493038835E+04  0.45734347070E+04  0.40369292581E+04 0.  0.
        2    1    3    3  502    0  0.18362371043E+04 -0.46560907428E+03  0.18641462296E+04  0.26577433433E+04  0.25500000920E-02 0.  1.
       -2    1    3    3    0  502 -0.18362371043E+04  0.46560907428E+03  0.28515765389E+03  0.19156913637E+04  0.25500000920E-02 0. -1.
</event>
<event>
 5   0  0.1776653E-07  0.4077870E+04  0.7818609E-02  0.7989019E-01
       -2   -1    0    0    0  501  0.00000000000E+00  0.00000000000E+00  0.29754824916E+04  0.29754824916E+04  0.25500000920E-02 0. -1.
        2   -1    0    0  501    0  0.00000000000E+00  0.00000000000E+00 -0.13971701185E+04  0.13971701185E+04  0.25500000920E-02 0.  1.
    10030    2    1    2    0    0  0.00000000000E+00  0.00000000000E+00  0.15783123731E+04  0.43726526100E+04  0.40778696523E+04 0.  0.
        4    1    3    3  502    0  0.31369491612E+03  0.17767903588E+04 -0.22915950163E+03  0.18187644624E+04  0.12699999809E+01 0.  1.
       -4    1    3    3    0  502 -0.31369491612E+03 -0.17767903588E+04  0.18074718747E+04  0.25538881476E+04  0.12699999809E+01 0. -1.
</event>
<event>
 5   0  0.1821433E-07  0.3802589E+04  0.7818609E-02  0.8045600E-01
        2   -1    0    0  501    0  0.00000000000E+00  0.00000000000E+00  0.21899414656E+04  0.21899414656E+04  0.25500000920E-02 0. -1.
       -2   -1    0    0    0  501  0.00000000000E+00  0.00000000000E+00 -0.16506926481E+04  0.16506926481E+04  0.25500000920E-02 0.  1.
    10030    2    1    2    0    0  0.00000000000E+00  0.00000000000E+00  0.53924881749E+03  0.38406341137E+04  0.38025887377E+04 0.  0.
        5    1    3    3  502    0 -0.80245703441E+03 -0.70462670404E+02  0.20090619991E+04  0.21645448682E+04  0.46999998093E+01 0. -1.
       -5    1    3    3    0  502  0.80245703441E+03  0.70462670404E+02 -0.14698131816E+04  0.16760892455E+04  0.46999998093E+01 0.  1.
</event>
<event>
 5   0  0.1819906E-07  0.4017580E+04  0.7818609E-02  0.8001009E-01
       -2   -1    0    0    0  501  0.00000000000E+00  0.00000000000E+00  0.21670411098E+04  0.21670411098E+04  0.25500000920E-02 0.  1.
        2   -1    0    0  501    0  0.00000000000E+00  0.00000000000E+00 -0.18620956672E+04  0.18620956672E+04  0.25500000920E-02 0. -1.
    10030    2    1    2    0    0  0.00000000000E+00  0.00000000000E+00  0.30494544260E+03  0.40291367770E+04  0.40175802972E+04 0.  0.
        1    1    3    3  502    0  0.60556790992E+03 -0.17254774472E+04  0.98628050095E+03  0.20776751770E+04  0.50400001928E-02 0.  1.
       -1    1    3    3    0  502 -0.60556790992E+03  0.17254774472E+04 -0.68133505835E+03  0.19514616000E+04  0.50400001928E-02 0. -1.
</event>
<event>
 5   0  0.1821433E-07  0.3976101E+04  0.7818609E-02  0.8009385E-01
        2   -1    0    0  501    0  0.00000000000E+00  0.00000000000E+00  0.18566300764E+04  0.18566300764E+04  0.25500000920E-02 0. -1.
       -2   -1    0    0    0  501  0.00000000000E+00  0.00000000000E+00 -0.21287733630E+04  0.21287733630E+04  0.25500000920E-02 0.  1.
    10030    2    1    2    0    0  0.00000000000E+00  0.00000000000E+00 -0.27214328667E+03  0.39854034394E+04  0.39761009301E+04 0.  0.
        5    1    3    3  502    0 -0.84915915094E+03  0.15352983068E+04 -0.10731977499E+04  0.20566933789E+04  0.46999998093E+01 0.  1.
       -5    1    3    3    0  502  0.84915915094E+03 -0.15352983068E+04  0.80105446323E+03  0.19287100605E+04  0.46999998093E+01 0. -1.
</event>
<event>
 5   0  0.5515000E-08  0.4009211E+04  0.7818609E-02  0.8002691E-01
        1   -1    0    0  501    0  0.00000000000E+00  0.00000000000E+00  0.21975274939E+04  0.21975274940E+04  0.50400001928E-02 0.  1.
       -1   -1    0    0    0  501  0.00000000000E+00  0.00000000000E+00 -0.18286203218E+04  0.18286203218E+04  0.50400001928E-02 0. -1.
    10030    2    1    2    0    0  0.00000000000E+00  0.00000000000E+00  0.36890717219E+03  0.40261478157E+04  0.40092111110E+04 0.  0.
        4    1    3    3  502    0 -0.11565957309E+04  0.26521816126E+03  0.18069482519E+04  0.21617395671E+04  0.12699999809E+01 0.  1.
       -4    1    3    3    0  502  0.11565957309E+04 -0.26521816126E+03 -0.14380410797E+04  0.18644082487E+04  0.12699999809E+01 0. -1.
</event>
<event>
 5   0  0.5515000E-08  0.4022971E+04  0.7818609E-02  0.7999929E-01
        1   -1    0    0  501    0  0.00000000000E+00  0.00000000000E+00  0.26597816531E+04  0.26597816531E+04  0.50400001928E-02 0. -1.
       -1   -1    0    0    0  501  0.00000000000E+00  0.00000000000E+00 -0.15212050976E+04  0.15212050976E+04  0.50400001928E-02 0.  1.
    10030    2    1    2    0    0  0.00000000000E+00  0.00000000000E+00  0.11385765555E+04  0.41809867507E+04  0.40229707477E+04 0.  0.
        5    1    3    3  502    0  0.18753264027E+04  0.38381193690E+03 -0.72957711377E+02  0.19155953740E+04  0.46999998093E+01 0. -1.
       -5    1    3    3    0  502 -0.18753264027E+04 -0.38381193690E+03  0.12115342669E+04  0.22653913766E+04  0.46999998093E+01 0.  1.
</event>
<event>
 5   0  0.1776653E-07  0.3987413E+04  0.7818609E-02  0.8007091E-01
        2   -1    0    0  501    0  0.00000000000E+00  0.00000000000E+00  0.22328641117E+04  0.22328641117E+04  0.25500000920E-02 0. -1.
       -2   -1    0    0    0  501  0.00000000000E+00  0.00000000000E+00 -0.17801645064E+04  0.17801645064E+04  0.25500000920E-02 0.  1.
    10030    2    1    2    0    0  0.00000000000E+00  0.00000000000E+00  0.45269960529E+03  0.40130286181E+04  0.39874129153E+04 0.  0.
        4    1    3    3  502    0 -0.17504769175E+04 -0.42116646804E+03  0.10881881124E+04  0.21037361083E+04  0.12699999809E+01 0.  1.
       -4    1    3    3    0  502  0.17504769175E+04  0.42116646804E+03 -0.63548850712E+03  0.19092925098E+04  0.12699999809E+01 0. -1.
</event>
<event>
 5   0  0.1785559E-07  0.4010130E+04  0.7818609E-02  0.8002506E-01
        2   -1    0    0  501    0  0.00000000000E+00  0.00000000000E+00  0.26188467170E+04  0.26188467170E+04  0.25500000920E-02 0.  1.
       -2   -1    0    0    0  501  0.00000000000E+00  0.00000000000E+00 -0.15351359616E+04  0.15351359616E+04  0.25500000920E-02 0. -1.
    10030    2    1    2    0    0  0.00000000000E+00  0.00000000000E+00  0.10837107553E+04  0.41539826786E+04  0.40101300593E+04 0.  0.
        2    1    3    3  502    0  0.50156670208E+03  0.27167330873E+03 -0.14493138357E+04  0.15575256459E+04  0.25500000920E-02 0. -1.
       -2    1    3    3    0  502 -0.50156670208E+03 -0.27167330873E+03  0.25330245911E+04  0.25964570326E+04  0.25500000920E-02 0.  1.
</event>
<event>
 5   0  0.5515000E-08  0.3999113E+04  0.7818609E-02  0.8004725E-01
       -1   -1    0    0    0  501  0.00000000000E+00  0.00000000000E+00  0.26072021747E+04  0.26072021747E+04  0.50400001928E-02 0. -1.
        1   -1    0    0  501    0  0.00000000000E+00  0.00000000000E+00 -0.15335314557E+04  0.15335314557E+04  0.50400001928E-02 0.  1.
    10030    2    1    2    0    0  0.00000000000E+00  0.00000000000E+00  0.10736707190E+04  0.41407336305E+04  0.39991131749E+04 0.  0.
        5    1    3    3  502    0  0.29316070919E+03 -0.16898598368E+04  0.16011648413E+04  0.23463419206E+04  0.46999998093E+01 0. -1.
       -5    1    3    3    0  502 -0.29316070919E+03  0.16898598368E+04 -0.52749412228E+03  0.17943917099E+04  0.46999998093E+01 0.  1.
</event>
<event>
 5   0  0.5515000E-08  0.4027807E+04  0.7818609E-02  0.7998960E-01
        1   -1    0    0  501    0  0.00000000000E+00  0.00000000000E+00  0.25840088708E+04  0.25840088708E+04  0.50400001928E-02 0.  1.
       -1   -1    0    0    0  501  0.00000000000E+00  0.00000000000E+00 -0.15695797544E+04  0.15695797544E+04  0.50400001928E-02 0. -1.
    10030    2    1    2    0    0  0.00000000000E+00  0.00000000000E+00  0.10144291164E+04  0.41535886253E+04  0.40278073484E+04 0.  0.
        4    1    3    3  502    0  0.51816217441E+03  0.19348556798E+04  0.29176964393E+03  0.20241762963E+04  0.12699999809E+01 0. -1.
       -4    1    3    3    0  502 -0.51816217441E+03 -0.19348556798E+04  0.72265947248E+03  0.21294123289E+04  0.12699999809E+01 0.  1.
</event>
<event>
 5   0  0.1821433E-07  0.4003164E+04  0.7818609E-02  0.8003909E-01
        2   -1    0    0  501    0  0.00000000000E+00  0.00000000000E+00  0.15988317536E+04  0.15988317536E+04  0.25500000920E-02 0.  1.
       -2   -1    0    0    0  501  0.00000000000E+00  0.00000000000E+00 -0.25057858604E+04  0.25057858604E+04  0.25500000920E-02 0. -1.
    10030    2    1    2    0    0  0.00000000000E+00  0.00000000000E+00 -0.90695410677E+03  0.41046176140E+04  0.40031637495E+04 0.  0.
        5    1    3    3  502    0 -0.76687033517E+03 -0.10442607717E+04 -0.20178356987E+04  0.23979686543E+04  0.46999998093E+01 0. -1.
       -5    1    3    3    0  502  0.76687033517E+03  0.10442607717E+04  0.11108815919E+04  0.17066489597E+04  0.46999998093E+01 0.  1.
</event>
<event>
 5   0  0.5515000E-08  0.4018346E+04  0.7818609E-02  0.8000856E-01
        1   -1    0    0  501    0  0.00000000000E+00  0.00000000000E+00  0.27194065463E+04  0.27194065463E+04  0.50400001928E-02 0. -1.
       -1   -1    0    0    0  501  0.00000000000E+00  0.00000000000E+00 -0.14844325623E+04  0.14844325623E+04  0.50400001928E-02 0.  1.
    10030    2    1    2    0    0  0.00000000000E+00  0.00000000000E+00  0.12349739841E+04  0.42038391086E+04  0.40183457429E+04 0.  0.
        2    1    3    3  502    0  0.96427480063E+02 -0.27266571151E+03 -0.14625419407E+04  0.14908634335E+04  0.25500000920E-02 0.  1.
       -2    1    3    3    0  502 -0.96427480063E+02  0.27266571151E+03  0.26975159248E+04  0.27129756751E+04  0.25500000920E-02 0. -1.
</event>
<event>
 5   0  0.5515000E-08  0.3998124E+04  0.7818609E-02  0.8004925E-01
       -1   -1    0    0    0  501  0.00000000000E+00  0.00000000000E+00  0.18142113631E+04  0.18142113631E+04  0.50400001928E-02 0.  1.
        1   -1    0    0  501    0  0.00000000000E+00  0.00000000000E+00 -0.22027475505E+04  0.22027475505E+04  0.50400001928E-02 0. -1.
    10030    2    1    2    0    0  0.00000000000E+00  0.00000000000E+00 -0.38853618738E+03  0.40169589136E+04  0.39981243784E+04 0.  0.
        3    1    3    3  502    0  0.28481615047E+03  0.60973249705E+03 -0.20855160112E+04  0.21914084514E+04  0.10100000352E+00 0. -1.
       -3    1    3    3    0  502 -0.28481615047E+03 -0.60973249705E+03  0.16969798238E+04  0.18255504622E+04  0.10100000352E+00 0.  1.
</event>
<event>
 5   0  0.5515000E-08  0.4038651E+04  0.7818609E-02  0.7996794E-01
       -1   -1    0    0    0  501  0.00000000000E+00  0.00000000000E+00  0.14909626838E+04  0.14909626838E+04  0.50400001928E-02 0. -1.
        1   -1    0    0  501    0  0.00000000000E+00  0.00000000000E+00 -0.27349285818E+04  0.27349285818E+04  0.50400001928E-02 0.  1.
    10030    2    1    2    0    0  0.00000000000E+00  0.00000000000E+00 -0.12439658980E+04  0.42258912656E+04  0.40386514869E+04 0.  0.
        1    1    3    3  502    0  0.14232502917E+04 -0.67917156220E+03 -0.19417109022E+04  0.25014309168E+04  0.50400001928E-02 0.  1.
       -1    1    3    3    0  502 -0.14232502917E+04  0.67917156220E+03  0.69774500421E+03  0.17244603488E+04  0.50400001928E-02 0. -1.
</event>
<event>
 5   0  0.1819906E-07  0.3943154E+04  0.7818609E-02  0.8016113E-01
        2   -1    0    0  501    0  0.00000000000E+00  0.00000000000E+00  0.29313609160E+04  0.29313609160E+04  0.25500000920E-02 0. -1.
       -2   -1    0    0    0  501  0.00000000000E+00  0.00000000000E+00 -0.13260448673E+04  0.13260448673E+04  0.25500000920E-02 0.  1.
    10030    2    1    2    0    0  0.00000000000E+00  0.00000000000E+00  0.16053160486E+04  0.42574057833E+04  0.39431541167E+04 0.  0.
        1    1    3    3  502    0  0.13941490907E+04 -0.10337602175E+04  0.18125076979E+04  0.25094812272E+04  0.50400001928E-02 0. -1.
       -1    1    3    3    0  502 -0.13941490907E+04  0.10337602175E+04 -0.20719164926E+03  0.17479245562E+04  0.50400001928E-02 0.  1.
</event>
<event>
 5   0  0.1773903E-07  0.3988405E+04  0.7818609E-02  0.8006890E-01
        2   -1    0    0  501    0  0.00000000000E+00  0.00000000000E+00  0.21287148004E+04  0.21287148004E+04  0.25500000920E-02 0. -1.
       -2   -1    0    0    0  501  0.00000000000E+00  0.00000000000E+00 -0.18681903305E+04  0.18681903305E+04  0.25500000920E-02 0.  1.
    10030    2    1    2    0    0  0.00000000000E+00  0.00000000000E+00  0.26052446987E+03  0.39969051309E+04  0.39884053989E+04 0.  0.
        3    1    3    3  502    0  0.12214343981E+03 -0.56926752077E+03 -0.17811199219E+04  0.18738657147E+04  0.10100000352E+00 0.  1.
       -3    1    3    3    0  502 -0.12214343981E+03  0.56926752077E+03  0.20416443918E+04  0.21230394162E+04  0.10100000352E+00 0. -1.
</event>
<event>
 5   0  0.1821433E-07  0.3991745E+04  0.7818609E-02  0.8006214E-01
        2   -1    0    0  501    0  0.00000000000E+00  0.00000000000E+00  0.27050230398E+04  0.27050230398E+04  0.25500000920E-02 0.  1.
       -2   -1    0    0    0  501  0.00000000000E+00  0.00000000000E+00 -0.14726335818E+04  0.14726335818E+04  0.25500000920E-02 0. -1.
    10030    2    1    2    0    0  0.00000000000E+00  0.00000000000E+00  0.12323894580E+04  0.41776566216E+04  0.39917453666E+04 0.  0.
        5    1    3    3  502    0  0.11802845557E+04  0.16755171857E+03 -0.10590888384E+04  0.15946273760E+04  0.46999998093E+01 0. -1.
       -5    1    3    3    0  502 -0.11802845557E+04 -0.16755171857E+03  0.22914782963E+04  0.25830292455E+04  0.46999998093E+01 0.  1.
</event>
<event>
 5   0  0.1776653E-07  0.3848071E+04  0.7818609E-02  0.8035917E-01
        2   -1    0    0  501    0  0.00000000000E+00  0.00000000000E+00  0.16631137044E+04  0.16631137044E+04  0.25500000920E-02 0. -1.
       -2   -1    0    0    0  501  0.00000000000E+00  0.00000000000E+00 -0.22258924167E+04  0.22258924167E+04  0.25500000920E-02 0.  1.
    10030    2    1    2    0    0  0.00000000000E+00  0.00000000000E+00 -0.56277871222E+03  0.38890061211E+04  0.38480707804E+04 0.  0.
        4    1    3    3  502    0 -0.42895718067E+03  0.18473079578E+04 -0.60943378379E+03  0.19919744234E+04  0.12699999809E+01 0.  1.
       -4    1    3    3    0  502  0.42895718067E+03 -0.18473079578E+04  0.46655071569E+02  0.18970316977E+04  0.12699999809E+01 0. -1.
</event>
<event>
 5   0  0.1819906E-07  0.3986423E+04  0.7818609E-02  0.8007291E-01
       -2   -1    0    0    0  501  0.00000000000E+00  0.00000000000E+00  0.24229745250E+04  0.24229745250E+04  0.25500000920E-02 0.  1.
        2   -1    0    0  501    0  0.00000000000E+00  0.00000000000E+00 -0.16396756917E+04  0.16396756917E+04  0.25500000920E-02 0. -1.
    10030    2    1    2    0    0  0.00000000000E+00  0.00000000000E+00  0.78329883330E+03  0.40626502167E+04  0.39864231739E+04 0.  0.
        1    1    3    3  502    0  0.15804416557E+04  0.82688021001E+03  0.12982471957E+04  0.22061215946E+04  0.50400001928E-02 0.  1.
       -1    1    3    3    0  502 -0.15804416557E+04 -0.82688021001E+03 -0.51494836240E+03  0.18565286221E+04  0.50400001928E-02 0. -1.
</event>
<event>
 5   0  0.5515000E-08  0.4003348E+04  0.7818609E-02  0.8003871E-01
        1   -1    0    0  501    0  0.00000000000E+00  0.00000000000E+00  0.15434802736E+04  0.15434802736E+04  0.50400001928E-02 0. -1.
       -1   -1    0    0    0  501  0.00000000000E+00  0.00000000000E+00 -0.25958862386E+04  0.25958862386E+04  0.50400001928E-02 0.  1.
    10030    2    1    2    0    0  0.00000000000E+00  0.00000000000E+00 -0.10524059650E+04  0.41393665123E+04  0.40033481997E+04 0.  0.
        4    1    3    3  502    0  0.15125768262E+04 -0.94761526934E+03  0.41057839194E+03  0.18315129218E+04  0.12699999809E+01 0. -1.
       -4    1    3    3    0  502 -0.15125768262E+04  0.94761526934E+03 -0.14629843569E+04  0.23078535905E+04  0.12699999809E+01 0.  1.
</event>
<event>
 5   0  0.5515000E-08  0.4052863E+04  0.7818609E-02  0.7993967E-01
       -1   -1    0    0    0  501  0.00000000000E+00  0.00000000000E+00  0.16877710123E+04  0.16877710123E+04  0.50400001928E-02 0.  1.
        1   -1    0    0  501    0  0.00000000000E+00  0.00000000000E+00 -0.24330459633E+04  0.24330459633E+04  0.50400001928E-02 0. -1.
    10030    2    1    2    0    0  0.00000000000E+00  0.00000000000E+00 -0.74527495104E+03  0.41208169756E+04  0.40528629133E+04 0.  0.
        3    1    3    3  502    0 -0.11439515202E+04  0.94317313143E+03 -0.17771837953E+04  0.23144292793E+04  0.10100000352E+00 0. -1.
       -3    1    3    3    0  502  0.11439515202E+04 -0.94317313143E+03  0.10319088443E+04  0.18063876963E+04  0.10100000352E+00 0.  1.
</event>
<event>
 5   0  0.1773903E-07  0.4033561E+04  0.7818609E-02  0.7997810E-01
        2   -1    0    0  501    0  0.00000000000E+00  0.00000000000E+00  0.15795727174E+04  0.15795727174E+04  0.25500000920E-02 0. -1.
       -2   -1    0    0    0  501  0.00000000000E+00  0.00000000000E+00 -0.25750024295E+04  0.25750024295E+04  0.25500000920E-02 0.  1.
    10030    2    1    2    0    0  0.00000000000E+00  0.00000000000E+00 -0.99542971203E+03  0.41545751469E+04  0.40335609998E+04 0.  0.
        3    1    3    3  502    0 -0.12275788861E+04 -0.90920761818E+03 -0.18539558981E+04  0.24022408075E+04  0.10100000352E+00 0.  1.
       -3    1    3    3    0  502  0.12275788861E+04  0.90920761818E+03  0.85852618611E+03  0.17523343394E+04  0.10100000352E+00 0. -1.
</event>
<event>
 5   0  0.1773903E-07  0.3983364E+04  0.7818609E-02  0.8007911E-01
       -2   -1    0    0    0  501  0.00000000000E+00  0.00000000000E+00  0.21217329012E+04  0.21217329012E+04  0.25500000920E-02 0. -1.
        2   -1    0    0  501    0  0.00000000000E+00  0.00000000000E+00 -0.18696028552E+04  0.18696028552E+04  0.25500000920E-02 0.  1.
    10030    2    1    2    0    0  0.00000000000E+00  0.00000000000E+00  0.25213004600E+03  0.39913357563E+04  0.39833643519E+04 0.  0.
        3    1    3    3  502    0  0.73218709900E+03 -0.17750694422E+04 -0.40398167142E+03  0.19621851782E+04  0.10100000352E+00 0.  1.
       -3    1    3    3    0  502 -0.73218709900E+03  0.17750694422E+04  0.65611171742E+03  0.20291505781E+04  0.10100000352E+00 0. -1.
</event>
<event>
 5   0  0.5515000E-08  0.4030092E+04  0.7818609E-02  0.7998503E-01
        1   -1    0    0  501    0  0.00000000000E+00  0.00000000000E+00  0.14380427909E+04  0.14380427909E+04  0.50400001928E-02 0.  1.
       -1   -1    0    0    0  501  0.00000000000E+00  0.00000000000E+00 -0.28235676540E+04  0.28235676540E+04  0.50400001928E-02 0. -1.
    10030    2    1    2    0    0  0.00000000000E+00  0.00000000000E+00 -0.13855248632E+04  0.42616104449E+04  0.40300923609E+04 0.  0.
        4    1    3    3  502    0 -0.10967357380E+04  0.10619905509E+04  0.69799441874E+03  0.16786455941E+04  0.12699999809E+01 0.  1.
       -4    1    3    3    0  502  0.10967357380E+04 -0.10619905509E+04 -0.20835192819E+04  0.25829648507E+04  0.12699999809E+01 0. -1.
</event>
<event>
 5   0  0.5515000E-08  0.4054304E+04  0.7818609E-02  0.7993680E-01
        1   -1    0    0  501    0  0.00000000000E+00  0.00000000000E+00  0.26541039649E+04  0.26541039649E+04  0.50400001928E-02 0. -1.
       -1   -1    0    0    0  501  0.00000000000E+00  0.00000000000E+00 -0.15482985021E+04  0.15482985021E+04  0.50400001928E-02 0.  1.
    10030    2    1    2    0    0  0.00000000000E+00  0.00000000000E+00  0.11058054628E+04  0.42024024671E+04  0.40543039814E+04 0.  0.
        1    1    3    3  502    0  0.83829123884E+02  0.56026842060E+03  0.25703873527E+04  0.26320750689E+04  0.50400001928E-02 0. -1.
       -1    1    3    3    0  502 -0.83829123884E+02 -0.56026842060E+03 -0.14645818899E+04  0.15703273982E+04  0.50400001928E-02 0.  1.
</event>
<event>
 5   0  0.1821433E-07  0.4007252E+04  0.7818609E-02  0.8003085E-01
       -2   -1    0    0    0  501  0.00000000000E+00  0.00000000000E+00  0.16747776941E+04  0.16747776941E+04  0.25500000920E-02 0.  1.
        2   -1    0    0  501    0  0.00000000000E+00  0.00000000000E+00 -0.23970445593E+04  0.23970445593E+04  0.25500000920E-02 0. -1.
    10030    2    1    2    0    0  0.00000000000E+00  0.00000000000E+00 -0.72226686527E+03  0.40718222534E+04  0.40072518063E+04 0.  0.
        5    1    3    3  502    0 -0.71543304701E+03 -0.74609222787E+03 -0.21051808957E+04  0.23452732785E+04  0.46999998093E+01 0. -1.
       -5    1    3    3    0  502  0.71543304701E+03  0.74609222787E+03  0.13829140304E+04  0.17265489749E+04  0.46999998093E+01 0.  1.
</event>
<event>
 5   0  0.5515000E-08  0.3939681E+04  0.7818609E-02  0.8016827E-01
        1   -1    0    0  501    0  0.00000000000E+00  0.00000000000E+00  0.22181639255E+04  0.22181639255E+04  0.50400001928E-02 0.  1.
       -1   -1    0    0    0  501  0.00000000000E+00  0.00000000000E+00 -0.17493169974E+04  0.17493169974E+04  0.50400001928E-02 0. -1.
    10030    2    1    2    0    0  0.00000000000E+00  0.00000000000E+00  0.46884692806E+03  0.39674809229E+04  0.39396811332E+04 0.  0.
        1    1    3    3  502    0 -0.15229744414E+04  0.12283912116E+04  0.50538271246E+01  0.19566352902E+04  0.50400001928E-02 0. -1.
       -1    1    3    3    0  502  0.15229744414E+04 -0.12283912116E+04  0.46379310093E+03  0.20108456326E+04  0.50400001928E-02 0.  1.
</event>
<event>
 5   0  0.5515000E-08  0.3296157E+04  0.7818609E-02  0.8163874E-01
       -1   -1    0    0    0  501  0.00000000000E+00  0.00000000000E+00  0.20004804698E+04  0.20004804698E+04  0.50400001928E-02 0. -1.
        1   -1    0    0  501    0  0.00000000000E+00  0.00000000000E+00 -0.13577554547E+04  0.13577554547E+04  0.50400001928E-02 0.  1.
    10030    2    1    2    0    0  0.00000000000E+00  0.00000000000E+00  0.64272501505E+03  0.33582359245E+04  0.32961573202E+04 0.  0.
        1    1    3    3  502    0  0.47214514549E+03  0.15661698430E+04  0.11669545494E+03  0.16399472079E+04  0.50400001928E-02 0. -1.
       -1    1    3    3    0  502 -0.47214514549E+03 -0.15661698430E+04  0.52602956012E+03  0.17182887166E+04  0.50400001928E-02 0.  1.
</event>
<event>
 5   0  0.1776653E-07  0.4009907E+04  0.7818609E-02  0.8002551E-01
        2   -1    0    0  501    0  0.00000000000E+00  0.00000000000E+00  0.16437993549E+04  0.16437993549E+04  0.25500000920E-02 0.  1.
       -2   -1    0    0    0  501  0.00000000000E+00  0.00000000000E+00 -0.24454557802E+04  0.24454557802E+04  0.25500000920E-02 0. -1.
    10030    2    1    2    0    0  0.00000000000E+00  0.00000000000E+00 -0.80165642531E+03  0.40892551351E+04  0.40099070482E+04 0.  0.
        4    1    3    3  502    0 -0.18939740303E+04  0.57547055985E+03 -0.72577599074E+03  0.21083302385E+04  0.12699999809E+01 0.  1.
       -4    1    3    3    0  502  0.18939740303E+04 -0.57547055985E+03 -0.75880434569E+02  0.19809248966E+04  0.12699999809E+01 0. -1.
</event>
<event>
 5   0  0.5515000E-08  0.3999480E+04  0.7818609E-02  0.8004651E-01
        1   -1    0    0  501    0  0.00000000000E+00  0.00000000000E+00  0.22213867953E+04  0.22213867953E+04  0.50400001928E-02 0. -1.
       -1   -1    0    0    0  501  0.00000000000E+00  0.00000000000E+00 -0.18002090209E+04  0.18002090209E+04  0.50400001928E-02 0.  1.
    10030    2    1    2    0    0  0.00000000000E+00  0.00000000000E+00  0.42117777443E+03  0.40215958162E+04  0.39994802402E+04 0.  0.
        3    1    3    3  502    0  0.19203619497E+04 -0.28088858974E+03 -0.27402226809E+03  0.19600450585E+04  0.10100000352E+00 0.  1.
       -3    1    3    3    0  502 -0.19203619497E+04  0.28088858974E+03  0.69520004252E+03  0.20615507578E+04  0.10100000352E+00 0. -1.
</event>
<event>
 5   0  0.5515000E-08  0.3726910E+04  0.7818609E-02  0.8062024E-01
       -1   -1    0    0    0  501  0.00000000000E+00  0.00000000000E+00  0.15511928508E+04  0.15511928508E+04  0.50400001928E-02 0. -1.
        1   -1    0    0  501    0  0.00000000000E+00  0.00000000000E+00 -0.22385767908E+04  0.22385767908E+04  0.50400001928E-02 0.  1.
    10030    2    1    2    0    0  0.00000000000E+00  0.00000000000E+00 -0.68738394008E+03  0.37897696416E+04  0.37269098802E+04 0.  0.
        3    1    3    3  502    0 -0.10684145291E+04  0.12656697023E+04 -0.12119285543E+04  0.20523645467E+04  0.10100000352E+00 0.  1.
       -3    1    3    3    0  502  0.10684145291E+04 -0.12656697023E+04  0.52454461426E+03  0.17374050949E+04  0.10100000352E+00 0. -1.
</event>
<event>
 5   0  0.5515000E-08  0.3586742E+04  0.7818609E-02  0.8093535E-01
       -1   -1    0    0    0  501  0.00000000000E+00  0.00000000000E+00  0.15062191228E+04  0.15062191229E+04  0.50400001928E-02 0.  1.
        1   -1    0    0  501    0  0.00000000000E+00  0.00000000000E+00 -0.21352663486E+04  0.21352663486E+04  0.50400001928E-02 0. -1.
    10030    2    1    2    0    0  0.00000000000E+00  0.00000000000E+00 -0.62904722576E+03  0.36414854715E+04  0.35867417006E+04 0.  0.
        3    1    3    3  502    0 -0.22286633093E+03  0.33646908010E+03 -0.20885623025E+04  0.21271984733E+04  0.10100000352E+00 0. -1.
       -3    1    3    3    0  502  0.22286633093E+03 -0.33646908010E+03  0.14595150767E+04  0.15142869981E+04  0.10100000352E+00 0.  1.
</event>
<event>
 5   0  0.5515000E-08  0.3885180E+04  0.7818609E-02  0.8028119E-01
       -1   -1    0    0    0  501  0.00000000000E+00  0.00000000000E+00  0.22447831426E+04  0.22447831426E+04  0.50400001928E-02 0.  1.
        1   -1    0    0  501    0  0.00000000000E+00  0.00000000000E+00 -0.16810781970E+04  0.16810781970E+04  0.50400001928E-02 0. -1.
    10030    2    1    2    0    0  0.00000000000E+00  0.00000000000E+00  0.56370494560E+03  0.39258613396E+04  0.38851800463E+04 0.  0.
        5    1    3    3  502    0  0.13435331717E+04  0.14030154611E+04  0.29196428117E+03  0.19643825999E+04  0.46999998093E+01 0. -1.
       -5    1    3    3    0  502 -0.13435331717E+04 -0.14030154611E+04  0.27174066443E+03  0.19614787397E+04  0.46999998093E+01 0.  1.
</event>
<event>
 5   0  0.5515000E-08  0.3953407E+04  0.7818609E-02  0.8014012E-01
        1   -1    0    0  501    0  0.00000000000E+00  0.00000000000E+00  0.18052990720E+04  0.18052990720E+04  0.50400001928E-02 0. -1.
       -1   -1    0    0    0  501  0.00000000000E+00  0.00000000000E+00 -0.21643823441E+04  0.21643823442E+04  0.50400001928E-02 0.  1.
    10030    2    1    2    0    0  0.00000000000E+00  0.00000000000E+00 -0.35908327212E+03  0.39696814162E+04  0.39534073594E+04 0.  0.
        5    1    3    3  502    0  0.54771314746E+03  0.12373548617E+04 -0.16264099091E+04  0.21157192697E+04  0.46999998093E+01 0.  1.
       -5    1    3    3    0  502 -0.54771314746E+03 -0.12373548617E+04  0.12673266370E+04  0.18539621465E+04  0.46999998093E+01 0. -1.
</event>
<event>
 5   0  0.5515000E-08  0.4012320E+04  0.7818609E-02  0.8002066E-01
       -1   -1    0    0    0  501  0.00000000000E+00  0.00000000000E+00  0.18036601202E+04  0.18036601202E+04  0.50400001928E-02 0.  1.
        1   -1    0    0  501    0  0.00000000000E+00  0.00000000000E+00 -0.22313948907E+04  0.22313948907E+04  0.50400001928E-02 0. -1.
    10030    2    1    2    0    0  0.00000000000E+00  0.00000000000E+00 -0.42773477050E+03  0.40350550109E+04  0.40123200155E+04 0.  0.
        2    1    3    3  502    0  0.12932877588E+04 -0.62118560963E+03  0.11962952335E+04  0.18680436490E+04  0.25500000920E-02 0.  1.
       -2    1    3    3    0  502 -0.12932877588E+04  0.62118560963E+03 -0.16240300040E+04  0.21670113619E+04  0.25500000920E-02 0. -1.
</event>
<event>
 5   0  0.5515000E-08  0.4028725E+04  0.7818609E-02  0.7998777E-01
        1   -1    0    0  501    0  0.00000000000E+00  0.00000000000E+00  0.16092985429E+04  0.16092985429E+04  0.50400001928E-02 0.  1.
       -1   -1    0    0    0  501  0.00000000000E+00  0.00000000000E+00 -0.25213819728E+04  0.25213819728E+04  0.50400001928E-02 0. -1.
    10030    2    1    2    0    0  0.00000000000E+00  0.00000000000E+00 -0.91208342982E+03  0.41306805157E+04  0.40287250266E+04 0.  0.
        2    1    3    3  502    0  0.49593466613E+03  0.83155921050E+02  0.15439092092E+04  0.16237369696E+04  0.25500000920E-02 0.  1.
       -2    1    3    3    0  502 -0.49593466613E+03 -0.83155921050E+02 -0.24559926390E+04  0.25069435461E+04  0.25500000920E-02 0. -1.
</event>
<event>
 5   0  0.5515000E-08  0.3956663E+04  0.7818609E-02  0.8013346E-01
       -1   -1    0    0    0  501  0.00000000000E+00  0.00000000000E+00  0.20101383855E+04  0.20101383855E+04  0.50400001928E-02 0.  1.
        1   -1    0    0  501    0  0.00000000000E+00  0.00000000000E+00 -0.19470280249E+04  0.19470280249E+04  0.50400001928E-02 0. -1.
    10030    2    1    2    0    0  0.00000000000E+00  0.00000000000E+00  0.63110360609E+02  0.39571664105E+04  0.39566631247E+04 0.  0.
        2    1    3    3  502    0  0.14289340766E+04 -0.13181533859E+04 -0.33511773091E+03  0.19727353694E+04  0.25500000920E-02 0. -1.
       -2    1    3    3    0  502 -0.14289340766E+04  0.13181533859E+04  0.39822809152E+03  0.19844310411E+04  0.25500000920E-02 0.  1.
</event>
<event>
 5   0  0.1821433E-07  0.3627839E+04  0.7818609E-02  0.8084144E-01
        2   -1    0    0  501    0  0.00000000000E+00  0.00000000000E+00  0.11731350526E+04  0.11731350526E+04  0.25500000920E-02 0. -1.
       -2   -1    0    0    0  501  0.00000000000E+00  0.00000000000E+00 -0.28047100226E+04  0.28047100226E+04  0.25500000920E-02 0.  1.
    10030    2    1    2    0    0  0.00000000000E+00  0.00000000000E+00 -0.16315749699E+04  0.39778450752E+04  0.36278388277E+04 0.  0.
        5    1    3    3  502    0  0.67244290993E+03  0.16024353596E+04 -0.24572125604E+03  0.17551010155E+04  0.46999998093E+01 0. -1.
       -5    1    3    3    0  502 -0.67244290993E+03 -0.16024353596E+04 -0.13858537139E+04  0.22227440598E+04  0.46999998093E+01 0.  1.
</event>
<event>
 5   0  0.5515000E-08  0.3999532E+04  0.7818609E-02  0.8004641E-01
        1   -1    0    0  501    0  0.00000000000E+00  0.00000000000E+00  0.19171617301E+04  0.19171617301E+04  0.50400001928E-02 0.  1.
       -1   -1    0    0    0  501  0.00000000000E+00  0.00000000000E+00 -0.20859289144E+04  0.20859289144E+04  0.50400001928E-02 0. -1.
    10030    2    1    2    0    0  0.00000000000E+00  0.00000000000E+00 -0.16876718435E+03  0.40030906445E+04  0.39995315158E+04 0.  0.
        3    1    3    3  502    0 -0.76949484205E+03  0.58374720131E+03  0.16682257485E+04  0.19276566772E+04  0.10100000352E+00 0.  1.
       -3    1    3    3    0  502  0.76949484205E+03 -0.58374720131E+03 -0.18369929329E+04  0.20754339673E+04  0.10100000352E+00 0. -1.
</event>
<event>
 5   0  0.1821433E-07  0.3357207E+04  0.7818609E-02  0.8148490E-01
       -2   -1    0    0    0  501  0.00000000000E+00  0.00000000000E+00  0.15976747980E+04  0.15976747980E+04  0.25500000920E-02 0.  1.
        2   -1    0    0  501    0  0.00000000000E+00  0.00000000000E+00 -0.17636318432E+04  0.17636318432E+04  0.25500000920E-02 0. -1.
    10030    2    1    2    0    0  0.00000000000E+00  0.00000000000E+00 -0.16595704523E+03  0.33613066412E+04  0.33572072613E+04 0.  0.
        5    1    3    3  502    0  0.42745545865E+03  0.15781820443E+04  0.29736864507E+03  0.16618745245E+04  0.46999998093E+01 0.  1.
       -5    1    3    3    0  502 -0.42745545865E+03 -0.15781820443E+04 -0.46332569030E+03  0.16994321167E+04  0.46999998093E+01 0. -1.
</event>
<event>
 5   0  0.5515000E-08  0.3995066E+04  0.7818609E-02  0.8005543E-01
        1   -1    0    0  501    0  0.00000000000E+00  0.00000000000E+00  0.15006468787E+04  0.15006468787E+04  0.50400001928E-02 0. -1.
       -1   -1    0    0    0  501  0.00000000000E+00  0.00000000000E+00 -0.26589451767E+04  0.26589451767E+04  0.50400001928E-02 0.  1.
    10030    2    1    2    0    0  0.00000000000E+00  0.00000000000E+00 -0.11582982980E+04  0.41595920555E+04  0.39950658469E+04 0.  0.
        4    1    3    3  502    0  0.17469829719E+04  0.26647043685E+03  0.39042598122E+03  0.18098038727E+04  0.12699999809E+01 0. -1.
       -4    1    3    3    0  502 -0.17469829719E+04 -0.26647043685E+03 -0.15487242792E+04  0.23497881828E+04  0.12699999809E+01 0.  1.
</event>
<event>
 5   0  0.1776653E-07  0.3963416E+04  0.7818609E-02  0.8011968E-01
       -2   -1    0    0    0  501  0.00000000000E+00  0.00000000000E+00  0.15855981504E+04  0.15855981504E+04  0.25500000920E-02 0.  1.
        2   -1    0    0  501    0  0.00000000000E+00  0.00000000000E+00 -0.24767732766E+04  0.24767732766E+04  0.25500000920E-02 0. -1.
    10030    2    1    2    0    0  0.00000000000E+00  0.00000000000E+00 -0.89117512627E+03  0.40623714270E+04  0.39634162669E+04 0.  0.
        4    1    3    3  502    0  0.70459863678E+03  0.11424007301E+04  0.10487663138E+04  0.17033646294E+04  0.12699999809E+01 0.  1.
       -4    1    3    3    0  502 -0.70459863678E+03 -0.11424007301E+04 -0.19399414401E+04  0.23590067975E+04  0.12699999809E+01 0. -1.
</event>
<event>
 5   0  0.1819906E-07  0.3844951E+04  0.7818609E-02  0.8036577E-01
       -2   -1    0    0    0  501  0.00000000000E+00  0.00000000000E+00  0.16067648311E+04  0.16067648311E+04  0.25500000920E-02 0. -1.
        2   -1    0    0  501    0  0.00000000000E+00  0.00000000000E+00 -0.23002194780E+04  0.23002194780E+04  0.25500000920E-02 0.  1.
    10030    2    1    2    0    0  0.00000000000E+00  0.00000000000E+00 -0.69345464699E+03  0.39069843091E+04  0.38449508507E+04 0.  0.
        1    1    3    3  502    0  0.14431862284E+04 -0.12453961534E+04 -0.93480184462E+02  0.19085430604E+04  0.50400001928E-02 0.  1.
       -1    1    3    3    0  502 -0.14431862284E+04  0.12453961534E+04 -0.59997446253E+03  0.19984412487E+04  0.50400001928E-02 0. -1.
</event>
<event>
 5   0  0.5515000E-08  0.3881829E+04  0.7818609E-02  0.8028819E-01
       -1   -1    0    0    0  501  0.00000000000E+00  0.00000000000E+00  0.18084815257E+04  0.18084815257E+04  0.50400001928E-02 0. -1.
        1   -1    0    0  501    0  0.00000000000E+00  0.00000000000E+00 -0.20830457164E+04  0.20830457164E+04  0.50400001928E-02 0.  1.
    10030    2    1    2    0    0  0.00000000000E+00  0.00000000000E+00 -0.27456419073E+03  0.38915272421E+04  0.38818293086E+04 0.  0.
        3    1    3    3  502    0 -0.17616957346E+04  0.80677395689E+03 -0.25022947195E+03  0.19537325502E+04  0.10100000352E+00 0. -1.
       -3    1    3    3    0  502  0.17616957346E+04 -0.80677395689E+03 -0.24334718781E+02  0.19377946918E+04  0.10100000352E+00 0.  1.
</event>
<event>
 5   0  0.1773903E-07  0.3320544E+04  0.7818609E-02  0.8157688E-01
       -2   -1    0    0    0  501  0.00000000000E+00  0.00000000000E+00  0.22909721548E+04  0.22909721548E+04  0.25500000920E-02 0.  1.
        2   -1    0    0  501    0  0.00000000000E+00  0.00000000000E+00 -0.12032024736E+04  0.12032024736E+04  0.25500000920E-02 0. -1.
    10030    2    1    2    0    0  0.00000000000E+00  0.00000000000E+00  0.10877696812E+04  0.34941746284E+04  0.33205441503E+04 0.  0.
        3    1    3    3  502    0  0.27342181690E+03  0.88431021167E+03 -0.90649699444E+03  0.12955697015E+04  0.10100000352E+00 0. -1.
       -3    1    3    3    0  502 -0.27342181690E+03 -0.88431021167E+03  0.19942666757E+04  0.21986049268E+04  0.10100000352E+00 0.  1.
</event>
<event>
 5   0  0.5515000E-08  0.3987975E+04  0.7818609E-02  0.8006977E-01
       -1   -1    0    0    0  501  0.00000000000E+00  0.00000000000E+00  0.20502819686E+04  0.20502819686E+04  0.50400001928E-02 0. -1.
        1   -1    0    0  501    0  0.00000000000E+00  0.00000000000E+00 -0.19392386488E+04  0.19392386488E+04  0.50400001928E-02 0.  1.
    10030    2    1    2    0    0  0.00000000000E+00  0.00000000000E+00  0.11104331977E+03  0.39895206174E+04  0.39879749420E+04 0.  0.
        1    1    3    3  502    0  0.16114296096E+04 -0.87798897451E+03  0.83583424118E+03  0.20164793341E+04  0.50400001928E-02 0. -1.
       -1    1    3    3    0  502 -0.16114296096E+04  0.87798897451E+03 -0.72479092142E+03  0.19730412833E+04  0.50400001928E-02 0.  1.
</event>
<event>
 5   0  0.1785559E-07  0.3998236E+04  0.7818609E-02  0.8004903E-01
       -2   -1    0    0    0  501  0.00000000000E+00  0.00000000000E+00  0.26253060329E+04  0.26253060329E+04  0.25500000920E-02 0. -1.
        2   -1    0    0  501    0  0.00000000000E+00  0.00000000000E+00 -0.15222883428E+04  0.15222883428E+04  0.25500000920E-02 0.  1.
    10030    2    1    2    0    0  0.00000000000E+00  0.00000000000E+00  0.11030176901E+04  0.41475943757E+04  0.39982359961E+04 0.  0.
        2    1    3    3  502    0  0.10081176255E+04  0.16657080814E+04  0.10218651342E+04  0.21988844699E+04  0.25500000920E-02 0.  1.
       -2    1    3    3    0  502 -0.10081176255E+04 -0.16657080814E+04  0.81152555917E+02  0.19487099058E+04  0.25500000920E-02 0. -1.
</event>
<event>
 5   0  0.5515000E-08  0.3975191E+04  0.7818609E-02  0.8009570E-01
       -1   -1    0    0    0  501  0.00000000000E+00  0.00000000000E+00  0.24794506287E+04  0.24794506287E+04  0.50400001928E-02 0.  1.
        1   -1    0    0  501    0  0.00000000000E+00  0.00000000000E+00 -0.15933106812E+04  0.15933106812E+04  0.50400001928E-02 0. -1.
    10030    2    1    2    0    0  0.00000000000E+00  0.00000000000E+00  0.88613994748E+03  0.40727613099E+04  0.39751906471E+04 0.  0.
        4    1    3    3  502    0 -0.77484110747E+03 -0.27388681740E+03 -0.14110848095E+04  0.16329588737E+04  0.12699999809E+01 0. -1.
       -4    1    3    3    0  502  0.77484110747E+03  0.27388681740E+03  0.22972247570E+04  0.24398024362E+04  0.12699999809E+01 0.  1.
</event>
<event>
 5   0  0.5515000E-08  0.3981416E+04  0.7818609E-02  0.8008306E-01
        1   -1    0    0  501    0  0.00000000000E+00  0.00000000000E+00  0.28281607390E+04  0.28281607390E+04  0.50400001928E-02 0.  1.
       -1   -1    0    0    0  501  0.00000000000E+00  0.00000000000E+00 -0.14012352177E+04  0.14012352177E+04  0.50400001928E-02 0. -1.
    10030    2    1    2    0    0  0.00000000000E+00  0.00000000000E+00  0.14269255213E+04  0.42293959567E+04  0.39814160440E+04 0.  0.
        1    1    3    3  502    0  0.12627360843E+04  0.10345226076E+04 -0.49687914667E+03  0.17063494164E+04  0.50400001928E-02 0. -1.
       -1    1    3    3    0  502 -0.12627360843E+04 -0.10345226076E+04  0.19238046680E+04  0.25230465404E+04  0.50400001928E-02 0.  1.
</event>
<event>
 5   0  0.5515000E-08  0.4100155E+04  0.7818609E-02  0.7984641E-01
       -1   -1    0    0    0  501  0.00000000000E+00  0.00000000000E+00  0.14439968652E+04  0.14439968652E+04  0.50400001928E-02 0. -1.
        1   -1    0    0  501    0  0.00000000000E+00  0.00000000000E+00 -0.29105451070E+04  0.29105451070E+04  0.50400001928E-02 0.  1.
    10030    2    1    2    0    0  0.00000000000E+00  0.00000000000E+00 -0.14665482418E+04  0.43545419722E+04  0.41001551241E+04 0.  0.
        2    1    3    3  502    0  0.22912453300E+03 -0.52084674035E+03 -0.28249974751E+04  0.28817338727E+04  0.25500000920E-02 0.  1.
       -2    1    3    3    0  502 -0.22912453300E+03  0.52084674035E+03  0.13584492333E+04  0.14728080995E+04  0.25500000920E-02 0. -1.
</event>
<event>
 5   0  0.1785559E-07  0.3712024E+04  0.7818609E-02  0.8065302E-01
       -2   -1    0    0    0  501  0.00000000000E+00  0.00000000000E+00  0.17254321758E+04  0.17254321758E+04  0.25500000920E-02 0.  1.
        2   -1    0    0  501    0  0.00000000000E+00  0.00000000000E+00 -0.19964735824E+04  0.19964735824E+04  0.25500000920E-02 0. -1.
    10030    2    1    2    0    0  0.00000000000E+00  0.00000000000E+00 -0.27104140662E+03  0.37219057581E+04  0.37120235760E+04 0.  0.
        2    1    3    3  502    0 -0.16918424156E+03  0.24009461314E+03 -0.19730236135E+04  0.19947658786E+04  0.25500000920E-02 0. -1.
       -2    1    3    3    0  502  0.16918424156E+03 -0.24009461314E+03  0.17019822069E+04  0.17271398795E+04  0.25500000920E-02 0.  1.
</event>
<event>
 5   0  0.1819906E-07  0.3937361E+04  0.7818609E-02  0.8017303E-01
        2   -1    0    0  501    0  0.00000000000E+00  0.00000000000E+00  0.26043878295E+04  0.26043878295E+04  0.25500000920E-02 0. -1.
       -2   -1    0    0    0  501  0.00000000000E+00  0.00000000000E+00 -0.14881433649E+04  0.14881433649E+04  0.25500000920E-02 0.  1.
    10030    2    1    2    0    0  0.00000000000E+00  0.00000000000E+00  0.11162444646E+04  0.40925311944E+04  0.39373607750E+04 0.  0.
        1    1    3    3  502    0 -0.12597579869E+04 -0.71967767647E+03  0.19412701949E+04  0.24235214283E+04  0.50400001928E-02 0. -1.
       -1    1    3    3    0  502  0.12597579869E+04  0.71967767647E+03 -0.82502573036E+03  0.16690097661E+04  0.50400001928E-02 0.  1.
</event>
<event>
 5   0  0.5515000E-08  0.3970992E+04  0.7818609E-02  0.8010424E-01
       -1   -1    0    0    0  501  0.00000000000E+00  0.00000000000E+00  0.26806487191E+04  0.26806487191E+04  0.50400001928E-02 0. -1.
        1   -1    0    0  501    0  0.00000000000E+00  0.00000000000E+00 -0.14706120754E+04  0.14706120754E+04  0.50400001928E-02 0.  1.
    10030    2    1    2    0    0  0.00000000000E+00  0.00000000000E+00  0.12100366437E+04  0.41512607944E+04  0.39709920051E+04 0.  0.
        2    1    3    3  502    0 -0.15347277485E+04 -0.11945618804E+04  0.18708584857E+03  0.19538087068E+04  0.25500000920E-02 0.  1.
       -2    1    3    3    0  502  0.15347277485E+04  0.11945618804E+04  0.10229507951E+04  0.21974520876E+04  0.25500000920E-02 0. -1.
</event>
<event>
 5   0  0.1819906E-07  0.3987656E+04  0.7818609E-02  0.8007041E-01
        2   -1    0    0  501    0  0.00000000000E+00  0.00000000000E+00  0.13389964423E+04  0.13389964423E+04  0.25500000920E-02 0.  1.
       -2   -1    0    0    0  501  0.00000000000E+00  0.00000000000E+00 -0.29689022185E+04  0.29689022185E+04  0.25500000920E-02 0. -1.
    10030    2    1    2    0    0  0.00000000000E+00  0.00000000000E+00 -0.16299057762E+04  0.43078986608E+04  0.39876557064E+04 0.  0.
        1    1    3    3  502    0 -0.16711555934E+04 -0.10535438016E+04 -0.11061034632E+04  0.22641069830E+04  0.50400001928E-02 0. -1.
       -1    1    3    3    0  502  0.16711555934E+04  0.10535438016E+04 -0.52380231296E+03  0.20437916778E+04  0.50400001928E-02 0.  1.
</event>
<event>
 5   0  0.5515000E-08  0.4022851E+04  0.7818609E-02  0.7999952E-01
       -1   -1    0    0    0  501  0.00000000000E+00  0.00000000000E+00  0.21674600672E+04  0.21674600672E+04  0.50400001928E-02 0.  1.
        1   -1    0    0  501    0  0.00000000000E+00  0.00000000000E+00 -0.18666242600E+04  0.18666242600E+04  0.50400001928E-02 0. -1.
    10030    2    1    2    0    0  0.00000000000E+00  0.00000000000E+00  0.30083580716E+03  0.40340843272E+04  0.40228514982E+04 0.  0.
        1    1    3    3  502    0 -0.10187349067E+04  0.15726629031E+04  0.88372178371E+03  0.20717272041E+04  0.50400001928E-02 0.  1.
       -1    1    3    3    0  502  0.10187349067E+04 -0.15726629031E+04 -0.58288597654E+03  0.19623571232E+04  0.50400001928E-02 0. -1.
</event>
<event>
 5   0  0.1821433E-07  0.4023216E+04  0.7818609E-02  0.7999879E-01
       -2   -1    0    0    0  501  0.00000000000E+00  0.00000000000E+00  0.16888586867E+04  0.16888586867E+04  0.25500000920E-02 0. -1.
        2   -1    0    0  501    0  0.00000000000E+00  0.00000000000E+00 -0.23960364596E+04  0.23960364596E+04  0.25500000920E-02 0.  1.
    10030    2    1    2    0    0  0.00000000000E+00  0.00000000000E+00 -0.70717777284E+03  0.40848951463E+04  0.40232161207E+04 0.  0.
        5    1    3    3  502    0  0.63781370937E+03  0.12559000588E+04 -0.18117303015E+04  0.22948812738E+04  0.46999998093E+01 0.  1.
       -5    1    3    3    0  502 -0.63781370937E+03 -0.12559000588E+04  0.11045525286E+04  0.17900138726E+04  0.46999998093E+01 0. -1.
</event>
<event>
 5   0  0.1776653E-07  0.3992796E+04  0.7818609E-02  0.8006001E-01
       -2   -1    0    0    0  501  0.00000000000E+00  0.00000000000E+00  0.18378659164E+04  0.18378659164E+04  0.25500000920E-02 0. -1.
        2   -1    0    0  501    0  0.00000000000E+00  0.00000000000E+00 -0.21686049410E+04  0.21686049410E+04  0.25500000920E-02 0.  1.
    10030    2    1    2    0    0  0.00000000000E+00  0.00000000000E+00 -0.33073902457E+03  0.40064708574E+04  0.39927960666E+04 0.  0.
        4    1    3    3  502    0 -0.54734511478E+03 -0.18705759548E+04  0.26850287944E+03  0.19674187370E+04  0.12699999809E+01 0. -1.
       -4    1    3    3    0  502  0.54734511478E+03  0.18705759548E+04 -0.59924190401E+03  0.20390521204E+04  0.12699999809E+01 0.  1.
</event>
<event>
 5   0  0.1776653E-07  0.3702499E+04  0.7818609E-02  0.8067408E-01
        2   -1    0    0  501    0  0.00000000000E+00  0.00000000000E+00  0.23225160426E+04  0.23225160426E+04  0.25500000920E-02 0. -1.
       -2   -1    0    0    0  501  0.00000000000E+00  0.00000000000E+00 -0.14756089331E+04  0.14756089331E+04  0.25500000920E-02 0.  1.
    10030    2    1    2    0    0  0.00000000000E+00  0.00000000000E+00  0.84690710954E+03  0.37981249757E+04  0.37024993827E+04 0.  0.
        4    1    3    3  502    0  0.97823461499E+03  0.14403598754E+03  0.20289419456E+04  0.22570547975E+04  0.12699999809E+01 0. -1.
       -4    1    3    3    0  502 -0.97823461499E+03 -0.14403598754E+03 -0.11820348360E+04  0.15410701782E+04  0.12699999809E+01 0.  1.
</event>
<event>
 5   0  0.5515000E-08  0.3990775E+04  0.7818609E-02  0.8006410E-01
       -1   -1    0    0    0  501  0.00000000000E+00  0.00000000000E+00  0.28009595576E+04  0.28009595576E+04  0.50400001928E-02 0. -1.
        1   -1    0    0  501    0  0.00000000000E+00  0.00000000000E+00 -0.14215029191E+04  0.14215029191E+04  0.50400001928E-02 0.  1.
    10030    2    1    2    0    0  0.00000000000E+00  0.00000000000E+00  0.13794566385E+04  0.42224624766E+04  0.39907754571E+04 0.  0.
        2    1    3    3  502    0 -0.79555395798E+03  0.63911638012E+03  0.25039764006E+04  0.27039366972E+04  0.25500000920E-02 0. -1.
       -2    1    3    3    0  502  0.79555395798E+03 -0.63911638012E+03 -0.11245197622E+04  0.15185257795E+04  0.25500000920E-02 0.  1.
</event>
<event>
 5   0  0.5515000E-08  0.3994528E+04  0.7818609E-02  0.8005651E-01
        1   -1    0    0  501    0  0.00000000000E+00  0.00000000000E+00  0.25871966083E+04  0.25871966083E+04  0.50400001928E-02 0. -1.
       -1   -1    0    0    0  501  0.00000000000E+00  0.00000000000E+00 -0.15418475951E+04  0.15418475952E+04  0.50400001928E-02 0.  1.
    10030    2    1    2    0    0  0.00000000000E+00  0.00000000000E+00  0.10453490132E+04  0.41290442035E+04  0.39945276911E+04 0.  0.
        3    1    3    3  502    0  0.77186079793E+01  0.11520662938E+04 -0.11637520980E+04  0.16375699307E+04  0.10100000352E+00 0.  1.
       -3    1    3    3    0  502 -0.77186079793E+01 -0.11520662938E+04  0.22091011112E+04  0.24914742728E+04  0.10100000352E+00 0. -1.
</event>
<event>
 5   0  0.5515000E-08  0.3987368E+04  0.7818609E-02  0.8007100E-01
        1   -1    0    0  501    0  0.00000000000E+00  0.00000000000E+00  0.25247787112E+04  0.25247787112E+04  0.50400001928E-02 0. -1.
       -1   -1    0    0    0  501  0.00000000000E+00  0.00000000000E+00 -0.15743067069E+04  0.15743067069E+04  0.50400001928E-02 0.  1.
    10030    2    1    2    0    0  0.00000000000E+00  0.00000000000E+00  0.95047200430E+03  0.40990854181E+04  0.39873680836E+04 0.  0.
        5    1    3    3  502    0 -0.16683140081E+04 -0.10858938479E+04  0.58932694560E+03  0.20759974512E+04  0.46999998093E+01 0. -1.
       -5    1    3    3    0  502  0.16683140081E+04  0.10858938479E+04  0.36114505870E+03  0.20230879669E+04  0.46999998093E+01 0.  1.
</event>
<event>
 5   0  0.1776653E-07  0.4025700E+04  0.7818609E-02  0.7999382E-01
       -2   -1    0    0    0  501  0.00000000000E+00  0.00000000000E+00  0.13858349402E+04  0.13858349402E+04  0.25500000920E-02 0. -1.
        2   -1    0    0  501    0  0.00000000000E+00  0.00000000000E+00 -0.29235554794E+04  0.29235554794E+04  0.25500000920E-02 0.  1.
    10030    2    1    2    0    0  0.00000000000E+00  0.00000000000E+00 -0.15377205392E+04  0.43093904196E+04  0.40257001046E+04 0.  0.
        4    1    3    3  502    0  0.15610560402E+04  0.43264840178E+03 -0.20478289620E+04  0.26110698326E+04  0.12699999809E+01 0.  1.
       -4    1    3    3    0  502 -0.15610560402E+04 -0.43264840178E+03  0.51010842279E+03  0.16983205870E+04  0.12699999809E+01 0. -1.
</event>
<event>
 5   0  0.1821433E-07  0.3987313E+04  0.7818609E-02  0.8007111E-01
       -2   -1    0    0    0  501  0.00000000000E+00  0.00000000000E+00  0.23935117883E+04  0.23935117883E+04  0.25500000920E-02 0.  1.
        2   -1    0    0  501    0  0.00000000000E+00  0.00000000000E+00 -0.16606000410E+04  0.16606000410E+04  0.25500000920E-02 0. -1.
    10030    2    1    2    0    0  0.00000000000E+00  0.00000000000E+00  0.73291174731E+03  0.40541118292E+04  0.39873127661E+04 0.  0.
        5    1    3    3  502    0 -0.41535886276E+03  0.11511871111E+04 -0.12337235713E+04  0.17377717600E+04  0.46999998093E+01 0. -1.
       -5    1    3    3    0  502  0.41535886276E+03 -0.11511871111E+04  0.19666353186E+04  0.23163400692E+04  0.46999998093E+01 0.  1.
</event>
<event>
 5   0  0.1819906E-07  0.3983469E+04  0.7818609E-02  0.8007890E-01
        2   -1    0    0  501    0  0.00000000000E+00  0.00000000000E+00  0.24884565688E+04  0.24884565688E+04  0.25500000920E-02 0. -1.
       -2   -1    0    0    0  501  0.00000000000E+00  0.00000000000E+00 -0.15941633102E+04  0.15941633102E+04  0.25500000920E-02 0.  1.
    10030    2    1    2    0    0  0.00000000000E+00  0.00000000000E+00  0.89429325860E+03  0.40826198790E+04  0.39834689210E+04 0.  0.
        1    1    3    3  502    0 -0.10760148894E+04 -0.12833314554E+04 -0.65776839036E+03  0.17992795564E+04  0.50400001928E-02 0.  1.
       -1    1    3    3    0  502  0.10760148894E+04  0.12833314554E+04  0.15520616490E+04  0.22833403226E+04  0.50400001928E-02 0. -1.
</event>
<event>
 5   0  0.1819906E-07  0.3932274E+04  0.7818609E-02  0.8018350E-01
        2   -1    0    0  501    0  0.00000000000E+00  0.00000000000E+00  0.14580302422E+04  0.14580302422E+04  0.25500000920E-02 0.  1.
       -2   -1    0    0    0  501  0.00000000000E+00  0.00000000000E+00 -0.26513130299E+04  0.26513130299E+04  0.25500000920E-02 0. -1.
    10030    2    1    2    0    0  0.00000000000E+00  0.00000000000E+00 -0.11932827876E+04  0.41093432721E+04  0.39322739371E+04 0.  0.
        1    1    3    3  502    0  0.46817252838E+03  0.96677471366E+03 -0.23175664037E+04  0.25543987353E+04  0.50400001928E-02 0. -1.
       -1    1    3    3    0  502 -0.46817252838E+03 -0.96677471366E+03  0.11242836160E+04  0.15549445368E+04  0.50400001928E-02 0.  1.
</event>
<event>
 5   0  0.1776653E-07  0.4001980E+04  0.7818609E-02  0.8004147E-01
       -2   -1    0    0    0  501  0.00000000000E+00  0.00000000000E+00  0.18339463202E+04  0.18339463202E+04  0.25500000920E-02 0.  1.
        2   -1    0    0  501    0  0.00000000000E+00  0.00000000000E+00 -0.21832489502E+04  0.21832489502E+04  0.25500000920E-02 0. -1.
    10030    2    1    2    0    0  0.00000000000E+00  0.00000000000E+00 -0.34930263001E+03  0.40171952703E+04  0.40019801989E+04 0.  0.
        4    1    3    3  502    0 -0.98623881679E+03 -0.32157158147E+03 -0.18922629604E+04  0.21579471750E+04  0.12699999809E+01 0. -1.
       -4    1    3    3    0  502  0.98623881679E+03  0.32157158147E+03  0.15429603304E+04  0.18592480953E+04  0.12699999809E+01 0.  1.
</event>
<event>
 5   0  0.5515000E-08  0.4033833E+04  0.7818609E-02  0.7997756E-01
       -1   -1    0    0    0  501  0.00000000000E+00  0.00000000000E+00  0.14800507393E+04  0.14800507393E+04  0.50400001928E-02 0.  1.
        1   -1    0    0  501    0  0.00000000000E+00  0.00000000000E+00 -0.27485220474E+04  0.27485220474E+04  0.50400001928E-02 0. -1.
    10030    2    1    2    0    0  0.00000000000E+00  0.00000000000E+00 -0.12684713082E+04  0.42285727867E+04  0.40338329605E+04 0.  0.
        4    1    3    3  502    0  0.10364715738E+04 -0.16962676069E+04 -0.99180918321E+03  0.22215499513E+04  0.12699999809E+01 0. -1.
       -4    1    3    3    0  502 -0.10364715738E+04  0.16962676069E+04 -0.27666212495E+03  0.20070228354E+04  0.12699999809E+01 0.  1.
</event>
<event>
 5   0  0.1776653E-07  0.4053256E+04  0.7818609E-02  0.7993889E-01
       -2   -1    0    0    0  501  0.00000000000E+00  0.00000000000E+00  0.13574420474E+04  0.13574420474E+04  0.25500000920E-02 0. -1.
        2   -1    0    0  501    0  0.00000000000E+00  0.00000000000E+00 -0.30257061320E+04  0.30257061320E+04  0.25500000920E-02 0.  1.
    10030    2    1    2    0    0  0.00000000000E+00  0.00000000000E+00 -0.16682640846E+04  0.43831481794E+04  0.40532558402E+04 0.  0.
        4    1    3    3  502    0  0.35685952794E+02  0.48556013180E+03  0.12932600900E+04  0.13818702552E+04  0.12699999809E+01 0. -1.
       -4    1    3    3    0  502 -0.35685952794E+02 -0.48556013180E+03 -0.29615241746E+04  0.30012779242E+04  0.12699999809E+01 0.  1.
</event>
<event>
 5   0  0.5515000E-08  0.4015156E+04  0.7818609E-02  0.8001496E-01
        1   -1    0    0  501    0  0.00000000000E+00  0.00000000000E+00  0.15336670894E+04  0.15336670894E+04  0.50400001928E-02 0. -1.
       -1   -1    0    0    0  501  0.00000000000E+00  0.00000000000E+00 -0.26279303563E+04  0.26279303563E+04  0.50400001928E-02 0.  1.
    10030    2    1    2    0    0  0.00000000000E+00  0.00000000000E+00 -0.10942632670E+04  0.41615974457E+04  0.40151564357E+04 0.  0.
        3    1    3    3  502    0  0.11790804577E+04  0.22681052259E+03  0.11204924952E+04  0.16423084914E+04  0.10100000352E+00 0. -1.
       -3    1    3    3    0  502 -0.11790804577E+04 -0.22681052259E+03 -0.22147557622E+04  0.25192889543E+04  0.10100000352E+00 0.  1.
</event>
<event>
 5   0  0.5515000E-08  0.3994587E+04  0.7818609E-02  0.8005639E-01
       -1   -1    0    0    0  501  0.00000000000E+00  0.00000000000E+00  0.17260783366E+04  0.17260783366E+04  0.50400001928E-02 0.  1.
        1   -1    0    0  501    0  0.00000000000E+00  0.00000000000E+00 -0.23111243112E+04  0.23111243112E+04  0.50400001928E-02 0. -1.
    10030    2    1    2    0    0  0.00000000000E+00  0.00000000000E+00 -0.58504597461E+03  0.40372026478E+04  0.39945871410E+04 0.  0.
        4    1    3    3  502    0  0.86235163301E+02  0.84309233852E+03  0.15353451352E+04  0.17537181906E+04  0.12699999809E+01 0.  1.
       -4    1    3    3    0  502 -0.86235163301E+02 -0.84309233852E+03 -0.21203911099E+04  0.22834844572E+04  0.12699999809E+01 0. -1.
</event>
<event>
 5   0  0.5515000E-08  0.4073269E+04  0.7818609E-02  0.7989927E-01
        1   -1    0    0  501    0  0.00000000000E+00  0.00000000000E+00  0.12254394012E+04  0.12254394012E+04  0.50400001928E-02 0. -1.
       -1   -1    0    0    0  501  0.00000000000E+00  0.00000000000E+00 -0.33848110962E+04  0.33848110962E+04  0.50400001928E-02 0.  1.
    10030    2    1    2    0    0  0.00000000000E+00  0.00000000000E+00 -0.21593716950E+04  0.46102504974E+04  0.40732693910E+04 0.  0.
        2    1    3    3  502    0  0.11981711801E+04 -0.56486061886E+03  0.67125233346E+03  0.14850122527E+04  0.25500000920E-02 0. -1.
       -2    1    3    3    0  502 -0.11981711801E+04  0.56486061886E+03 -0.28306240285E+04  0.31252382447E+04  0.25500000920E-02 0.  1.
</event>
<event>
 5   0  0.1819906E-07  0.3967743E+04  0.7818609E-02  0.8011086E-01
       -2   -1    0    0    0  501  0.00000000000E+00  0.00000000000E+00  0.17300292767E+04  0.17300292767E+04  0.25500000920E-02 0. -1.
        2   -1    0    0  501    0  0.00000000000E+00  0.00000000000E+00 -0.22749597335E+04  0.22749597335E+04  0.25500000920E-02 0.  1.
    10030    2    1    2    0    0  0.00000000000E+00  0.00000000000E+00 -0.54493045678E+03  0.40049890101E+04  0.39677434101E+04 0.  0.
        1    1    3    3  502    0  0.45227665422E+03 -0.19312937779E+04 -0.30881877469E+03  0.20074408744E+04  0.50400001928E-02 0. -1.
       -1    1    3    3    0  502 -0.45227665422E+03  0.19312937779E+04 -0.23611168209E+03  0.19975481358E+04  0.50400001928E-02 0.  1.
</event>
<event>
 5   0  0.5515000E-08  0.3994782E+04  0.7818609E-02  0.8005600E-01
       -1   -1    0    0    0  501  0.00000000000E+00  0.00000000000E+00  0.25435398894E+04  0.25435398894E+04  0.50400001928E-02 0.  1.
        1   -1    0    0  501    0  0.00000000000E+00  0.00000000000E+00 -0.15685112860E+04  0.15685112860E+04  0.50400001928E-02 0. -1.
    10030    2    1    2    0    0  0.00000000000E+00  0.00000000000E+00  0.97502860345E+03  0.41120511754E+04  0.39947821082E+04 0.  0.
        3    1    3    3  502    0  0.35283300377E+03 -0.69077812003E+03  0.23821733012E+04  0.25052774670E+04  0.10100000352E+00 0.  1.
       -3    1    3    3    0  502 -0.35283300377E+03  0.69077812003E+03 -0.14071446977E+04  0.16067737084E+04  0.10100000352E+00 0. -1.
</event>
<event>
 5   0  0.1773903E-07  0.4011432E+04  0.7818609E-02  0.8002244E-01
        2   -1    0    0  501    0  0.00000000000E+00  0.00000000000E+00  0.19965464393E+04  0.19965464393E+04  0.25500000920E-02 0.  1.
       -2   -1    0    0    0  501  0.00000000000E+00  0.00000000000E+00 -0.20149279533E+04  0.20149279533E+04  0.25500000920E-02 0. -1.
    10030    2    1    2    0    0  0.00000000000E+00  0.00000000000E+00 -0.18381513993E+02  0.40114743926E+04  0.40114322782E+04 0.  0.
        3    1    3    3  502    0  0.18122951053E+04 -0.78398470462E+02  0.84658534029E+03  0.20018158301E+04  0.10100000352E+00 0.  1.
       -3    1    3    3    0  502 -0.18122951053E+04  0.78398470462E+02 -0.86496685428E+03  0.20096585626E+04  0.10100000352E+00 0. -1.
</event>
<event>
 5   0  0.1785559E-07  0.3982318E+04  0.7818609E-02  0.8008123E-01
        2   -1    0    0  501    0  0.00000000000E+00  0.00000000000E+00  0.28114368847E+04  0.28114368847E+04  0.25500000920E-02 0.  1.
       -2   -1    0    0    0  501  0.00000000000E+00  0.00000000000E+00 -0.14102089728E+04  0.14102089728E+04  0.25500000920E-02 0. -1.
    10030    2    1    2    0    0  0.00000000000E+00  0.00000000000E+00  0.14012279119E+04  0.42216458575E+04  0.39823176776E+04 0.  0.
        2    1    3    3  502    0  0.16750091593E+04 -0.61570598151E+03  0.16368452875E+04  0.24215722237E+04  0.25500000920E-02 0. -1.
       -2    1    3    3    0  502 -0.16750091593E+04  0.61570598151E+03 -0.23561737559E+03  0.18000736338E+04  0.25500000920E-02 0.  1.
</event>
<event>
 5   0  0.1776653E-07  0.3956309E+04  0.7818609E-02  0.8013419E-01
       -2   -1    0    0    0  501  0.00000000000E+00  0.00000000000E+00  0.17843205348E+04  0.17843205348E+04  0.25500000920E-02 0.  1.
        2   -1    0    0  501    0  0.00000000000E+00  0.00000000000E+00 -0.21930451086E+04  0.21930451086E+04  0.25500000920E-02 0. -1.
    10030    2    1    2    0    0  0.00000000000E+00  0.00000000000E+00 -0.40872457373E+03  0.39773656434E+04  0.39563090987E+04 0.  0.
        4    1    3    3  502    0  0.37576335097E+03 -0.11563011742E+04  0.13643474623E+04  0.18274780744E+04  0.12699999809E+01 0.  1.
       -4    1    3    3    0  502 -0.37576335097E+03  0.11563011742E+04 -0.17730720361E+04  0.21498875690E+04  0.12699999809E+01 0. -1.
</event>
<event>
 5   0  0.5515000E-08  0.3928411E+04  0.7818609E-02  0.8019146E-01
       -1   -1    0    0    0  501  0.00000000000E+00  0.00000000000E+00  0.22809903777E+04  0.22809903777E+04  0.50400001928E-02 0.  1.
        1   -1    0    0  501    0  0.00000000000E+00  0.00000000000E+00 -0.16914155515E+04  0.16914155515E+04  0.50400001928E-02 0. -1.
    10030    2    1    2    0    0  0.00000000000E+00  0.00000000000E+00  0.58957482616E+03  0.39724059292E+04  0.39284106698E+04 0.  0.
        4    1    3    3  502    0  0.36256533701E+03  0.83217496663E+03 -0.14665963486E+04  0.17247826708E+04  0.12699999809E+01 0. -1.
       -4    1    3    3    0  502 -0.36256533701E+03 -0.83217496663E+03  0.20561711748E+04  0.22476232584E+04  0.12699999809E+01 0.  1.
</event>
<event>
 5   0  0.5515000E-08  0.3235839E+04  0.7818609E-02  0.8179416E-01
        1   -1    0    0  501    0  0.00000000000E+00  0.00000000000E+00  0.15225561524E+04  0.15225561524E+04  0.50400001928E-02 0.  1.
       -1   -1    0    0    0  501  0.00000000000E+00  0.00000000000E+00 -0.17192563279E+04  0.17192563280E+04  0.50400001928E-02 0. -1.
    10030    2    1    2    0    0  0.00000000000E+00  0.00000000000E+00 -0.19670017560E+03  0.32418124803E+04  0.32358394890E+04 0.  0.
        1    1    3    3  502    0  0.73546520630E+03  0.74489023242E+03 -0.13342778536E+04  0.16958973786E+04  0.50400001928E-02 0. -1.
       -1    1    3    3    0  502 -0.73546520630E+03 -0.74489023242E+03  0.11375776781E+04  0.15459151017E+04  0.50400001928E-02 0.  1.
</event>
<event>
 5   0  0.1776653E-07  0.3995726E+04  0.7818609E-02  0.8005409E-01
       -2   -1    0    0    0  501  0.00000000000E+00  0.00000000000E+00  0.18795468848E+04  0.18795468848E+04  0.25500000920E-02 0. -1.
        2   -1    0    0  501    0  0.00000000000E+00  0.00000000000E+00 -0.21236266169E+04  0.21236266169E+04  0.25500000920E-02 0.  1.
    10030    2    1    2    0    0  0.00000000000E+00  0.00000000000E+00 -0.24407973210E+03  0.40031735017E+04  0.39957256124E+04 0.  0.
        4    1    3    3  502    0  0.64545971434E+03  0.55789812509E+03 -0.19319468722E+04  0.21119396039E+04  0.12699999809E+01 0.  1.
       -4    1    3    3    0  502 -0.64545971434E+03 -0.55789812509E+03  0.16878671401E+04  0.18912338978E+04  0.12699999809E+01 0. -1.
</event>
<event>
 5   0  0.1821433E-07  0.4028566E+04  0.7818609E-02  0.7998809E-01
       -2   -1    0    0    0  501  0.00000000000E+00  0.00000000000E+00  0.14760429173E+04  0.14760429173E+04  0.25500000920E-02 0.  1.
        2   -1    0    0  501    0  0.00000000000E+00  0.00000000000E+00 -0.27487923852E+04  0.27487923852E+04  0.25500000920E-02 0. -1.
    10030    2    1    2    0    0  0.00000000000E+00  0.00000000000E+00 -0.12727494679E+04  0.42248353025E+04  0.40285657653E+04 0.  0.
        5    1    3    3  502    0 -0.53920845826E+03  0.19899551659E+03 -0.26609651872E+04  0.27223340711E+04  0.46999998093E+01 0. -1.
       -5    1    3    3    0  502  0.53920845826E+03 -0.19899551659E+03  0.13882157193E+04  0.15025012314E+04  0.46999998093E+01 0.  1.
</event>
<event>
 5   0  0.5515000E-08  0.3963359E+04  0.7818609E-02  0.8011979E-01
       -1   -1    0    0    0  501  0.00000000000E+00  0.00000000000E+00  0.28802137395E+04  0.28802137395E+04  0.50400001928E-02 0.  1.
        1   -1    0    0  501    0  0.00000000000E+00  0.00000000000E+00 -0.13634590782E+04  0.13634590783E+04  0.50400001928E-02 0. -1.
    10030    2    1    2    0    0  0.00000000000E+00  0.00000000000E+00  0.15167546612E+04  0.42436728177E+04  0.39633589645E+04 0.  0.
        2    1    3    3  502    0  0.11268371620E+04  0.35560307144E+03  0.24617538678E+04  0.27306496736E+04  0.25500000920E-02 0.  1.
       -2    1    3    3    0  502 -0.11268371620E+04 -0.35560307144E+03 -0.94499920663E+03  0.15130231441E+04  0.25500000920E-02 0. -1.
</event>
<event>
 5   0  0.5515000E-08  0.4160595E+04  0.7818609E-02  0.7972911E-01
        1   -1    0    0  501    0  0.00000000000E+00  0.00000000000E+00  0.17004979421E+04  0.17004979421E+04  0.50400001928E-02 0.  1.
       -1   -1    0    0    0  501  0.00000000000E+00  0.00000000000E+00 -0.25449232666E+04  0.25449232666E+04  0.50400001928E-02 0. -1.
    10030    2    1    2    0    0  0.00000000000E+00  0.00000000000E+00 -0.84442532445E+03  0.42454212087E+04  0.41605945621E+04 0.  0.
        3    1    3    3  502    0 -0.94008730089E+03  0.17033022386E+04 -0.11738683295E+04  0.22722168723E+04  0.10100000352E+00 0. -1.
       -3    1    3    3    0  502  0.94008730089E+03 -0.17033022386E+04  0.32944300505E+03  0.19732043364E+04  0.10100000352E+00 0.  1.
</event>
<event>
 5   0  0.1785559E-07  0.3995676E+04  0.7818609E-02  0.8005419E-01
       -2   -1    0    0    0  501  0.00000000000E+00  0.00000000000E+00  0.16137467298E+04  0.16137467298E+04  0.25500000920E-02 0.  1.
        2   -1    0    0  501    0  0.00000000000E+00  0.00000000000E+00 -0.24733471816E+04  0.24733471816E+04  0.25500000920E-02 0. -1.
    10030    2    1    2    0    0  0.00000000000E+00  0.00000000000E+00 -0.85960045184E+03  0.40870939113E+04  0.39956756254E+04 0.  0.
        2    1    3    3  502    0  0.70445969280E+03 -0.73046081133E+03 -0.21900799583E+04  0.24137702209E+04  0.25500000920E-02 0. -1.
       -2    1    3    3    0  502 -0.70445969280E+03  0.73046081133E+03  0.13304795065E+04  0.16733236904E+04  0.25500000920E-02 0.  1.
</event>
<event>
 5   0  0.1776653E-07  0.4144195E+04  0.7818609E-02  0.7976073E-01
       -2   -1    0    0    0  501  0.00000000000E+00  0.00000000000E+00  0.21746482230E+04  0.21746482230E+04  0.25500000920E-02 0. -1.
        2   -1    0    0  501    0  0.00000000000E+00  0.00000000000E+00 -0.19743832537E+04  0.19743832537E+04  0.25500000920E-02 0.  1.
    10030    2    1    2    0    0  0.00000000000E+00  0.00000000000E+00  0.20026496936E+03  0.41490314767E+04  0.41441954752E+04 0.  0.
        4    1    3    3  502    0  0.19185099100E+04 -0.26507677159E+03  0.83763410749E+03  0.21101133810E+04  0.12699999809E+01 0. -1.
       -4    1    3    3    0  502 -0.19185099100E+04  0.26507677159E+03 -0.63736913813E+03  0.20389180957E+04  0.12699999809E+01 0.  1.
</event>
<event>
 5   0  0.5515000E-08  0.4071075E+04  0.7818609E-02  0.7990360E-01
       -1   -1    0    0    0  501  0.00000000000E+00  0.00000000000E+00  0.15938539295E+04  0.15938539295E+04  0.50400001928E-02 0.  1.
        1   -1    0    0  501    0  0.00000000000E+00  0.00000000000E+00 -0.25996184409E+04  0.25996184409E+04  0.50400001928E-02 0. -1.
    10030    2    1    2    0    0  0.00000000000E+00  0.00000000000E+00 -0.10057645114E+04  0.41934723704E+04  0.40710745841E+04 0.  0.
        1    1    3    3  502    0  0.10823452881E+04  0.54972615902E+03 -0.21859413518E+04  0.25004019209E+04  0.50400001928E-02 0. -1.
       -1    1    3    3    0  502 -0.10823452881E+04 -0.54972615902E+03  0.11801768404E+04  0.16930704496E+04  0.50400001928E-02 0.  1.
</event>
<event>
 5   0  0.5515000E-08  0.4019616E+04  0.7818609E-02  0.8000601E-01
        1   -1    0    0  501    0  0.00000000000E+00  0.00000000000E+00  0.19274179450E+04  0.19274179450E+04  0.50400001928E-02 0.  1.
       -1   -1    0    0    0  501  0.00000000000E+00  0.00000000000E+00 -0.20957198835E+04  0.20957198835E+04  0.50400001928E-02 0. -1.
    10030    2    1    2    0    0  0.00000000000E+00  0.00000000000E+00 -0.16830193854E+03  0.40231378285E+04  0.40196159574E+04 0.  0.
        1    1    3    3  502    0 -0.14241716266E+04 -0.89974172172E+03  0.10129518217E+04  0.19656732641E+04  0.50400001928E-02 0.  1.
       -1    1    3    3    0  502  0.14241716266E+04  0.89974172172E+03 -0.11812537603E+04  0.20574645645E+04  0.50400001928E-02 0. -1.
</event>
<event>
 5   0  0.1773903E-07  0.3877229E+04  0.7818609E-02  0.8029782E-01
        2   -1    0    0  501    0  0.00000000000E+00  0.00000000000E+00  0.19793200779E+04  0.19793200779E+04  0.25500000920E-02 0.  1.
       -2   -1    0    0    0  501  0.00000000000E+00  0.00000000000E+00 -0.18987463399E+04  0.18987463399E+04  0.25500000920E-02 0. -1.
    10030    2    1    2    0    0  0.00000000000E+00  0.00000000000E+00  0.80573737976E+02  0.38780664178E+04  0.38772292960E+04 0.  0.
        3    1    3    3  502    0  0.50331450826E+03  0.22272331873E+02  0.19126967088E+04  0.19779358587E+04  0.10100000352E+00 0.  1.
       -3    1    3    3    0  502 -0.50331450826E+03 -0.22272331873E+02 -0.18321229709E+04  0.19001305591E+04  0.10100000352E+00 0. -1.
</event>
<event>
 5   0  0.5515000E-08  0.3991165E+04  0.7818609E-02  0.8006331E-01
       -1   -1    0    0    0  501  0.00000000000E+00  0.00000000000E+00  0.27100498159E+04  0.27100498159E+04  0.50400001928E-02 0.  1.
        1   -1    0    0  501    0  0.00000000000E+00  0.00000000000E+00 -0.14694743929E+04  0.14694743929E+04  0.50400001928E-02 0. -1.
    10030    2    1    2    0    0  0.00000000000E+00  0.00000000000E+00  0.12405754230E+04  0.41795242089E+04  0.39911646461E+04 0.  0.
        1    1    3    3  502    0 -0.11627590221E+04  0.15947721528E+04  0.31133518956E+03  0.19980581481E+04  0.50400001928E-02 0. -1.
       -1    1    3    3    0  502  0.11627590221E+04 -0.15947721528E+04  0.92924023345E+03  0.21814660608E+04  0.50400001928E-02 0.  1.
</event>
<event>
 5   0  0.5515000E-08  0.4010718E+04  0.7818609E-02  0.8002388E-01
       -1   -1    0    0    0  501  0.00000000000E+00  0.00000000000E+00  0.13719302413E+04  0.13719302414E+04  0.50400001928E-02 0.  1.
        1   -1    0    0  501    0  0.00000000000E+00  0.00000000000E+00 -0.29312464294E+04  0.29312464294E+04  0.50400001928E-02 0. -1.
    10030    2    1    2    0    0  0.00000000000E+00  0.00000000000E+00 -0.15593161880E+04  0.43031766707E+04  0.40107184500E+04 0.  0.
        3    1    3    3  502    0  0.16022823978E+03 -0.17157195565E+04 -0.18801713790E+04  0.25503746999E+04  0.10100000352E+00 0. -1.
       -3    1    3    3    0  502 -0.16022823978E+03  0.17157195565E+04  0.32085519094E+03  0.17528019709E+04  0.10100000352E+00 0.  1.
</event>
<event>
 5   0  0.5515000E-08  0.3996858E+04  0.7818609E-02  0.8005181E-01
       -1   -1    0    0    0  501  0.00000000000E+00  0.00000000000E+00  0.27302093227E+04  0.27302093227E+04  0.50400001928E-02 0. -1.
        1   -1    0    0  501    0  0.00000000000E+00  0.00000000000E+00 -0.14627883076E+04  0.14627883076E+04  0.50400001928E-02 0.  1.
    10030    2    1    2    0    0  0.00000000000E+00  0.00000000000E+00  0.12674210151E+04  0.41929976303E+04  0.39968579032E+04 0.  0.
        1    1    3    3  502    0 -0.15351376879E+04 -0.47672211570E+03 -0.61190978528E+03  0.17199840934E+04  0.50400001928E-02 0.  1.
       -1    1    3    3    0  502  0.15351376879E+04  0.47672211570E+03  0.18793308003E+04  0.24730135369E+04  0.50400001928E-02 0. -1.
</event>
<event>
 5   0  0.5515000E-08  0.4011057E+04  0.7818609E-02  0.8002320E-01
        1   -1    0    0  501    0  0.00000000000E+00  0.00000000000E+00  0.20685892540E+04  0.20685892540E+04  0.50400001928E-02 0.  1.
       -1   -1    0    0    0  501  0.00000000000E+00  0.00000000000E+00 -0.19443904152E+04  0.19443904152E+04  0.50400001928E-02 0. -1.
    10030    2    1    2    0    0  0.00000000000E+00  0.00000000000E+00  0.12419883876E+03  0.40129796692E+04  0.40110572764E+04 0.  0.
        3    1    3    3  502    0 -0.18219155832E+04 -0.62708184214E+02  0.89846442784E+03  0.20323747310E+04  0.10100000352E+00 0.  1.
       -3    1    3    3    0  502  0.18219155832E+04  0.62708184214E+02 -0.77426558907E+03  0.19806049383E+04  0.10100000352E+00 0. -1.
</event>
<event>
 5   0  0.5515000E-08  0.4022003E+04  0.7818609E-02  0.8000123E-01
        1   -1    0    0  501    0  0.00000000000E+00  0.00000000000E+00  0.16153019549E+04  0.16153019549E+04  0.50400001928E-02 0. -1.
       -1   -1    0    0    0  501  0.00000000000E+00  0.00000000000E+00 -0.25036352491E+04  0.25036352491E+04  0.50400001928E-02 0.  1.
    10030    2    1    2    0    0  0.00000000000E+00  0.00000000000E+00 -0.88833329421E+03  0.41189372039E+04  0.40220029399E+04 0.  0.
        2    1    3    3  502    0 -0.12589609655E+04 -0.14298696784E+04 -0.11035929839E+04  0.22016874174E+04  0.25500000920E-02 0.  1.
       -2    1    3    3    0  502  0.12589609655E+04  0.14298696784E+04  0.21525968971E+03  0.19172497865E+04  0.25500000920E-02 0. -1.
</event>
<event>
 5   0  0.5515000E-08  0.3962253E+04  0.7818609E-02  0.8012205E-01
        1   -1    0    0  501    0  0.00000000000E+00  0.00000000000E+00  0.24437087262E+04  0.24437087262E+04  0.50400001928E-02 0.  1.
       -1   -1    0    0    0  501  0.00000000000E+00  0.00000000000E+00 -0.16061092253E+04  0.16061092253E+04  0.50400001928E-02 0. -1.
    10030    2    1    2    0    0  0.00000000000E+00  0.00000000000E+00  0.83759950088E+03  0.40498179515E+04  0.39622534644E+04 0.  0.
        4    1    3    3  502    0  0.52822836429E+03 -0.11116945201E+04 -0.11679162828E+04  0.16967380374E+04  0.12699999809E+01 0. -1.
       -4    1    3    3    0  502 -0.52822836429E+03  0.11116945201E+04  0.20055157837E+04  0.23530799141E+04  0.12699999809E+01 0.  1.
</event>
<event>
 5   0  0.5515000E-08  0.3994492E+04  0.7818609E-02  0.8005659E-01
        1   -1    0    0  501    0  0.00000000000E+00  0.00000000000E+00  0.24998791257E+04  0.24998791258E+04  0.50400001928E-02 0.  1.
       -1   -1    0    0    0  501  0.00000000000E+00  0.00000000000E+00 -0.15956740968E+04  0.15956740968E+04  0.50400001928E-02 0. -1.
    10030    2    1    2    0    0  0.00000000000E+00  0.00000000000E+00  0.90420502894E+03  0.40955532226E+04  0.39944923914E+04 0.  0.
        1    1    3    3  502    0 -0.13222635730E+04 -0.58205033555E+02  0.19856798099E+04  0.23863556084E+04  0.50400001928E-02 0.  1.
       -1    1    3    3    0  502  0.13222635730E+04  0.58205033555E+02 -0.10814747810E+04  0.17091976142E+04  0.50400001928E-02 0. -1.
</event>
<event>
 5   0  0.5515000E-08  0.4002651E+04  0.7818609E-02  0.8004012E-01
        1   -1    0    0  501    0  0.00000000000E+00  0.00000000000E+00  0.22873250689E+04  0.22873250689E+04  0.50400001928E-02 0. -1.
       -1   -1    0    0    0  501  0.00000000000E+00  0.00000000000E+00 -0.17510864952E+04  0.17510864952E+04  0.50400001928E-02 0.  1.
    10030    2    1    2    0    0  0.00000000000E+00  0.00000000000E+00  0.53623857368E+03  0.40384115641E+04  0.40026511406E+04 0.  0.
        3    1    3    3  502    0  0.91638679089E+03 -0.75592898621E+03 -0.13568946307E+04  0.18034290759E+04  0.10100000352E+00 0.  1.
       -3    1    3    3    0  502 -0.91638679089E+03  0.75592898621E+03  0.18931332044E+04  0.22349824882E+04  0.10100000352E+00 0. -1.
</event>
<event>
 5   0  0.1821433E-07  0.4005888E+04  0.7818609E-02  0.8003360E-01
        2   -1    0    0  501    0  0.00000000000E+00  0.00000000000E+00  0.15286715668E+04  0.15286715668E+04  0.25500000920E-02 0.  1.
       -2   -1    0    0    0  501  0.00000000000E+00  0.00000000000E+00 -0.26243599013E+04  0.26243599013E+04  0.25500000920E-02 0. -1.
    10030    2    1    2    0    0  0.00000000000E+00  0.00000000000E+00 -0.10956883345E+04  0.41530314682E+04  0.40058878478E+04 0.  0.
        5    1    3    3  502    0 -0.24186231186E+03  0.19545618110E+04 -0.92586483158E+03  0.21762483837E+04  0.46999998093E+01 0. -1.
       -5    1    3    3    0  502  0.24186231186E+03 -0.19545618110E+04 -0.16982350292E+03  0.19767830845E+04  0.46999998093E+01 0.  1.
</event>
<event>
 5   0  0.1776653E-07  0.4010077E+04  0.7818609E-02  0.8002517E-01
       -2   -1    0    0    0  501  0.00000000000E+00  0.00000000000E+00  0.24265949831E+04  0.24265949831E+04  0.25500000920E-02 0. -1.
        2   -1    0    0  501    0  0.00000000000E+00  0.00000000000E+00 -0.16567165365E+04  0.16567165365E+04  0.25500000920E-02 0.  1.
    10030    2    1    2    0    0  0.00000000000E+00  0.00000000000E+00  0.76987844657E+03  0.40833115196E+04  0.40100773239E+04 0.  0.
        4    1    3    3  502    0 -0.15940443286E+04  0.56787133130E+03  0.14800914737E+04  0.22481386865E+04  0.12699999809E+01 0. -1.
       -4    1    3    3    0  502  0.15940443286E+04 -0.56787133130E+03 -0.71021302709E+03  0.18351728331E+04  0.12699999809E+01 0.  1.
</event>
<event>
 5   0  0.5515000E-08  0.3984207E+04  0.7818609E-02  0.8007740E-01
        3   -1    0    0  501    0  0.00000000000E+00  0.00000000000E+00  0.25781069026E+04  0.25781069046E+04  0.10100000352E+00 0. -1.
       -3   -1    0    0    0  501  0.00000000000E+00  0.00000000000E+00 -0.15392984570E+04  0.15392984603E+04  0.10100000352E+00 0.  1.
    10030    2    1    2    0    0  0.00000000000E+00  0.00000000000E+00  0.10388084457E+04  0.41174053649E+04  0.39842068159E+04 0.  0.
        5    1    3    3  502    0 -0.52831053350E+03 -0.18850602316E+04  0.13844790171E+03  0.19625885987E+04  0.46999998093E+01 0.  1.
       -5    1    3    3    0  502  0.52831053350E+03  0.18850602316E+04  0.90036054396E+03  0.21548167661E+04  0.46999998093E+01 0. -1.
</event>
<event>
 5   0  0.1776653E-07  0.3972967E+04  0.7818609E-02  0.8010022E-01
        2   -1    0    0  501    0  0.00000000000E+00  0.00000000000E+00  0.35492050476E+04  0.35492050476E+04  0.25500000920E-02 0. -1.
       -2   -1    0    0    0  501  0.00000000000E+00  0.00000000000E+00 -0.11118313182E+04  0.11118313182E+04  0.25500000920E-02 0.  1.
    10030    2    1    2    0    0  0.00000000000E+00  0.00000000000E+00  0.24373737294E+04  0.46610363658E+04  0.39729673175E+04 0.  0.
        4    1    3    3  502    0  0.20285093099E+03  0.94472902177E+03  0.32549210845E+04  0.33953165249E+04  0.12699999809E+01 0. -1.
       -4    1    3    3    0  502 -0.20285093099E+03 -0.94472902177E+03 -0.81754735514E+03  0.12657198409E+04  0.12699999809E+01 0.  1.
</event>
<event>
 5   0  0.5515000E-08  0.3989893E+04  0.7818609E-02  0.8006589E-01
        1   -1    0    0  501    0  0.00000000000E+00  0.00000000000E+00  0.24984257260E+04  0.24984257260E+04  0.50400001928E-02 0.  1.
       -1   -1    0    0    0  501  0.00000000000E+00  0.00000000000E+00 -0.15929274473E+04  0.15929274473E+04  0.50400001928E-02 0. -1.
    10030    2    1    2    0    0  0.00000000000E+00  0.00000000000E+00  0.90549827865E+03  0.40913531733E+04  0.39898926873E+04 0.  0.
        5    1    3    3  502    0 -0.87327437301E+02  0.17566641813E+04  0.14181208890E+04  0.22593326610E+04  0.46999998093E+01 0.  1.
       -5    1    3    3    0  502  0.87327437301E+02 -0.17566641813E+04 -0.51262261036E+03  0.18320205124E+04  0.46999998093E+01 0. -1.
</event>
<event>
 5   0  0.1785559E-07  0.4061717E+04  0.7818609E-02  0.7992211E-01
       -2   -1    0    0    0  501  0.00000000000E+00  0.00000000000E+00  0.31173086495E+04  0.31173086495E+04  0.25500000920E-02 0. -1.
        2   -1    0    0  501    0  0.00000000000E+00  0.00000000000E+00 -0.13230601749E+04  0.13230601749E+04  0.25500000920E-02 0.  1.
    10030    2    1    2    0    0  0.00000000000E+00  0.00000000000E+00  0.17942484746E+04  0.44403688244E+04  0.40617173348E+04 0.  0.
        2    1    3    3  502    0 -0.11460465739E+04  0.77417199544E+03  0.25229155146E+04  0.28771283812E+04  0.25500000920E-02 0. -1.
       -2    1    3    3    0  502  0.11460465739E+04 -0.77417199544E+03 -0.72866703996E+03  0.15632404432E+04  0.25500000920E-02 0.  1.
</event>
<event>
 5   0  0.1819906E-07  0.4002283E+04  0.7818609E-02  0.8004086E-01
        2   -1    0    0  501    0  0.00000000000E+00  0.00000000000E+00  0.22955531775E+04  0.22955531775E+04  0.25500000920E-02 0. -1.
       -2   -1    0    0    0  501  0.00000000000E+00  0.00000000000E+00 -0.17444892678E+04  0.17444892678E+04  0.25500000920E-02 0.  1.
    10030    2    1    2    0    0  0.00000000000E+00  0.00000000000E+00  0.55106390967E+03  0.40400424453E+04  0.40022832893E+04 0.  0.
        1    1    3    3  502    0 -0.40649267743E+03 -0.94678807735E+03 -0.14561479607E+04  0.17838191734E+04  0.50400001928E-02 0.  1.
       -1    1    3    3    0  502  0.40649267743E+03  0.94678807735E+03  0.20072118703E+04  0.22562232719E+04  0.50400001928E-02 0. -1.
</event>
<event>
 5   0  0.5515000E-08  0.4011719E+04  0.7818609E-02  0.8002187E-01
       -1   -1    0    0    0  501  0.00000000000E+00  0.00000000000E+00  0.14887960388E+04  0.14887960388E+04  0.50400001928E-02 0. -1.
        1   -1    0    0  501    0  0.00000000000E+00  0.00000000000E+00 -0.27025005149E+04  0.27025005149E+04  0.50400001928E-02 0.  1.
    10030    2    1    2    0    0  0.00000000000E+00  0.00000000000E+00 -0.12137044761E+04  0.41912965537E+04  0.40117188643E+04 0.  0.
        4    1    3    3  502    0  0.25060878256E+03  0.12828574196E+04 -0.21964527951E+04  0.25559605661E+04  0.12699999809E+01 0. -1.
       -4    1    3    3    0  502 -0.25060878256E+03 -0.12828574196E+04  0.98274831905E+03  0.16353359877E+04  0.12699999809E+01 0.  1.
</event>
<event>
 5   0  0.1819906E-07  0.3398912E+04  0.7818609E-02  0.8138173E-01
        2   -1    0    0  501    0  0.00000000000E+00  0.00000000000E+00  0.20079339722E+04  0.20079339722E+04  0.25500000920E-02 0. -1.
       -2   -1    0    0    0  501  0.00000000000E+00  0.00000000000E+00 -0.14383690630E+04  0.14383690630E+04  0.25500000920E-02 0.  1.
    10030    2    1    2    0    0  0.00000000000E+00  0.00000000000E+00  0.56956490920E+03  0.34463030352E+04  0.33989116530E+04 0.  0.
        1    1    3    3  502    0 -0.67656226976E+03  0.14297041456E+04  0.91502754665E+03  0.18273111011E+04  0.50400001928E-02 0. -1.
       -1    1    3    3    0  502  0.67656226976E+03 -0.14297041456E+04 -0.34546263746E+03  0.16189919341E+04  0.50400001928E-02 0.  1.
</event>
<event>
 5   0  0.5515000E-08  0.3998271E+04  0.7818609E-02  0.8004895E-01
        1   -1    0    0  501    0  0.00000000000E+00  0.00000000000E+00  0.28682137492E+04  0.28682137493E+04  0.50400001928E-02 0.  1.
       -1   -1    0    0    0  501  0.00000000000E+00  0.00000000000E+00 -0.13933906325E+04  0.13933906326E+04  0.50400001928E-02 0. -1.
    10030    2    1    2    0    0  0.00000000000E+00  0.00000000000E+00  0.14748231167E+04  0.42616043818E+04  0.39982707114E+04 0.  0.
        2    1    3    3  502    0 -0.27825653653E+03 -0.85465641009E+03 -0.11658841134E+04  0.14721243308E+04  0.25500000920E-02 0. -1.
       -2    1    3    3    0  502  0.27825653653E+03  0.85465641009E+03  0.26407072301E+04  0.27894800510E+04  0.25500000920E-02 0.  1.
</event>
<event>
 5   0  0.1776653E-07  0.3953059E+04  0.7818609E-02  0.8014083E-01
       -2   -1    0    0    0  501  0.00000000000E+00  0.00000000000E+00  0.17348897616E+04  0.17348897616E+04  0.25500000920E-02 0. -1.
        2   -1    0    0  501    0  0.00000000000E+00  0.00000000000E+00 -0.22518257386E+04  0.22518257386E+04  0.25500000920E-02 0.  1.
    10030    2    1    2    0    0  0.00000000000E+00  0.00000000000E+00 -0.51693597697E+03  0.39867155002E+04  0.39530592805E+04 0.  0.
        4    1    3    3  502    0 -0.72336241765E+03  0.15594506828E+04  0.72530013529E+03  0.18657978236E+04  0.12699999809E+01 0. -1.
       -4    1    3    3    0  502  0.72336241765E+03 -0.15594506828E+04 -0.12422361123E+04  0.21209176766E+04  0.12699999809E+01 0.  1.
</event>
<event>
 5   0  0.1773903E-07  0.3976802E+04  0.7818609E-02  0.8009243E-01
        2   -1    0    0  501    0  0.00000000000E+00  0.00000000000E+00  0.18271109298E+04  0.18271109298E+04  0.25500000920E-02 0. -1.
       -2   -1    0    0    0  501  0.00000000000E+00  0.00000000000E+00 -0.21639289767E+04  0.21639289767E+04  0.25500000920E-02 0.  1.
    10030    2    1    2    0    0  0.00000000000E+00  0.00000000000E+00 -0.33681804688E+03  0.39910399066E+04  0.39768018733E+04 0.  0.
        3    1    3    3  502    0 -0.95035945476E+03  0.16292898586E+04  0.46310516697E+03  0.19422242256E+04  0.10100000352E+00 0. -1.
       -3    1    3    3    0  502  0.95035945476E+03 -0.16292898586E+04 -0.79992321385E+03  0.20488156810E+04  0.10100000352E+00 0.  1.
</event>
<event>
 5   0  0.5515000E-08  0.3972101E+04  0.7818609E-02  0.8010198E-01
       -1   -1    0    0    0  501  0.00000000000E+00  0.00000000000E+00  0.14365946419E+04  0.14365946419E+04  0.50400001928E-02 0. -1.
        1   -1    0    0  501    0  0.00000000000E+00  0.00000000000E+00 -0.27456579914E+04  0.27456579914E+04  0.50400001928E-02 0.  1.
    10030    2    1    2    0    0  0.00000000000E+00  0.00000000000E+00 -0.13090633496E+04  0.41822526333E+04  0.39721014886E+04 0.  0.
        2    1    3    3  502    0 -0.12365805513E+04  0.14402281239E+04 -0.12693869160E+04  0.22835786939E+04  0.25500000920E-02 0. -1.
       -2    1    3    3    0  502  0.12365805513E+04 -0.14402281239E+04 -0.39676433581E+02  0.18986739394E+04  0.25500000920E-02 0.  1.
</event>
<event>
 5   0  0.5515000E-08  0.3640343E+04  0.7818609E-02  0.8081313E-01
        1   -1    0    0  501    0  0.00000000000E+00  0.00000000000E+00  0.16035843059E+04  0.16035843060E+04  0.50400001928E-02 0. -1.
       -1   -1    0    0    0  501  0.00000000000E+00  0.00000000000E+00 -0.20660120635E+04  0.20660120635E+04  0.50400001928E-02 0.  1.
    10030    2    1    2    0    0  0.00000000000E+00  0.00000000000E+00 -0.46242775754E+03  0.36695963694E+04  0.36403431272E+04 0.  0.
        1    1    3    3  502    0 -0.11029738180E+04 -0.10832640592E+04 -0.11996694691E+04  0.19568390584E+04  0.50400001928E-02 0. -1.
       -1    1    3    3    0  502  0.11029738180E+04  0.10832640592E+04  0.73724171158E+03  0.17127573111E+04  0.50400001928E-02 0.  1.
</event>
<event>
 5   0  0.5515000E-08  0.4013926E+04  0.7818609E-02  0.8001743E-01
        1   -1    0    0  501    0  0.00000000000E+00  0.00000000000E+00  0.25832124534E+04  0.25832124534E+04  0.50400001928E-02 0. -1.
       -1   -1    0    0    0  501  0.00000000000E+00  0.00000000000E+00 -0.15592604130E+04  0.15592604130E+04  0.50400001928E-02 0.  1.
    10030    2    1    2    0    0  0.00000000000E+00  0.00000000000E+00  0.10239520404E+04  0.41424728664E+04  0.40139262161E+04 0.  0.
        5    1    3    3  502    0  0.24308094416E+03  0.36738712465E+03 -0.15087432690E+04  0.15717474309E+04  0.46999998093E+01 0.  1.
       -5    1    3    3    0  502 -0.24308094416E+03 -0.36738712465E+03  0.25326953094E+04  0.25707254355E+04  0.46999998093E+01 0. -1.
</event>
<event>
 5   0  0.5515000E-08  0.4010697E+04  0.7818609E-02  0.8002392E-01
        1   -1    0    0  501    0  0.00000000000E+00  0.00000000000E+00  0.24220490843E+04  0.24220490843E+04  0.50400001928E-02 0.  1.
       -1   -1    0    0    0  501  0.00000000000E+00  0.00000000000E+00 -0.16603388079E+04  0.16603388079E+04  0.50400001928E-02 0. -1.
    10030    2    1    2    0    0  0.00000000000E+00  0.00000000000E+00  0.76171027644E+03  0.40823878922E+04  0.40106967421E+04 0.  0.
        3    1    3    3  502    0  0.17486191196E+03 -0.14535302170E+04 -0.10140775610E+04  0.17809211352E+04  0.10100000352E+00 0. -1.
       -3    1    3    3    0  502 -0.17486191196E+03  0.14535302170E+04  0.17757878374E+04  0.23014667570E+04  0.10100000352E+00 0.  1.
</event>
<event>
 5   0  0.1773903E-07  0.4016808E+04  0.7818609E-02  0.8001164E-01
        2   -1    0    0  501    0  0.00000000000E+00  0.00000000000E+00  0.16462425822E+04  0.16462425822E+04  0.25500000920E-02 0.  1.
       -2   -1    0    0    0  501  0.00000000000E+00  0.00000000000E+00 -0.24502388702E+04  0.24502388702E+04  0.25500000920E-02 0. -1.
    10030    2    1    2    0    0  0.00000000000E+00  0.00000000000E+00 -0.80399628800E+03  0.40964814525E+04  0.40168084668E+04 0.  0.
        3    1    3    3  502    0 -0.69121624612E+03 -0.54630114516E+03  0.14386449926E+04  0.16869867412E+04  0.10100000352E+00 0.  1.
       -3    1    3    3    0  502  0.69121624612E+03  0.54630114516E+03 -0.22426412806E+04  0.24094947113E+04  0.10100000352E+00 0. -1.
</event>
<event>
 5   0  0.1821433E-07  0.4103966E+04  0.7818609E-02  0.7983896E-01
       -2   -1    0    0    0  501  0.00000000000E+00  0.00000000000E+00  0.31140475555E+04  0.31140475555E+04  0.25500000920E-02 0.  1.
        2   -1    0    0  501    0  0.00000000000E+00  0.00000000000E+00 -0.13521417535E+04  0.13521417535E+04  0.25500000920E-02 0. -1.
    10030    2    1    2    0    0  0.00000000000E+00  0.00000000000E+00  0.17619058020E+04  0.44661893090E+04  0.41039657514E+04 0.  0.
        5    1    3    3  502    0  0.18742341854E+04 -0.78530002454E+03  0.57091911375E+03  0.21107867336E+04  0.46999998093E+01 0. -1.
       -5    1    3    3    0  502 -0.18742341854E+04  0.78530002454E+03  0.11909866883E+04  0.23554025754E+04  0.46999998093E+01 0.  1.
</event>
<event>
 5   0  0.1785559E-07  0.4030314E+04  0.7818609E-02  0.7998459E-01
        2   -1    0    0  501    0  0.00000000000E+00  0.00000000000E+00  0.28447969580E+04  0.28447969580E+04  0.25500000920E-02 0.  1.
       -2   -1    0    0    0  501  0.00000000000E+00  0.00000000000E+00 -0.14274685979E+04  0.14274685979E+04  0.25500000920E-02 0. -1.
    10030    2    1    2    0    0  0.00000000000E+00  0.00000000000E+00  0.14173283601E+04  0.42722655560E+04  0.40303142930E+04 0.  0.
        2    1    3    3  502    0  0.83042897779E+03  0.11534731247E+04  0.22229706556E+04  0.26385054619E+04  0.25500000920E-02 0.  1.
       -2    1    3    3    0  502 -0.83042897779E+03 -0.11534731247E+04 -0.80564229552E+03  0.16337600941E+04  0.25500000920E-02 0. -1.
</event>
<event>
 5   0  0.5515000E-08  0.3967353E+04  0.7818609E-02  0.8011165E-01
       -1   -1    0    0    0  501  0.00000000000E+00  0.00000000000E+00  0.13116648999E+04  0.13116648999E+04  0.50400001928E-02 0. -1.
        1   -1    0    0  501    0  0.00000000000E+00  0.00000000000E+00 -0.29999823114E+04  0.29999823114E+04  0.50400001928E-02 0.  1.
    10030    2    1    2    0    0  0.00000000000E+00  0.00000000000E+00 -0.16883174115E+04  0.43116472113E+04  0.39673525168E+04 0.  0.
        3    1    3    3  502    0  0.19262341095E+04  0.10246484939E+03 -0.34130079988E+03  0.19589188692E+04  0.10100000352E+00 0. -1.
       -3    1    3    3    0  502 -0.19262341095E+04 -0.10246484939E+03 -0.13470166116E+04  0.23527283421E+04  0.10100000352E+00 0.  1.
</event>
<event>
 5   0  0.1785559E-07  0.3957090E+04  0.7818609E-02  0.8013259E-01
        2   -1    0    0  501    0  0.00000000000E+00  0.00000000000E+00  0.16848410150E+04  0.16848410150E+04  0.25500000920E-02 0. -1.
       -2   -1    0    0    0  501  0.00000000000E+00  0.00000000000E+00 -0.23234483988E+04  0.23234483988E+04  0.25500000920E-02 0.  1.
    10030    2    1    2    0    0  0.00000000000E+00  0.00000000000E+00 -0.63860738381E+03  0.40082894138E+04  0.39570904253E+04 0.  0.
        2    1    3    3  502    0 -0.18484058779E+04  0.34050562969E+03  0.30683063749E+03  0.19043879367E+04  0.25500000920E-02 0.  1.
       -2    1    3    3    0  502  0.18484058779E+04 -0.34050562969E+03 -0.94543802130E+03  0.21039014771E+04  0.25500000920E-02 0. -1.
</event>
<event>
 5   0  0.5515000E-08  0.3962354E+04  0.7818609E-02  0.8012184E-01
       -1   -1    0    0    0  501  0.00000000000E+00  0.00000000000E+00  0.26981434730E+04  0.26981434730E+04  0.50400001928E-02 0. -1.
        1   -1    0    0  501    0  0.00000000000E+00  0.00000000000E+00 -0.14547268487E+04  0.14547268488E+04  0.50400001928E-02 0.  1.
    10030    2    1    2    0    0  0.00000000000E+00  0.00000000000E+00  0.12434166242E+04  0.41528703217E+04  0.39623537207E+04 0.  0.
        1    1    3    3  502    0  0.11323716863E+04  0.15563978534E+04  0.12964335559E+03  0.19291053143E+04  0.50400001928E-02 0.  1.
       -1    1    3    3    0  502 -0.11323716863E+04 -0.15563978534E+04  0.11137732686E+04  0.22237650074E+04  0.50400001928E-02 0. -1.
</event>
<event>
 5   0  0.1776653E-07  0.4104189E+04  0.7818609E-02  0.7983852E-01
        2   -1    0    0  501    0  0.00000000000E+00  0.00000000000E+00  0.14677485743E+04  0.14677485743E+04  0.25500000920E-02 0.  1.
       -2   -1    0    0    0  501  0.00000000000E+00  0.00000000000E+00 -0.28690818780E+04  0.28690818780E+04  0.25500000920E-02 0. -1.
    10030    2    1    2    0    0  0.00000000000E+00  0.00000000000E+00 -0.14013333037E+04  0.43368304523E+04  0.41041885122E+04 0.  0.
        4    1    3    3  502    0 -0.67613672540E+03  0.68296646560E+03  0.12152519048E+04  0.15493362674E+04  0.12699999809E+01 0.  1.
       -4    1    3    3    0  502  0.67613672540E+03 -0.68296646560E+03 -0.26165852085E+04  0.27874941849E+04  0.12699999809E+01 0. -1.
</event>
<event>
 5   0  0.5515000E-08  0.3708269E+04  0.7818609E-02  0.8066132E-01
        1   -1    0    0  501    0  0.00000000000E+00  0.00000000000E+00  0.24531806233E+04  0.24531806233E+04  0.50400001928E-02 0. -1.
       -1   -1    0    0    0  501  0.00000000000E+00  0.00000000000E+00 -0.14013704533E+04  0.14013704533E+04  0.50400001928E-02 0.  1.
    10030    2    1    2    0    0  0.00000000000E+00  0.00000000000E+00  0.10518101700E+04  0.38545510766E+04  0.37082690528E+04 0.  0.
        3    1    3    3  502    0 -0.37541681528E+03 -0.60003581030E+03 -0.12554162651E+04  0.14411976852E+04  0.10100000352E+00 0.  1.
       -3    1    3    3    0  502  0.37541681528E+03  0.60003581030E+03  0.23072264351E+04  0.24133533914E+04  0.10100000352E+00 0. -1.
</event>
<event>
 5   0  0.5515000E-08  0.3978482E+04  0.7818609E-02  0.8008902E-01
       -1   -1    0    0    0  501  0.00000000000E+00  0.00000000000E+00  0.15577168175E+04  0.15577168175E+04  0.50400001928E-02 0.  1.
        1   -1    0    0  501    0  0.00000000000E+00  0.00000000000E+00 -0.25403076767E+04  0.25403076767E+04  0.50400001928E-02 0. -1.
    10030    2    1    2    0    0  0.00000000000E+00  0.00000000000E+00 -0.98259085922E+03  0.40980244942E+04  0.39784821174E+04 0.  0.
        1    1    3    3  502    0  0.18000571576E+04 -0.56272613530E+03 -0.11429283476E+04  0.22052554686E+04  0.50400001928E-02 0. -1.
       -1    1    3    3    0  502 -0.18000571576E+04  0.56272613530E+03  0.16033748841E+03  0.18927690256E+04  0.50400001928E-02 0.  1.
</event>
<event>
 5   0  0.5515000E-08  0.4031921E+04  0.7818609E-02  0.7998138E-01
       -1   -1    0    0    0  501  0.00000000000E+00  0.00000000000E+00  0.17112733867E+04  0.17112733867E+04  0.50400001928E-02 0. -1.
        1   -1    0    0  501    0  0.00000000000E+00  0.00000000000E+00 -0.23748968190E+04  0.23748968191E+04  0.50400001928E-02 0.  1.
    10030    2    1    2    0    0  0.00000000000E+00  0.00000000000E+00 -0.66362343236E+03  0.40861702057E+04  0.40319214886E+04 0.  0.
        2    1    3    3  502    0 -0.13017945772E+04  0.13226968775E+04  0.46612004963E+03  0.19134952448E+04  0.25500000920E-02 0. -1.
       -2    1    3    3    0  502  0.13017945772E+04 -0.13226968775E+04 -0.11297434820E+04  0.21726749610E+04  0.25500000920E-02 0.  1.
</event>
<event>
 5   0  0.5515000E-08  0.3861665E+04  0.7818609E-02  0.8033050E-01
        1   -1    0    0  501    0  0.00000000000E+00  0.00000000000E+00  0.17917924571E+04  0.17917924571E+04  0.50400001928E-02 0.  1.
       -1   -1    0    0    0  501  0.00000000000E+00  0.00000000000E+00 -0.20806620792E+04  0.20806620793E+04  0.50400001928E-02 0. -1.
    10030    2    1    2    0    0  0.00000000000E+00  0.00000000000E+00 -0.28886962217E+03  0.38724545363E+04  0.38616652467E+04 0.  0.
        4    1    3    3  502    0 -0.10439819748E+04 -0.86029346724E+03 -0.15260031401E+04  0.20392867405E+04  0.12699999809E+01 0. -1.
       -4    1    3    3    0  502  0.10439819748E+04  0.86029346724E+03  0.12371335179E+04  0.18331677958E+04  0.12699999809E+01 0.  1.
</event>
<event>
 5   0  0.1819906E-07  0.3883025E+04  0.7818609E-02  0.8028569E-01
       -2   -1    0    0    0  501  0.00000000000E+00  0.00000000000E+00  0.17228464583E+04  0.17228464583E+04  0.25500000920E-02 0.  1.
        2   -1    0    0  501    0  0.00000000000E+00  0.00000000000E+00 -0.21879323895E+04  0.21879323895E+04  0.25500000920E-02 0. -1.
    10030    2    1    2    0    0  0.00000000000E+00  0.00000000000E+00 -0.46508593122E+03  0.39107788478E+04  0.38830254020E+04 0.  0.
        1    1    3    3  502    0  0.18205919168E+04  0.59016939736E+03  0.96312974329E+02  0.19162805208E+04  0.50400001928E-02 0. -1.
       -1    1    3    3    0  502 -0.18205919168E+04 -0.59016939736E+03 -0.56139890555E+03  0.19944983270E+04  0.50400001928E-02 0.  1.
</event>
<event>
 5   0  0.5515000E-08  0.3294773E+04  0.7818609E-02  0.8164227E-01
       -1   -1    0    0    0  501  0.00000000000E+00  0.00000000000E+00  0.18178797162E+04  0.18178797162E+04  0.50400001928E-02 0.  1.
        1   -1    0    0  501    0  0.00000000000E+00  0.00000000000E+00 -0.14928834741E+04  0.14928834741E+04  0.50400001928E-02 0. -1.
    10030    2    1    2    0    0  0.00000000000E+00  0.00000000000E+00  0.32499624211E+03  0.33107631903E+04  0.32947731857E+04 0.  0.
        2    1    3    3  502    0  0.27246704283E+03 -0.14096445906E+04 -0.64922572129E+03  0.15756999075E+04  0.25500000920E-02 0. -1.
       -2    1    3    3    0  502 -0.27246704283E+03  0.14096445906E+04  0.97422196341E+03  0.17350632828E+04  0.25500000920E-02 0.  1.
</event>
<event>
 5   0  0.1773903E-07  0.3834540E+04  0.7818609E-02  0.8038783E-01
        2   -1    0    0  501    0  0.00000000000E+00  0.00000000000E+00  0.30703202857E+04  0.30703202857E+04  0.25500000920E-02 0. -1.
       -2   -1    0    0    0  501  0.00000000000E+00  0.00000000000E+00 -0.11972446393E+04  0.11972446393E+04  0.25500000920E-02 0.  1.
    10030    2    1    2    0    0  0.00000000000E+00  0.00000000000E+00  0.18730756464E+04  0.42675649249E+04  0.38345401304E+04 0.  0.
        3    1    3    3  502    0  0.12691207309E+04  0.18809822078E+03  0.25221669586E+04  0.28297304726E+04  0.10100000352E+00 0. -1.
       -3    1    3    3    0  502 -0.12691207309E+04 -0.18809822078E+03 -0.64909131226E+03  0.14378344523E+04  0.10100000352E+00 0.  1.
</event>
<event>
 5   0  0.5515000E-08  0.4051866E+04  0.7818609E-02  0.7994164E-01
       -1   -1    0    0    0  501  0.00000000000E+00  0.00000000000E+00  0.17386491636E+04  0.17386491636E+04  0.50400001928E-02 0.  1.
        1   -1    0    0  501    0  0.00000000000E+00  0.00000000000E+00 -0.23606859418E+04  0.23606859418E+04  0.50400001928E-02 0. -1.
    10030    2    1    2    0    0  0.00000000000E+00  0.00000000000E+00 -0.62203677815E+03  0.40993351054E+04  0.40518660581E+04 0.  0.
        1    1    3    3  502    0  0.47077590502E+03 -0.38676689900E+03 -0.22657996109E+04  0.23462878050E+04  0.50400001928E-02 0. -1.
       -1    1    3    3    0  502 -0.47077590502E+03  0.38676689900E+03  0.16437628328E+04  0.17530473004E+04  0.50400001928E-02 0.  1.
</event>
<event>
 5   0  0.1819906E-07  0.4003550E+04  0.7818609E-02  0.8003831E-01
        2   -1    0    0  501    0  0.00000000000E+00  0.00000000000E+00  0.28734926306E+04  0.28734926306E+04  0.25500000920E-02 0. -1.
       -2   -1    0    0    0  501  0.00000000000E+00  0.00000000000E+00 -0.13945059639E+04  0.13945059639E+04  0.25500000920E-02 0.  1.
    10030    2    1    2    0    0  0.00000000000E+00  0.00000000000E+00  0.14789866667E+04  0.42679985945E+04  0.40035497302E+04 0.  0.
        1    1    3    3  502    0 -0.11949126518E+04 -0.40592758738E+02  0.24510451548E+04  0.27271021925E+04  0.50400001928E-02 0. -1.
       -1    1    3    3    0  502  0.11949126518E+04  0.40592758738E+02 -0.97205848805E+03  0.15408964020E+04  0.50400001928E-02 0.  1.
</event>
<event>
 5   0  0.5515000E-08  0.3830598E+04  0.7818609E-02  0.8039620E-01
       -1   -1    0    0    0  501  0.00000000000E+00  0.00000000000E+00  0.13107077903E+04  0.13107077903E+04  0.50400001928E-02 0. -1.
        1   -1    0    0  501    0  0.00000000000E+00  0.00000000000E+00 -0.27987699544E+04  0.27987699544E+04  0.50400001928E-02 0.  1.
    10030    2    1    2    0    0  0.00000000000E+00  0.00000000000E+00 -0.14880621641E+04  0.41094777447E+04  0.38305976466E+04 0.  0.
        3    1    3    3  502    0 -0.72575631817E+02  0.15650363904E+04 -0.19259484716E+04  0.24827169897E+04  0.10100000352E+00 0.  1.
       -3    1    3    3    0  502  0.72575631817E+02 -0.15650363904E+04  0.43788630745E+03  0.16267607550E+04  0.10100000352E+00 0. -1.
</event>
<event>
 5   0  0.1776653E-07  0.4045866E+04  0.7818609E-02  0.7995357E-01
       -2   -1    0    0    0  501  0.00000000000E+00  0.00000000000E+00  0.13670874255E+04  0.13670874255E+04  0.25500000920E-02 0.  1.
        2   -1    0    0  501    0  0.00000000000E+00  0.00000000000E+00 -0.29934136602E+04  0.29934136602E+04  0.25500000920E-02 0. -1.
    10030    2    1    2    0    0  0.00000000000E+00  0.00000000000E+00 -0.16263262347E+04  0.43605010857E+04  0.40458661244E+04 0.  0.
        4    1    3    3  502    0 -0.74339077443E+03  0.82595507750E+03  0.10086855758E+04  0.15007597534E+04  0.12699999809E+01 0.  1.
       -4    1    3    3    0  502  0.74339077443E+03 -0.82595507750E+03 -0.26350118105E+04  0.28597413324E+04  0.12699999809E+01 0. -1.
</event>
<event>
 5   0  0.1776653E-07  0.3983707E+04  0.7818609E-02  0.8007842E-01
       -2   -1    0    0    0  501  0.00000000000E+00  0.00000000000E+00  0.25474464716E+04  0.25474464716E+04  0.25500000920E-02 0.  1.
        2   -1    0    0  501    0  0.00000000000E+00  0.00000000000E+00 -0.15574339732E+04  0.15574339732E+04  0.25500000920E-02 0. -1.
    10030    2    1    2    0    0  0.00000000000E+00  0.00000000000E+00  0.99001249835E+03  0.41048804448E+04  0.39837066558E+04 0.  0.
        4    1    3    3  502    0 -0.96923437446E+03 -0.11686088346E+03 -0.12940090640E+04  0.16209666281E+04  0.12699999809E+01 0. -1.
       -4    1    3    3    0  502  0.96923437446E+03  0.11686088346E+03  0.22840215624E+04  0.24839138167E+04  0.12699999809E+01 0.  1.
</event>
<event>
 5   0  0.1821433E-07  0.3824362E+04  0.7818609E-02  0.8040947E-01
        2   -1    0    0  501    0  0.00000000000E+00  0.00000000000E+00  0.21595128942E+04  0.21595128942E+04  0.25500000920E-02 0. -1.
       -2   -1    0    0    0  501  0.00000000000E+00  0.00000000000E+00 -0.16931761732E+04  0.16931761732E+04  0.25500000920E-02 0.  1.
    10030    2    1    2    0    0  0.00000000000E+00  0.00000000000E+00  0.46633672094E+03  0.38526890674E+04  0.38243617916E+04 0.  0.
        5    1    3    3  502    0 -0.13450223145E+04  0.75093033352E+03 -0.90810970815E+03  0.17882020927E+04  0.46999998093E+01 0.  1.
       -5    1    3    3    0  502  0.13450223145E+04 -0.75093033352E+03  0.13744464291E+04  0.20644869747E+04  0.46999998093E+01 0. -1.
</event>
<event>
 5   0  0.1785559E-07  0.3994695E+04  0.7818609E-02  0.8005618E-01
       -2   -1    0    0    0  501  0.00000000000E+00  0.00000000000E+00  0.23792532222E+04  0.23792532222E+04  0.25500000920E-02 0. -1.
        2   -1    0    0  501    0  0.00000000000E+00  0.00000000000E+00 -0.16767429445E+04  0.16767429445E+04  0.25500000920E-02 0.  1.
    10030    2    1    2    0    0  0.00000000000E+00  0.00000000000E+00  0.70251027770E+03  0.40559961668E+04  0.39946945083E+04 0.  0.
        2    1    3    3  502    0  0.70778430302E+03 -0.14545454620E+04 -0.83836225675E+03  0.18219529067E+04  0.25500000920E-02 0.  1.
       -2    1    3    3    0  502 -0.70778430302E+03  0.14545454620E+04  0.15408725345E+04  0.22340432601E+04  0.25500000920E-02 0. -1.
</event>
<event>
 5   0  0.1773903E-07  0.3968409E+04  0.7818609E-02  0.8010950E-01
        2   -1    0    0  501    0  0.00000000000E+00  0.00000000000E+00  0.17748321944E+04  0.17748321944E+04  0.25500000920E-02 0.  1.
       -2   -1    0    0    0  501  0.00000000000E+00  0.00000000000E+00 -0.22182760219E+04  0.22182760219E+04  0.25500000920E-02 0. -1.
    10030    2    1    2    0    0  0.00000000000E+00  0.00000000000E+00 -0.44344382754E+03  0.39931082163E+04  0.39684091018E+04 0.  0.
        3    1    3    3  502    0 -0.77936787890E+03  0.95105359054E+03  0.13452600138E+04  0.18225371705E+04  0.10100000352E+00 0.  1.
       -3    1    3    3    0  502  0.77936787890E+03 -0.95105359054E+03 -0.17887038414E+04  0.21705710459E+04  0.10100000352E+00 0. -1.
</event>
<event>
 5   0  0.1773903E-07  0.4037624E+04  0.7818609E-02  0.7996999E-01
        2   -1    0    0  501    0  0.00000000000E+00  0.00000000000E+00  0.14575636154E+04  0.14575636154E+04  0.25500000920E-02 0.  1.
       -2   -1    0    0    0  501  0.00000000000E+00  0.00000000000E+00 -0.27961748978E+04  0.27961748978E+04  0.25500000920E-02 0. -1.
    10030    2    1    2    0    0  0.00000000000E+00  0.00000000000E+00 -0.13386112824E+04  0.42537385132E+04  0.40376244468E+04 0.  0.
        3    1    3    3  502    0 -0.13256159657E+04 -0.86064624261E+02  0.93223886754E+03  0.16228783456E+04  0.10100000352E+00 0.  1.
       -3    1    3    3    0  502  0.13256159657E+04  0.86064624261E+02 -0.22708501499E+04  0.26308601677E+04  0.10100000352E+00 0. -1.
</event>
<event>
 5   0  0.1785559E-07  0.3989095E+04  0.7818609E-02  0.8006750E-01
        2   -1    0    0  501    0  0.00000000000E+00  0.00000000000E+00  0.21624470675E+04  0.21624470676E+04  0.25500000920E-02 0.  1.
       -2   -1    0    0    0  501  0.00000000000E+00  0.00000000000E+00 -0.18396843737E+04  0.18396843737E+04  0.25500000920E-02 0. -1.
    10030    2    1    2    0    0  0.00000000000E+00  0.00000000000E+00  0.32276269381E+03  0.40021314413E+04  0.39890951752E+04 0.  0.
        2    1    3    3  502    0  0.13656065326E+04  0.14517262776E+04  0.84779407536E+02  0.19948879505E+04  0.25500000920E-02 0. -1.
       -2    1    3    3    0  502 -0.13656065326E+04 -0.14517262776E+04  0.23798328627E+03  0.20072434908E+04  0.25500000920E-02 0.  1.
</event>
<event>
 5   0  0.5515000E-08  0.3589255E+04  0.7818609E-02  0.8092957E-01
        1   -1    0    0  501    0  0.00000000000E+00  0.00000000000E+00  0.11883071933E+04  0.11883071933E+04  0.50400001928E-02 0.  1.
       -1   -1    0    0    0  501  0.00000000000E+00  0.00000000000E+00 -0.27103154110E+04  0.27103154110E+04  0.50400001928E-02 0. -1.
    10030    2    1    2    0    0  0.00000000000E+00  0.00000000000E+00 -0.15220082177E+04  0.38986226042E+04  0.35892546852E+04 0.  0.
        2    1    3    3  502    0  0.82847496126E+03  0.27896736426E+01 -0.24901700887E+04  0.26243714704E+04  0.25500000920E-02 0. -1.
       -2    1    3    3    0  502 -0.82847496126E+03 -0.27896736426E+01  0.96816187100E+03  0.12742511339E+04  0.25500000920E-02 0.  1.
</event>
<event>
 5   0  0.1773903E-07  0.4032191E+04  0.7818609E-02  0.7998084E-01
        2   -1    0    0  501    0  0.00000000000E+00  0.00000000000E+00  0.17990560336E+04  0.17990560336E+04  0.25500000920E-02 0.  1.
       -2   -1    0    0    0  501  0.00000000000E+00  0.00000000000E+00 -0.22593184148E+04  0.22593184148E+04  0.25500000920E-02 0. -1.
    10030    2    1    2    0    0  0.00000000000E+00  0.00000000000E+00 -0.46026238126E+03  0.40583744484E+04  0.40321906829E+04 0.  0.
        3    1    3    3  502    0 -0.11135578340E+04  0.13939498983E+04  0.71486564030E+03  0.19220146364E+04  0.10100000352E+00 0.  1.
       -3    1    3    3    0  502  0.11135578340E+04 -0.13939498983E+04 -0.11751280216E+04  0.21363598119E+04  0.10100000352E+00 0. -1.
</event>
<event>
 5   0  0.5515000E-08  0.3227372E+04  0.7818609E-02  0.8181626E-01
       -1   -1    0    0    0  501  0.00000000000E+00  0.00000000000E+00  0.10014011896E+04  0.10014011896E+04  0.50400001928E-02 0. -1.
        1   -1    0    0  501    0  0.00000000000E+00  0.00000000000E+00 -0.26003385044E+04  0.26003385044E+04  0.50400001928E-02 0.  1.
    10030    2    1    2    0    0  0.00000000000E+00  0.00000000000E+00 -0.15989373148E+04  0.36017396940E+04  0.32273717305E+04 0.  0.
        1    1    3    3  502    0 -0.27062567809E+03 -0.70078814487E+03  0.79435426833E+03  0.10933165074E+04  0.50400001928E-02 0. -1.
       -1    1    3    3    0  502  0.27062567809E+03  0.70078814487E+03 -0.23932915831E+04  0.25084231867E+04  0.50400001928E-02 0.  1.
</event>
<event>
 5   0  0.1819906E-07  0.4002681E+04  0.7818609E-02  0.8004006E-01
       -2   -1    0    0    0  501  0.00000000000E+00  0.00000000000E+00  0.26841585347E+04  0.26841585347E+04  0.25500000920E-02 0. -1.
        2   -1    0    0  501    0  0.00000000000E+00  0.00000000000E+00 -0.14922232095E+04  0.14922232095E+04  0.25500000920E-02 0.  1.
    10030    2    1    2    0    0  0.00000000000E+00  0.00000000000E+00  0.11919353252E+04  0.41763817442E+04  0.40026809333E+04 0.  0.
        1    1    3    3  502    0 -0.14163659293E+04 -0.67350365222E+03  0.18931671518E+04  0.24584103563E+04  0.50400001928E-02 0. -1.
       -1    1    3    3    0  502  0.14163659293E+04  0.67350365222E+03 -0.70123182654E+03  0.17179713879E+04  0.50400001928E-02 0.  1.
</event>
<event>
 5   0  0.1785559E-07  0.4434166E+04  0.7818609E-02  0.7922265E-01
        2   -1    0    0  501    0  0.00000000000E+00  0.00000000000E+00  0.28320797563E+04  0.28320797563E+04  0.25500000920E-02 0.  1.
       -2   -1    0    0    0  501  0.00000000000E+00  0.00000000000E+00 -0.17356351420E+04  0.17356351420E+04  0.25500000920E-02 0. -1.
    10030    2    1    2    0    0  0.00000000000E+00  0.00000000000E+00  0.10964446143E+04  0.45677148983E+04  0.44341660546E+04 0.  0.
        2    1    3    3  502    0 -0.15156927636E+04 -0.10522593663E+03 -0.11150469383E+04  0.18846025379E+04  0.25500000920E-02 0. -1.
       -2    1    3    3    0  502  0.15156927636E+04  0.10522593663E+03  0.22114915526E+04  0.26831123604E+04  0.25500000920E-02 0.  1.
</event>
<event>
 5   0  0.5515000E-08  0.3951114E+04  0.7818609E-02  0.8014482E-01
       -1   -1    0    0    0  501  0.00000000000E+00  0.00000000000E+00  0.15025459953E+04  0.15025459953E+04  0.50400001928E-02 0.  1.
        1   -1    0    0  501    0  0.00000000000E+00  0.00000000000E+00 -0.25974751207E+04  0.25974751207E+04  0.50400001928E-02 0. -1.
    10030    2    1    2    0    0  0.00000000000E+00  0.00000000000E+00 -0.10949291254E+04  0.41000211160E+04  0.39511141925E+04 0.  0.
        4    1    3    3  502    0  0.13561983949E+04 -0.31908259942E+02  0.94281196073E+03  0.16520254930E+04  0.12699999809E+01 0.  1.
       -4    1    3    3    0  502 -0.13561983949E+04  0.31908259942E+02 -0.20377410861E+04  0.24479956230E+04  0.12699999809E+01 0. -1.
</event>
<event>
 5   0  0.1821433E-07  0.3960248E+04  0.7818609E-02  0.8012614E-01
        2   -1    0    0  501    0  0.00000000000E+00  0.00000000000E+00  0.20377761363E+04  0.20377761363E+04  0.25500000920E-02 0. -1.
       -2   -1    0    0    0  501  0.00000000000E+00  0.00000000000E+00 -0.19241025489E+04  0.19241025489E+04  0.25500000920E-02 0.  1.
    10030    2    1    2    0    0  0.00000000000E+00  0.00000000000E+00  0.11367358744E+03  0.39618786852E+04  0.39602475973E+04 0.  0.
        5    1    3    3  502    0  0.94543531487E+03  0.60160053400E+03 -0.15763480715E+04  0.19340802645E+04  0.46999998093E+01 0.  1.
       -5    1    3    3    0  502 -0.94543531487E+03 -0.60160053400E+03  0.16900216590E+04  0.20277984207E+04  0.46999998093E+01 0. -1.
</event>
<event>
 5   0  0.5515000E-08  0.3983242E+04  0.7818609E-02  0.8007936E-01
       -1   -1    0    0    0  501  0.00000000000E+00  0.00000000000E+00  0.26659902691E+04  0.26659902691E+04  0.50400001928E-02 0. -1.
        1   -1    0    0  501    0  0.00000000000E+00  0.00000000000E+00 -0.14878355850E+04  0.14878355850E+04  0.50400001928E-02 0.  1.
    10030    2    1    2    0    0  0.00000000000E+00  0.00000000000E+00  0.11781546841E+04  0.41538258541E+04  0.39832424940E+04 0.  0.
        5    1    3    3  502    0 -0.23712243816E+03 -0.13392896975E+03  0.26464764433E+04  0.26604555389E+04  0.46999998093E+01 0. -1.
       -5    1    3    3    0  502  0.23712243816E+03  0.13392896975E+03 -0.14683217592E+04  0.14933703151E+04  0.46999998093E+01 0.  1.
</event>
<event>
 5   0  0.5515000E-08  0.4022205E+04  0.7818609E-02  0.8000082E-01
        1   -1    0    0  501    0  0.00000000000E+00  0.00000000000E+00  0.12100642186E+04  0.12100642186E+04  0.50400001928E-02 0. -1.
       -1   -1    0    0    0  501  0.00000000000E+00  0.00000000000E+00 -0.33424114045E+04  0.33424114046E+04  0.50400001928E-02 0.  1.
    10030    2    1    2    0    0  0.00000000000E+00  0.00000000000E+00 -0.21323471860E+04  0.45524756232E+04  0.40222045918E+04 0.  0.
        5    1    3    3  502    0  0.75223808918E+03 -0.18639342310E+04 -0.99111832586E+03  0.22410824586E+04  0.46999998093E+01 0.  1.
       -5    1    3    3    0  502 -0.75223808918E+03  0.18639342310E+04 -0.11412288601E+04  0.23113931646E+04  0.46999998093E+01 0. -1.
</event>
<event>
 5   0  0.5515000E-08  0.3961900E+04  0.7818609E-02  0.8012277E-01
       -1   -1    0    0    0  501  0.00000000000E+00  0.00000000000E+00  0.21803101802E+04  0.21803101802E+04  0.50400001928E-02 0.  1.
        1   -1    0    0  501    0  0.00000000000E+00  0.00000000000E+00 -0.17998182679E+04  0.17998182679E+04  0.50400001928E-02 0. -1.
    10030    2    1    2    0    0  0.00000000000E+00  0.00000000000E+00  0.38049191233E+03  0.39801284480E+04  0.39618995908E+04 0.  0.
        4    1    3    3  502    0  0.50229875657E+03 -0.18561440296E+04  0.66844637086E+03  0.20357791784E+04  0.12699999809E+01 0.  1.
       -4    1    3    3    0  502 -0.50229875657E+03  0.18561440296E+04 -0.28795445853E+03  0.19443492697E+04  0.12699999809E+01 0. -1.
</event>
<event>
 5   0  0.1776653E-07  0.3999577E+04  0.7818609E-02  0.8004632E-01
       -2   -1    0    0    0  501  0.00000000000E+00  0.00000000000E+00  0.20296258594E+04  0.20296258594E+04  0.25500000920E-02 0. -1.
        2   -1    0    0  501    0  0.00000000000E+00  0.00000000000E+00 -0.19703897348E+04  0.19703897348E+04  0.25500000920E-02 0.  1.
    10030    2    1    2    0    0  0.00000000000E+00  0.00000000000E+00  0.59236124590E+02  0.40000155942E+04  0.39995769570E+04 0.  0.
        4    1    3    3  502    0 -0.15424924977E+03  0.14126753433E+04 -0.13775571740E+04  0.19791689764E+04  0.12699999809E+01 0.  1.
       -4    1    3    3    0  502  0.15424924977E+03 -0.14126753433E+04  0.14367932986E+04  0.20208466178E+04  0.12699999809E+01 0. -1.
</event>
<event>
 5   0  0.1785559E-07  0.3814335E+04  0.7818609E-02  0.8043086E-01
       -2   -1    0    0    0  501  0.00000000000E+00  0.00000000000E+00  0.15382850946E+04  0.15382850946E+04  0.25500000920E-02 0. -1.
        2   -1    0    0  501    0  0.00000000000E+00  0.00000000000E+00 -0.23645080998E+04  0.23645080998E+04  0.25500000920E-02 0.  1.
    10030    2    1    2    0    0  0.00000000000E+00  0.00000000000E+00 -0.82622300513E+03  0.39027931944E+04  0.38143348390E+04 0.  0.
        2    1    3    3  502    0 -0.14161484263E+04  0.31244127725E+03 -0.16804613928E+04  0.22196951164E+04  0.25500000920E-02 0.  1.
       -2    1    3    3    0  502  0.14161484263E+04 -0.31244127725E+03  0.85423838763E+03  0.16830980780E+04  0.25500000920E-02 0. -1.
</event>
<event>
 5   0  0.1776653E-07  0.3929459E+04  0.7818609E-02  0.8018930E-01
        2   -1    0    0  501    0  0.00000000000E+00  0.00000000000E+00  0.19660567204E+04  0.19660567205E+04  0.25500000920E-02 0. -1.
       -2   -1    0    0    0  501  0.00000000000E+00  0.00000000000E+00 -0.19634036711E+04  0.19634036711E+04  0.25500000920E-02 0.  1.
    10030    2    1    2    0    0  0.00000000000E+00  0.00000000000E+00  0.26530493039E+01  0.39294603916E+04  0.39294594960E+04 0.  0.
        4    1    3    3  502    0  0.23883956057E+03  0.11226282390E+04 -0.15932969514E+04  0.19636535557E+04  0.12699999809E+01 0.  1.
       -4    1    3    3    0  502 -0.23883956057E+03 -0.11226282390E+04  0.15959500007E+04  0.19658068359E+04  0.12699999809E+01 0. -1.
</event>
<event>
 5   0  0.1819906E-07  0.3869448E+04  0.7818609E-02  0.8031414E-01
       -2   -1    0    0    0  501  0.00000000000E+00  0.00000000000E+00  0.15686763065E+04  0.15686763065E+04  0.25500000920E-02 0.  1.
        2   -1    0    0  501    0  0.00000000000E+00  0.00000000000E+00 -0.23861888123E+04  0.23861888123E+04  0.25500000920E-02 0. -1.
    10030    2    1    2    0    0  0.00000000000E+00  0.00000000000E+00 -0.81751250579E+03  0.39548651188E+04  0.38694484634E+04 0.  0.
        1    1    3    3  502    0 -0.54158951402E+03 -0.76599328663E+03 -0.21381756767E+04  0.23349218705E+04  0.50400001928E-02 0. -1.
       -1    1    3    3    0  502  0.54158951402E+03  0.76599328663E+03  0.13206631709E+04  0.16199432483E+04  0.50400001928E-02 0.  1.
</event>
<event>
 5   0  0.1773903E-07  0.4005529E+04  0.7818609E-02  0.8003432E-01
       -2   -1    0    0    0  501  0.00000000000E+00  0.00000000000E+00  0.20108462873E+04  0.20108462873E+04  0.25500000920E-02 0. -1.
        2   -1    0    0  501    0  0.00000000000E+00  0.00000000000E+00 -0.19947153294E+04  0.19947153294E+04  0.25500000920E-02 0.  1.
    10030    2    1    2    0    0  0.00000000000E+00  0.00000000000E+00  0.16130957907E+02  0.40055616167E+04  0.40055291357E+04 0.  0.
        3    1    3    3  502    0 -0.12487288598E+04  0.13966031763E+04 -0.69992451819E+03  0.19999296334E+04  0.10100000352E+00 0.  1.
       -3    1    3    3    0  502  0.12487288598E+04 -0.13966031763E+04  0.71605547609E+03  0.20056319833E+04  0.10100000352E+00 0. -1.
</event>
<event>
 5   0  0.5515000E-08  0.3981799E+04  0.7818609E-02  0.8008228E-01
       -1   -1    0    0    0  501  0.00000000000E+00  0.00000000000E+00  0.17946367295E+04  0.17946367296E+04  0.50400001928E-02 0.  1.
        1   -1    0    0  501    0  0.00000000000E+00  0.00000000000E+00 -0.22086256673E+04  0.22086256673E+04  0.50400001928E-02 0. -1.
    10030    2    1    2    0    0  0.00000000000E+00  0.00000000000E+00 -0.41398893775E+03  0.40032623969E+04  0.39817989625E+04 0.  0.
        1    1    3    3  502    0 -0.45497005390E+03  0.17204091411E+04 -0.11044851196E+04  0.20944433012E+04  0.50400001928E-02 0. -1.
       -1    1    3    3    0  502  0.45497005390E+03 -0.17204091411E+04  0.69049618180E+03  0.19088190956E+04  0.50400001928E-02 0.  1.
</event>
<event>
 5   0  0.1785559E-07  0.4015048E+04  0.7818609E-02  0.8001518E-01
       -2   -1    0    0    0  501  0.00000000000E+00  0.00000000000E+00  0.19581517352E+04  0.19581517352E+04  0.25500000920E-02 0. -1.
        2   -1    0    0  501    0  0.00000000000E+00  0.00000000000E+00 -0.20581408020E+04  0.20581408020E+04  0.25500000920E-02 0.  1.
    10030    2    1    2    0    0  0.00000000000E+00  0.00000000000E+00 -0.99989066844E+02  0.40162925372E+04  0.40150476873E+04 0.  0.
        2    1    3    3  502    0 -0.77833522386E+03 -0.12445765517E+04 -0.14198626129E+04  0.20422503160E+04  0.25500000920E-02 0.  1.
       -2    1    3    3    0  502  0.77833522386E+03  0.12445765517E+04  0.13198735460E+04  0.19740422212E+04  0.25500000920E-02 0. -1.
</event>
<event>
 5   0  0.5515000E-08  0.3954767E+04  0.7818609E-02  0.8013734E-01
        1   -1    0    0  501    0  0.00000000000E+00  0.00000000000E+00  0.22373011738E+04  0.22373011738E+04  0.50400001928E-02 0.  1.
       -1   -1    0    0    0  501  0.00000000000E+00  0.00000000000E+00 -0.17476620708E+04  0.17476620708E+04  0.50400001928E-02 0. -1.
    10030    2    1    2    0    0  0.00000000000E+00  0.00000000000E+00  0.48963910305E+03  0.39849632446E+04  0.39547674533E+04 0.  0.
        4    1    3    3  502    0  0.41174305412E+03 -0.95135213839E+03 -0.14519142770E+04  0.17840010971E+04  0.12699999809E+01 0. -1.
       -4    1    3    3    0  502 -0.41174305412E+03  0.95135213839E+03  0.19415533801E+04  0.22009621474E+04  0.12699999809E+01 0.  1.
</event>
<event>
 5   0  0.1776653E-07  0.3990360E+04  0.7818609E-02  0.8006494E-01
       -2   -1    0    0    0  501  0.00000000000E+00  0.00000000000E+00  0.20397493747E+04  0.20397493747E+04  0.25500000920E-02 0.  1.
        2   -1    0    0  501    0  0.00000000000E+00  0.00000000000E+00 -0.19515848411E+04  0.19515848411E+04  0.25500000920E-02 0. -1.
    10030    2    1    2    0    0  0.00000000000E+00  0.00000000000E+00  0.88164533590E+02  0.39913342158E+04  0.39903603643E+04 0.  0.
        4    1    3    3  502    0  0.16370034542E+04 -0.14639719120E+03 -0.10873568686E+04  0.19706747624E+04  0.12699999809E+01 0. -1.
       -4    1    3    3    0  502 -0.16370034542E+04  0.14639719120E+03  0.11755214022E+04  0.20206594534E+04  0.12699999809E+01 0.  1.
</event>
<event>
 5   0  0.1776653E-07  0.3968270E+04  0.7818609E-02  0.8010978E-01
       -2   -1    0    0    0  501  0.00000000000E+00  0.00000000000E+00  0.20056444800E+04  0.20056444800E+04  0.25500000920E-02 0. -1.
        2   -1    0    0  501    0  0.00000000000E+00  0.00000000000E+00 -0.19628558490E+04  0.19628558490E+04  0.25500000920E-02 0.  1.
    10030    2    1    2    0    0  0.00000000000E+00  0.00000000000E+00  0.42788630979E+02  0.39685003290E+04  0.39682696474E+04 0.  0.
        4    1    3    3  502    0 -0.13835145102E+04 -0.30499964220E+03 -0.13678056549E+04  0.19692717193E+04  0.12699999809E+01 0.  1.
       -4    1    3    3    0  502  0.13835145102E+04  0.30499964220E+03  0.14105942859E+04  0.19992286097E+04  0.12699999809E+01 0. -1.
</event>
<event>
 5   0  0.5515000E-08  0.4032394E+04  0.7818609E-02  0.7998043E-01
        1   -1    0    0  501    0  0.00000000000E+00  0.00000000000E+00  0.17577523539E+04  0.17577523540E+04  0.50400001928E-02 0.  1.
       -1   -1    0    0    0  501  0.00000000000E+00  0.00000000000E+00 -0.23126415994E+04  0.23126415994E+04  0.50400001928E-02 0. -1.
    10030    2    1    2    0    0  0.00000000000E+00  0.00000000000E+00 -0.55488924541E+03  0.40703939533E+04  0.40323944327E+04 0.  0.
        1    1    3    3  502    0 -0.94285090766E+03  0.70349085417E+02  0.15201044756E+04  0.17901492800E+04  0.50400001928E-02 0.  1.
       -1    1    3    3    0  502  0.94285090766E+03 -0.70349085417E+02 -0.20749937210E+04  0.22802446733E+04  0.50400001928E-02 0. -1.
</event>
<event>
 5   0  0.5515000E-08  0.4064215E+04  0.7818609E-02  0.7991716E-01
       -1   -1    0    0    0  501  0.00000000000E+00  0.00000000000E+00  0.30269466093E+04  0.30269466093E+04  0.50400001928E-02 0. -1.
        1   -1    0    0  501    0  0.00000000000E+00  0.00000000000E+00 -0.13642328370E+04  0.13642328370E+04  0.50400001928E-02 0.  1.
    10030    2    1    2    0    0  0.00000000000E+00  0.00000000000E+00  0.16627137723E+04  0.43911794463E+04  0.40642145417E+04 0.  0.
        5    1    3    3  502    0 -0.18864063829E+04 -0.62601622167E+02  0.16449217944E+04  0.25036449038E+04  0.46999998093E+01 0. -1.
       -5    1    3    3    0  502  0.18864063829E+04  0.62601622167E+02  0.17791977979E+02  0.18875345425E+04  0.46999998093E+01 0.  1.
</event>
<event>
 5   0  0.1773903E-07  0.3982612E+04  0.7818609E-02  0.8008064E-01
        2   -1    0    0  501    0  0.00000000000E+00  0.00000000000E+00  0.11274982170E+04  0.11274982170E+04  0.25500000920E-02 0. -1.
       -2   -1    0    0    0  501  0.00000000000E+00  0.00000000000E+00 -0.35169000994E+04  0.35169000994E+04  0.25500000920E-02 0.  1.
    10030    2    1    2    0    0  0.00000000000E+00  0.00000000000E+00 -0.23894018824E+04  0.46443983164E+04  0.39826115008E+04 0.  0.
        3    1    3    3  502    0  0.47576647534E+03 -0.16688106353E+04 -0.55660029479E+02  0.17361972021E+04  0.10100000352E+00 0. -1.
       -3    1    3    3    0  502 -0.47576647534E+03  0.16688106353E+04 -0.23337418529E+04  0.29082011144E+04  0.10100000352E+00 0.  1.
</event>
<event>
 5   0  0.5515000E-08  0.4218910E+04  0.7818609E-02  0.7961785E-01
        3   -1    0    0  501    0  0.00000000000E+00  0.00000000000E+00  0.23796858283E+04  0.23796858305E+04  0.10100000352E+00 0. -1.
       -3   -1    0    0    0  501  0.00000000000E+00  0.00000000000E+00 -0.18699112210E+04  0.18699112237E+04  0.10100000352E+00 0.  1.
    10030    2    1    2    0    0  0.00000000000E+00  0.00000000000E+00  0.50977460738E+03  0.42495970542E+04  0.42189104011E+04 0.  0.
        3    1    3    3  502    0 -0.53678867179E+03 -0.19585646599E+04 -0.31995062218E+03  0.20558419239E+04  0.10100000352E+00 0.  1.
       -3    1    3    3    0  502  0.53678867179E+03  0.19585646599E+04  0.82972522956E+03  0.21937551303E+04  0.10100000352E+00 0. -1.
</event>
<event>
 5   0  0.5515000E-08  0.3989937E+04  0.7818609E-02  0.8006580E-01
       -1   -1    0    0    0  501  0.00000000000E+00  0.00000000000E+00  0.14057962792E+04  0.14057962792E+04  0.50400001928E-02 0.  1.
        1   -1    0    0  501    0  0.00000000000E+00  0.00000000000E+00 -0.28310639216E+04  0.28310639216E+04  0.50400001928E-02 0. -1.
    10030    2    1    2    0    0  0.00000000000E+00  0.00000000000E+00 -0.14252676424E+04  0.42368602007E+04  0.39899369053E+04 0.  0.
        4    1    3    3  502    0  0.12146071843E+04 -0.15647158875E+04 -0.46069334358E+03  0.20336780449E+04  0.12699999809E+01 0. -1.
       -4    1    3    3    0  502 -0.12146071843E+04  0.15647158875E+04 -0.96457429881E+03  0.22031821558E+04  0.12699999809E+01 0.  1.
</event>
<event>
 5   0  0.1776653E-07  0.4026328E+04  0.7818609E-02  0.7999256E-01
       -2   -1    0    0    0  501  0.00000000000E+00  0.00000000000E+00  0.18716853152E+04  0.18716853152E+04  0.25500000920E-02 0.  1.
        2   -1    0    0  501    0  0.00000000000E+00  0.00000000000E+00 -0.21653374102E+04  0.21653374102E+04  0.25500000920E-02 0. -1.
    10030    2    1    2    0    0  0.00000000000E+00  0.00000000000E+00 -0.29365209495E+03  0.40370227254E+04  0.40263284680E+04 0.  0.
        4    1    3    3  502    0 -0.16378026734E+04  0.24764314498E+03  0.10003737194E+04  0.19350643182E+04  0.12699999809E+01 0.  1.
       -4    1    3    3    0  502  0.16378026734E+04 -0.24764314498E+03 -0.12940258144E+04  0.21019584072E+04  0.12699999809E+01 0. -1.
</event>
<event>
 5   0  0.1819906E-07  0.4042439E+04  0.7818609E-02  0.7996040E-01
        2   -1    0    0  501    0  0.00000000000E+00  0.00000000000E+00  0.15060917646E+04  0.15060917646E+04  0.25500000920E-02 0.  1.
       -2   -1    0    0    0  501  0.00000000000E+00  0.00000000000E+00 -0.27125362268E+04  0.27125362268E+04  0.25500000920E-02 0. -1.
    10030    2    1    2    0    0  0.00000000000E+00  0.00000000000E+00 -0.12064444622E+04  0.42186279915E+04  0.40424391016E+04 0.  0.
        1    1    3    3  502    0 -0.13225268946E+04 -0.87266229588E+02 -0.21957188490E+04  0.25647366425E+04  0.50400001928E-02 0. -1.
       -1    1    3    3    0  502  0.13225268946E+04  0.87266229588E+02  0.98927438674E+03  0.16538913489E+04  0.50400001928E-02 0.  1.
</event>
<event>
 5   0  0.5515000E-08  0.3980611E+04  0.7818609E-02  0.8008469E-01
        1   -1    0    0  501    0  0.00000000000E+00  0.00000000000E+00  0.21052010855E+04  0.21052010856E+04  0.50400001928E-02 0.  1.
       -1   -1    0    0    0  501  0.00000000000E+00  0.00000000000E+00 -0.18816808792E+04  0.18816808792E+04  0.50400001928E-02 0. -1.
    10030    2    1    2    0    0  0.00000000000E+00  0.00000000000E+00  0.22352020634E+03  0.39868819648E+04  0.39806113247E+04 0.  0.
        2    1    3    3  502    0 -0.17002201883E+04 -0.45944415754E+03  0.10403014362E+04  0.20454986435E+04  0.25500000920E-02 0.  1.
       -2    1    3    3    0  502  0.17002201883E+04  0.45944415754E+03 -0.81678122981E+03  0.19413833212E+04  0.25500000920E-02 0. -1.
</event>
<event>
 5   0  0.1785559E-07  0.4113412E+04  0.7818609E-02  0.7982051E-01
       -2   -1    0    0    0  501  0.00000000000E+00  0.00000000000E+00  0.18731893804E+04  0.18731893804E+04  0.25500000920E-02 0. -1.
        2   -1    0    0  501    0  0.00000000000E+00  0.00000000000E+00 -0.22582017097E+04  0.22582017097E+04  0.25500000920E-02 0.  1.
    10030    2    1    2    0    0  0.00000000000E+00  0.00000000000E+00 -0.38501232933E+03  0.41313910901E+04  0.41134119470E+04 0.  0.
        2    1    3    3  502    0  0.13263027684E+04  0.52138898709E+03 -0.16819288711E+04  0.22044977289E+04  0.25500000920E-02 0.  1.
       -2    1    3    3    0  502 -0.13263027684E+04 -0.52138898709E+03  0.12969165418E+04  0.19268933612E+04  0.25500000920E-02 0. -1.
</event>
<event>
 5   0  0.1819906E-07  0.3977749E+04  0.7818609E-02  0.8009050E-01
       -2   -1    0    0    0  501  0.00000000000E+00  0.00000000000E+00  0.23097560539E+04  0.23097560539E+04  0.25500000920E-02 0.  1.
        2   -1    0    0  501    0  0.00000000000E+00  0.00000000000E+00 -0.17125716508E+04  0.17125716508E+04  0.25500000920E-02 0. -1.
    10030    2    1    2    0    0  0.00000000000E+00  0.00000000000E+00  0.59718440310E+03  0.40223277047E+04  0.39777494834E+04 0.  0.
        1    1    3    3  502    0  0.44995179463E+03  0.15035645266E+04  0.15339459814E+04  0.21945735752E+04  0.50400001928E-02 0.  1.
       -1    1    3    3    0  502 -0.44995179463E+03 -0.15035645266E+04 -0.93676157831E+03  0.18277541295E+04  0.50400001928E-02 0. -1.
</event>
<event>
 5   0  0.1773903E-07  0.4011873E+04  0.7818609E-02  0.8002156E-01
       -2   -1    0    0    0  501  0.00000000000E+00  0.00000000000E+00  0.23309412592E+04  0.23309412592E+04  0.25500000920E-02 0. -1.
        2   -1    0    0  501    0  0.00000000000E+00  0.00000000000E+00 -0.17262473368E+04  0.17262473368E+04  0.25500000920E-02 0.  1.
    10030    2    1    2    0    0  0.00000000000E+00  0.00000000000E+00  0.60469392246E+03  0.40571885960E+04  0.40118729496E+04 0.  0.
        3    1    3    3  502    0  0.75172411379E+03  0.10797877016E+04 -0.12289394342E+04  0.18003673978E+04  0.10100000352E+00 0.  1.
       -3    1    3    3    0  502 -0.75172411379E+03 -0.10797877016E+04  0.18336333567E+04  0.22568211982E+04  0.10100000352E+00 0. -1.
</event>
<event>
 5   0  0.1785559E-07  0.4026876E+04  0.7818609E-02  0.7999147E-01
       -2   -1    0    0    0  501  0.00000000000E+00  0.00000000000E+00  0.21269148890E+04  0.21269148890E+04  0.25500000920E-02 0. -1.
        2   -1    0    0  501    0  0.00000000000E+00  0.00000000000E+00 -0.19060152033E+04  0.19060152033E+04  0.25500000920E-02 0.  1.
    10030    2    1    2    0    0  0.00000000000E+00  0.00000000000E+00  0.22089968575E+03  0.40329300923E+04  0.40268757689E+04 0.  0.
        2    1    3    3  502    0 -0.91580110113E+03  0.14856373667E+04 -0.89511255303E+03  0.19613863782E+04  0.25500000920E-02 0.  1.
       -2    1    3    3    0  502  0.91580110113E+03 -0.14856373667E+04  0.11160122388E+04  0.20715437141E+04  0.25500000920E-02 0. -1.
</event>
<event>
 5   0  0.5515000E-08  0.3984717E+04  0.7818609E-02  0.8007637E-01
        3   -1    0    0  501    0  0.00000000000E+00  0.00000000000E+00  0.15210963312E+04  0.15210963345E+04  0.10100000352E+00 0. -1.
       -3   -1    0    0    0  501  0.00000000000E+00  0.00000000000E+00 -0.26096260511E+04  0.26096260531E+04  0.10100000352E+00 0.  1.
    10030    2    1    2    0    0  0.00000000000E+00  0.00000000000E+00 -0.10885297200E+04  0.41307223876E+04  0.39847171157E+04 0.  0.
        4    1    3    3  502    0  0.18034407510E+04  0.73217292127E+03 -0.98531313998E+03  0.21815864241E+04  0.12699999809E+01 0.  1.
       -4    1    3    3    0  502 -0.18034407510E+04 -0.73217292127E+03 -0.10321657998E+03  0.19491359635E+04  0.12699999809E+01 0. -1.
</event>
<event>
 5   0  0.1776653E-07  0.3461096E+04  0.7818609E-02  0.8123072E-01
        2   -1    0    0  501    0  0.00000000000E+00  0.00000000000E+00  0.20456250376E+04  0.20456250376E+04  0.25500000920E-02 0.  1.
       -2   -1    0    0    0  501  0.00000000000E+00  0.00000000000E+00 -0.14640009553E+04  0.14640009553E+04  0.25500000920E-02 0. -1.
    10030    2    1    2    0    0  0.00000000000E+00  0.00000000000E+00  0.58162408234E+03  0.35096259929E+04  0.34610963634E+04 0.  0.
        4    1    3    3  502    0  0.60507650948E+02 -0.55861643400E+03 -0.13689282695E+04  0.14797566408E+04  0.12699999809E+01 0. -1.
       -4    1    3    3    0  502 -0.60507650948E+02  0.55861643400E+03  0.19505523519E+04  0.20298693521E+04  0.12699999809E+01 0.  1.
</event>
<event>
 5   0  0.5515000E-08  0.3981977E+04  0.7818609E-02  0.8008192E-01
       -1   -1    0    0    0  501  0.00000000000E+00  0.00000000000E+00  0.19293018447E+04  0.19293018448E+04  0.50400001928E-02 0.  1.
        1   -1    0    0  501    0  0.00000000000E+00  0.00000000000E+00 -0.20546470138E+04  0.20546470138E+04  0.50400001928E-02 0. -1.
    10030    2    1    2    0    0  0.00000000000E+00  0.00000000000E+00 -0.12534516901E+03  0.39839488585E+04  0.39819765313E+04 0.  0.
        3    1    3    3  502    0  0.15477654584E+03 -0.28411393246E+03 -0.20281704578E+04  0.20538139939E+04  0.10100000352E+00 0. -1.
       -3    1    3    3    0  502 -0.15477654584E+03  0.28411393246E+03  0.19028252887E+04  0.19301348646E+04  0.10100000352E+00 0.  1.
</event>
<event>
 5   0  0.5515000E-08  0.3428495E+04  0.7818609E-02  0.8130948E-01
        1   -1    0    0  501    0  0.00000000000E+00  0.00000000000E+00  0.20896040306E+04  0.20896040306E+04  0.50400001928E-02 0.  1.
       -1   -1    0    0    0  501  0.00000000000E+00  0.00000000000E+00 -0.14063168143E+04  0.14063168143E+04  0.50400001928E-02 0. -1.
    10030    2    1    2    0    0  0.00000000000E+00  0.00000000000E+00  0.68328721636E+03  0.34959208449E+04  0.34284954621E+04 0.  0.
        3    1    3    3  502    0 -0.47982798916E+03  0.14186611546E+04  0.11922010063E+04  0.19142041742E+04  0.10100000352E+00 0. -1.
       -3    1    3    3    0  502  0.47982798916E+03 -0.14186611546E+04 -0.50891378992E+03  0.15817166708E+04  0.10100000352E+00 0.  1.
</event>
<event>
 5   0  0.1773903E-07  0.3957073E+04  0.7818609E-02  0.8013263E-01
        2   -1    0    0  501    0  0.00000000000E+00  0.00000000000E+00  0.13034349348E+04  0.13034349348E+04  0.25500000920E-02 0.  1.
       -2   -1    0    0    0  501  0.00000000000E+00  0.00000000000E+00 -0.30033010464E+04  0.30033010464E+04  0.25500000920E-02 0. -1.
    10030    2    1    2    0    0  0.00000000000E+00  0.00000000000E+00 -0.16998661117E+04  0.43067359812E+04  0.39570734153E+04 0.  0.
        3    1    3    3  502    0 -0.58176216497E+03 -0.17027470400E+04 -0.17453151827E+04  0.25067747797E+04  0.10100000352E+00 0.  1.
       -3    1    3    3    0  502  0.58176216497E+03  0.17027470400E+04  0.45449071047E+02  0.17999612015E+04  0.10100000352E+00 0. -1.
</event>
<event>
 5   0  0.5515000E-08  0.3999888E+04  0.7818609E-02  0.8004569E-01
       -1   -1    0    0    0  501  0.00000000000E+00  0.00000000000E+00  0.20623185812E+04  0.20623185812E+04  0.50400001928E-02 0.  1.
        1   -1    0    0  501    0  0.00000000000E+00  0.00000000000E+00 -0.19394556113E+04  0.19394556113E+04  0.50400001928E-02 0. -1.
    10030    2    1    2    0    0  0.00000000000E+00  0.00000000000E+00  0.12286296996E+03  0.40017741925E+04  0.39998876708E+04 0.  0.
        3    1    3    3  502    0  0.12634675814E+03  0.16201270886E+04  0.12277428834E+04  0.20366953342E+04  0.10100000352E+00 0.  1.
       -3    1    3    3    0  502 -0.12634675814E+03 -0.16201270886E+04 -0.11048799134E+04  0.19650788584E+04  0.10100000352E+00 0. -1.
</event>
<event>
 5   0  0.5515000E-08  0.3966749E+04  0.7818609E-02  0.8011288E-01
        1   -1    0    0  501    0  0.00000000000E+00  0.00000000000E+00  0.13024203654E+04  0.13024203654E+04  0.50400001928E-02 0.  1.
       -1   -1    0    0    0  501  0.00000000000E+00  0.00000000000E+00 -0.30203567654E+04  0.30203567654E+04  0.50400001928E-02 0. -1.
    10030    2    1    2    0    0  0.00000000000E+00  0.00000000000E+00 -0.17179364000E+04  0.43227771307E+04  0.39667488763E+04 0.  0.
        4    1    3    3  502    0 -0.57603004349E+03  0.14809769476E+04  0.43443118536E+03  0.16473722706E+04  0.12699999809E+01 0.  1.
       -4    1    3    3    0  502  0.57603004349E+03 -0.14809769476E+04 -0.21523675854E+04  0.26754048601E+04  0.12699999809E+01 0. -1.
</event>
<event>
 5   0  0.5515000E-08  0.3986939E+04  0.7818609E-02  0.8007186E-01
       -3   -1    0    0    0  501  0.00000000000E+00  0.00000000000E+00  0.16006791663E+04  0.16006791695E+04  0.10100000352E+00 0.  1.
        3   -1    0    0  501    0  0.00000000000E+00  0.00000000000E+00 -0.24826469597E+04  0.24826469618E+04  0.10100000352E+00 0. -1.
    10030    2    1    2    0    0  0.00000000000E+00  0.00000000000E+00 -0.88196779338E+03  0.40833261313E+04  0.39869393156E+04 0.  0.
        3    1    3    3  502    0  0.78594833419E+03 -0.14379873157E+03 -0.23114798132E+04  0.24456761430E+04  0.10100000352E+00 0. -1.
       -3    1    3    3    0  502 -0.78594833419E+03  0.14379873157E+03  0.14295120198E+04  0.16376499883E+04  0.10100000352E+00 0.  1.
</event>
<event>
 5   0  0.5515000E-08  0.4001041E+04  0.7818609E-02  0.8004337E-01
       -1   -1    0    0    0  501  0.00000000000E+00  0.00000000000E+00  0.14049767835E+04  0.14049767835E+04  0.50400001928E-02 0. -1.
        1   -1    0    0  501    0  0.00000000000E+00  0.00000000000E+00 -0.28485047458E+04  0.28485047458E+04  0.50400001928E-02 0.  1.
    10030    2    1    2    0    0  0.00000000000E+00  0.00000000000E+00 -0.14435279624E+04  0.42534815293E+04  0.40010413822E+04 0.  0.
        1    1    3    3  502    0  0.85455150996E+03 -0.11824001385E+04 -0.21769813563E+04  0.26206060742E+04  0.50400001928E-02 0.  1.
       -1    1    3    3    0  502 -0.85455150996E+03  0.11824001385E+04  0.73345339389E+03  0.16328754551E+04  0.50400001928E-02 0. -1.
</event>
<event>
 5   0  0.1773903E-07  0.3759444E+04  0.7818609E-02  0.8054914E-01
        2   -1    0    0  501    0  0.00000000000E+00  0.00000000000E+00  0.21535650305E+04  0.21535650305E+04  0.25500000920E-02 0. -1.
       -2   -1    0    0    0  501  0.00000000000E+00  0.00000000000E+00 -0.16407005155E+04  0.16407005155E+04  0.25500000920E-02 0.  1.
    10030    2    1    2    0    0  0.00000000000E+00  0.00000000000E+00  0.51286451498E+03  0.37942655460E+04  0.37594442439E+04 0.  0.
        3    1    3    3  502    0 -0.44019329846E+03  0.10778759884E+04  0.17458273749E+04  0.20984518149E+04  0.10100000352E+00 0. -1.
       -3    1    3    3    0  502  0.44019329846E+03 -0.10778759884E+04 -0.12329628599E+04  0.16958137311E+04  0.10100000352E+00 0.  1.
</event>
<event>
 5   0  0.5515000E-08  0.3994029E+04  0.7818609E-02  0.8005752E-01
        1   -1    0    0  501    0  0.00000000000E+00  0.00000000000E+00  0.13303316061E+04  0.13303316061E+04  0.50400001928E-02 0. -1.
       -1   -1    0    0    0  501  0.00000000000E+00  0.00000000000E+00 -0.29977997235E+04  0.29977997235E+04  0.50400001928E-02 0.  1.
    10030    2    1    2    0    0  0.00000000000E+00  0.00000000000E+00 -0.16674681173E+04  0.43281313296E+04  0.39940294045E+04 0.  0.
        1    1    3    3  502    0  0.19550806547E+04 -0.37426750116E+03 -0.10072913849E+04  0.22309308512E+04  0.50400001928E-02 0. -1.
       -1    1    3    3    0  502 -0.19550806547E+04  0.37426750116E+03 -0.66017673243E+03  0.20972004784E+04  0.50400001928E-02 0.  1.
</event>
<event>
 5   0  0.1773903E-07  0.4058856E+04  0.7818609E-02  0.7992778E-01
       -2   -1    0    0    0  501  0.00000000000E+00  0.00000000000E+00  0.17863652858E+04  0.17863652858E+04  0.25500000920E-02 0. -1.
        2   -1    0    0  501    0  0.00000000000E+00  0.00000000000E+00 -0.23055635238E+04  0.23055635238E+04  0.25500000920E-02 0.  1.
    10030    2    1    2    0    0  0.00000000000E+00  0.00000000000E+00 -0.51919823798E+03  0.40919288096E+04  0.40588563133E+04 0.  0.
        3    1    3    3  502    0 -0.85252545514E+03 -0.90998092643E+03  0.13546076115E+04  0.18411482095E+04  0.10100000352E+00 0. -1.
       -3    1    3    3    0  502  0.85252545514E+03  0.90998092643E+03 -0.18738058494E+04  0.22507806001E+04  0.10100000352E+00 0.  1.
</event>
<event>
 5   0  0.1776653E-07  0.4046029E+04  0.7818609E-02  0.7995325E-01
       -2   -1    0    0    0  501  0.00000000000E+00  0.00000000000E+00  0.21801537448E+04  0.21801537448E+04  0.25500000920E-02 0. -1.
        2   -1    0    0  501    0  0.00000000000E+00  0.00000000000E+00 -0.18772010244E+04  0.18772010244E+04  0.25500000920E-02 0.  1.
    10030    2    1    2    0    0  0.00000000000E+00  0.00000000000E+00  0.30295272043E+03  0.40573547691E+04  0.40460285926E+04 0.  0.
        4    1    3    3  502    0  0.41914230167E+03  0.13688553109E+04  0.15848621992E+04  0.21357047864E+04  0.12699999809E+01 0.  1.
       -4    1    3    3    0  502 -0.41914230167E+03 -0.13688553109E+04 -0.12819094788E+04  0.19216499827E+04  0.12699999809E+01 0. -1.
</event>
<event>
 5   0  0.5515000E-08  0.4160991E+04  0.7818609E-02  0.7972834E-01
        1   -1    0    0  501    0  0.00000000000E+00  0.00000000000E+00  0.28391670538E+04  0.28391670538E+04  0.50400001928E-02 0.  1.
       -1   -1    0    0    0  501  0.00000000000E+00  0.00000000000E+00 -0.15245529716E+04  0.15245529716E+04  0.50400001928E-02 0. -1.
    10030    2    1    2    0    0  0.00000000000E+00  0.00000000000E+00  0.13146140822E+04  0.43637200255E+04  0.41609905402E+04 0.  0.
        1    1    3    3  502    0 -0.10975888336E+04  0.17453615297E+04  0.94920684307E+03  0.22697977328E+04  0.50400001928E-02 0.  1.
       -1    1    3    3    0  502  0.10975888336E+04 -0.17453615297E+04  0.36540723915E+03  0.20939222926E+04  0.50400001928E-02 0. -1.
</event>
<event>
 5   0  0.5515000E-08  0.4002331E+04  0.7818609E-02  0.8004076E-01
       -1   -1    0    0    0  501  0.00000000000E+00  0.00000000000E+00  0.19795088434E+04  0.19795088434E+04  0.50400001928E-02 0.  1.
        1   -1    0    0  501    0  0.00000000000E+00  0.00000000000E+00 -0.20230592435E+04  0.20230592435E+04  0.50400001928E-02 0. -1.
    10030    2    1    2    0    0  0.00000000000E+00  0.00000000000E+00 -0.43550400049E+02  0.40025680869E+04  0.40023311523E+04 0.  0.
        3    1    3    3  502    0  0.14985829570E+04  0.12663589278E+04 -0.41581355064E+03  0.20055714228E+04  0.10100000352E+00 0.  1.
       -3    1    3    3    0  502 -0.14985829570E+04 -0.12663589278E+04  0.37226315059E+03  0.19969966641E+04  0.10100000352E+00 0. -1.
</event>
<event>
 5   0  0.1785559E-07  0.4123786E+04  0.7818609E-02  0.7980030E-01
        2   -1    0    0  501    0  0.00000000000E+00  0.00000000000E+00  0.31007703744E+04  0.31007703744E+04  0.25500000920E-02 0.  1.
       -2   -1    0    0    0  501  0.00000000000E+00  0.00000000000E+00 -0.13710793474E+04  0.13710793474E+04  0.25500000920E-02 0. -1.
    10030    2    1    2    0    0  0.00000000000E+00  0.00000000000E+00  0.17296910270E+04  0.44718497218E+04  0.41237857468E+04 0.  0.
        2    1    3    3  502    0  0.14209451966E+03 -0.83846084576E+03  0.29017346116E+04  0.30237842514E+04  0.25500000920E-02 0.  1.
       -2    1    3    3    0  502 -0.14209451966E+03  0.83846084576E+03 -0.11720435846E+04  0.14480654704E+04  0.25500000920E-02 0. -1.
</event>
<event>
 5   0  0.1773903E-07  0.3959916E+04  0.7818609E-02  0.8012682E-01
        2   -1    0    0  501    0  0.00000000000E+00  0.00000000000E+00  0.15519869169E+04  0.15519869169E+04  0.25500000920E-02 0.  1.
       -2   -1    0    0    0  501  0.00000000000E+00  0.00000000000E+00 -0.25259448342E+04  0.25259448342E+04  0.25500000920E-02 0. -1.
    10030    2    1    2    0    0  0.00000000000E+00  0.00000000000E+00 -0.97395791725E+03  0.40779317511E+04  0.39599158252E+04 0.  0.
        3    1    3    3  502    0 -0.48211245221E+03 -0.16186830339E+04  0.57709480359E+03  0.17848264911E+04  0.10100000352E+00 0.  1.
       -3    1    3    3    0  502  0.48211245221E+03  0.16186830339E+04 -0.15510527208E+04  0.22931052601E+04  0.10100000352E+00 0. -1.
</event>
<event>
 5   0  0.5515000E-08  0.4067606E+04  0.7818609E-02  0.7991045E-01
        1   -1    0    0  501    0  0.00000000000E+00  0.00000000000E+00  0.14461894463E+04  0.14461894463E+04  0.50400001928E-02 0.  1.
       -1   -1    0    0    0  501  0.00000000000E+00  0.00000000000E+00 -0.28601753940E+04  0.28601753940E+04  0.50400001928E-02 0. -1.
    10030    2    1    2    0    0  0.00000000000E+00  0.00000000000E+00 -0.14139859477E+04  0.43063648403E+04  0.40676064064E+04 0.  0.
        1    1    3    3  502    0  0.12598518237E+04  0.70617926007E+03 -0.22229797038E+04  0.26509535131E+04  0.50400001928E-02 0. -1.
       -1    1    3    3    0  502 -0.12598518237E+04 -0.70617926007E+03  0.80899375604E+03  0.16554113273E+04  0.50400001928E-02 0.  1.
</event>
<event>
 5   0  0.5515000E-08  0.3927014E+04  0.7818609E-02  0.8019434E-01
        1   -1    0    0  501    0  0.00000000000E+00  0.00000000000E+00  0.14138358142E+04  0.14138358142E+04  0.50400001928E-02 0. -1.
       -1   -1    0    0    0  501  0.00000000000E+00  0.00000000000E+00 -0.27268796084E+04  0.27268796084E+04  0.50400001928E-02 0.  1.
    10030    2    1    2    0    0  0.00000000000E+00  0.00000000000E+00 -0.13130437942E+04  0.41407154226E+04  0.39270141590E+04 0.  0.
        2    1    3    3  502    0 -0.44734425896E+03 -0.19078987253E+04 -0.78637220662E+03  0.21115339636E+04  0.25500000920E-02 0.  1.
       -2    1    3    3    0  502  0.44734425896E+03  0.19078987253E+04 -0.52667158761E+03  0.20291814590E+04  0.25500000920E-02 0. -1.
</event>
<event>
 5   0  0.5515000E-08  0.3993919E+04  0.7818609E-02  0.8005774E-01
        1   -1    0    0  501    0  0.00000000000E+00  0.00000000000E+00  0.18148263908E+04  0.18148263908E+04  0.50400001928E-02 0. -1.
       -1   -1    0    0    0  501  0.00000000000E+00  0.00000000000E+00 -0.21973716138E+04  0.21973716138E+04  0.50400001928E-02 0.  1.
    10030    2    1    2    0    0  0.00000000000E+00  0.00000000000E+00 -0.38254522294E+03  0.40121980046E+04  0.39939193758E+04 0.  0.
        1    1    3    3  502    0 -0.19338221004E+04  0.33203755538E+03 -0.56436314392E+03  0.20416715241E+04  0.50400001928E-02 0.  1.
       -1    1    3    3    0  502  0.19338221004E+04 -0.33203755538E+03  0.18181792098E+03  0.19705264805E+04  0.50400001928E-02 0. -1.
</event>
<event>
 5   0  0.1785559E-07  0.4111931E+04  0.7818609E-02  0.7982339E-01
        2   -1    0    0  501    0  0.00000000000E+00  0.00000000000E+00  0.22702263043E+04  0.22702263043E+04  0.25500000920E-02 0. -1.
       -2   -1    0    0    0  501  0.00000000000E+00  0.00000000000E+00 -0.18619266227E+04  0.18619266227E+04  0.25500000920E-02 0.  1.
    10030    2    1    2    0    0  0.00000000000E+00  0.00000000000E+00  0.40829968160E+03  0.41321529270E+04  0.41119313202E+04 0.  0.
        2    1    3    3  502    0  0.75736846837E+03  0.90184123993E+03  0.18976883225E+04  0.22334156775E+04  0.25500000920E-02 0. -1.
       -2    1    3    3    0  502 -0.75736846837E+03 -0.90184123993E+03 -0.14893886409E+04  0.18987372495E+04  0.25500000920E-02 0.  1.
</event>
<event>
 5   0  0.5515000E-08  0.4274211E+04  0.7818609E-02  0.7951404E-01
       -1   -1    0    0    0  501  0.00000000000E+00  0.00000000000E+00  0.18578363419E+04  0.18578363419E+04  0.50400001928E-02 0. -1.
        1   -1    0    0  501    0  0.00000000000E+00  0.00000000000E+00 -0.24583548013E+04  0.24583548013E+04  0.50400001928E-02 0.  1.
    10030    2    1    2    0    0  0.00000000000E+00  0.00000000000E+00 -0.60051845943E+03  0.43161911432E+04  0.42742114553E+04 0.  0.
        5    1    3    3  502    0 -0.13295041986E+04 -0.18256898413E+03 -0.19798102497E+04  0.23917741455E+04  0.46999998093E+01 0.  1.
       -5    1    3    3    0  502  0.13295041986E+04  0.18256898413E+03  0.13792917903E+04  0.19244169977E+04  0.46999998093E+01 0. -1.
</event>
<event>
 5   0  0.5515000E-08  0.3925085E+04  0.7818609E-02  0.8019832E-01
        1   -1    0    0  501    0  0.00000000000E+00  0.00000000000E+00  0.24963762318E+04  0.24963762318E+04  0.50400001928E-02 0.  1.
       -1   -1    0    0    0  501  0.00000000000E+00  0.00000000000E+00 -0.15428655910E+04  0.15428655910E+04  0.50400001928E-02 0. -1.
    10030    2    1    2    0    0  0.00000000000E+00  0.00000000000E+00  0.95351064082E+03  0.40392418228E+04  0.39250849622E+04 0.  0.
        3    1    3    3  502    0  0.14444980927E+04 -0.60240831436E+03 -0.74178714498E+03  0.17319696001E+04  0.10100000352E+00 0. -1.
       -3    1    3    3    0  502 -0.14444980927E+04  0.60240831436E+03  0.16952977858E+04  0.23072722227E+04  0.10100000352E+00 0.  1.
</event>
<event>
 5   0  0.1773903E-07  0.3987600E+04  0.7818609E-02  0.8007053E-01
        2   -1    0    0  501    0  0.00000000000E+00  0.00000000000E+00  0.25085082837E+04  0.25085082837E+04  0.25500000920E-02 0.  1.
       -2   -1    0    0    0  501  0.00000000000E+00  0.00000000000E+00 -0.15847021126E+04  0.15847021126E+04  0.25500000920E-02 0. -1.
    10030    2    1    2    0    0  0.00000000000E+00  0.00000000000E+00  0.92380617103E+03  0.40932103963E+04  0.39875999683E+04 0.  0.
        3    1    3    3  502    0 -0.16909399214E+04 -0.72362524712E+03  0.12519143211E+04  0.22249046707E+04  0.10100000352E+00 0.  1.
       -3    1    3    3    0  502  0.16909399214E+04  0.72362524712E+03 -0.32810815012E+03  0.18683057256E+04  0.10100000352E+00 0. -1.
</event>
<event>
 5   0  0.1773903E-07  0.4021370E+04  0.7818609E-02  0.8000249E-01
        2   -1    0    0  501    0  0.00000000000E+00  0.00000000000E+00  0.14827519617E+04  0.14827519617E+04  0.25500000920E-02 0.  1.
       -2   -1    0    0    0  501  0.00000000000E+00  0.00000000000E+00 -0.27265884828E+04  0.27265884828E+04  0.25500000920E-02 0. -1.
    10030    2    1    2    0    0  0.00000000000E+00  0.00000000000E+00 -0.12438365210E+04  0.42093404445E+04  0.40213701255E+04 0.  0.
        3    1    3    3  502    0  0.98821938771E+03 -0.99292755444E+02  0.12080618317E+04  0.15639213564E+04  0.10100000352E+00 0.  1.
       -3    1    3    3    0  502 -0.98821938771E+03  0.99292755444E+02 -0.24518983527E+04  0.26454190881E+04  0.10100000352E+00 0. -1.
</event>
<event>
 5   0  0.5515000E-08  0.4154753E+04  0.7818609E-02  0.7974035E-01
       -1   -1    0    0    0  501  0.00000000000E+00  0.00000000000E+00  0.23459467684E+04  0.23459467684E+04  0.50400001928E-02 0. -1.
        1   -1    0    0  501    0  0.00000000000E+00  0.00000000000E+00 -0.18395532811E+04  0.18395532811E+04  0.50400001928E-02 0.  1.
    10030    2    1    2    0    0  0.00000000000E+00  0.00000000000E+00  0.50639348732E+03  0.41855000496E+04  0.41547534585E+04 0.  0.
        1    1    3    3  502    0  0.19630237895E+04  0.21881377117E+03  0.90150579541E+03  0.21711873627E+04  0.50400001928E-02 0. -1.
       -1    1    3    3    0  502 -0.19630237895E+04 -0.21881377117E+03 -0.39511230809E+03  0.20143126869E+04  0.50400001928E-02 0.  1.
</event>
<event>
 5   0  0.1819906E-07  0.4008135E+04  0.7818609E-02  0.8002908E-01
       -2   -1    0    0    0  501  0.00000000000E+00  0.00000000000E+00  0.13720977918E+04  0.13720977918E+04  0.25500000920E-02 0.  1.
        2   -1    0    0  501    0  0.00000000000E+00  0.00000000000E+00 -0.29271133021E+04  0.29271133021E+04  0.25500000920E-02 0. -1.
    10030    2    1    2    0    0  0.00000000000E+00  0.00000000000E+00 -0.15550155103E+04  0.42992110939E+04  0.40081345777E+04 0.  0.
        1    1    3    3  502    0  0.76900203737E+03 -0.57970992195E+03 -0.26626557239E+04  0.28314595585E+04  0.50400001928E-02 0. -1.
       -1    1    3    3    0  502 -0.76900203737E+03  0.57970992195E+03  0.11076402136E+04  0.14677515355E+04  0.50400001928E-02 0.  1.
</event>
<event>
 5   0  0.5515000E-08  0.4011639E+04  0.7818609E-02  0.8002203E-01
       -1   -1    0    0    0  501  0.00000000000E+00  0.00000000000E+00  0.25808379596E+04  0.25808379596E+04  0.50400001928E-02 0.  1.
        1   -1    0    0  501    0  0.00000000000E+00  0.00000000000E+00 -0.15589170133E+04  0.15589170134E+04  0.50400001928E-02 0. -1.
    10030    2    1    2    0    0  0.00000000000E+00  0.00000000000E+00  0.10219209462E+04  0.41397549729E+04  0.40116391682E+04 0.  0.
        4    1    3    3  502    0 -0.31826588098E+03 -0.11884364931E+04 -0.11238151453E+04  0.16663242671E+04  0.12699999809E+01 0. -1.
       -4    1    3    3    0  502  0.31826588098E+03  0.11884364931E+04  0.21457360916E+04  0.24734307059E+04  0.12699999809E+01 0.  1.
</event>
<event>
 5   0  0.5515000E-08  0.4013310E+04  0.7818609E-02  0.8001867E-01
        1   -1    0    0  501    0  0.00000000000E+00  0.00000000000E+00  0.20870609556E+04  0.20870609556E+04  0.50400001928E-02 0. -1.
       -1   -1    0    0    0  501  0.00000000000E+00  0.00000000000E+00 -0.19293472147E+04  0.19293472147E+04  0.50400001928E-02 0.  1.
    10030    2    1    2    0    0  0.00000000000E+00  0.00000000000E+00  0.15771374090E+03  0.40164081703E+04  0.40133104747E+04 0.  0.
        1    1    3    3  502    0  0.49377903273E+03  0.25263417976E+03 -0.18511086195E+04  0.19324194377E+04  0.50400001928E-02 0.  1.
       -1    1    3    3    0  502 -0.49377903273E+03 -0.25263417976E+03  0.20088223604E+04  0.20839887326E+04  0.50400001928E-02 0. -1.
</event>
<event>
 5   0  0.5515000E-08  0.4149881E+04  0.7818609E-02  0.7974975E-01
        1   -1    0    0  501    0  0.00000000000E+00  0.00000000000E+00  0.22982033368E+04  0.22982033368E+04  0.50400001928E-02 0. -1.
       -1   -1    0    0    0  501  0.00000000000E+00  0.00000000000E+00 -0.18733665252E+04  0.18733665252E+04  0.50400001928E-02 0.  1.
    10030    2    1    2    0    0  0.00000000000E+00  0.00000000000E+00  0.42483681163E+03  0.41715698620E+04  0.41498805763E+04 0.  0.
        2    1    3    3  502    0 -0.25496948594E+03  0.44635671925E+03  0.22331820409E+04  0.22915815036E+04  0.25500000920E-02 0. -1.
       -2    1    3    3    0  502  0.25496948594E+03 -0.44635671925E+03 -0.18083452293E+04  0.18799883585E+04  0.25500000920E-02 0.  1.
</event>
<event>
 5   0  0.1773903E-07  0.4010466E+04  0.7818609E-02  0.8002439E-01
       -2   -1    0    0    0  501  0.00000000000E+00  0.00000000000E+00  0.20654643157E+04  0.20654643157E+04  0.25500000920E-02 0.  1.
        2   -1    0    0  501    0  0.00000000000E+00  0.00000000000E+00 -0.19467582784E+04  0.19467582784E+04  0.25500000920E-02 0. -1.
    10030    2    1    2    0    0  0.00000000000E+00  0.00000000000E+00  0.11870603727E+03  0.40122225941E+04  0.40104661850E+04 0.  0.
        3    1    3    3  502    0  0.10265148875E+04  0.17079252964E+04  0.28354514392E+03  0.20127442687E+04  0.10100000352E+00 0.  1.
       -3    1    3    3    0  502 -0.10265148875E+04 -0.17079252964E+04 -0.16483910665E+03  0.19994783254E+04  0.10100000352E+00 0. -1.
</event>
<event>
 5   0  0.5515000E-08  0.4406952E+04  0.7818609E-02  0.7927132E-01
       -1   -1    0    0    0  501  0.00000000000E+00  0.00000000000E+00  0.17736600271E+04  0.17736600271E+04  0.50400001928E-02 0. -1.
        1   -1    0    0  501    0  0.00000000000E+00  0.00000000000E+00 -0.27374501141E+04  0.27374501141E+04  0.50400001928E-02 0.  1.
    10030    2    1    2    0    0  0.00000000000E+00  0.00000000000E+00 -0.96379008696E+03  0.45111101412E+04  0.44069517100E+04 0.  0.
        4    1    3    3  502    0 -0.17522548451E+04  0.12079173106E+04 -0.10662131035E+04  0.23803935109E+04  0.12699999809E+01 0.  1.
       -4    1    3    3    0  502  0.17522548451E+04 -0.12079173106E+04  0.10242301656E+03  0.21307166303E+04  0.12699999809E+01 0. -1.
</event>
<event>
 5   0  0.5515000E-08  0.4024210E+04  0.7818609E-02  0.7999680E-01
        1   -1    0    0  501    0  0.00000000000E+00  0.00000000000E+00  0.17240782162E+04  0.17240782162E+04  0.50400001928E-02 0.  1.
       -1   -1    0    0    0  501  0.00000000000E+00  0.00000000000E+00 -0.23482494814E+04  0.23482494814E+04  0.50400001928E-02 0. -1.
    10030    2    1    2    0    0  0.00000000000E+00  0.00000000000E+00 -0.62417126523E+03  0.40723276976E+04  0.40242096253E+04 0.  0.
        2    1    3    3  502    0 -0.10318023278E+04  0.98250965153E+03 -0.17498572119E+04  0.22565330755E+04  0.25500000920E-02 0. -1.
       -2    1    3    3    0  502  0.10318023278E+04 -0.98250965153E+03  0.11256859466E+04  0.18157946221E+04  0.25500000920E-02 0.  1.
</event>
<event>
 5   0  0.1785559E-07  0.3996480E+04  0.7818609E-02  0.8005257E-01
        2   -1    0    0  501    0  0.00000000000E+00  0.00000000000E+00  0.17873389118E+04  0.17873389118E+04  0.25500000920E-02 0.  1.
       -2   -1    0    0    0  501  0.00000000000E+00  0.00000000000E+00 -0.22340266472E+04  0.22340266472E+04  0.25500000920E-02 0. -1.
    10030    2    1    2    0    0  0.00000000000E+00  0.00000000000E+00 -0.44668773541E+03  0.40213655591E+04  0.39964798294E+04 0.  0.
        2    1    3    3  502    0 -0.19501685645E+04 -0.32716506078E+03  0.66142473453E+02  0.19785270364E+04  0.25500000920E-02 0. -1.
       -2    1    3    3    0  502  0.19501685645E+04  0.32716506078E+03 -0.51283020886E+03  0.20428385227E+04  0.25500000920E-02 0.  1.
</event>
<event>
 5   0  0.5515000E-08  0.3780607E+04  0.7818609E-02  0.8050329E-01
        1   -1    0    0  501    0  0.00000000000E+00  0.00000000000E+00  0.18614914600E+04  0.18614914600E+04  0.50400001928E-02 0.  1.
       -1   -1    0    0    0  501  0.00000000000E+00  0.00000000000E+00 -0.19195618767E+04  0.19195618767E+04  0.50400001928E-02 0. -1.
    10030    2    1    2    0    0  0.00000000000E+00  0.00000000000E+00 -0.58070416746E+02  0.37810533367E+04  0.37806073800E+04 0.  0.
        3    1    3    3  502    0  0.42255361187E+02  0.16826328926E+04  0.83142031196E+03  0.18773115650E+04  0.10100000352E+00 0.  1.
       -3    1    3    3    0  502 -0.42255361187E+02 -0.16826328926E+04 -0.88949072871E+03  0.19037417717E+04  0.10100000352E+00 0. -1.
</event>
<event>
 5   0  0.1821433E-07  0.3842176E+04  0.7818609E-02  0.8037164E-01
        2   -1    0    0  501    0  0.00000000000E+00  0.00000000000E+00  0.23941017930E+04  0.23941017930E+04  0.25500000920E-02 0. -1.
       -2   -1    0    0    0  501  0.00000000000E+00  0.00000000000E+00 -0.15415299969E+04  0.15415299969E+04  0.25500000920E-02 0.  1.
    10030    2    1    2    0    0  0.00000000000E+00  0.00000000000E+00  0.85257179606E+03  0.39356317899E+04  0.38421763257E+04 0.  0.
        5    1    3    3  502    0  0.65786133123E+03  0.11277837749E+04 -0.10172036862E+04  0.16551142569E+04  0.46999998093E+01 0.  1.
       -5    1    3    3    0  502 -0.65786133123E+03 -0.11277837749E+04  0.18697754823E+04  0.22805175330E+04  0.46999998093E+01 0. -1.
</event>
<event>
 5   0  0.5515000E-08  0.3939805E+04  0.7818609E-02  0.8016801E-01
       -1   -1    0    0    0  501  0.00000000000E+00  0.00000000000E+00  0.29294663740E+04  0.29294663740E+04  0.50400001928E-02 0. -1.
        1   -1    0    0  501    0  0.00000000000E+00  0.00000000000E+00 -0.13246492563E+04  0.13246492563E+04  0.50400001928E-02 0.  1.
    10030    2    1    2    0    0  0.00000000000E+00  0.00000000000E+00  0.16048171178E+04  0.42541156303E+04  0.39398047940E+04 0.  0.
        3    1    3    3  502    0 -0.13435248512E+04 -0.13912651904E+03  0.23507143089E+04  0.27111386882E+04  0.10100000352E+00 0. -1.
       -3    1    3    3    0  502  0.13435248512E+04  0.13912651904E+03 -0.74589719113E+03  0.15429769422E+04  0.10100000352E+00 0.  1.
</event>
<event>
 5   0  0.1785559E-07  0.3942120E+04  0.7818609E-02  0.8016326E-01
        2   -1    0    0  501    0  0.00000000000E+00  0.00000000000E+00  0.19406407863E+04  0.19406407863E+04  0.25500000920E-02 0. -1.
       -2   -1    0    0    0  501  0.00000000000E+00  0.00000000000E+00 -0.20019558831E+04  0.20019558831E+04  0.25500000920E-02 0.  1.
    10030    2    1    2    0    0  0.00000000000E+00  0.00000000000E+00 -0.61315096777E+02  0.39425966693E+04  0.39421198556E+04 0.  0.
        2    1    3    3  502    0 -0.79739936089E+03  0.17227334532E+04 -0.56121294540E+03  0.19795495098E+04  0.25500000920E-02 0. -1.
       -2    1    3    3    0  502  0.79739936089E+03 -0.17227334532E+04  0.49989784862E+03  0.19630471596E+04  0.25500000920E-02 0.  1.
</event>
<event>
 5   0  0.1785559E-07  0.3982288E+04  0.7818609E-02  0.8008129E-01
       -2   -1    0    0    0  501  0.00000000000E+00  0.00000000000E+00  0.22452864694E+04  0.22452864694E+04  0.25500000920E-02 0. -1.
        2   -1    0    0  501    0  0.00000000000E+00  0.00000000000E+00 -0.17657679994E+04  0.17657679994E+04  0.25500000920E-02 0.  1.
    10030    2    1    2    0    0  0.00000000000E+00  0.00000000000E+00  0.47951847001E+03  0.40110544688E+04  0.39822882855E+04 0.  0.
        2    1    3    3  502    0 -0.15328110763E+04  0.64640043340E+03  0.13418807313E+04  0.21372850098E+04  0.25500000920E-02 0. -1.
       -2    1    3    3    0  502  0.15328110763E+04 -0.64640043340E+03 -0.86236226129E+03  0.18737694590E+04  0.25500000920E-02 0.  1.
</event>
<event>
 5   0  0.5515000E-08  0.4022638E+04  0.7818609E-02  0.7999995E-01
       -1   -1    0    0    0  501  0.00000000000E+00  0.00000000000E+00  0.29711647150E+04  0.29711647150E+04  0.50400001928E-02 0.  1.
        1   -1    0    0  501    0  0.00000000000E+00  0.00000000000E+00 -0.13615548776E+04  0.13615548776E+04  0.50400001928E-02 0. -1.
    10030    2    1    2    0    0  0.00000000000E+00  0.00000000000E+00  0.16096098374E+04  0.43327195926E+04  0.40226378459E+04 0.  0.
        1    1    3    3  502    0 -0.91410689846E+03 -0.83612389845E+03 -0.90185840683E+03  0.15323325949E+04  0.50400001928E-02 0. -1.
       -1    1    3    3    0  502  0.91410689846E+03  0.83612389845E+03  0.25114682442E+04  0.28003869977E+04  0.50400001928E-02 0.  1.
</event>
<event>
 5   0  0.1773903E-07  0.3331879E+04  0.7818609E-02  0.8154831E-01
       -2   -1    0    0    0  501  0.00000000000E+00  0.00000000000E+00  0.16959618970E+04  0.16959618970E+04  0.25500000920E-02 0. -1.
        2   -1    0    0  501    0  0.00000000000E+00  0.00000000000E+00 -0.16364485424E+04  0.16364485424E+04  0.25500000920E-02 0.  1.
    10030    2    1    2    0    0  0.00000000000E+00  0.00000000000E+00  0.59513354589E+02  0.33324104393E+04  0.33318789739E+04 0.  0.
        3    1    3    3  502    0 -0.29545508654E+03 -0.16219079668E+04 -0.21002142910E+03  0.16619230342E+04  0.10100000352E+00 0.  1.
       -3    1    3    3    0  502  0.29545508654E+03  0.16219079668E+04  0.26953478369E+03  0.16704874051E+04  0.10100000352E+00 0. -1.
</event>
<event>
 5   0  0.1785559E-07  0.3979926E+04  0.7818609E-02  0.8008608E-01
        2   -1    0    0  501    0  0.00000000000E+00  0.00000000000E+00  0.26691882913E+04  0.26691882914E+04  0.25500000920E-02 0.  1.
       -2   -1    0    0    0  501  0.00000000000E+00  0.00000000000E+00 -0.14835793996E+04  0.14835793996E+04  0.25500000920E-02 0. -1.
    10030    2    1    2    0    0  0.00000000000E+00  0.00000000000E+00  0.11856088917E+04  0.41527676910E+04  0.39799260108E+04 0.  0.
        2    1    3    3  502    0  0.66818119700E+03  0.11998883922E+04  0.20953972652E+04  0.25053718217E+04  0.25500000920E-02 0.  1.
       -2    1    3    3    0  502 -0.66818119700E+03 -0.11998883922E+04 -0.90978837351E+03  0.16473958693E+04  0.25500000920E-02 0. -1.
</event>
<event>
 5   0  0.5515000E-08  0.3999486E+04  0.7818609E-02  0.8004650E-01
        1   -1    0    0  501    0  0.00000000000E+00  0.00000000000E+00  0.32563303454E+04  0.32563303454E+04  0.50400001928E-02 0.  1.
       -1   -1    0    0    0  501  0.00000000000E+00  0.00000000000E+00 -0.12280609267E+04  0.12280609268E+04  0.50400001928E-02 0. -1.
    10030    2    1    2    0    0  0.00000000000E+00  0.00000000000E+00  0.20282694187E+04  0.44843912722E+04  0.39994859979E+04 0.  0.
        5    1    3    3  502    0  0.83595997510E+03 -0.61025019324E+03 -0.90437393736E+03  0.13744630540E+04  0.46999998093E+01 0. -1.
       -5    1    3    3    0  502 -0.83595997510E+03  0.61025019324E+03  0.29326433560E+04  0.31099282182E+04  0.46999998093E+01 0.  1.
</event>
<event>
 5   0  0.5515000E-08  0.3746813E+04  0.7818609E-02  0.8057666E-01
       -1   -1    0    0    0  501  0.00000000000E+00  0.00000000000E+00  0.20683173178E+04  0.20683173178E+04  0.50400001928E-02 0.  1.
        1   -1    0    0  501    0  0.00000000000E+00  0.00000000000E+00 -0.16968630883E+04  0.16968630883E+04  0.50400001928E-02 0. -1.
    10030    2    1    2    0    0  0.00000000000E+00  0.00000000000E+00  0.37145422949E+03  0.37651804062E+04  0.37468126783E+04 0.  0.
        5    1    3    3  502    0  0.13242297100E+04 -0.11123875551E+04 -0.53796913272E+03  0.18111938813E+04  0.46999998093E+01 0.  1.
       -5    1    3    3    0  502 -0.13242297100E+04  0.11123875551E+04  0.90942336221E+03  0.19539865249E+04  0.46999998093E+01 0. -1.
</event>
<event>
 5   0  0.5515000E-08  0.3395556E+04  0.7818609E-02  0.8138998E-01
        1   -1    0    0  501    0  0.00000000000E+00  0.00000000000E+00  0.16925836746E+04  0.16925836746E+04  0.50400001928E-02 0.  1.
       -1   -1    0    0    0  501  0.00000000000E+00  0.00000000000E+00 -0.17029878840E+04  0.17029878840E+04  0.50400001928E-02 0. -1.
    10030    2    1    2    0    0  0.00000000000E+00  0.00000000000E+00 -0.10404209402E+02  0.33955715586E+04  0.33955556191E+04 0.  0.
        4    1    3    3  502    0  0.14561183287E+02  0.11461412270E+04  0.12472398557E+04  0.16939482314E+04  0.12699999809E+01 0.  1.
       -4    1    3    3    0  502 -0.14561183287E+02 -0.11461412270E+04 -0.12576440651E+04  0.17016233272E+04  0.12699999809E+01 0. -1.
</event>
<event>
 5   0  0.1773903E-07  0.4026968E+04  0.7818609E-02  0.7999128E-01
        2   -1    0    0  501    0  0.00000000000E+00  0.00000000000E+00  0.24636509941E+04  0.24636509941E+04  0.25500000920E-02 0. -1.
       -2   -1    0    0    0  501  0.00000000000E+00  0.00000000000E+00 -0.16455731044E+04  0.16455731044E+04  0.25500000920E-02 0.  1.
    10030    2    1    2    0    0  0.00000000000E+00  0.00000000000E+00  0.81807788967E+03  0.41092240985E+04  0.40269679981E+04 0.  0.
        3    1    3    3  502    0 -0.10998210470E+04  0.15502062434E+04 -0.26888983720E+03  0.19196477508E+04  0.10100000352E+00 0.  1.
       -3    1    3    3    0  502  0.10998210470E+04 -0.15502062434E+04  0.10869677269E+04  0.21895763476E+04  0.10100000352E+00 0. -1.
</event>
<event>
 5   0  0.1785559E-07  0.3985072E+04  0.7818609E-02  0.8007565E-01
       -2   -1    0    0    0  501  0.00000000000E+00  0.00000000000E+00  0.15667411116E+04  0.15667411116E+04  0.25500000920E-02 0. -1.
        2   -1    0    0  501    0  0.00000000000E+00  0.00000000000E+00 -0.25340495034E+04  0.25340495034E+04  0.25500000920E-02 0.  1.
    10030    2    1    2    0    0  0.00000000000E+00  0.00000000000E+00 -0.96730839183E+03  0.41007906150E+04  0.39850719119E+04 0.  0.
        2    1    3    3  502    0  0.88324100850E+03  0.26950470539E+03 -0.23005554500E+04  0.24789721346E+04  0.25500000920E-02 0.  1.
       -2    1    3    3    0  502 -0.88324100850E+03 -0.26950470539E+03  0.13332470582E+04  0.16218184804E+04  0.25500000920E-02 0. -1.
</event>
<event>
 5   0  0.1776653E-07  0.4027389E+04  0.7818609E-02  0.7999044E-01
       -2   -1    0    0    0  501  0.00000000000E+00  0.00000000000E+00  0.27083405484E+04  0.27083405484E+04  0.25500000920E-02 0.  1.
        2   -1    0    0  501    0  0.00000000000E+00  0.00000000000E+00 -0.14972139309E+04  0.14972139309E+04  0.25500000920E-02 0. -1.
    10030    2    1    2    0    0  0.00000000000E+00  0.00000000000E+00  0.12111266175E+04  0.42055544794E+04  0.40273888309E+04 0.  0.
        4    1    3    3  502    0  0.87407691131E+03 -0.17573744321E+04  0.13555360701E+03  0.19674226121E+04  0.12699999809E+01 0.  1.
       -4    1    3    3    0  502 -0.87407691131E+03  0.17573744321E+04  0.10755730105E+04  0.22381318673E+04  0.12699999809E+01 0. -1.
</event>
<event>
 5   0  0.5515000E-08  0.4065868E+04  0.7818609E-02  0.7991389E-01
       -1   -1    0    0    0  501  0.00000000000E+00  0.00000000000E+00  0.19880957193E+04  0.19880957193E+04  0.50400001928E-02 0. -1.
        1   -1    0    0  501    0  0.00000000000E+00  0.00000000000E+00 -0.20787832390E+04  0.20787832390E+04  0.50400001928E-02 0.  1.
    10030    2    1    2    0    0  0.00000000000E+00  0.00000000000E+00 -0.90687519748E+02  0.40668789583E+04  0.40658677100E+04 0.  0.
        2    1    3    3  502    0  0.98867295964E+03  0.10164144091E+03 -0.18192038118E+04  0.20729948655E+04  0.25500000920E-02 0.  1.
       -2    1    3    3    0  502 -0.98867295964E+03 -0.10164144091E+03  0.17285162920E+04  0.19938840928E+04  0.25500000920E-02 0. -1.
</event>
<event>
 5   0  0.1773903E-07  0.3838379E+04  0.7818609E-02  0.8037969E-01
        2   -1    0    0  501    0  0.00000000000E+00  0.00000000000E+00  0.22819231068E+04  0.22819231068E+04  0.25500000920E-02 0.  1.
       -2   -1    0    0    0  501  0.00000000000E+00  0.00000000000E+00 -0.16141160878E+04  0.16141160878E+04  0.25500000920E-02 0. -1.
    10030    2    1    2    0    0  0.00000000000E+00  0.00000000000E+00  0.66780701902E+03  0.38960391946E+04  0.38383792401E+04 0.  0.
        3    1    3    3  502    0  0.15291619763E+01 -0.20820398885E+03 -0.16026183412E+04  0.16160868780E+04  0.10100000352E+00 0. -1.
       -3    1    3    3    0  502 -0.15291619763E+01  0.20820398885E+03  0.22704253603E+04  0.22799523166E+04  0.10100000352E+00 0.  1.
</event>
<event>
 5   0  0.1785559E-07  0.3949392E+04  0.7818609E-02  0.8014834E-01
        2   -1    0    0  501    0  0.00000000000E+00  0.00000000000E+00  0.27596629769E+04  0.27596629769E+04  0.25500000920E-02 0. -1.
       -2   -1    0    0    0  501  0.00000000000E+00  0.00000000000E+00 -0.14130071703E+04  0.14130071703E+04  0.25500000920E-02 0.  1.
    10030    2    1    2    0    0  0.00000000000E+00  0.00000000000E+00  0.13466558066E+04  0.41726701472E+04  0.39493916362E+04 0.  0.
        2    1    3    3  502    0  0.10898076751E+04  0.38750596231E+03 -0.10176501790E+04  0.15406016768E+04  0.25500000920E-02 0.  1.
       -2    1    3    3    0  502 -0.10898076751E+04 -0.38750596231E+03  0.23643059856E+04  0.26320684705E+04  0.25500000920E-02 0. -1.
</event>
<event>
 5   0  0.5515000E-08  0.4076818E+04  0.7818609E-02  0.7989227E-01
       -1   -1    0    0    0  501  0.00000000000E+00  0.00000000000E+00  0.32601355842E+04  0.32601355842E+04  0.50400001928E-02 0. -1.
        1   -1    0    0  501    0  0.00000000000E+00  0.00000000000E+00 -0.12745209725E+04  0.12745209725E+04  0.50400001928E-02 0.  1.
    10030    2    1    2    0    0  0.00000000000E+00  0.00000000000E+00  0.19856146117E+04  0.45346565567E+04  0.40768179627E+04 0.  0.
        1    1    3    3  502    0 -0.40662312117E+03  0.14215538259E+04  0.25535841525E+04  0.29507540843E+04  0.50400001928E-02 0. -1.
       -1    1    3    3    0  502  0.40662312117E+03 -0.14215538259E+04 -0.56796954077E+03  0.15839024723E+04  0.50400001928E-02 0.  1.
</event>
<event>
 5   0  0.5515000E-08  0.3964295E+04  0.7818609E-02  0.8011788E-01
        1   -1    0    0  501    0  0.00000000000E+00  0.00000000000E+00  0.28661650152E+04  0.28661650152E+04  0.50400001928E-02 0. -1.
       -1   -1    0    0    0  501  0.00000000000E+00  0.00000000000E+00 -0.13707895044E+04  0.13707895044E+04  0.50400001928E-02 0.  1.
    10030    2    1    2    0    0  0.00000000000E+00  0.00000000000E+00  0.14953755107E+04  0.42369545196E+04  0.39642951055E+04 0.  0.
        5    1    3    3  502    0 -0.97791217151E+03  0.17230113965E+04  0.81362666872E+03  0.21417495031E+04  0.46999998093E+01 0. -1.
       -5    1    3    3    0  502  0.97791217151E+03 -0.17230113965E+04  0.68174884203E+03  0.20952050166E+04  0.46999998093E+01 0.  1.
</event>
<event>
 5   0  0.5515000E-08  0.3998538E+04  0.7818609E-02  0.8004841E-01
       -1   -1    0    0    0  501  0.00000000000E+00  0.00000000000E+00  0.13372733190E+04  0.13372733190E+04  0.50400001928E-02 0. -1.
        1   -1    0    0  501    0  0.00000000000E+00  0.00000000000E+00 -0.29889757406E+04  0.29889757406E+04  0.50400001928E-02 0.  1.
    10030    2    1    2    0    0  0.00000000000E+00  0.00000000000E+00 -0.16517024216E+04  0.43262490596E+04  0.39985384875E+04 0.  0.
        4    1    3    3  502    0  0.14771296454E+04 -0.33788139520E+03  0.58526377159E+03  0.16243802270E+04  0.12699999809E+01 0. -1.
       -4    1    3    3    0  502 -0.14771296454E+04  0.33788139520E+03 -0.22369661931E+04  0.27018688326E+04  0.12699999809E+01 0.  1.
</event>
<event>
 5   0  0.5515000E-08  0.3791404E+04  0.7818609E-02  0.8048002E-01
       -1   -1    0    0    0  501  0.00000000000E+00  0.00000000000E+00  0.26882599730E+04  0.26882599730E+04  0.50400001928E-02 0. -1.
        1   -1    0    0  501    0  0.00000000000E+00  0.00000000000E+00 -0.13368072141E+04  0.13368072141E+04  0.50400001928E-02 0.  1.
    10030    2    1    2    0    0  0.00000000000E+00  0.00000000000E+00  0.13514527589E+04  0.40250671871E+04  0.37914036057E+04 0.  0.
        3    1    3    3  502    0  0.89589849494E+03  0.67119328773E+03 -0.94844610442E+03  0.14672029737E+04  0.10100000352E+00 0.  1.
       -3    1    3    3    0  502 -0.89589849494E+03 -0.67119328773E+03  0.22998988633E+04  0.25578642135E+04  0.10100000352E+00 0. -1.
</event>
<event>
 5   0  0.1773903E-07  0.3986684E+04  0.7818609E-02  0.8007238E-01
       -2   -1    0    0    0  501  0.00000000000E+00  0.00000000000E+00  0.17103879740E+04  0.17103879740E+04  0.25500000920E-02 0.  1.
        2   -1    0    0  501    0  0.00000000000E+00  0.00000000000E+00 -0.23231056456E+04  0.23231056456E+04  0.25500000920E-02 0. -1.
    10030    2    1    2    0    0  0.00000000000E+00  0.00000000000E+00 -0.61271767157E+03  0.40334936196E+04  0.39866838142E+04 0.  0.
        3    1    3    3  502    0  0.20356998374E+03 -0.19697375553E+04 -0.75413069697E+02  0.19816644308E+04  0.10100000352E+00 0.  1.
       -3    1    3    3    0  502 -0.20356998374E+03  0.19697375553E+04 -0.53730460187E+03  0.20518291889E+04  0.10100000352E+00 0. -1.
</event>
<event>
 5   0  0.5515000E-08  0.3934148E+04  0.7818609E-02  0.8017964E-01
        1   -1    0    0  501    0  0.00000000000E+00  0.00000000000E+00  0.13885788990E+04  0.13885788990E+04  0.50400001928E-02 0. -1.
       -1   -1    0    0    0  501  0.00000000000E+00  0.00000000000E+00 -0.27865754583E+04  0.27865754583E+04  0.50400001928E-02 0.  1.
    10030    2    1    2    0    0  0.00000000000E+00  0.00000000000E+00 -0.13979965594E+04  0.41751543573E+04  0.39341478782E+04 0.  0.
        4    1    3    3  502    0 -0.48983506403E+03 -0.19012899398E+04 -0.57104514031E+03  0.20447337211E+04  0.12699999809E+01 0.  1.
       -4    1    3    3    0  502  0.48983506403E+03  0.19012899398E+04 -0.82695141906E+03  0.21304206362E+04  0.12699999809E+01 0. -1.
</event>
<event>
 5   0  0.1819906E-07  0.4008307E+04  0.7818609E-02  0.8002873E-01
        2   -1    0    0  501    0  0.00000000000E+00  0.00000000000E+00  0.15225241759E+04  0.15225241759E+04  0.25500000920E-02 0.  1.
       -2   -1    0    0    0  501  0.00000000000E+00  0.00000000000E+00 -0.26381393086E+04  0.26381393086E+04  0.25500000920E-02 0. -1.
    10030    2    1    2    0    0  0.00000000000E+00  0.00000000000E+00 -0.11156151326E+04  0.41606634845E+04  0.40083068130E+04 0.  0.
        1    1    3    3  502    0  0.11325563533E+04 -0.15490864017E+04 -0.11579519262E+04  0.22412508197E+04  0.50400001928E-02 0.  1.
       -1    1    3    3    0  502 -0.11325563533E+04  0.15490864017E+04  0.42336793588E+02  0.19194126648E+04  0.50400001928E-02 0. -1.
</event>
<event>
 5   0  0.5515000E-08  0.4046781E+04  0.7818609E-02  0.7995175E-01
        1   -1    0    0  501    0  0.00000000000E+00  0.00000000000E+00  0.23579318757E+04  0.23579318757E+04  0.50400001928E-02 0.  1.
       -1   -1    0    0    0  501  0.00000000000E+00  0.00000000000E+00 -0.17363134076E+04  0.17363134076E+04  0.50400001928E-02 0. -1.
    10030    2    1    2    0    0  0.00000000000E+00  0.00000000000E+00  0.62161846815E+03  0.40942452833E+04  0.40467808095E+04 0.  0.
        2    1    3    3  502    0  0.63164808965E+03  0.14394720989E+04  0.15997413880E+04  0.22428178127E+04  0.25500000920E-02 0.  1.
       -2    1    3    3    0  502 -0.63164808965E+03 -0.14394720989E+04 -0.97812291982E+03  0.18514274706E+04  0.25500000920E-02 0. -1.
</event>
<event>
 5   0  0.5515000E-08  0.3954386E+04  0.7818609E-02  0.8013812E-01
        1   -1    0    0  501    0  0.00000000000E+00  0.00000000000E+00  0.14737702637E+04  0.14737702637E+04  0.50400001928E-02 0.  1.
       -1   -1    0    0    0  501  0.00000000000E+00  0.00000000000E+00 -0.26525793061E+04  0.26525793061E+04  0.50400001928E-02 0. -1.
    10030    2    1    2    0    0  0.00000000000E+00  0.00000000000E+00 -0.11788090424E+04  0.41263495698E+04  0.39543861741E+04 0.  0.
        5    1    3    3  502    0  0.51045704595E+03  0.15581741458E+04 -0.17423498838E+04  0.23925463992E+04  0.46999998093E+01 0. -1.
       -5    1    3    3    0  502 -0.51045704595E+03 -0.15581741458E+04  0.56354084147E+03  0.17338031706E+04  0.46999998093E+01 0.  1.
</event>
<event>
 5   0  0.1819906E-07  0.3686929E+04  0.7818609E-02  0.8070865E-01
        2   -1    0    0  501    0  0.00000000000E+00  0.00000000000E+00  0.19428344864E+04  0.19428344864E+04  0.25500000920E-02 0.  1.
       -2   -1    0    0    0  501  0.00000000000E+00  0.00000000000E+00 -0.17491770748E+04  0.17491770748E+04  0.25500000920E-02 0. -1.
    10030    2    1    2    0    0  0.00000000000E+00  0.00000000000E+00  0.19365741163E+03  0.36920115612E+04  0.36869290981E+04 0.  0.
        1    1    3    3  502    0  0.18182271959E+04 -0.22804579717E+03  0.29811954149E+03  0.18565641067E+04  0.50400001928E-02 0.  1.
       -1    1    3    3    0  502 -0.18182271959E+04  0.22804579717E+03 -0.10446212985E+03  0.18354474544E+04  0.50400001928E-02 0. -1.
</event>
<event>
 5   0  0.5515000E-08  0.4009890E+04  0.7818609E-02  0.8002554E-01
       -1   -1    0    0    0  501  0.00000000000E+00  0.00000000000E+00  0.24059178183E+04  0.24059178183E+04  0.50400001928E-02 0. -1.
        1   -1    0    0  501    0  0.00000000000E+00  0.00000000000E+00 -0.16707984081E+04  0.16707984081E+04  0.50400001928E-02 0.  1.
    10030    2    1    2    0    0  0.00000000000E+00  0.00000000000E+00  0.73511941013E+03  0.40767162264E+04  0.40098896049E+04 0.  0.
        4    1    3    3  502    0 -0.32074034597E+03  0.51971548026E+03  0.23090509563E+04  0.23884506446E+04  0.12699999809E+01 0. -1.
       -4    1    3    3    0  502  0.32074034597E+03 -0.51971548026E+03 -0.15739315461E+04  0.16882655818E+04  0.12699999809E+01 0.  1.
</event>
<event>
 5   0  0.1785559E-07  0.4034959E+04  0.7818609E-02  0.7997531E-01
       -2   -1    0    0    0  501  0.00000000000E+00  0.00000000000E+00  0.12318448874E+04  0.12318448874E+04  0.25500000920E-02 0.  1.
        2   -1    0    0  501    0  0.00000000000E+00  0.00000000000E+00 -0.33041680580E+04  0.33041680580E+04  0.25500000920E-02 0. -1.
    10030    2    1    2    0    0  0.00000000000E+00  0.00000000000E+00 -0.20723231705E+04  0.45360129454E+04  0.40349585026E+04 0.  0.
        2    1    3    3  502    0  0.12883066631E+03 -0.17871351497E+04  0.62210086483E+01  0.17917834927E+04  0.25500000920E-02 0. -1.
       -2    1    3    3    0  502 -0.12883066631E+03  0.17871351497E+04 -0.20785441792E+04  0.27442294526E+04  0.25500000920E-02 0.  1.
</event>
<event>
 5   0  0.5515000E-08  0.4022826E+04  0.7818609E-02  0.7999958E-01
        1   -1    0    0  501    0  0.00000000000E+00  0.00000000000E+00  0.15175991540E+04  0.15175991540E+04  0.50400001928E-02 0. -1.
       -1   -1    0    0    0  501  0.00000000000E+00  0.00000000000E+00 -0.26659094356E+04  0.26659094356E+04  0.50400001928E-02 0.  1.
    10030    2    1    2    0    0  0.00000000000E+00  0.00000000000E+00 -0.11483102817E+04  0.41835085896E+04  0.40228258247E+04 0.  0.
        5    1    3    3  502    0  0.20993406610E+03 -0.67178773943E+03 -0.25336647117E+04  0.26296102449E+04  0.46999998093E+01 0.  1.
       -5    1    3    3    0  502 -0.20993406610E+03  0.67178773943E+03  0.13853544300E+04  0.15538983447E+04  0.46999998093E+01 0. -1.
</event>
<event>
 5   0  0.1773903E-07  0.4036778E+04  0.7818609E-02  0.7997168E-01
        2   -1    0    0  501    0  0.00000000000E+00  0.00000000000E+00  0.21969229615E+04  0.21969229615E+04  0.25500000920E-02 0. -1.
       -2   -1    0    0    0  501  0.00000000000E+00  0.00000000000E+00 -0.18543640219E+04  0.18543640219E+04  0.25500000920E-02 0.  1.
    10030    2    1    2    0    0  0.00000000000E+00  0.00000000000E+00  0.34255893958E+03  0.40512869835E+04  0.40367783684E+04 0.  0.
        3    1    3    3  502    0  0.19054152399E+04 -0.41361482861E+03 -0.35233360194E+03  0.19813690823E+04  0.10100000352E+00 0.  1.
       -3    1    3    3    0  502 -0.19054152399E+04  0.41361482861E+03  0.69489254152E+03  0.20699179012E+04  0.10100000352E+00 0. -1.
</event>
<event>
 5   0  0.5515000E-08  0.4006164E+04  0.7818609E-02  0.8003304E-01
        1   -1    0    0  501    0  0.00000000000E+00  0.00000000000E+00  0.16792068428E+04  0.16792068428E+04  0.50400001928E-02 0.  1.
       -1   -1    0    0    0  501  0.00000000000E+00  0.00000000000E+00 -0.23894239026E+04  0.23894239026E+04  0.50400001928E-02 0. -1.
    10030    2    1    2    0    0  0.00000000000E+00  0.00000000000E+00 -0.71021705978E+03  0.40686307454E+04  0.40061637348E+04 0.  0.
        2    1    3    3  502    0  0.90048099765E+03 -0.18435817064E+03  0.14523849030E+04  0.17188007065E+04  0.25500000920E-02 0.  1.
       -2    1    3    3    0  502 -0.90048099765E+03  0.18435817064E+03 -0.21626019628E+04  0.23498300389E+04  0.25500000920E-02 0. -1.
</event>
<event>
 5   0  0.1785559E-07  0.4016402E+04  0.7818609E-02  0.8001246E-01
       -2   -1    0    0    0  501  0.00000000000E+00  0.00000000000E+00  0.16462677486E+04  0.16462677486E+04  0.25500000920E-02 0. -1.
        2   -1    0    0  501    0  0.00000000000E+00  0.00000000000E+00 -0.24497051369E+04  0.24497051369E+04  0.25500000920E-02 0.  1.
    10030    2    1    2    0    0  0.00000000000E+00  0.00000000000E+00 -0.80343738828E+03  0.40959728855E+04  0.40164016535E+04 0.  0.
        2    1    3    3  502    0  0.17644699238E+04 -0.95776737884E+03 -0.35390598703E+03  0.20386078366E+04  0.25500000920E-02 0. -1.
       -2    1    3    3    0  502 -0.17644699238E+04  0.95776737884E+03 -0.44953140125E+03  0.20573650489E+04  0.25500000920E-02 0.  1.
</event>
<event>
 5   0  0.1819906E-07  0.4003146E+04  0.7818609E-02  0.8003912E-01
       -2   -1    0    0    0  501  0.00000000000E+00  0.00000000000E+00  0.16319943248E+04  0.16319943248E+04  0.25500000920E-02 0. -1.
        2   -1    0    0  501    0  0.00000000000E+00  0.00000000000E+00 -0.24548461891E+04  0.24548461891E+04  0.25500000920E-02 0.  1.
    10030    2    1    2    0    0  0.00000000000E+00  0.00000000000E+00 -0.82285186430E+03  0.40868405139E+04  0.40031462870E+04 0.  0.
        1    1    3    3  502    0  0.15591801796E+03  0.37074815436E+02  0.16254334523E+04  0.16333153027E+04  0.50400001928E-02 0. -1.
       -1    1    3    3    0  502 -0.15591801796E+03 -0.37074815436E+02 -0.24482853166E+04  0.24535252111E+04  0.50400001928E-02 0.  1.
</event>
<event>
 5   0  0.5515000E-08  0.4001351E+04  0.7818609E-02  0.8004274E-01
        1   -1    0    0  501    0  0.00000000000E+00  0.00000000000E+00  0.25633472076E+04  0.25633472076E+04  0.50400001928E-02 0. -1.
       -1   -1    0    0    0  501  0.00000000000E+00  0.00000000000E+00 -0.15615137965E+04  0.15615137965E+04  0.50400001928E-02 0.  1.
    10030    2    1    2    0    0  0.00000000000E+00  0.00000000000E+00  0.10018334111E+04  0.41248610041E+04  0.40013507869E+04 0.  0.
        3    1    3    3  502    0 -0.52780775162E+03 -0.18966820565E+04  0.86787959293E+03  0.21515573068E+04  0.10100000352E+00 0. -1.
       -3    1    3    3    0  502  0.52780775162E+03  0.18966820565E+04  0.13395381813E+03  0.19733036973E+04  0.10100000352E+00 0.  1.
</event>
<event>
 5   0  0.5515000E-08  0.3993530E+04  0.7818609E-02  0.8005853E-01
       -1   -1    0    0    0  501  0.00000000000E+00  0.00000000000E+00  0.20502262466E+04  0.20502262466E+04  0.50400001928E-02 0. -1.
        1   -1    0    0  501    0  0.00000000000E+00  0.00000000000E+00 -0.19446977456E+04  0.19446977456E+04  0.50400001928E-02 0.  1.
    10030    2    1    2    0    0  0.00000000000E+00  0.00000000000E+00  0.10552850092E+03  0.39949239922E+04  0.39935299472E+04 0.  0.
        4    1    3    3  502    0  0.75648011792E+03 -0.18344028069E+04 -0.17041208176E+03  0.19915666489E+04  0.12699999809E+01 0.  1.
       -4    1    3    3    0  502 -0.75648011792E+03  0.18344028069E+04  0.27594058268E+03  0.20033573433E+04  0.12699999809E+01 0. -1.
</event>
<event>
 5   0  0.1785559E-07  0.3922691E+04  0.7818609E-02  0.8020326E-01
       -2   -1    0    0    0  501  0.00000000000E+00  0.00000000000E+00  0.17297703329E+04  0.17297703329E+04  0.25500000920E-02 0. -1.
        2   -1    0    0  501    0  0.00000000000E+00  0.00000000000E+00 -0.22239232181E+04  0.22239232181E+04  0.25500000920E-02 0.  1.
    10030    2    1    2    0    0  0.00000000000E+00  0.00000000000E+00 -0.49415288520E+03  0.39536935511E+04  0.39226911199E+04 0.  0.
        2    1    3    3  502    0 -0.10812622467E+04 -0.69171262463E+03 -0.17417947448E+04  0.21636643303E+04  0.25500000920E-02 0.  1.
       -2    1    3    3    0  502  0.10812622467E+04  0.69171262463E+03  0.12476418596E+04  0.17900292207E+04  0.25500000920E-02 0. -1.
</event>
<event>
 5   0  0.1776653E-07  0.4008086E+04  0.7818609E-02  0.8002917E-01
        2   -1    0    0  501    0  0.00000000000E+00  0.00000000000E+00  0.24647506521E+04  0.24647506521E+04  0.25500000920E-02 0.  1.
       -2   -1    0    0    0  501  0.00000000000E+00  0.00000000000E+00 -0.16294502066E+04  0.16294502066E+04  0.25500000920E-02 0. -1.
    10030    2    1    2    0    0  0.00000000000E+00  0.00000000000E+00  0.83530044553E+03  0.40942008587E+04  0.40080860566E+04 0.  0.
        4    1    3    3  502    0 -0.18325839035E+04 -0.70906903555E+03  0.81986669255E+03  0.21291607894E+04  0.12699999809E+01 0. -1.
       -4    1    3    3    0  502  0.18325839035E+04  0.70906903555E+03  0.15433752983E+02  0.19650400693E+04  0.12699999809E+01 0.  1.
</event>
<event>
 5   0  0.1773903E-07  0.3986943E+04  0.7818609E-02  0.8007186E-01
       -2   -1    0    0    0  501  0.00000000000E+00  0.00000000000E+00  0.14378434382E+04  0.14378434382E+04  0.25500000920E-02 0. -1.
        2   -1    0    0  501    0  0.00000000000E+00  0.00000000000E+00 -0.27638120454E+04  0.27638120454E+04  0.25500000920E-02 0.  1.
    10030    2    1    2    0    0  0.00000000000E+00  0.00000000000E+00 -0.13259686071E+04  0.42016554836E+04  0.39869431970E+04 0.  0.
        3    1    3    3  502    0 -0.66756825335E+03  0.14965214597E+04 -0.18593313272E+04  0.24783738312E+04  0.10100000352E+00 0.  1.
       -3    1    3    3    0  502  0.66756825335E+03 -0.14965214597E+04  0.53336272009E+03  0.17232816525E+04  0.10100000352E+00 0. -1.
</event>
<event>
 5   0  0.1821433E-07  0.3713287E+04  0.7818609E-02  0.8065024E-01
        2   -1    0    0  501    0  0.00000000000E+00  0.00000000000E+00  0.15302552213E+04  0.15302552213E+04  0.25500000920E-02 0. -1.
       -2   -1    0    0    0  501  0.00000000000E+00  0.00000000000E+00 -0.22526467851E+04  0.22526467851E+04  0.25500000920E-02 0.  1.
    10030    2    1    2    0    0  0.00000000000E+00  0.00000000000E+00 -0.72239156383E+03  0.37829020064E+04  0.37132866868E+04 0.  0.
        5    1    3    3  502    0  0.35523027055E+03  0.13853187292E+04 -0.15673714150E+04  0.21217850431E+04  0.46999998093E+01 0.  1.
       -5    1    3    3    0  502 -0.35523027055E+03 -0.13853187292E+04  0.84497985120E+03  0.16611169632E+04  0.46999998093E+01 0. -1.
</event>
<event>
 5   0  0.5515000E-08  0.3921769E+04  0.7818609E-02  0.8020517E-01
        1   -1    0    0  501    0  0.00000000000E+00  0.00000000000E+00  0.13848732818E+04  0.13848732818E+04  0.50400001928E-02 0. -1.
       -1   -1    0    0    0  501  0.00000000000E+00  0.00000000000E+00 -0.27764764575E+04  0.27764764575E+04  0.50400001928E-02 0.  1.
    10030    2    1    2    0    0  0.00000000000E+00  0.00000000000E+00 -0.13916031756E+04  0.41613497393E+04  0.39217690210E+04 0.  0.
        4    1    3    3  502    0 -0.84346747984E+03  0.12637318833E+04 -0.20111298290E+04  0.25205357494E+04  0.12699999809E+01 0.  1.
       -4    1    3    3    0  502  0.84346747984E+03 -0.12637318833E+04  0.61952665332E+03  0.16408139899E+04  0.12699999809E+01 0. -1.
</event>
<event>
 5   0  0.5515000E-08  0.3984019E+04  0.7818609E-02  0.8007778E-01
        1   -1    0    0  501    0  0.00000000000E+00  0.00000000000E+00  0.25617339851E+04  0.25617339851E+04  0.50400001928E-02 0.  1.
       -1   -1    0    0    0  501  0.00000000000E+00  0.00000000000E+00 -0.15489908127E+04  0.15489908127E+04  0.50400001928E-02 0. -1.
    10030    2    1    2    0    0  0.00000000000E+00  0.00000000000E+00  0.10127431723E+04  0.41107247978E+04  0.39840192808E+04 0.  0.
        5    1    3    3  502    0  0.85468904027E+03 -0.13555082801E+04 -0.71455504749E+03  0.17545674849E+04  0.46999998093E+01 0. -1.
       -5    1    3    3    0  502 -0.85468904027E+03  0.13555082801E+04  0.17272982198E+04  0.23561573129E+04  0.46999998093E+01 0.  1.
</event>
<event>
 5   0  0.5515000E-08  0.4039513E+04  0.7818609E-02  0.7996623E-01
        1   -1    0    0  501    0  0.00000000000E+00  0.00000000000E+00  0.17488883031E+04  0.17488883031E+04  0.50400001928E-02 0.  1.
       -1   -1    0    0    0  501  0.00000000000E+00  0.00000000000E+00 -0.23325768370E+04  0.23325768370E+04  0.50400001928E-02 0. -1.
    10030    2    1    2    0    0  0.00000000000E+00  0.00000000000E+00 -0.58368853389E+03  0.40814651401E+04  0.40395130133E+04 0.  0.
        1    1    3    3  502    0  0.23379467948E+03  0.15605342918E+04 -0.15656871338E+04  0.22229042779E+04  0.50400001928E-02 0. -1.
       -1    1    3    3    0  502 -0.23379467948E+03 -0.15605342918E+04  0.98199859992E+03  0.18585608621E+04  0.50400001928E-02 0.  1.
</event>
<event>
 5   0  0.1776653E-07  0.3977684E+04  0.7818609E-02  0.8009064E-01
        2   -1    0    0  501    0  0.00000000000E+00  0.00000000000E+00  0.15126811885E+04  0.15126811885E+04  0.25500000920E-02 0. -1.
       -2   -1    0    0    0  501  0.00000000000E+00  0.00000000000E+00 -0.26148883205E+04  0.26148883205E+04  0.25500000920E-02 0.  1.
    10030    2    1    2    0    0  0.00000000000E+00  0.00000000000E+00 -0.11022071320E+04  0.41275695089E+04  0.39776839353E+04 0.  0.
        4    1    3    3  502    0 -0.10144744814E+03  0.98770582926E+03  0.12370950769E+04  0.15862724331E+04  0.12699999809E+01 0. -1.
       -4    1    3    3    0  502  0.10144744814E+03 -0.98770582926E+03 -0.23393022089E+04  0.25412970758E+04  0.12699999809E+01 0.  1.
</event>
<event>
 5   0  0.1776653E-07  0.3979295E+04  0.7818609E-02  0.8008736E-01
       -2   -1    0    0    0  501  0.00000000000E+00  0.00000000000E+00  0.17839289626E+04  0.17839289626E+04  0.25500000920E-02 0. -1.
        2   -1    0    0  501    0  0.00000000000E+00  0.00000000000E+00 -0.22190893526E+04  0.22190893526E+04  0.25500000920E-02 0.  1.
    10030    2    1    2    0    0  0.00000000000E+00  0.00000000000E+00 -0.43516038993E+03  0.40030183152E+04  0.39792952977E+04 0.  0.
        4    1    3    3  502    0 -0.95292290199E+03  0.11304316991E+03 -0.19709153997E+04  0.21921108414E+04  0.12699999809E+01 0.  1.
       -4    1    3    3    0  502  0.95292290199E+03 -0.11304316991E+03  0.15357550098E+04  0.18109074737E+04  0.12699999809E+01 0. -1.
</event>
<event>
 5   0  0.1785559E-07  0.3977864E+04  0.7818609E-02  0.8009027E-01
        2   -1    0    0  501    0  0.00000000000E+00  0.00000000000E+00  0.21570267034E+04  0.21570267034E+04  0.25500000920E-02 0. -1.
       -2   -1    0    0    0  501  0.00000000000E+00  0.00000000000E+00 -0.18339365827E+04  0.18339365827E+04  0.25500000920E-02 0.  1.
    10030    2    1    2    0    0  0.00000000000E+00  0.00000000000E+00  0.32309012065E+03  0.39909632861E+04  0.39778638395E+04 0.  0.
        2    1    3    3  502    0 -0.18448352126E+03 -0.19777099093E+04  0.58838390295E+02  0.19871669812E+04  0.25500000920E-02 0.  1.
       -2    1    3    3    0  502  0.18448352126E+03  0.19777099093E+04  0.26425173036E+03  0.20037963050E+04  0.25500000920E-02 0. -1.
</event>
<event>
 5   0  0.5515000E-08  0.3964844E+04  0.7818609E-02  0.8011676E-01
       -1   -1    0    0    0  501  0.00000000000E+00  0.00000000000E+00  0.13729691558E+04  0.13729691558E+04  0.50400001928E-02 0. -1.
        1   -1    0    0  501    0  0.00000000000E+00  0.00000000000E+00 -0.28624067278E+04  0.28624067278E+04  0.50400001928E-02 0.  1.
    10030    2    1    2    0    0  0.00000000000E+00  0.00000000000E+00 -0.14894375720E+04  0.42353758836E+04  0.39648435775E+04 0.  0.
        2    1    3    3  502    0  0.14342363448E+04  0.54355391848E+02  0.71607059860E+03  0.16039780246E+04  0.25500000920E-02 0. -1.
       -2    1    3    3    0  502 -0.14342363448E+04 -0.54355391848E+02 -0.22055081706E+04  0.26313978589E+04  0.25500000920E-02 0.  1.
</event>
<event>
 5   0  0.5515000E-08  0.4033360E+04  0.7818609E-02  0.7997850E-01
       -1   -1    0    0    0  501  0.00000000000E+00  0.00000000000E+00  0.18685575267E+04  0.18685575267E+04  0.50400001928E-02 0.  1.
        1   -1    0    0  501    0  0.00000000000E+00  0.00000000000E+00 -0.21765446451E+04  0.21765446451E+04  0.50400001928E-02 0. -1.
    10030    2    1    2    0    0  0.00000000000E+00  0.00000000000E+00 -0.30798711839E+03  0.40451021718E+04  0.40333603255E+04 0.  0.
        3    1    3    3  502    0  0.19505506758E+04  0.44644057909E+02 -0.66573171722E+03  0.20615139486E+04  0.10100000352E+00 0.  1.
       -3    1    3    3    0  502 -0.19505506758E+04 -0.44644057909E+02  0.35774459884E+03  0.19835882231E+04  0.10100000352E+00 0. -1.
</event>
<event>
 5   0  0.1821433E-07  0.3816799E+04  0.7818609E-02  0.8042559E-01
       -2   -1    0    0    0  501  0.00000000000E+00  0.00000000000E+00  0.15948624066E+04  0.15948624066E+04  0.25500000920E-02 0.  1.
        2   -1    0    0  501    0  0.00000000000E+00  0.00000000000E+00 -0.22835753185E+04  0.22835753185E+04  0.25500000920E-02 0. -1.
    10030    2    1    2    0    0  0.00000000000E+00  0.00000000000E+00 -0.68871291182E+03  0.38784377251E+04  0.38167988829E+04 0.  0.
        5    1    3    3  502    0 -0.11234153670E+04  0.38507401348E+03  0.11736299699E+04  0.16696626841E+04  0.46999998093E+01 0.  1.
       -5    1    3    3    0  502  0.11234153670E+04 -0.38507401348E+03 -0.18623428817E+04  0.22087750410E+04  0.46999998093E+01 0. -1.
</event>
<event>
 5   0  0.1819906E-07  0.3974349E+04  0.7818609E-02  0.8009741E-01
        2   -1    0    0  501    0  0.00000000000E+00  0.00000000000E+00  0.21028414300E+04  0.21028414300E+04  0.25500000920E-02 0. -1.
       -2   -1    0    0    0  501  0.00000000000E+00  0.00000000000E+00 -0.18778700846E+04  0.18778700846E+04  0.25500000920E-02 0.  1.
    10030    2    1    2    0    0  0.00000000000E+00  0.00000000000E+00  0.22497134539E+03  0.39807115147E+04  0.39743492621E+04 0.  0.
        1    1    3    3  502    0 -0.18743803087E+04 -0.49892231270E+03 -0.32022211271E+03  0.19659011210E+04  0.50400001928E-02 0.  1.
       -1    1    3    3    0  502  0.18743803087E+04  0.49892231270E+03  0.54519345810E+03  0.20148103937E+04  0.50400001928E-02 0. -1.
</event>
<event>
 5   0  0.5515000E-08  0.3953466E+04  0.7818609E-02  0.8014000E-01
        1   -1    0    0  501    0  0.00000000000E+00  0.00000000000E+00  0.21699528185E+04  0.21699528185E+04  0.50400001928E-02 0. -1.
       -1   -1    0    0    0  501  0.00000000000E+00  0.00000000000E+00 -0.18007179096E+04  0.18007179096E+04  0.50400001928E-02 0.  1.
    10030    2    1    2    0    0  0.00000000000E+00  0.00000000000E+00  0.36923490889E+03  0.39706707281E+04  0.39534657723E+04 0.  0.
        4    1    3    3  502    0 -0.59019880361E+03 -0.44724347067E+03 -0.16561460705E+04  0.18141617264E+04  0.12699999809E+01 0.  1.
       -4    1    3    3    0  502  0.59019880361E+03  0.44724347067E+03  0.20253809794E+04  0.21565090017E+04  0.12699999809E+01 0. -1.
</event>
<event>
 5   0  0.5515000E-08  0.3221272E+04  0.7818609E-02  0.8183222E-01
       -1   -1    0    0    0  501  0.00000000000E+00  0.00000000000E+00  0.11051888058E+04  0.11051888058E+04  0.50400001928E-02 0.  1.
        1   -1    0    0  501    0  0.00000000000E+00  0.00000000000E+00 -0.23472437662E+04  0.23472437662E+04  0.50400001928E-02 0. -1.
    10030    2    1    2    0    0  0.00000000000E+00  0.00000000000E+00 -0.12420549605E+04  0.34524325720E+04  0.32212715097E+04 0.  0.
        4    1    3    3  502    0  0.42079264727E+02 -0.12817199840E+04 -0.16654137890E+04  0.21019470696E+04  0.12699999809E+01 0. -1.
       -4    1    3    3    0  502 -0.42079264727E+02  0.12817199840E+04  0.42335882850E+03  0.13504855025E+04  0.12699999809E+01 0.  1.
</event>
<event>
 5   0  0.5515000E-08  0.3888239E+04  0.7818609E-02  0.8027480E-01
       -1   -1    0    0    0  501  0.00000000000E+00  0.00000000000E+00  0.25839554118E+04  0.25839554118E+04  0.50400001928E-02 0.  1.
        1   -1    0    0  501    0  0.00000000000E+00  0.00000000000E+00 -0.14627191877E+04  0.14627191877E+04  0.50400001928E-02 0. -1.
    10030    2    1    2    0    0  0.00000000000E+00  0.00000000000E+00  0.11212362241E+04  0.40466745995E+04  0.38882392730E+04 0.  0.
        5    1    3    3  502    0  0.51612241293E+03  0.18013966359E+04  0.10995673662E+04  0.21726671784E+04  0.46999998093E+01 0.  1.
       -5    1    3    3    0  502 -0.51612241293E+03 -0.18013966359E+04  0.21668857829E+02  0.18740074211E+04  0.46999998093E+01 0. -1.
</event>
<event>
 5   0  0.1776653E-07  0.4018488E+04  0.7818609E-02  0.8000827E-01
       -2   -1    0    0    0  501  0.00000000000E+00  0.00000000000E+00  0.16288584380E+04  0.16288584380E+04  0.25500000920E-02 0. -1.
        2   -1    0    0  501    0  0.00000000000E+00  0.00000000000E+00 -0.24784610422E+04  0.24784610422E+04  0.25500000920E-02 0.  1.
    10030    2    1    2    0    0  0.00000000000E+00  0.00000000000E+00 -0.84960260415E+03  0.41073194802E+04  0.40184883635E+04 0.  0.
        4    1    3    3  502    0 -0.11189005624E+04  0.61070387806E+03  0.11626451492E+04  0.17252950620E+04  0.12699999809E+01 0. -1.
       -4    1    3    3    0  502  0.11189005624E+04 -0.61070387806E+03 -0.20122477534E+04  0.23820244182E+04  0.12699999809E+01 0.  1.
</event>
<event>
 5   0  0.1773903E-07  0.4030831E+04  0.7818609E-02  0.7998356E-01
       -2   -1    0    0    0  501  0.00000000000E+00  0.00000000000E+00  0.20306114065E+04  0.20306114065E+04  0.25500000920E-02 0.  1.
        2   -1    0    0  501    0  0.00000000000E+00  0.00000000000E+00 -0.20003333365E+04  0.20003333365E+04  0.25500000920E-02 0. -1.
    10030    2    1    2    0    0  0.00000000000E+00  0.00000000000E+00  0.30278069956E+02  0.40309447430E+04  0.40308310259E+04 0.  0.
        3    1    3    3  502    0  0.12846569997E+04  0.56987500703E+03  0.14597553493E+04  0.20263234738E+04  0.10100000352E+00 0.  1.
       -3    1    3    3    0  502 -0.12846569997E+04 -0.56987500703E+03 -0.14294772793E+04  0.20046212692E+04  0.10100000352E+00 0. -1.
</event>
<event>
 5   0  0.1773903E-07  0.3988806E+04  0.7818609E-02  0.8006808E-01
        2   -1    0    0  501    0  0.00000000000E+00  0.00000000000E+00  0.22581407281E+04  0.22581407281E+04  0.25500000920E-02 0. -1.
       -2   -1    0    0    0  501  0.00000000000E+00  0.00000000000E+00 -0.17614686258E+04  0.17614686258E+04  0.25500000920E-02 0.  1.
    10030    2    1    2    0    0  0.00000000000E+00  0.00000000000E+00  0.49667210233E+03  0.40196093539E+04  0.39888063604E+04 0.  0.
        3    1    3    3  502    0  0.11716167204E+04  0.89792629880E+03 -0.11031720431E+04  0.18428092534E+04  0.10100000352E+00 0.  1.
       -3    1    3    3    0  502 -0.11716167204E+04 -0.89792629880E+03  0.15998441454E+04  0.21768001005E+04  0.10100000352E+00 0. -1.
</event>
<event>
 5   0  0.5515000E-08  0.4011316E+04  0.7818609E-02  0.8002268E-01
        3   -1    0    0  501    0  0.00000000000E+00  0.00000000000E+00  0.31603495269E+04  0.31603495285E+04  0.10100000352E+00 0. -1.
       -3   -1    0    0    0  501  0.00000000000E+00  0.00000000000E+00 -0.12728542113E+04  0.12728542153E+04  0.10100000352E+00 0.  1.
    10030    2    1    2    0    0  0.00000000000E+00  0.00000000000E+00  0.18874953155E+04  0.44332037438E+04  0.40113161017E+04 0.  0.
        3    1    3    3  502    0 -0.11170569489E+04 -0.12257563209E+04 -0.30288188927E+03  0.16858328015E+04  0.10100000352E+00 0.  1.
       -3    1    3    3    0  502  0.11170569489E+04  0.12257563209E+04  0.21903772048E+04  0.27473709424E+04  0.10100000352E+00 0. -1.
</event>
<event>
 5   0  0.1773903E-07  0.3972531E+04  0.7818609E-02  0.8010111E-01
        2   -1    0    0  501    0  0.00000000000E+00  0.00000000000E+00  0.23301099902E+04  0.23301099902E+04  0.25500000920E-02 0. -1.
       -2   -1    0    0    0  501  0.00000000000E+00  0.00000000000E+00 -0.16931606451E+04  0.16931606451E+04  0.25500000920E-02 0.  1.
    10030    2    1    2    0    0  0.00000000000E+00  0.00000000000E+00  0.63694934516E+03  0.40232706353E+04  0.39725309485E+04 0.  0.
        3    1    3    3  502    0 -0.94012599521E+03  0.16067341691E+04  0.10200117913E+04  0.21227000828E+04  0.10100000352E+00 0. -1.
       -3    1    3    3    0  502  0.94012599521E+03 -0.16067341691E+04 -0.38306244615E+03  0.19005705525E+04  0.10100000352E+00 0.  1.
</event>
<event>
 5   0  0.1785559E-07  0.4018623E+04  0.7818609E-02  0.8000800E-01
        2   -1    0    0  501    0  0.00000000000E+00  0.00000000000E+00  0.15995210301E+04  0.15995210301E+04  0.25500000920E-02 0. -1.
       -2   -1    0    0    0  501  0.00000000000E+00  0.00000000000E+00 -0.25240887107E+04  0.25240887107E+04  0.25500000920E-02 0.  1.
    10030    2    1    2    0    0  0.00000000000E+00  0.00000000000E+00 -0.92456768059E+03  0.41236097409E+04  0.40186231348E+04 0.  0.
        2    1    3    3  502    0 -0.29147211569E+03 -0.12722932399E+04  0.11052533313E+04  0.17103423660E+04  0.25500000920E-02 0. -1.
       -2    1    3    3    0  502  0.29147211569E+03  0.12722932399E+04 -0.20298210119E+04  0.24132673749E+04  0.25500000920E-02 0.  1.
</event>
<event>
 5   0  0.1819906E-07  0.3985662E+04  0.7818609E-02  0.8007445E-01
        2   -1    0    0  501    0  0.00000000000E+00  0.00000000000E+00  0.19719843150E+04  0.19719843150E+04  0.25500000920E-02 0.  1.
       -2   -1    0    0    0  501  0.00000000000E+00  0.00000000000E+00 -0.20138983269E+04  0.20138983269E+04  0.25500000920E-02 0. -1.
    10030    2    1    2    0    0  0.00000000000E+00  0.00000000000E+00 -0.41914011915E+02  0.39858826420E+04  0.39856622600E+04 0.  0.
        1    1    3    3  502    0  0.42570779318E+03 -0.12960625439E+04 -0.14737488206E+04  0.20082183221E+04  0.50400001928E-02 0. -1.
       -1    1    3    3    0  502 -0.42570779318E+03  0.12960625439E+04  0.14318348087E+04  0.19776643199E+04  0.50400001928E-02 0.  1.
</event>
<event>
 5   0  0.5515000E-08  0.3979931E+04  0.7818609E-02  0.8008607E-01
       -1   -1    0    0    0  501  0.00000000000E+00  0.00000000000E+00  0.27858262121E+04  0.27858262121E+04  0.50400001928E-02 0. -1.
        1   -1    0    0  501    0  0.00000000000E+00  0.00000000000E+00 -0.14214677854E+04  0.14214677854E+04  0.50400001928E-02 0.  1.
    10030    2    1    2    0    0  0.00000000000E+00  0.00000000000E+00  0.13643584267E+04  0.42072939975E+04  0.39799307613E+04 0.  0.
        3    1    3    3  502    0  0.13690553583E+03  0.11625725893E+04 -0.10189894782E+04  0.15519850895E+04  0.10100000352E+00 0.  1.
       -3    1    3    3    0  502 -0.13690553583E+03 -0.11625725893E+04  0.23833479049E+04  0.26553089080E+04  0.10100000352E+00 0. -1.
</event>
<event>
 5   0  0.1776653E-07  0.3968042E+04  0.7818609E-02  0.8011025E-01
        2   -1    0    0  501    0  0.00000000000E+00  0.00000000000E+00  0.18485879096E+04  0.18485879096E+04  0.25500000920E-02 0. -1.
       -2   -1    0    0    0  501  0.00000000000E+00  0.00000000000E+00 -0.21293764863E+04  0.21293764863E+04  0.25500000920E-02 0.  1.
    10030    2    1    2    0    0  0.00000000000E+00  0.00000000000E+00 -0.28078857664E+03  0.39779643959E+04  0.39680421508E+04 0.  0.
        4    1    3    3  502    0 -0.13856027638E+04  0.14058280577E+04  0.60332426122E+02  0.19748137030E+04  0.12699999809E+01 0. -1.
       -4    1    3    3    0  502  0.13856027638E+04 -0.14058280577E+04 -0.34112100276E+03  0.20031506929E+04  0.12699999809E+01 0.  1.
</event>
<event>
 5   0  0.1776653E-07  0.4080728E+04  0.7818609E-02  0.7988456E-01
       -2   -1    0    0    0  501  0.00000000000E+00  0.00000000000E+00  0.26980364355E+04  0.26980364355E+04  0.25500000920E-02 0. -1.
        2   -1    0    0  501    0  0.00000000000E+00  0.00000000000E+00 -0.15430059356E+04  0.15430059356E+04  0.25500000920E-02 0.  1.
    10030    2    1    2    0    0  0.00000000000E+00  0.00000000000E+00  0.11550304999E+04  0.42410423711E+04  0.40807284813E+04 0.  0.
        4    1    3    3  502    0  0.14006840833E+04  0.77871942831E+03 -0.73493614584E+03  0.17630804294E+04  0.12699999809E+01 0.  1.
       -4    1    3    3    0  502 -0.14006840833E+04 -0.77871942831E+03  0.18899666458E+04  0.24779619417E+04  0.12699999809E+01 0. -1.
</event>
<event>
 5   0  0.1821433E-07  0.3938027E+04  0.7818609E-02  0.8017166E-01
       -2   -1    0    0    0  501  0.00000000000E+00  0.00000000000E+00  0.13866259047E+04  0.13866259047E+04  0.25500000920E-02 0.  1.
        2   -1    0    0  501    0  0.00000000000E+00  0.00000000000E+00 -0.27960060410E+04  0.27960060410E+04  0.25500000920E-02 0. -1.
    10030    2    1    2    0    0  0.00000000000E+00  0.00000000000E+00 -0.14093801364E+04  0.41826319457E+04  0.39380271234E+04 0.  0.
        5    1    3    3  502    0 -0.38767187725E+03 -0.12756848515E+03  0.13412034036E+04  0.14019314758E+04  0.46999998093E+01 0.  1.
       -5    1    3    3    0  502  0.38767187725E+03  0.12756848515E+03 -0.27505835400E+04  0.27807004699E+04  0.46999998093E+01 0. -1.
</event>
<event>
 5   0  0.5515000E-08  0.4048349E+04  0.7818609E-02  0.7994863E-01
       -1   -1    0    0    0  501  0.00000000000E+00  0.00000000000E+00  0.18776398469E+04  0.18776398469E+04  0.50400001928E-02 0. -1.
        1   -1    0    0  501    0  0.00000000000E+00  0.00000000000E+00 -0.21821451057E+04  0.21821451057E+04  0.50400001928E-02 0.  1.
    10030    2    1    2    0    0  0.00000000000E+00  0.00000000000E+00 -0.30450525873E+03  0.40597849526E+04  0.40483490967E+04 0.  0.
        4    1    3    3  502    0  0.11844595390E+04  0.40244672606E+03  0.14435858414E+04  0.19101961840E+04  0.12699999809E+01 0. -1.
       -4    1    3    3    0  502 -0.11844595390E+04 -0.40244672606E+03 -0.17480911002E+04  0.21495887686E+04  0.12699999809E+01 0.  1.
</event>
<event>
 5   0  0.5515000E-08  0.4031756E+04  0.7818609E-02  0.7998171E-01
        1   -1    0    0  501    0  0.00000000000E+00  0.00000000000E+00  0.25010067939E+04  0.25010067939E+04  0.50400001928E-02 0. -1.
       -1   -1    0    0    0  501  0.00000000000E+00  0.00000000000E+00 -0.16248515341E+04  0.16248515341E+04  0.50400001928E-02 0.  1.
    10030    2    1    2    0    0  0.00000000000E+00  0.00000000000E+00  0.87615525984E+03  0.41258583280E+04  0.40317563051E+04 0.  0.
        2    1    3    3  502    0  0.54572971126E+03 -0.14881765491E+04  0.17126495478E+04  0.23335935449E+04  0.25500000920E-02 0. -1.
       -2    1    3    3    0  502 -0.54572971126E+03  0.14881765491E+04 -0.83649428800E+03  0.17922647831E+04  0.25500000920E-02 0.  1.
</event>
<event>
 5   0  0.1773903E-07  0.4025523E+04  0.7818609E-02  0.7999418E-01
       -2   -1    0    0    0  501  0.00000000000E+00  0.00000000000E+00  0.12140924119E+04  0.12140924119E+04  0.25500000920E-02 0.  1.
        2   -1    0    0  501    0  0.00000000000E+00  0.00000000000E+00 -0.33368200783E+04  0.33368200783E+04  0.25500000920E-02 0. -1.
    10030    2    1    2    0    0  0.00000000000E+00  0.00000000000E+00 -0.21227276664E+04  0.45509124902E+04  0.40255225434E+04 0.  0.
        3    1    3    3  502    0 -0.11140708404E+04  0.39449520128E+03 -0.29032452479E+04  0.31345834301E+04  0.10100000352E+00 0. -1.
       -3    1    3    3    0  502  0.11140708404E+04 -0.39449520128E+03  0.78051758142E+03  0.14163290600E+04  0.10100000352E+00 0.  1.
</event>
<event>
 5   0  0.1819906E-07  0.3956678E+04  0.7818609E-02  0.8013343E-01
       -2   -1    0    0    0  501  0.00000000000E+00  0.00000000000E+00  0.17459312126E+04  0.17459312126E+04  0.25500000920E-02 0.  1.
        2   -1    0    0  501    0  0.00000000000E+00  0.00000000000E+00 -0.22416835995E+04  0.22416835995E+04  0.25500000920E-02 0. -1.
    10030    2    1    2    0    0  0.00000000000E+00  0.00000000000E+00 -0.49575238682E+03  0.39876148121E+04  0.39566780840E+04 0.  0.
        1    1    3    3  502    0 -0.17421329365E+04 -0.79137589482E+03  0.25856897050E+03  0.19308446048E+04  0.50400001928E-02 0.  1.
       -1    1    3    3    0  502  0.17421329365E+04  0.79137589482E+03 -0.75432135732E+03  0.20567702073E+04  0.50400001928E-02 0. -1.
</event>
<event>
 5   0  0.1776653E-07  0.3993276E+04  0.7818609E-02  0.8005904E-01
       -2   -1    0    0    0  501  0.00000000000E+00  0.00000000000E+00  0.18552878851E+04  0.18552878851E+04  0.25500000920E-02 0.  1.
        2   -1    0    0  501    0  0.00000000000E+00  0.00000000000E+00 -0.21487571920E+04  0.21487571920E+04  0.25500000920E-02 0. -1.
    10030    2    1    2    0    0  0.00000000000E+00  0.00000000000E+00 -0.29346930690E+03  0.40040450770E+04  0.39932759415E+04 0.  0.
        4    1    3    3  502    0  0.78414323039E+03  0.18030319172E+04  0.20170338929E+03  0.19764843967E+04  0.12699999809E+01 0. -1.
       -4    1    3    3    0  502 -0.78414323039E+03 -0.18030319172E+04 -0.49517269620E+03  0.20275606803E+04  0.12699999809E+01 0.  1.
</event>
<event>
 5   0  0.5515000E-08  0.4046248E+04  0.7818609E-02  0.7995281E-01
        1   -1    0    0  501    0  0.00000000000E+00  0.00000000000E+00  0.27427283990E+04  0.27427283990E+04  0.50400001928E-02 0.  1.
       -1   -1    0    0    0  501  0.00000000000E+00  0.00000000000E+00 -0.14923210083E+04  0.14923210083E+04  0.50400001928E-02 0. -1.
    10030    2    1    2    0    0  0.00000000000E+00  0.00000000000E+00  0.12504073907E+04  0.42350494072E+04  0.40462482424E+04 0.  0.
        3    1    3    3  502    0  0.15827589291E+03 -0.69764334530E+03  0.26059311187E+04  0.27023387095E+04  0.10100000352E+00 0.  1.
       -3    1    3    3    0  502 -0.15827589291E+03  0.69764334530E+03 -0.13555237280E+04  0.15327106977E+04  0.10100000352E+00 0. -1.
</event>
<event>
 5   0  0.5515000E-08  0.4079733E+04  0.7818609E-02  0.7988652E-01
        1   -1    0    0  501    0  0.00000000000E+00  0.00000000000E+00  0.21315216984E+04  0.21315216984E+04  0.50400001928E-02 0. -1.
       -1   -1    0    0    0  501  0.00000000000E+00  0.00000000000E+00 -0.19521526877E+04  0.19521526877E+04  0.50400001928E-02 0.  1.
    10030    2    1    2    0    0  0.00000000000E+00  0.00000000000E+00  0.17936901070E+03  0.40836743860E+04  0.40797332326E+04 0.  0.
        3    1    3    3  502    0 -0.13787327685E+04  0.64230057615E+03 -0.12708937300E+04  0.19820759219E+04  0.10100000352E+00 0.  1.
       -3    1    3    3    0  502  0.13787327685E+04 -0.64230057615E+03  0.14502627407E+04  0.21015984641E+04  0.10100000352E+00 0. -1.
</event>
<event>
 5   0  0.5515000E-08  0.4017976E+04  0.7818609E-02  0.8000930E-01
        1   -1    0    0  501    0  0.00000000000E+00  0.00000000000E+00  0.27195049799E+04  0.27195049799E+04  0.50400001928E-02 0. -1.
       -1   -1    0    0    0  501  0.00000000000E+00  0.00000000000E+00 -0.14841059406E+04  0.14841059406E+04  0.50400001928E-02 0.  1.
    10030    2    1    2    0    0  0.00000000000E+00  0.00000000000E+00  0.12353990393E+04  0.42036109205E+04  0.40179763545E+04 0.  0.
        4    1    3    3  502    0 -0.66587769963E+03  0.17720425856E+04  0.13214622647E+04  0.23086342643E+04  0.12699999809E+01 0.  1.
       -4    1    3    3    0  502  0.66587769963E+03 -0.17720425856E+04 -0.86063225456E+02  0.18949766563E+04  0.12699999809E+01 0. -1.
</event>
<event>
 5   0  0.1819906E-07  0.4023027E+04  0.7818609E-02  0.7999917E-01
       -2   -1    0    0    0  501  0.00000000000E+00  0.00000000000E+00  0.16330102870E+04  0.16330102870E+04  0.25500000920E-02 0.  1.
        2   -1    0    0  501    0  0.00000000000E+00  0.00000000000E+00 -0.24777476151E+04  0.24777476151E+04  0.25500000920E-02 0. -1.
    10030    2    1    2    0    0  0.00000000000E+00  0.00000000000E+00 -0.84473732809E+03  0.41107579021E+04  0.40230273894E+04 0.  0.
        1    1    3    3  502    0 -0.45689755217E+03  0.12554455649E+04  0.11141820148E+04  0.17396265409E+04  0.50400001928E-02 0.  1.
       -1    1    3    3    0  502  0.45689755217E+03 -0.12554455649E+04 -0.19589193429E+04  0.23711313611E+04  0.50400001928E-02 0. -1.
</event>
<event>
 5   0  0.1776653E-07  0.4028516E+04  0.7818609E-02  0.7998819E-01
        2   -1    0    0  501    0  0.00000000000E+00  0.00000000000E+00  0.20616790099E+04  0.20616790099E+04  0.25500000920E-02 0.  1.
       -2   -1    0    0    0  501  0.00000000000E+00  0.00000000000E+00 -0.19679273102E+04  0.19679273102E+04  0.25500000920E-02 0. -1.
    10030    2    1    2    0    0  0.00000000000E+00  0.00000000000E+00  0.93751699787E+02  0.40296063201E+04  0.40285155720E+04 0.  0.
        4    1    3    3  502    0 -0.18492372138E+02 -0.15884167214E+04 -0.11919356231E+04  0.19859813169E+04  0.12699999809E+01 0. -1.
       -4    1    3    3    0  502  0.18492372138E+02  0.15884167214E+04  0.12856873229E+04  0.20436250032E+04  0.12699999809E+01 0.  1.
</event>
<event>
 5   0  0.5515000E-08  0.4096233E+04  0.7818609E-02  0.7985410E-01
       -1   -1    0    0    0  501  0.00000000000E+00  0.00000000000E+00  0.29106820844E+04  0.29106820844E+04  0.50400001928E-02 0.  1.
        1   -1    0    0  501    0  0.00000000000E+00  0.00000000000E+00 -0.14411676759E+04  0.14411676759E+04  0.50400001928E-02 0. -1.
    10030    2    1    2    0    0  0.00000000000E+00  0.00000000000E+00  0.14695144085E+04  0.43518497604E+04  0.40962328718E+04 0.  0.
        5    1    3    3  502    0  0.11876948815E+04  0.11456954389E+04  0.20235188033E+04  0.26111085017E+04  0.46999998093E+01 0.  1.
       -5    1    3    3    0  502 -0.11876948815E+04 -0.11456954389E+04 -0.55400439483E+03  0.17407412587E+04  0.46999998093E+01 0. -1.
</event>
<event>
 5   0  0.1819906E-07  0.3991630E+04  0.7818609E-02  0.8006237E-01
        2   -1    0    0  501    0  0.00000000000E+00  0.00000000000E+00  0.27916994371E+04  0.27916994371E+04  0.25500000920E-02 0.  1.
       -2   -1    0    0    0  501  0.00000000000E+00  0.00000000000E+00 -0.14268289403E+04  0.14268289403E+04  0.25500000920E-02 0. -1.
    10030    2    1    2    0    0  0.00000000000E+00  0.00000000000E+00  0.13648704968E+04  0.42185283774E+04  0.39916300177E+04 0.  0.
        1    1    3    3  502    0  0.31486361055E+03  0.13414463285E+04  0.22083431885E+04  0.26029592743E+04  0.50400001928E-02 0.  1.
       -1    1    3    3    0  502 -0.31486361055E+03 -0.13414463285E+04 -0.84347269165E+03  0.16155691031E+04  0.50400001928E-02 0. -1.
</event>
<event>
 5   0  0.5515000E-08  0.4000959E+04  0.7818609E-02  0.8004353E-01
        1   -1    0    0  501    0  0.00000000000E+00  0.00000000000E+00  0.29170340426E+04  0.29170340426E+04  0.50400001928E-02 0.  1.
       -1   -1    0    0    0  501  0.00000000000E+00  0.00000000000E+00 -0.13719133645E+04  0.13719133645E+04  0.50400001928E-02 0. -1.
    10030    2    1    2    0    0  0.00000000000E+00  0.00000000000E+00  0.15451206781E+04  0.42889474071E+04  0.40009588789E+04 0.  0.
        3    1    3    3  502    0  0.44294954322E+03  0.17528505385E+04  0.16904835501E+04  0.24751613991E+04  0.10100000352E+00 0.  1.
       -3    1    3    3    0  502 -0.44294954322E+03 -0.17528505385E+04 -0.14536287201E+03  0.18137860080E+04  0.10100000352E+00 0. -1.
</event>
<event>
 5   0  0.5515000E-08  0.4020469E+04  0.7818609E-02  0.8000430E-01
       -1   -1    0    0    0  501  0.00000000000E+00  0.00000000000E+00  0.13753294093E+04  0.13753294093E+04  0.50400001928E-02 0. -1.
        1   -1    0    0  501    0  0.00000000000E+00  0.00000000000E+00 -0.29382355733E+04  0.29382355733E+04  0.50400001928E-02 0.  1.
    10030    2    1    2    0    0  0.00000000000E+00  0.00000000000E+00 -0.15629061640E+04  0.43135649826E+04  0.40204685277E+04 0.  0.
        5    1    3    3  502    0 -0.32255660173E+03 -0.10243372303E+04  0.10417560200E+04  0.14961909029E+04  0.46999998093E+01 0. -1.
       -5    1    3    3    0  502  0.32255660173E+03  0.10243372303E+04 -0.26046621840E+04  0.28173740797E+04  0.46999998093E+01 0.  1.
</event>
<event>
 5   0  0.5515000E-08  0.3580435E+04  0.7818609E-02  0.8094988E-01
       -1   -1    0    0    0  501  0.00000000000E+00  0.00000000000E+00  0.22309199655E+04  0.22309199655E+04  0.50400001928E-02 0.  1.
        1   -1    0    0  501    0  0.00000000000E+00  0.00000000000E+00 -0.14365728116E+04  0.14365728117E+04  0.50400001928E-02 0. -1.
    10030    2    1    2    0    0  0.00000000000E+00  0.00000000000E+00  0.79434715390E+03  0.36674927772E+04  0.35804351509E+04 0.  0.
        2    1    3    3  502    0  0.13762527141E+04  0.99344541191E+03  0.98011009355E+03  0.19600053865E+04  0.25500000920E-02 0.  1.
       -2    1    3    3    0  502 -0.13762527141E+04 -0.99344541191E+03 -0.18576293965E+03  0.17074873907E+04  0.25500000920E-02 0. -1.
</event>
<event>
 5   0  0.1821433E-07  0.4020729E+04  0.7818609E-02  0.8000378E-01
       -2   -1    0    0    0  501  0.00000000000E+00  0.00000000000E+00  0.16942864181E+04  0.16942864181E+04  0.25500000920E-02 0.  1.
        2   -1    0    0  501    0  0.00000000000E+00  0.00000000000E+00 -0.23854081813E+04  0.23854081813E+04  0.25500000920E-02 0. -1.
    10030    2    1    2    0    0  0.00000000000E+00  0.00000000000E+00 -0.69112176316E+03  0.40796945994E+04  0.40207286321E+04 0.  0.
        5    1    3    3  502    0 -0.12743098262E+04 -0.72068391530E+03  0.10524301059E+04  0.18030202597E+04  0.46999998093E+01 0.  1.
       -5    1    3    3    0  502  0.12743098262E+04  0.72068391530E+03 -0.17435518691E+04  0.22766743397E+04  0.46999998093E+01 0. -1.
</event>
<event>
 5   0  0.1776653E-07  0.4069126E+04  0.7818609E-02  0.7990745E-01
       -2   -1    0    0    0  501  0.00000000000E+00  0.00000000000E+00  0.19186297025E+04  0.19186297026E+04  0.25500000920E-02 0.  1.
        2   -1    0    0  501    0  0.00000000000E+00  0.00000000000E+00 -0.21575016944E+04  0.21575016944E+04  0.25500000920E-02 0. -1.
    10030    2    1    2    0    0  0.00000000000E+00  0.00000000000E+00 -0.23887199184E+03  0.40761313969E+04  0.40691261146E+04 0.  0.
        4    1    3    3  502    0 -0.46099908207E+03 -0.14676360713E+04 -0.14532572972E+04  0.21162311254E+04  0.12699999809E+01 0. -1.
       -4    1    3    3    0  502  0.46099908207E+03  0.14676360713E+04  0.12143853054E+04  0.19599002715E+04  0.12699999809E+01 0.  1.
</event>
<event>
 5   0  0.5515000E-08  0.4011718E+04  0.7818609E-02  0.8002187E-01
       -1   -1    0    0    0  501  0.00000000000E+00  0.00000000000E+00  0.16131009726E+04  0.16131009726E+04  0.50400001928E-02 0.  1.
        1   -1    0    0  501    0  0.00000000000E+00  0.00000000000E+00 -0.24942462975E+04  0.24942462975E+04  0.50400001928E-02 0. -1.
    10030    2    1    2    0    0  0.00000000000E+00  0.00000000000E+00 -0.88114532491E+03  0.41073472702E+04  0.40117183992E+04 0.  0.
        1    1    3    3  502    0 -0.41885009784E+03 -0.10089168079E+04  0.12818257149E+04  0.16841691403E+04  0.50400001928E-02 0.  1.
       -1    1    3    3    0  502  0.41885009784E+03  0.10089168079E+04 -0.21629710398E+04  0.24231781298E+04  0.50400001928E-02 0. -1.
</event>
<event>
 5   0  0.1821433E-07  0.3905093E+04  0.7818609E-02  0.8023971E-01
        2   -1    0    0  501    0  0.00000000000E+00  0.00000000000E+00  0.18250249846E+04  0.18250249846E+04  0.25500000920E-02 0. -1.
       -2   -1    0    0    0  501  0.00000000000E+00  0.00000000000E+00 -0.20889780331E+04  0.20889780331E+04  0.25500000920E-02 0.  1.
    10030    2    1    2    0    0  0.00000000000E+00  0.00000000000E+00 -0.26395304842E+03  0.39140030177E+04  0.39050926251E+04 0.  0.
        5    1    3    3  502    0 -0.30562616412E+03  0.25866801770E+03 -0.20473834743E+04  0.20861729737E+04  0.46999998093E+01 0.  1.
       -5    1    3    3    0  502  0.30562616412E+03 -0.25866801770E+03  0.17834304259E+04  0.18278300439E+04  0.46999998093E+01 0. -1.
</event>
<event>
 5   0  0.5515000E-08  0.3979610E+04  0.7818609E-02  0.8008673E-01
        1   -1    0    0  501    0  0.00000000000E+00  0.00000000000E+00  0.25643487440E+04  0.25643487440E+04  0.50400001928E-02 0. -1.
       -1   -1    0    0    0  501  0.00000000000E+00  0.00000000000E+00 -0.15439881156E+04  0.15439881157E+04  0.50400001928E-02 0.  1.
    10030    2    1    2    0    0  0.00000000000E+00  0.00000000000E+00  0.10203606284E+04  0.41083368597E+04  0.39796100237E+04 0.  0.
        5    1    3    3  502    0  0.75551258644E+03  0.12403987111E+04  0.19142907271E+04  0.24028981061E+04  0.46999998093E+01 0. -1.
       -5    1    3    3    0  502 -0.75551258644E+03 -0.12403987111E+04 -0.89393009871E+03  0.17054387535E+04  0.46999998093E+01 0.  1.
</event>
<event>
 5   0  0.1773903E-07  0.4017606E+04  0.7818609E-02  0.8001004E-01
       -2   -1    0    0    0  501  0.00000000000E+00  0.00000000000E+00  0.16889784455E+04  0.16889784455E+04  0.25500000920E-02 0.  1.
        2   -1    0    0  501    0  0.00000000000E+00  0.00000000000E+00 -0.23891888900E+04  0.23891888900E+04  0.25500000920E-02 0. -1.
    10030    2    1    2    0    0  0.00000000000E+00  0.00000000000E+00 -0.70021044455E+03  0.40781673355E+04  0.40176055244E+04 0.  0.
        3    1    3    3  502    0 -0.13822243971E+04 -0.12085307664E+04 -0.11773735740E+04  0.21811234353E+04  0.10100000352E+00 0. -1.
       -3    1    3    3    0  502  0.13822243971E+04  0.12085307664E+04  0.47716312943E+03  0.18970439002E+04  0.10100000352E+00 0.  1.
</event>
<event>
 5   0  0.1821433E-07  0.3903551E+04  0.7818609E-02  0.8024291E-01
        2   -1    0    0  501    0  0.00000000000E+00  0.00000000000E+00  0.22109859279E+04  0.22109859279E+04  0.25500000920E-02 0. -1.
       -2   -1    0    0    0  501  0.00000000000E+00  0.00000000000E+00 -0.17229541708E+04  0.17229541708E+04  0.25500000920E-02 0.  1.
    10030    2    1    2    0    0  0.00000000000E+00  0.00000000000E+00  0.48803175715E+03  0.39339400987E+04  0.39035509097E+04 0.  0.
        5    1    3    3  502    0 -0.38067842705E+03 -0.78424407476E+03  0.20038781839E+04  0.21852928178E+04  0.46999998093E+01 0. -1.
       -5    1    3    3    0  502  0.38067842705E+03  0.78424407476E+03 -0.15158464267E+04  0.17486472809E+04  0.46999998093E+01 0.  1.
</event>
<event>
 5   0  0.5515000E-08  0.3980045E+04  0.7818609E-02  0.8008584E-01
        1   -1    0    0  501    0  0.00000000000E+00  0.00000000000E+00  0.18866507375E+04  0.18866507375E+04  0.50400001928E-02 0.  1.
       -1   -1    0    0    0  501  0.00000000000E+00  0.00000000000E+00 -0.20990576164E+04  0.20990576164E+04  0.50400001928E-02 0. -1.
    10030    2    1    2    0    0  0.00000000000E+00  0.00000000000E+00 -0.21240687891E+03  0.39857083539E+04  0.39800445224E+04 0.  0.
        4    1    3    3  502    0  0.15319161954E+04 -0.75864850665E+03 -0.11264133227E+04  0.20472233324E+04  0.12699999809E+01 0. -1.
       -4    1    3    3    0  502 -0.15319161954E+04  0.75864850665E+03  0.91400644384E+03  0.19384850215E+04  0.12699999809E+01 0.  1.
</event>
<event>
 5   0  0.1773903E-07  0.4000584E+04  0.7818609E-02  0.8004429E-01
       -2   -1    0    0    0  501  0.00000000000E+00  0.00000000000E+00  0.15023850741E+04  0.15023850741E+04  0.25500000920E-02 0. -1.
        2   -1    0    0  501    0  0.00000000000E+00  0.00000000000E+00 -0.26632112836E+04  0.26632112836E+04  0.25500000920E-02 0.  1.
    10030    2    1    2    0    0  0.00000000000E+00  0.00000000000E+00 -0.11608262095E+04  0.41655963577E+04  0.40005843981E+04 0.  0.
        3    1    3    3  502    0  0.11510803846E+04 -0.13240805755E+04  0.41993938503E+03  0.18040300772E+04  0.10100000352E+00 0. -1.
       -3    1    3    3    0  502 -0.11510803846E+04  0.13240805755E+04 -0.15807655946E+04  0.23615662805E+04  0.10100000352E+00 0.  1.
</event>
<event>
 5   0  0.1785559E-07  0.3967540E+04  0.7818609E-02  0.8011127E-01
       -2   -1    0    0    0  501  0.00000000000E+00  0.00000000000E+00  0.15974639017E+04  0.15974639017E+04  0.25500000920E-02 0.  1.
        2   -1    0    0  501    0  0.00000000000E+00  0.00000000000E+00 -0.24634947543E+04  0.24634947543E+04  0.25500000920E-02 0. -1.
    10030    2    1    2    0    0  0.00000000000E+00  0.00000000000E+00 -0.86603085256E+03  0.40609586560E+04  0.39675402667E+04 0.  0.
        2    1    3    3  502    0  0.44005597305E+03  0.18791311921E+04 -0.90268867703E+03  0.21306407825E+04  0.25500000920E-02 0.  1.
       -2    1    3    3    0  502 -0.44005597305E+03 -0.18791311921E+04  0.36657824464E+02  0.19303178735E+04  0.25500000920E-02 0. -1.
</event>
<event>
 5   0  0.1776653E-07  0.3804045E+04  0.7818609E-02  0.8045287E-01
       -2   -1    0    0    0  501  0.00000000000E+00  0.00000000000E+00  0.26106449567E+04  0.26106449567E+04  0.25500000920E-02 0. -1.
        2   -1    0    0  501    0  0.00000000000E+00  0.00000000000E+00 -0.13857454437E+04  0.13857454437E+04  0.25500000920E-02 0.  1.
    10030    2    1    2    0    0  0.00000000000E+00  0.00000000000E+00  0.12248995130E+04  0.39963904004E+04  0.38040448756E+04 0.  0.
        4    1    3    3  502    0  0.13796882105E+04  0.28029852935E+03 -0.73111404025E+03  0.15863909280E+04  0.12699999809E+01 0.  1.
       -4    1    3    3    0  502 -0.13796882105E+04 -0.28029852935E+03  0.19560135532E+04  0.24099994724E+04  0.12699999809E+01 0. -1.
</event>
<event>
 5   0  0.1821433E-07  0.4012908E+04  0.7818609E-02  0.8001948E-01
        2   -1    0    0  501    0  0.00000000000E+00  0.00000000000E+00  0.25180982507E+04  0.25180982507E+04  0.25500000920E-02 0. -1.
       -2   -1    0    0    0  501  0.00000000000E+00  0.00000000000E+00 -0.15987692016E+04  0.15987692016E+04  0.25500000920E-02 0.  1.
    10030    2    1    2    0    0  0.00000000000E+00  0.00000000000E+00  0.91932904912E+03  0.41168674524E+04  0.40129081375E+04 0.  0.
        5    1    3    3  502    0  0.12020003395E+04  0.11222940858E+03  0.21038166777E+04  0.24255859003E+04  0.46999998093E+01 0. -1.
       -5    1    3    3    0  502 -0.12020003395E+04 -0.11222940858E+03 -0.11844876286E+04  0.16912815521E+04  0.46999998093E+01 0.  1.
</event>
<event>
 5   0  0.1819906E-07  0.4091685E+04  0.7818609E-02  0.7986302E-01
       -2   -1    0    0    0  501  0.00000000000E+00  0.00000000000E+00  0.14573736755E+04  0.14573736755E+04  0.25500000920E-02 0. -1.
        2   -1    0    0  501    0  0.00000000000E+00  0.00000000000E+00 -0.28719269224E+04  0.28719269224E+04  0.25500000920E-02 0.  1.
    10030    2    1    2    0    0  0.00000000000E+00  0.00000000000E+00 -0.14145532469E+04  0.43293005979E+04  0.40916845894E+04 0.  0.
        1    1    3    3  502    0  0.73547141060E+03 -0.10168271899E+04  0.10022938350E+04  0.16060662071E+04  0.50400001928E-02 0. -1.
       -1    1    3    3    0  502 -0.73547141060E+03  0.10168271899E+04 -0.24168470819E+04  0.27232343908E+04  0.50400001928E-02 0.  1.
</event>
<event>
 5   0  0.1819906E-07  0.4302350E+04  0.7818609E-02  0.7946184E-01
        2   -1    0    0  501    0  0.00000000000E+00  0.00000000000E+00  0.14928506201E+04  0.14928506201E+04  0.25500000920E-02 0. -1.
       -2   -1    0    0    0  501  0.00000000000E+00  0.00000000000E+00 -0.30998105910E+04  0.30998105910E+04  0.25500000920E-02 0.  1.
    10030    2    1    2    0    0  0.00000000000E+00  0.00000000000E+00 -0.16069599709E+04  0.45926612110E+04  0.43023501312E+04 0.  0.
        1    1    3    3  502    0  0.20856040974E+04 -0.46163072038E+03 -0.53194012846E+03  0.22013195301E+04  0.50400001928E-02 0.  1.
       -1    1    3    3    0  502 -0.20856040974E+04  0.46163072038E+03 -0.10750198425E+04  0.23913416809E+04  0.50400001928E-02 0. -1.
</event>
<event>
 5   0  0.5515000E-08  0.4016101E+04  0.7818609E-02  0.8001306E-01
        1   -1    0    0  501    0  0.00000000000E+00  0.00000000000E+00  0.18086629775E+04  0.18086629775E+04  0.50400001928E-02 0. -1.
       -1   -1    0    0    0  501  0.00000000000E+00  0.00000000000E+00 -0.22294184665E+04  0.22294184665E+04  0.50400001928E-02 0.  1.
    10030    2    1    2    0    0  0.00000000000E+00  0.00000000000E+00 -0.42075548900E+03  0.40380814441E+04  0.40161009160E+04 0.  0.
        1    1    3    3  502    0 -0.14701501171E+04 -0.79461189148E+03  0.90905173230E+03  0.19023996628E+04  0.50400001928E-02 0. -1.
       -1    1    3    3    0  502  0.14701501171E+04  0.79461189148E+03 -0.13298072213E+04  0.21356817813E+04  0.50400001928E-02 0.  1.
</event>
<event>
 5   0  0.5515000E-08  0.4058303E+04  0.7818609E-02  0.7992887E-01
        1   -1    0    0  501    0  0.00000000000E+00  0.00000000000E+00  0.16372153730E+04  0.16372153730E+04  0.50400001928E-02 0. -1.
       -1   -1    0    0    0  501  0.00000000000E+00  0.00000000000E+00 -0.25149143242E+04  0.25149143242E+04  0.50400001928E-02 0.  1.
    10030    2    1    2    0    0  0.00000000000E+00  0.00000000000E+00 -0.87769895123E+03  0.41521296972E+04  0.40583032876E+04 0.  0.
        2    1    3    3  502    0  0.72444514904E+03  0.18554585464E+04 -0.83498205099E+03  0.21598014299E+04  0.25500000920E-02 0.  1.
       -2    1    3    3    0  502 -0.72444514904E+03 -0.18554585464E+04 -0.42716900235E+02  0.19923282673E+04  0.25500000920E-02 0. -1.
</event>
<event>
 5   0  0.1819906E-07  0.3951283E+04  0.7818609E-02  0.8014447E-01
        2   -1    0    0  501    0  0.00000000000E+00  0.00000000000E+00  0.23146487532E+04  0.23146487532E+04  0.25500000920E-02 0.  1.
       -2   -1    0    0    0  501  0.00000000000E+00  0.00000000000E+00 -0.16862856523E+04  0.16862856523E+04  0.25500000920E-02 0. -1.
    10030    2    1    2    0    0  0.00000000000E+00  0.00000000000E+00  0.62836310085E+03  0.40009344055E+04  0.39512828209E+04 0.  0.
        1    1    3    3  502    0  0.35032509766E+03  0.35412427656E+03 -0.16216547432E+04  0.16964362008E+04  0.50400001928E-02 0. -1.
       -1    1    3    3    0  502 -0.35032509766E+03 -0.35412427656E+03  0.22500178440E+04  0.23044982047E+04  0.50400001928E-02 0.  1.
</event>
<event>
 5   0  0.5515000E-08  0.3989853E+04  0.7818609E-02  0.8006597E-01
        1   -1    0    0  501    0  0.00000000000E+00  0.00000000000E+00  0.19655443798E+04  0.19655443798E+04  0.50400001928E-02 0. -1.
       -1   -1    0    0    0  501  0.00000000000E+00  0.00000000000E+00 -0.20247479346E+04  0.20247479346E+04  0.50400001928E-02 0.  1.
    10030    2    1    2    0    0  0.00000000000E+00  0.00000000000E+00 -0.59203554759E+02  0.39902923144E+04  0.39898530917E+04 0.  0.
        5    1    3    3  502    0 -0.30240897253E+03  0.17899012128E+04  0.79784188378E+03  0.19828694611E+04  0.46999998093E+01 0. -1.
       -5    1    3    3    0  502  0.30240897253E+03 -0.17899012128E+04 -0.85704543854E+03  0.20074228533E+04  0.46999998093E+01 0.  1.
</event>
<event>
 5   0  0.1821433E-07  0.3803569E+04  0.7818609E-02  0.8045389E-01
        2   -1    0    0  501    0  0.00000000000E+00  0.00000000000E+00  0.23696726188E+04  0.23696726188E+04  0.25500000920E-02 0.  1.
       -2   -1    0    0    0  501  0.00000000000E+00  0.00000000000E+00 -0.15262805013E+04  0.15262805013E+04  0.25500000920E-02 0. -1.
    10030    2    1    2    0    0  0.00000000000E+00  0.00000000000E+00  0.84339211751E+03  0.38959531201E+04  0.38035694355E+04 0.  0.
        5    1    3    3  502    0 -0.34841902377E+03  0.10220734520E+04  0.20252012811E+04  0.22951018008E+04  0.46999998093E+01 0.  1.
       -5    1    3    3    0  502  0.34841902377E+03 -0.10220734520E+04 -0.11818091636E+04  0.16008513193E+04  0.46999998093E+01 0. -1.
</event>
<event>
 5   0  0.5515000E-08  0.3980163E+04  0.7818609E-02  0.8008560E-01
       -1   -1    0    0    0  501  0.00000000000E+00  0.00000000000E+00  0.22832917388E+04  0.22832917388E+04  0.50400001928E-02 0.  1.
        1   -1    0    0  501    0  0.00000000000E+00  0.00000000000E+00 -0.17345243328E+04  0.17345243328E+04  0.50400001928E-02 0. -1.
    10030    2    1    2    0    0  0.00000000000E+00  0.00000000000E+00  0.54876740599E+03  0.40178160717E+04  0.39801633534E+04 0.  0.
        3    1    3    3  502    0 -0.19238170998E+03 -0.12741876053E+04  0.18052592381E+04  0.22180003838E+04  0.10100000352E+00 0.  1.
       -3    1    3    3    0  502  0.19238170998E+03  0.12741876053E+04 -0.12564918321E+04  0.17998156878E+04  0.10100000352E+00 0. -1.
</event>
<event>
 5   0  0.1785559E-07  0.3832583E+04  0.7818609E-02  0.8039199E-01
        2   -1    0    0  501    0  0.00000000000E+00  0.00000000000E+00  0.16090553196E+04  0.16090553196E+04  0.25500000920E-02 0.  1.
       -2   -1    0    0    0  501  0.00000000000E+00  0.00000000000E+00 -0.22821917842E+04  0.22821917842E+04  0.25500000920E-02 0. -1.
    10030    2    1    2    0    0  0.00000000000E+00  0.00000000000E+00 -0.67313646462E+03  0.38912471039E+04  0.38325828528E+04 0.  0.
        2    1    3    3  502    0 -0.13785985237E+04 -0.39643719796E+03  0.95350130649E+03  0.17224578610E+04  0.25500000920E-02 0.  1.
       -2    1    3    3    0  502  0.13785985237E+04  0.39643719796E+03 -0.16266377711E+04  0.21687892428E+04  0.25500000920E-02 0. -1.
</event>
<event>
 5   0  0.5515000E-08  0.3976591E+04  0.7818609E-02  0.8009286E-01
        1   -1    0    0  501    0  0.00000000000E+00  0.00000000000E+00  0.20623451639E+04  0.20623451639E+04  0.50400001928E-02 0.  1.
       -1   -1    0    0    0  501  0.00000000000E+00  0.00000000000E+00 -0.19169044068E+04  0.19169044068E+04  0.50400001928E-02 0. -1.
    10030    2    1    2    0    0  0.00000000000E+00  0.00000000000E+00  0.14544075703E+03  0.39792495707E+04  0.39765907675E+04 0.  0.
        4    1    3    3  502    0 -0.63847933107E+03 -0.97284380101E+03 -0.15405721971E+04  0.19306592720E+04  0.12699999809E+01 0. -1.
       -4    1    3    3    0  502  0.63847933107E+03  0.97284380101E+03  0.16860129541E+04  0.20485902987E+04  0.12699999809E+01 0.  1.
</event>
<event>
 5   0  0.5515000E-08  0.3942618E+04  0.7818609E-02  0.8016223E-01
       -3   -1    0    0    0  501  0.00000000000E+00  0.00000000000E+00  0.14119844479E+04  0.14119844515E+04  0.10100000352E+00 0. -1.
        3   -1    0    0  501    0  0.00000000000E+00  0.00000000000E+00 -0.27521967812E+04  0.27521967831E+04  0.10100000352E+00 0.  1.
    10030    2    1    2    0    0  0.00000000000E+00  0.00000000000E+00 -0.13402123333E+04  0.41641812345E+04  0.39426179444E+04 0.  0.
        4    1    3    3  502    0 -0.18579923117E+04 -0.23655944922E+03 -0.13194411409E+04  0.22910744947E+04  0.12699999809E+01 0.  1.
       -4    1    3    3    0  502  0.18579923117E+04  0.23655944922E+03 -0.20771192455E+02  0.18731067398E+04  0.12699999809E+01 0. -1.
</event>
<event>
 5   0  0.5515000E-08  0.3977093E+04  0.7818609E-02  0.8009184E-01
       -1   -1    0    0    0  501  0.00000000000E+00  0.00000000000E+00  0.17791468281E+04  0.17791468281E+04  0.50400001928E-02 0. -1.
        1   -1    0    0  501    0  0.00000000000E+00  0.00000000000E+00 -0.22225914513E+04  0.22225914513E+04  0.50400001928E-02 0.  1.
    10030    2    1    2    0    0  0.00000000000E+00  0.00000000000E+00 -0.44344462319E+03  0.40017382794E+04  0.39770926722E+04 0.  0.
        3    1    3    3  502    0 -0.67496611090E+03 -0.86013299564E+03  0.14495669370E+04  0.18156685645E+04  0.10100000352E+00 0. -1.
       -3    1    3    3    0  502  0.67496611090E+03  0.86013299564E+03 -0.18930115602E+04  0.21860697149E+04  0.10100000352E+00 0.  1.
</event>
<event>
 5   0  0.5515000E-08  0.4011149E+04  0.7818609E-02  0.8002301E-01
        1   -1    0    0  501    0  0.00000000000E+00  0.00000000000E+00  0.11660299734E+04  0.11660299735E+04  0.50400001928E-02 0. -1.
       -1   -1    0    0    0  501  0.00000000000E+00  0.00000000000E+00 -0.34495933120E+04  0.34495933120E+04  0.50400001928E-02 0.  1.
    10030    2    1    2    0    0  0.00000000000E+00  0.00000000000E+00 -0.22835633385E+04  0.46156232855E+04  0.40111490613E+04 0.  0.
        2    1    3    3  502    0  0.81647798886E+03 -0.17867478116E+04 -0.67688643759E+03  0.20778063668E+04  0.25500000920E-02 0.  1.
       -2    1    3    3    0  502 -0.81647798886E+03  0.17867478116E+04 -0.16066769010E+04  0.25378169187E+04  0.25500000920E-02 0. -1.
</event>
<event>
 5   0  0.1773903E-07  0.4046533E+04  0.7818609E-02  0.7995225E-01
       -2   -1    0    0    0  501  0.00000000000E+00  0.00000000000E+00  0.15762293906E+04  0.15762293906E+04  0.25500000920E-02 0.  1.
        2   -1    0    0  501    0  0.00000000000E+00  0.00000000000E+00 -0.25970888204E+04  0.25970888204E+04  0.25500000920E-02 0. -1.
    10030    2    1    2    0    0  0.00000000000E+00  0.00000000000E+00 -0.10208594298E+04  0.41733182110E+04  0.40465331971E+04 0.  0.
        3    1    3    3  502    0 -0.19379105725E+04  0.56577734643E+03 -0.64882170113E+03  0.21205119672E+04  0.10100000352E+00 0.  1.
       -3    1    3    3    0  502  0.19379105725E+04 -0.56577734643E+03 -0.37203772865E+03  0.20528062438E+04  0.10100000352E+00 0. -1.
</event>
<event>
 5   0  0.1819906E-07  0.3988482E+04  0.7818609E-02  0.8006874E-01
       -2   -1    0    0    0  501  0.00000000000E+00  0.00000000000E+00  0.18180689098E+04  0.18180689098E+04  0.25500000920E-02 0.  1.
        2   -1    0    0  501    0  0.00000000000E+00  0.00000000000E+00 -0.21874840988E+04  0.21874840988E+04  0.25500000920E-02 0. -1.
    10030    2    1    2    0    0  0.00000000000E+00  0.00000000000E+00 -0.36941518908E+03  0.40055530086E+04  0.39884818318E+04 0.  0.
        1    1    3    3  502    0  0.10758514341E+04  0.91496768085E+03 -0.15987021420E+04  0.21331832327E+04  0.50400001928E-02 0. -1.
       -1    1    3    3    0  502 -0.10758514341E+04 -0.91496768085E+03  0.12292869529E+04  0.18723697760E+04  0.50400001928E-02 0.  1.
</event>
<event>
 5   0  0.5515000E-08  0.3983030E+04  0.7818609E-02  0.8007979E-01
       -1   -1    0    0    0  501  0.00000000000E+00  0.00000000000E+00  0.24022517129E+04  0.24022517129E+04  0.50400001928E-02 0.  1.
        1   -1    0    0  501    0  0.00000000000E+00  0.00000000000E+00 -0.16510061596E+04  0.16510061596E+04  0.50400001928E-02 0. -1.
    10030    2    1    2    0    0  0.00000000000E+00  0.00000000000E+00  0.75124555326E+03  0.40532578725E+04  0.39830301907E+04 0.  0.
        2    1    3    3  502    0 -0.58730631944E+03 -0.12136891701E+03 -0.15569328083E+04  0.16684420567E+04  0.25500000920E-02 0. -1.
       -2    1    3    3    0  502  0.58730631944E+03  0.12136891701E+03  0.23081783616E+04  0.23848158159E+04  0.25500000920E-02 0.  1.
</event>
<event>
 5   0  0.5515000E-08  0.3997861E+04  0.7818609E-02  0.8004978E-01
       -1   -1    0    0    0  501  0.00000000000E+00  0.00000000000E+00  0.20871331555E+04  0.20871331555E+04  0.50400001928E-02 0. -1.
        1   -1    0    0  501    0  0.00000000000E+00  0.00000000000E+00 -0.19144552782E+04  0.19144552783E+04  0.50400001928E-02 0.  1.
    10030    2    1    2    0    0  0.00000000000E+00  0.00000000000E+00  0.17267787725E+03  0.40015884338E+04  0.39978609711E+04 0.  0.
        4    1    3    3  502    0  0.59884009984E+03 -0.32795328616E+03 -0.17941246710E+04  0.19196478247E+04  0.12699999809E+01 0.  1.
       -4    1    3    3    0  502 -0.59884009984E+03  0.32795328616E+03  0.19668025482E+04  0.20819406091E+04  0.12699999809E+01 0. -1.
</event>
<event>
 5   0  0.5515000E-08  0.3949858E+04  0.7818609E-02  0.8014739E-01
       -1   -1    0    0    0  501  0.00000000000E+00  0.00000000000E+00  0.16308892544E+04  0.16308892544E+04  0.50400001928E-02 0.  1.
        1   -1    0    0  501    0  0.00000000000E+00  0.00000000000E+00 -0.23915452321E+04  0.23915452321E+04  0.50400001928E-02 0. -1.
    10030    2    1    2    0    0  0.00000000000E+00  0.00000000000E+00 -0.76065597765E+03  0.40224344865E+04  0.39498584382E+04 0.  0.
        5    1    3    3  502    0 -0.13757488629E+03 -0.82019320398E+03 -0.22045203148E+04  0.23561781871E+04  0.46999998093E+01 0. -1.
       -5    1    3    3    0  502  0.13757488629E+03  0.82019320398E+03  0.14438643371E+04  0.16662562994E+04  0.46999998093E+01 0.  1.
</event>
<event>
 5   0  0.5515000E-08  0.3998531E+04  0.7818609E-02  0.8004843E-01
       -1   -1    0    0    0  501  0.00000000000E+00  0.00000000000E+00  0.22436938317E+04  0.22436938317E+04  0.50400001928E-02 0. -1.
        1   -1    0    0  501    0  0.00000000000E+00  0.00000000000E+00 -0.17814650228E+04  0.17814650228E+04  0.50400001928E-02 0.  1.
    10030    2    1    2    0    0  0.00000000000E+00  0.00000000000E+00  0.46222880885E+03  0.40251588545E+04  0.39985307717E+04 0.  0.
        4    1    3    3  502    0  0.15930316171E+04 -0.11738176591E+04 -0.56203279004E+02  0.19795853231E+04  0.12699999809E+01 0. -1.
       -4    1    3    3    0  502 -0.15930316171E+04  0.11738176591E+04  0.51843208786E+03  0.20455735314E+04  0.12699999809E+01 0.  1.
</event>
<event>
 5   0  0.1785559E-07  0.4014390E+04  0.7818609E-02  0.8001650E-01
        2   -1    0    0  501    0  0.00000000000E+00  0.00000000000E+00  0.18781837095E+04  0.18781837095E+04  0.25500000920E-02 0. -1.
       -2   -1    0    0    0  501  0.00000000000E+00  0.00000000000E+00 -0.21450684062E+04  0.21450684062E+04  0.25500000920E-02 0.  1.
    10030    2    1    2    0    0  0.00000000000E+00  0.00000000000E+00 -0.26688469673E+03  0.40232521157E+04  0.40143903828E+04 0.  0.
        2    1    3    3  502    0 -0.10089458517E+03  0.17744069325E+04  0.80142594122E+03  0.19496110429E+04  0.25500000920E-02 0. -1.
       -2    1    3    3    0  502  0.10089458517E+03 -0.17744069325E+04 -0.10683106379E+04  0.20736410728E+04  0.25500000920E-02 0.  1.
</event>
<event>
 5   0  0.1819906E-07  0.3988330E+04  0.7818609E-02  0.8006905E-01
        2   -1    0    0  501    0  0.00000000000E+00  0.00000000000E+00  0.22652677633E+04  0.22652677633E+04  0.25500000920E-02 0. -1.
       -2   -1    0    0    0  501  0.00000000000E+00  0.00000000000E+00 -0.17555074182E+04  0.17555074182E+04  0.25500000920E-02 0.  1.
    10030    2    1    2    0    0  0.00000000000E+00  0.00000000000E+00  0.50976034510E+03  0.40207751815E+04  0.39883301581E+04 0.  0.
        1    1    3    3  502    0 -0.14939443190E+04  0.12226480589E+04  0.75890376960E+03  0.20742885131E+04  0.50400001928E-02 0. -1.
       -1    1    3    3    0  502  0.14939443190E+04 -0.12226480589E+04 -0.24914342450E+03  0.19464866683E+04  0.50400001928E-02 0.  1.
</event>
<event>
 5   0  0.5515000E-08  0.3984985E+04  0.7818609E-02  0.8007582E-01
       -1   -1    0    0    0  501  0.00000000000E+00  0.00000000000E+00  0.28183693387E+04  0.28183693387E+04  0.50400001928E-02 0.  1.
        1   -1    0    0  501    0  0.00000000000E+00  0.00000000000E+00 -0.14086255116E+04  0.14086255116E+04  0.50400001928E-02 0. -1.
    10030    2    1    2    0    0  0.00000000000E+00  0.00000000000E+00  0.14097438271E+04  0.42269948503E+04  0.39849852956E+04 0.  0.
        1    1    3    3  502    0  0.50208048726E+03 -0.10093190552E+04  0.24475770462E+04  0.26947065087E+04  0.50400001928E-02 0.  1.
       -1    1    3    3    0  502 -0.50208048726E+03  0.10093190552E+04 -0.10378332191E+04  0.15322883415E+04  0.50400001928E-02 0. -1.
</event>
<event>
 5   0  0.1785559E-07  0.4007279E+04  0.7818609E-02  0.8003080E-01
       -2   -1    0    0    0  501  0.00000000000E+00  0.00000000000E+00  0.21071055531E+04  0.21071055531E+04  0.25500000920E-02 0. -1.
        2   -1    0    0  501    0  0.00000000000E+00  0.00000000000E+00 -0.19052535421E+04  0.19052535421E+04  0.25500000920E-02 0.  1.
    10030    2    1    2    0    0  0.00000000000E+00  0.00000000000E+00  0.20185201099E+03  0.40123590953E+04  0.40072785372E+04 0.  0.
        2    1    3    3  502    0 -0.78168442635E+03 -0.13023200571E+04  0.14092969941E+04  0.20720005046E+04  0.25500000920E-02 0. -1.
       -2    1    3    3    0  502  0.78168442635E+03  0.13023200571E+04 -0.12074449831E+04  0.19403585907E+04  0.25500000920E-02 0.  1.
</event>
<event>
 5   0  0.5515000E-08  0.3930363E+04  0.7818609E-02  0.8018744E-01
        1   -1    0    0  501    0  0.00000000000E+00  0.00000000000E+00  0.20069107861E+04  0.20069107862E+04  0.50400001928E-02 0. -1.
       -1   -1    0    0    0  501  0.00000000000E+00  0.00000000000E+00 -0.19243198643E+04  0.19243198643E+04  0.50400001928E-02 0.  1.
    10030    2    1    2    0    0  0.00000000000E+00  0.00000000000E+00  0.82590921815E+02  0.39312306505E+04  0.39303629816E+04 0.  0.
        3    1    3    3  502    0  0.13990114463E+04 -0.40042480056E+03 -0.12797403041E+04  0.19378617867E+04  0.10100000352E+00 0.  1.
       -3    1    3    3    0  502 -0.13990114463E+04  0.40042480056E+03  0.13623312260E+04  0.19933688638E+04  0.10100000352E+00 0. -1.
</event>
<event>
 5   0  0.1819906E-07  0.3988633E+04  0.7818609E-02  0.8006844E-01
       -2   -1    0    0    0  501  0.00000000000E+00  0.00000000000E+00  0.25150029733E+04  0.25150029733E+04  0.25500000920E-02 0.  1.
        2   -1    0    0  501    0  0.00000000000E+00  0.00000000000E+00 -0.15814289540E+04  0.15814289540E+04  0.25500000920E-02 0. -1.
    10030    2    1    2    0    0  0.00000000000E+00  0.00000000000E+00  0.93357401935E+03  0.40964319273E+04  0.39886331099E+04 0.  0.
        1    1    3    3  502    0  0.13910038317E+04 -0.11919281331E+04 -0.34301162673E+03  0.18636634113E+04  0.50400001928E-02 0. -1.
       -1    1    3    3    0  502 -0.13910038317E+04  0.11919281331E+04  0.12765856461E+04  0.22327685160E+04  0.50400001928E-02 0.  1.
</event>
<event>
 5   0  0.5515000E-08  0.3975334E+04  0.7818609E-02  0.8009541E-01
       -1   -1    0    0    0  501  0.00000000000E+00  0.00000000000E+00  0.25200768044E+04  0.25200768045E+04  0.50400001928E-02 0. -1.
        1   -1    0    0  501    0  0.00000000000E+00  0.00000000000E+00 -0.15677380799E+04  0.15677380799E+04  0.50400001928E-02 0.  1.
    10030    2    1    2    0    0  0.00000000000E+00  0.00000000000E+00  0.95233872456E+03  0.40878148843E+04  0.39753341347E+04 0.  0.
        5    1    3    3  502    0 -0.14605530085E+04  0.12043568450E+04  0.10992071347E+04  0.21890566268E+04  0.46999998093E+01 0. -1.
       -5    1    3    3    0  502  0.14605530085E+04 -0.12043568450E+04 -0.14686841014E+03  0.18987582575E+04  0.46999998093E+01 0.  1.
</event>
<event>
 5   0  0.1821433E-07  0.4003588E+04  0.7818609E-02  0.8003823E-01
        2   -1    0    0  501    0  0.00000000000E+00  0.00000000000E+00  0.20231762533E+04  0.20231762533E+04  0.25500000920E-02 0.  1.
       -2   -1    0    0    0  501  0.00000000000E+00  0.00000000000E+00 -0.19806377082E+04  0.19806377082E+04  0.25500000920E-02 0. -1.
    10030    2    1    2    0    0  0.00000000000E+00  0.00000000000E+00  0.42538545085E+02  0.40038139616E+04  0.40035879797E+04 0.  0.
        5    1    3    3  502    0 -0.12402348158E+03  0.19284964179E+04 -0.50094487254E+03  0.19963587135E+04  0.46999998093E+01 0.  1.
       -5    1    3    3    0  502  0.12402348158E+03 -0.19284964179E+04  0.54348341762E+03  0.20074552481E+04  0.46999998093E+01 0. -1.
</event>
<event>
 5   0  0.1819906E-07  0.3996513E+04  0.7818609E-02  0.8005250E-01
       -2   -1    0    0    0  501  0.00000000000E+00  0.00000000000E+00  0.19822584601E+04  0.19822584601E+04  0.25500000920E-02 0.  1.
        2   -1    0    0  501    0  0.00000000000E+00  0.00000000000E+00 -0.20143834493E+04  0.20143834493E+04  0.25500000920E-02 0. -1.
    10030    2    1    2    0    0  0.00000000000E+00  0.00000000000E+00 -0.32124989242E+02  0.39966419094E+04  0.39965127971E+04 0.  0.
        1    1    3    3  502    0  0.10873610835E+04 -0.94938691506E+03 -0.13978954668E+04  0.20094281218E+04  0.50400001928E-02 0. -1.
       -1    1    3    3    0  502 -0.10873610835E+04  0.94938691506E+03  0.13657704776E+04  0.19872137877E+04  0.50400001928E-02 0.  1.
</event>
<event>
 5   0  0.5515000E-08  0.3649885E+04  0.7818609E-02  0.8079160E-01
        1   -1    0    0  501    0  0.00000000000E+00  0.00000000000E+00  0.23268647759E+04  0.23268647759E+04  0.50400001928E-02 0.  1.
       -1   -1    0    0    0  501  0.00000000000E+00  0.00000000000E+00 -0.14312887464E+04  0.14312887464E+04  0.50400001928E-02 0. -1.
    10030    2    1    2    0    0  0.00000000000E+00  0.00000000000E+00  0.89557602949E+03  0.37581535224E+04  0.36498851315E+04 0.  0.
        2    1    3    3  502    0 -0.14608717925E+04 -0.19853428357E+03 -0.65968825778E+03  0.16151627947E+04  0.25500000920E-02 0. -1.
       -2    1    3    3    0  502  0.14608717925E+04  0.19853428357E+03  0.15552642873E+04  0.21429907277E+04  0.25500000920E-02 0.  1.
</event>
<event>
 5   0  0.1785559E-07  0.3960731E+04  0.7818609E-02  0.8012516E-01
       -2   -1    0    0    0  501  0.00000000000E+00  0.00000000000E+00  0.28838217619E+04  0.28838217619E+04  0.25500000920E-02 0.  1.
        2   -1    0    0  501    0  0.00000000000E+00  0.00000000000E+00 -0.13599478035E+04  0.13599478035E+04  0.25500000920E-02 0. -1.
    10030    2    1    2    0    0  0.00000000000E+00  0.00000000000E+00  0.15238739584E+04  0.42437695654E+04  0.39607307764E+04 0.  0.
        2    1    3    3  502    0 -0.15365356712E+04  0.11288272405E+04  0.13355984385E+04  0.23278780030E+04  0.25500000920E-02 0.  1.
       -2    1    3    3    0  502  0.15365356712E+04 -0.11288272405E+04  0.18827551993E+03  0.19158915625E+04  0.25500000920E-02 0. -1.
</event>
<event>
 5   0  0.1819906E-07  0.3984209E+04  0.7818609E-02  0.8007740E-01
        2   -1    0    0  501    0  0.00000000000E+00  0.00000000000E+00  0.24492020233E+04  0.24492020233E+04  0.25500000920E-02 0. -1.
       -2   -1    0    0    0  501  0.00000000000E+00  0.00000000000E+00 -0.16203159568E+04  0.16203159568E+04  0.25500000920E-02 0.  1.
    10030    2    1    2    0    0  0.00000000000E+00  0.00000000000E+00  0.82888606650E+03  0.40695179802E+04  0.39842093921E+04 0.  0.
        1    1    3    3  502    0 -0.12779636918E+04 -0.95979932040E+03 -0.80016756861E+03  0.17873651196E+04  0.50400001928E-02 0.  1.
       -1    1    3    3    0  502  0.12779636918E+04  0.95979932040E+03  0.16290536351E+04  0.22821528606E+04  0.50400001928E-02 0. -1.
</event>
<event>
 5   0  0.5515000E-08  0.3969784E+04  0.7818609E-02  0.8010670E-01
        1   -1    0    0  501    0  0.00000000000E+00  0.00000000000E+00  0.24848746903E+04  0.24848746903E+04  0.50400001928E-02 0. -1.
       -1   -1    0    0    0  501  0.00000000000E+00  0.00000000000E+00 -0.15855108758E+04  0.15855108758E+04  0.50400001928E-02 0.  1.
    10030    2    1    2    0    0  0.00000000000E+00  0.00000000000E+00  0.89936381450E+03  0.40703855662E+04  0.39697837959E+04 0.  0.
        2    1    3    3  502    0 -0.96098156157E+03  0.35761976191E+02  0.22300697177E+04  0.24285747727E+04  0.25500000920E-02 0. -1.
       -2    1    3    3    0  502  0.96098156157E+03 -0.35761976191E+02 -0.13307059032E+04  0.16418107935E+04  0.25500000920E-02 0.  1.
</event>
<event>
 5   0  0.5515000E-08  0.4066891E+04  0.7818609E-02  0.7991187E-01
       -1   -1    0    0    0  501  0.00000000000E+00  0.00000000000E+00  0.21608574274E+04  0.21608574274E+04  0.50400001928E-02 0. -1.
        1   -1    0    0  501    0  0.00000000000E+00  0.00000000000E+00 -0.19135465173E+04  0.19135465173E+04  0.50400001928E-02 0.  1.
    10030    2    1    2    0    0  0.00000000000E+00  0.00000000000E+00  0.24731091012E+03  0.40744039448E+04  0.40668912967E+04 0.  0.
        4    1    3    3  502    0  0.18222306386E+04  0.33055095891E+03 -0.71760468497E+03  0.19861385988E+04  0.12699999809E+01 0.  1.
       -4    1    3    3    0  502 -0.18222306386E+04 -0.33055095891E+03  0.96491559509E+03  0.20882653460E+04  0.12699999809E+01 0. -1.
</event>
<event>
 5   0  0.1821433E-07  0.3994914E+04  0.7818609E-02  0.8005573E-01
       -2   -1    0    0    0  501  0.00000000000E+00  0.00000000000E+00  0.27327237606E+04  0.27327237606E+04  0.25500000920E-02 0.  1.
        2   -1    0    0  501    0  0.00000000000E+00  0.00000000000E+00 -0.14600209018E+04  0.14600209018E+04  0.25500000920E-02 0. -1.
    10030    2    1    2    0    0  0.00000000000E+00  0.00000000000E+00  0.12727028588E+04  0.41927446624E+04  0.39949136708E+04 0.  0.
        5    1    3    3  502    0  0.77367776584E+03 -0.13779964885E+04  0.19184689418E+04  0.24855576393E+04  0.46999998093E+01 0.  1.
       -5    1    3    3    0  502 -0.77367776584E+03  0.13779964885E+04 -0.64576608300E+03  0.17071870231E+04  0.46999998093E+01 0. -1.
</event>
<event>
 5   0  0.5515000E-08  0.4000453E+04  0.7818609E-02  0.8004455E-01
        1   -1    0    0  501    0  0.00000000000E+00  0.00000000000E+00  0.25853189971E+04  0.25853189971E+04  0.50400001928E-02 0. -1.
       -1   -1    0    0    0  501  0.00000000000E+00  0.00000000000E+00 -0.15475485099E+04  0.15475485099E+04  0.50400001928E-02 0.  1.
    10030    2    1    2    0    0  0.00000000000E+00  0.00000000000E+00  0.10377704873E+04  0.41328675070E+04  0.40004532551E+04 0.  0.
        5    1    3    3  502    0  0.31578411292E+03 -0.19732734135E+04  0.60749667416E+03  0.20886842436E+04  0.46999998093E+01 0. -1.
       -5    1    3    3    0  502 -0.31578411292E+03  0.19732734135E+04  0.43027381310E+03  0.20441832634E+04  0.46999998093E+01 0.  1.
</event>
<event>
 5   0  0.5515000E-08  0.3940139E+04  0.7818609E-02  0.8016733E-01
       -1   -1    0    0    0  501  0.00000000000E+00  0.00000000000E+00  0.18437957996E+04  0.18437957996E+04  0.50400001928E-02 0.  1.
        1   -1    0    0  501    0  0.00000000000E+00  0.00000000000E+00 -0.21049908325E+04  0.21049908325E+04  0.50400001928E-02 0. -1.
    10030    2    1    2    0    0  0.00000000000E+00  0.00000000000E+00 -0.26119503291E+03  0.39487866321E+04  0.39401387058E+04 0.  0.
        3    1    3    3  502    0 -0.11331622431E+03  0.17290965493E+04  0.80877386906E+03  0.19122579912E+04  0.10100000352E+00 0. -1.
       -3    1    3    3    0  502  0.11331622431E+03 -0.17290965493E+04 -0.10699689020E+04  0.20365286409E+04  0.10100000352E+00 0.  1.
</event>
<event>
 5   0  0.1773903E-07  0.3447231E+04  0.7818609E-02  0.8126411E-01
       -2   -1    0    0    0  501  0.00000000000E+00  0.00000000000E+00  0.12796124055E+04  0.12796124055E+04  0.25500000920E-02 0.  1.
        2   -1    0    0  501    0  0.00000000000E+00  0.00000000000E+00 -0.23216802733E+04  0.23216802733E+04  0.25500000920E-02 0. -1.
    10030    2    1    2    0    0  0.00000000000E+00  0.00000000000E+00 -0.10420678678E+04  0.36012926788E+04  0.34472312829E+04 0.  0.
        3    1    3    3  502    0  0.14560109661E+04 -0.11847440757E+03  0.43464268950E+03  0.15241123306E+04  0.10100000352E+00 0.  1.
       -3    1    3    3    0  502 -0.14560109661E+04  0.11847440757E+03 -0.14767105573E+04  0.20771803482E+04  0.10100000352E+00 0. -1.
</event>
<event>
 5   0  0.1821433E-07  0.3724772E+04  0.7818609E-02  0.8062494E-01
        2   -1    0    0  501    0  0.00000000000E+00  0.00000000000E+00  0.23311719305E+04  0.23311719305E+04  0.25500000920E-02 0. -1.
       -2   -1    0    0    0  501  0.00000000000E+00  0.00000000000E+00 -0.14878705475E+04  0.14878705475E+04  0.25500000920E-02 0.  1.
    10030    2    1    2    0    0  0.00000000000E+00  0.00000000000E+00  0.84330138302E+03  0.38190424780E+04  0.37247722382E+04 0.  0.
        5    1    3    3  502    0 -0.75978765163E+03 -0.15587490727E+04  0.11181699042E+04  0.20633230411E+04  0.46999998093E+01 0. -1.
       -5    1    3    3    0  502  0.75978765163E+03  0.15587490727E+04 -0.27486852120E+03  0.17557194369E+04  0.46999998093E+01 0.  1.
</event>
<event>
 5   0  0.5515000E-08  0.3985214E+04  0.7818609E-02  0.8007536E-01
        3   -1    0    0  501    0  0.00000000000E+00  0.00000000000E+00  0.22903563118E+04  0.22903563140E+04  0.10100000352E+00 0. -1.
       -3   -1    0    0    0  501  0.00000000000E+00  0.00000000000E+00 -0.17335654907E+04  0.17335654936E+04  0.10100000352E+00 0.  1.
    10030    2    1    2    0    0  0.00000000000E+00  0.00000000000E+00  0.55679082113E+03  0.40239218077E+04  0.39852140088E+04 0.  0.
        2    1    3    3  502    0  0.68357663627E+02  0.19189424823E+04  0.81598539761E+03  0.20863473320E+04  0.25500000920E-02 0. -1.
       -2    1    3    3    0  502 -0.68357663627E+02 -0.19189424823E+04 -0.25919457649E+03  0.19375744757E+04  0.25500000920E-02 0.  1.
</event>
<event>
 5   0  0.5515000E-08  0.3994951E+04  0.7818609E-02  0.8005566E-01
        1   -1    0    0  501    0  0.00000000000E+00  0.00000000000E+00  0.14143714110E+04  0.14143714110E+04  0.50400001928E-02 0. -1.
       -1   -1    0    0    0  501  0.00000000000E+00  0.00000000000E+00 -0.28209765512E+04  0.28209765512E+04  0.50400001928E-02 0.  1.
    10030    2    1    2    0    0  0.00000000000E+00  0.00000000000E+00 -0.14066051402E+04  0.42353479622E+04  0.39949511061E+04 0.  0.
        2    1    3    3  502    0 -0.10452095883E+03  0.19934665186E+04 -0.62777527457E+03  0.20925905445E+04  0.25500000920E-02 0.  1.
       -2    1    3    3    0  502  0.10452095883E+03 -0.19934665186E+04 -0.77882986567E+03  0.21427574177E+04  0.25500000920E-02 0. -1.
</event>
<event>
 5   0  0.1776653E-07  0.3991740E+04  0.7818609E-02  0.8006215E-01
        2   -1    0    0  501    0  0.00000000000E+00  0.00000000000E+00  0.24587224246E+04  0.24587224246E+04  0.25500000920E-02 0.  1.
       -2   -1    0    0    0  501  0.00000000000E+00  0.00000000000E+00 -0.16201489913E+04  0.16201489913E+04  0.25500000920E-02 0. -1.
    10030    2    1    2    0    0  0.00000000000E+00  0.00000000000E+00  0.83857343334E+03  0.40788714159E+04  0.39917397992E+04 0.  0.
        4    1    3    3  502    0 -0.10265992923E+03 -0.45664874067E+03  0.24018510224E+04  0.24470302573E+04  0.12699999809E+01 0.  1.
       -4    1    3    3    0  502  0.10265992923E+03  0.45664874067E+03 -0.15632775891E+04  0.16318411586E+04  0.12699999809E+01 0. -1.
</event>
<event>
 5   0  0.1821433E-07  0.4050119E+04  0.7818609E-02  0.7994512E-01
       -2   -1    0    0    0  501  0.00000000000E+00  0.00000000000E+00  0.15130240263E+04  0.15130240263E+04  0.25500000920E-02 0. -1.
        2   -1    0    0  501    0  0.00000000000E+00  0.00000000000E+00 -0.27103769652E+04  0.27103769652E+04  0.25500000920E-02 0.  1.
    10030    2    1    2    0    0  0.00000000000E+00  0.00000000000E+00 -0.11973529389E+04  0.42234009915E+04  0.40501187482E+04 0.  0.
        5    1    3    3  502    0 -0.72277584684E+03  0.10645519613E+04 -0.22292818643E+04  0.25739843674E+04  0.46999998093E+01 0.  1.
       -5    1    3    3    0  502  0.72277584684E+03 -0.10645519613E+04  0.10319289254E+04  0.16494166241E+04  0.46999998093E+01 0. -1.
</event>
<event>
 5   0  0.5515000E-08  0.3800416E+04  0.7818609E-02  0.8046066E-01
       -1   -1    0    0    0  501  0.00000000000E+00  0.00000000000E+00  0.26147583140E+04  0.26147583140E+04  0.50400001928E-02 0. -1.
        1   -1    0    0  501    0  0.00000000000E+00  0.00000000000E+00 -0.13809266843E+04  0.13809266843E+04  0.50400001928E-02 0.  1.
    10030    2    1    2    0    0  0.00000000000E+00  0.00000000000E+00  0.12338316298E+04  0.39956849983E+04  0.38004155187E+04 0.  0.
        1    1    3    3  502    0 -0.12539573843E+04 -0.58153489157E+03  0.19878286948E+04  0.24211680800E+04  0.50400001928E-02 0. -1.
       -1    1    3    3    0  502  0.12539573843E+04  0.58153489157E+03 -0.75399706504E+03  0.15745169183E+04  0.50400001928E-02 0.  1.
</event>
<event>
 5   0  0.1785559E-07  0.3972578E+04  0.7818609E-02  0.8010101E-01
        2   -1    0    0  501    0  0.00000000000E+00  0.00000000000E+00  0.18132062299E+04  0.18132062299E+04  0.25500000920E-02 0.  1.
       -2   -1    0    0    0  501  0.00000000000E+00  0.00000000000E+00 -0.21758931713E+04  0.21758931713E+04  0.25500000920E-02 0. -1.
    10030    2    1    2    0    0  0.00000000000E+00  0.00000000000E+00 -0.36268694133E+03  0.39890994012E+04  0.39725775279E+04 0.  0.
        2    1    3    3  502    0 -0.10956357200E+04  0.25857114435E+03 -0.18246294354E+04  0.21439564464E+04  0.25500000920E-02 0. -1.
       -2    1    3    3    0  502  0.10956357200E+04 -0.25857114435E+03  0.14619424941E+04  0.18451429548E+04  0.25500000920E-02 0.  1.
</event>
<event>
 5   0  0.5515000E-08  0.4023414E+04  0.7818609E-02  0.7999840E-01
        1   -1    0    0  501    0  0.00000000000E+00  0.00000000000E+00  0.19174070114E+04  0.19174070114E+04  0.50400001928E-02 0.  1.
       -1   -1    0    0    0  501  0.00000000000E+00  0.00000000000E+00 -0.21106445770E+04  0.21106445770E+04  0.50400001928E-02 0. -1.
    10030    2    1    2    0    0  0.00000000000E+00  0.00000000000E+00 -0.19323756558E+03  0.40280515883E+04  0.40234138293E+04 0.  0.
        2    1    3    3  502    0  0.37502960838E+03  0.57235612929E+02  0.18812701897E+04  0.19191406018E+04  0.25500000920E-02 0.  1.
       -2    1    3    3    0  502 -0.37502960838E+03 -0.57235612929E+02 -0.20745077553E+04  0.21089109866E+04  0.25500000920E-02 0. -1.
</event>
<event>
 5   0  0.1819906E-07  0.3985093E+04  0.7818609E-02  0.8007560E-01
       -2   -1    0    0    0  501  0.00000000000E+00  0.00000000000E+00  0.17041330005E+04  0.17041330005E+04  0.25500000920E-02 0.  1.
        2   -1    0    0  501    0  0.00000000000E+00  0.00000000000E+00 -0.23297726474E+04  0.23297726474E+04  0.25500000920E-02 0. -1.
    10030    2    1    2    0    0  0.00000000000E+00  0.00000000000E+00 -0.62563964683E+03  0.40339056479E+04  0.39850934504E+04 0.  0.
        1    1    3    3  502    0  0.12416374558E+04  0.11407559755E+04 -0.13875470479E+04  0.21836379227E+04  0.50400001928E-02 0. -1.
       -1    1    3    3    0  502 -0.12416374558E+04 -0.11407559755E+04  0.76190740105E+03  0.18502677252E+04  0.50400001928E-02 0.  1.
</event>
<event>
 5   0  0.5515000E-08  0.3991044E+04  0.7818609E-02  0.8006356E-01
       -1   -1    0    0    0  501  0.00000000000E+00  0.00000000000E+00  0.23382363833E+04  0.23382363833E+04  0.50400001928E-02 0.  1.
        1   -1    0    0  501    0  0.00000000000E+00  0.00000000000E+00 -0.17030393487E+04  0.17030393487E+04  0.50400001928E-02 0. -1.
    10030    2    1    2    0    0  0.00000000000E+00  0.00000000000E+00  0.63519703468E+03  0.40412757320E+04  0.39910442580E+04 0.  0.
        3    1    3    3  502    0 -0.87800440193E+03 -0.77015220169E+03  0.19560123117E+04  0.22781594143E+04  0.10100000352E+00 0.  1.
       -3    1    3    3    0  502  0.87800440193E+03  0.77015220169E+03 -0.13208152770E+04  0.17631163177E+04  0.10100000352E+00 0. -1.
</event>
<event>
 5   0  0.5515000E-08  0.4012803E+04  0.7818609E-02  0.8001969E-01
        1   -1    0    0  501    0  0.00000000000E+00  0.00000000000E+00  0.27411569539E+04  0.27411569539E+04  0.50400001928E-02 0.  1.
       -1   -1    0    0    0  501  0.00000000000E+00  0.00000000000E+00 -0.14685944709E+04  0.14685944709E+04  0.50400001928E-02 0. -1.
    10030    2    1    2    0    0  0.00000000000E+00  0.00000000000E+00  0.12725624830E+04  0.42097514249E+04  0.40128034821E+04 0.  0.
        3    1    3    3  502    0  0.91163900274E+03  0.98081739160E+03 -0.93122790231E+03  0.16310345929E+04  0.10100000352E+00 0. -1.
       -3    1    3    3    0  502 -0.91163900274E+03 -0.98081739160E+03  0.22037903853E+04  0.25787168320E+04  0.10100000352E+00 0.  1.
</event>
<event>
 5   0  0.1776653E-07  0.3996941E+04  0.7818609E-02  0.8005164E-01
        2   -1    0    0  501    0  0.00000000000E+00  0.00000000000E+00  0.14934775032E+04  0.14934775032E+04  0.25500000920E-02 0.  1.
       -2   -1    0    0    0  501  0.00000000000E+00  0.00000000000E+00 -0.26742183329E+04  0.26742183329E+04  0.25500000920E-02 0. -1.
    10030    2    1    2    0    0  0.00000000000E+00  0.00000000000E+00 -0.11807408297E+04  0.41676958362E+04  0.39969412900E+04 0.  0.
        4    1    3    3  502    0 -0.15708049762E+03  0.14414266109E+03 -0.26623266314E+04  0.26708493209E+04  0.12699999809E+01 0. -1.
       -4    1    3    3    0  502  0.15708049762E+03 -0.14414266109E+03  0.14815858018E+04  0.14968465153E+04  0.12699999809E+01 0.  1.
</event>
<event>
 5   0  0.1819906E-07  0.3956581E+04  0.7818609E-02  0.8013363E-01
       -2   -1    0    0    0  501  0.00000000000E+00  0.00000000000E+00  0.16909181441E+04  0.16909181441E+04  0.25500000920E-02 0.  1.
        2   -1    0    0  501    0  0.00000000000E+00  0.00000000000E+00 -0.23145023584E+04  0.23145023584E+04  0.25500000920E-02 0. -1.
    10030    2    1    2    0    0  0.00000000000E+00  0.00000000000E+00 -0.62358421432E+03  0.40054205025E+04  0.39565813690E+04 0.  0.
        1    1    3    3  502    0 -0.10786921817E+04 -0.16159349319E+04 -0.68896523817E+03  0.20614304806E+04  0.50400001928E-02 0. -1.
       -1    1    3    3    0  502  0.10786921817E+04  0.16159349319E+04  0.65381023845E+02  0.19439900219E+04  0.50400001928E-02 0.  1.
</event>
<event>
 5   0  0.5515000E-08  0.4011004E+04  0.7818609E-02  0.8002330E-01
        1   -1    0    0  501    0  0.00000000000E+00  0.00000000000E+00  0.16524558108E+04  0.16524558108E+04  0.50400001928E-02 0. -1.
       -1   -1    0    0    0  501  0.00000000000E+00  0.00000000000E+00 -0.24339761087E+04  0.24339761087E+04  0.50400001928E-02 0.  1.
    10030    2    1    2    0    0  0.00000000000E+00  0.00000000000E+00 -0.78152029790E+03  0.40864319195E+04  0.40110038465E+04 0.  0.
        2    1    3    3  502    0  0.18272625596E+04  0.10138721177E+03 -0.12264724911E+04  0.22030439396E+04  0.25500000920E-02 0.  1.
       -2    1    3    3    0  502 -0.18272625596E+04 -0.10138721177E+03  0.44495219317E+03  0.18833879799E+04  0.25500000920E-02 0. -1.
</event>
<event>
 5   0  0.5515000E-08  0.3899363E+04  0.7818609E-02  0.8025162E-01
       -1   -1    0    0    0  501  0.00000000000E+00  0.00000000000E+00  0.18032867472E+04  0.18032867472E+04  0.50400001928E-02 0.  1.
        1   -1    0    0  501    0  0.00000000000E+00  0.00000000000E+00 -0.21079607539E+04  0.21079607539E+04  0.50400001928E-02 0. -1.
    10030    2    1    2    0    0  0.00000000000E+00  0.00000000000E+00 -0.30467400671E+03  0.39112475011E+04  0.38993628665E+04 0.  0.
        1    1    3    3  502    0  0.16008799418E+04 -0.35758622649E+03  0.90471229027E+03  0.18732829006E+04  0.50400001928E-02 0.  1.
       -1    1    3    3    0  502 -0.16008799418E+04  0.35758622649E+03 -0.12093862970E+04  0.20379646005E+04  0.50400001928E-02 0. -1.
</event>
<event>
 5   0  0.5515000E-08  0.3985424E+04  0.7818609E-02  0.8007493E-01
       -1   -1    0    0    0  501  0.00000000000E+00  0.00000000000E+00  0.21443559543E+04  0.21443559543E+04  0.50400001928E-02 0. -1.
        1   -1    0    0  501    0  0.00000000000E+00  0.00000000000E+00 -0.18517923736E+04  0.18517923737E+04  0.50400001928E-02 0.  1.
    10030    2    1    2    0    0  0.00000000000E+00  0.00000000000E+00  0.29256358061E+03  0.39961483279E+04  0.39854244454E+04 0.  0.
        5    1    3    3  502    0 -0.11539301651E+04 -0.31382325777E+03 -0.14520085795E+04  0.18810611016E+04  0.46999998093E+01 0.  1.
       -5    1    3    3    0  502  0.11539301651E+04  0.31382325777E+03  0.17445721601E+04  0.21150872263E+04  0.46999998093E+01 0. -1.
</event>
<event>
 5   0  0.1785559E-07  0.4025741E+04  0.7818609E-02  0.7999374E-01
       -2   -1    0    0    0  501  0.00000000000E+00  0.00000000000E+00  0.19860003237E+04  0.19860003237E+04  0.25500000920E-02 0.  1.
        2   -1    0    0  501    0  0.00000000000E+00  0.00000000000E+00 -0.20401046429E+04  0.20401046429E+04  0.25500000920E-02 0. -1.
    10030    2    1    2    0    0  0.00000000000E+00  0.00000000000E+00 -0.54104319173E+02  0.40261049665E+04  0.40257414130E+04 0.  0.
        2    1    3    3  502    0 -0.11079625904E+04  0.19342156410E+03  0.16424264449E+04  0.19906173992E+04  0.25500000920E-02 0.  1.
       -2    1    3    3    0  502  0.11079625904E+04 -0.19342156410E+03 -0.16965307641E+04  0.20354875673E+04  0.25500000920E-02 0. -1.
</event>
<event>
 5   0  0.5515000E-08  0.3963887E+04  0.7818609E-02  0.8011871E-01
       -1   -1    0    0    0  501  0.00000000000E+00  0.00000000000E+00  0.12096286967E+04  0.12096286967E+04  0.50400001928E-02 0. -1.
        1   -1    0    0  501    0  0.00000000000E+00  0.00000000000E+00 -0.32473606183E+04  0.32473606183E+04  0.50400001928E-02 0.  1.
    10030    2    1    2    0    0  0.00000000000E+00  0.00000000000E+00 -0.20377319216E+04  0.44569893150E+04  0.39638872801E+04 0.  0.
        4    1    3    3  502    0  0.14046054722E+04  0.72333744313E+03  0.32664288584E+03  0.16133290976E+04  0.12699999809E+01 0. -1.
       -4    1    3    3    0  502 -0.14046054722E+04 -0.72333744313E+03 -0.23643748074E+04  0.28436602174E+04  0.12699999809E+01 0.  1.
</event>
<event>
 5   0  0.1821433E-07  0.4004428E+04  0.7818609E-02  0.8003654E-01
       -2   -1    0    0    0  501  0.00000000000E+00  0.00000000000E+00  0.26030928401E+04  0.26030928401E+04  0.25500000920E-02 0. -1.
        2   -1    0    0  501    0  0.00000000000E+00  0.00000000000E+00 -0.15400376403E+04  0.15400376403E+04  0.25500000920E-02 0.  1.
    10030    2    1    2    0    0  0.00000000000E+00  0.00000000000E+00  0.10630551998E+04  0.41431304804E+04  0.40044280265E+04 0.  0.
        5    1    3    3  502    0  0.15023648209E+04 -0.80471219440E+03 -0.55566749745E+03  0.17926098930E+04  0.46999998093E+01 0.  1.
       -5    1    3    3    0  502 -0.15023648209E+04  0.80471219440E+03  0.16187226972E+04  0.23505205873E+04  0.46999998093E+01 0. -1.
</event>
<event>
 5   0  0.5515000E-08  0.4019007E+04  0.7818609E-02  0.8000723E-01
        1   -1    0    0  501    0  0.00000000000E+00  0.00000000000E+00  0.11238274412E+04  0.11238274412E+04  0.50400001928E-02 0. -1.
       -1   -1    0    0    0  501  0.00000000000E+00  0.00000000000E+00 -0.35931706456E+04  0.35931706456E+04  0.50400001928E-02 0.  1.
    10030    2    1    2    0    0  0.00000000000E+00  0.00000000000E+00 -0.24693432044E+04  0.47169980868E+04  0.40190067292E+04 0.  0.
        5    1    3    3  502    0 -0.35663273231E+03 -0.72195183997E+02  0.10848340865E+04  0.11442404186E+04  0.46999998093E+01 0. -1.
       -5    1    3    3    0  502  0.35663273231E+03  0.72195183997E+02 -0.35541772909E+04  0.35727576682E+04  0.46999998093E+01 0.  1.
</event>
<event>
 5   0  0.5515000E-08  0.4172316E+04  0.7818609E-02  0.7970659E-01
        1   -1    0    0  501    0  0.00000000000E+00  0.00000000000E+00  0.24716037231E+04  0.24716037232E+04  0.50400001928E-02 0.  1.
       -1   -1    0    0    0  501  0.00000000000E+00  0.00000000000E+00 -0.17608224727E+04  0.17608224727E+04  0.50400001928E-02 0. -1.
    10030    2    1    2    0    0  0.00000000000E+00  0.00000000000E+00  0.71078125045E+03  0.42324261959E+04  0.41723160855E+04 0.  0.
        1    1    3    3  502    0 -0.50605161254E+03  0.52862584902E+03 -0.16263466052E+04  0.17834059558E+04  0.50400001928E-02 0. -1.
       -1    1    3    3    0  502  0.50605161254E+03 -0.52862584902E+03  0.23371278556E+04  0.24490202401E+04  0.50400001928E-02 0.  1.
</event>
<event>
 5   0  0.1785559E-07  0.3972251E+04  0.7818609E-02  0.8010168E-01
       -2   -1    0    0    0  501  0.00000000000E+00  0.00000000000E+00  0.15655852037E+04  0.15655852037E+04  0.25500000920E-02 0.  1.
        2   -1    0    0  501    0  0.00000000000E+00  0.00000000000E+00 -0.25196292551E+04  0.25196292551E+04  0.25500000920E-02 0. -1.
    10030    2    1    2    0    0  0.00000000000E+00  0.00000000000E+00 -0.95404405134E+03  0.40852144588E+04  0.39722508886E+04 0.  0.
        2    1    3    3  502    0 -0.87379978724E+03  0.24564049996E+03 -0.22938473424E+04  0.24669010830E+04  0.25500000920E-02 0. -1.
       -2    1    3    3    0  502  0.87379978724E+03 -0.24564049996E+03  0.13398032910E+04  0.16183133757E+04  0.25500000920E-02 0.  1.
</event>
<event>
 5   0  0.5515000E-08  0.4072472E+04  0.7818609E-02  0.7990084E-01
        3   -1    0    0  501    0  0.00000000000E+00  0.00000000000E+00  0.26281898722E+04  0.26281898741E+04  0.10100000352E+00 0. -1.
       -3   -1    0    0    0  501  0.00000000000E+00  0.00000000000E+00 -0.15776092675E+04  0.15776092707E+04  0.10100000352E+00 0.  1.
    10030    2    1    2    0    0  0.00000000000E+00  0.00000000000E+00  0.10505806046E+04  0.42057991448E+04  0.40724718341E+04 0.  0.
        2    1    3    3  502    0  0.82894733656E+03 -0.17921430690E+04  0.11689682061E+02  0.19746055594E+04  0.25500000920E-02 0.  1.
       -2    1    3    3    0  502 -0.82894733656E+03  0.17921430690E+04  0.10388909226E+04  0.22311935854E+04  0.25500000920E-02 0. -1.
</event>
<event>
 5   0  0.1819906E-07  0.4023260E+04  0.7818609E-02  0.7999871E-01
       -2   -1    0    0    0  501  0.00000000000E+00  0.00000000000E+00  0.18045325397E+04  0.18045325397E+04  0.25500000920E-02 0.  1.
        2   -1    0    0  501    0  0.00000000000E+00  0.00000000000E+00 -0.22424950950E+04  0.22424950950E+04  0.25500000920E-02 0. -1.
    10030    2    1    2    0    0  0.00000000000E+00  0.00000000000E+00 -0.43796255527E+03  0.40470276347E+04  0.40232600557E+04 0.  0.
        1    1    3    3  502    0  0.48000163304E+03  0.10306849116E+04  0.14503229447E+04  0.18428645091E+04  0.50400001928E-02 0.  1.
       -1    1    3    3    0  502 -0.48000163304E+03 -0.10306849116E+04 -0.18882855000E+04  0.22041631256E+04  0.50400001928E-02 0. -1.
</event>
<event>
 5   0  0.5515000E-08  0.4063568E+04  0.7818609E-02  0.7991844E-01
        1   -1    0    0  501    0  0.00000000000E+00  0.00000000000E+00  0.20196567370E+04  0.20196567370E+04  0.50400001928E-02 0.  1.
       -1   -1    0    0    0  501  0.00000000000E+00  0.00000000000E+00 -0.20439841438E+04  0.20439841438E+04  0.50400001928E-02 0. -1.
    10030    2    1    2    0    0  0.00000000000E+00  0.00000000000E+00 -0.24327406851E+02  0.40636408808E+04  0.40635680609E+04 0.  0.
        1    1    3    3  502    0  0.18291451730E+04 -0.60960687532E+03  0.62874850720E+03  0.20279835531E+04  0.50400001928E-02 0.  1.
       -1    1    3    3    0  502 -0.18291451730E+04  0.60960687532E+03 -0.65307591405E+03  0.20356573277E+04  0.50400001928E-02 0. -1.
</event>
<event>
 5   0  0.5515000E-08  0.3983484E+04  0.7818609E-02  0.8007887E-01
        1   -1    0    0  501    0  0.00000000000E+00  0.00000000000E+00  0.15844944938E+04  0.15844944939E+04  0.50400001928E-02 0.  1.
       -1   -1    0    0    0  501  0.00000000000E+00  0.00000000000E+00 -0.25036606319E+04  0.25036606319E+04  0.50400001928E-02 0. -1.
    10030    2    1    2    0    0  0.00000000000E+00  0.00000000000E+00 -0.91916613806E+03  0.40881551258E+04  0.39834841462E+04 0.  0.
        2    1    3    3  502    0 -0.59220844696E+03 -0.16540766950E+04  0.50334405505E+03  0.18275764814E+04  0.25500000920E-02 0. -1.
       -2    1    3    3    0  502  0.59220844696E+03  0.16540766950E+04 -0.14225101931E+04  0.22605786443E+04  0.25500000920E-02 0.  1.
</event>
<event>
 5   0  0.1776653E-07  0.3997807E+04  0.7818609E-02  0.8004989E-01
        2   -1    0    0  501    0  0.00000000000E+00  0.00000000000E+00  0.19023989990E+04  0.19023989990E+04  0.25500000920E-02 0.  1.
       -2   -1    0    0    0  501  0.00000000000E+00  0.00000000000E+00 -0.21003036230E+04  0.21003036230E+04  0.25500000920E-02 0. -1.
    10030    2    1    2    0    0  0.00000000000E+00  0.00000000000E+00 -0.19790462400E+03  0.40027026221E+04  0.39978071540E+04 0.  0.
        4    1    3    3  502    0  0.15514621578E+04  0.46471313252E+03 -0.12719759632E+04  0.20593488259E+04  0.12699999809E+01 0. -1.
       -4    1    3    3    0  502 -0.15514621578E+04 -0.46471313252E+03  0.10740713392E+04  0.19433537962E+04  0.12699999809E+01 0.  1.
</event>
<event>
 5   0  0.1785559E-07  0.4026382E+04  0.7818609E-02  0.7999245E-01
       -2   -1    0    0    0  501  0.00000000000E+00  0.00000000000E+00  0.17043743474E+04  0.17043743474E+04  0.25500000920E-02 0.  1.
        2   -1    0    0  501    0  0.00000000000E+00  0.00000000000E+00 -0.23779627270E+04  0.23779627270E+04  0.25500000920E-02 0. -1.
    10030    2    1    2    0    0  0.00000000000E+00  0.00000000000E+00 -0.67358837964E+03  0.40823370744E+04  0.40263823320E+04 0.  0.
        2    1    3    3  502    0 -0.52467742806E+03 -0.53251338632E+03  0.15584290841E+04  0.17284554146E+04  0.25500000920E-02 0.  1.
       -2    1    3    3    0  502  0.52467742806E+03  0.53251338632E+03 -0.22320174637E+04  0.23538816598E+04  0.25500000920E-02 0. -1.
</event>
<event>
 5   0  0.1776653E-07  0.3951555E+04  0.7818609E-02  0.8014391E-01
        2   -1    0    0  501    0  0.00000000000E+00  0.00000000000E+00  0.19782740063E+04  0.19782740063E+04  0.25500000920E-02 0. -1.
       -2   -1    0    0    0  501  0.00000000000E+00  0.00000000000E+00 -0.19732836945E+04  0.19732836945E+04  0.25500000920E-02 0.  1.
    10030    2    1    2    0    0  0.00000000000E+00  0.00000000000E+00  0.49903117934E+01  0.39515577008E+04  0.39515545497E+04 0.  0.
        4    1    3    3  502    0 -0.15986344281E+04  0.94239460303E+03  0.68069522820E+03  0.19766353303E+04  0.12699999809E+01 0. -1.
       -4    1    3    3    0  502  0.15986344281E+04 -0.94239460303E+03 -0.67570491641E+03  0.19749223705E+04  0.12699999809E+01 0.  1.
</event>
<event>
 5   0  0.5515000E-08  0.4367897E+04  0.7818609E-02  0.7934181E-01
        1   -1    0    0  501    0  0.00000000000E+00  0.00000000000E+00  0.21064530795E+04  0.21064530795E+04  0.50400001928E-02 0.  1.
       -1   -1    0    0    0  501  0.00000000000E+00  0.00000000000E+00 -0.22642952420E+04  0.22642952420E+04  0.50400001928E-02 0. -1.
    10030    2    1    2    0    0  0.00000000000E+00  0.00000000000E+00 -0.15784216256E+03  0.43707483215E+04  0.43678972907E+04 0.  0.
        2    1    3    3  502    0  0.18528275953E+04 -0.25800235294E+03  0.10488000540E+04  0.21446484246E+04  0.25500000920E-02 0.  1.
       -2    1    3    3    0  502 -0.18528275953E+04  0.25800235294E+03 -0.12066422166E+04  0.22260998969E+04  0.25500000920E-02 0. -1.
</event>
<event>
 5   0  0.1819906E-07  0.3886751E+04  0.7818609E-02  0.8027790E-01
       -2   -1    0    0    0  501  0.00000000000E+00  0.00000000000E+00  0.18005574535E+04  0.18005574535E+04  0.25500000920E-02 0.  1.
        2   -1    0    0  501    0  0.00000000000E+00  0.00000000000E+00 -0.20975216102E+04  0.20975216103E+04  0.25500000920E-02 0. -1.
    10030    2    1    2    0    0  0.00000000000E+00  0.00000000000E+00 -0.29696415674E+03  0.38980790638E+04  0.38867509152E+04 0.  0.
        1    1    3    3  502    0 -0.45927348177E+03 -0.18578639090E+04  0.19031566070E+03  0.19232291819E+04  0.50400001928E-02 0. -1.
       -1    1    3    3    0  502  0.45927348177E+03  0.18578639090E+04 -0.48727981744E+03  0.19748498819E+04  0.50400001928E-02 0.  1.
</event>
<event>
 5   0  0.5515000E-08  0.3980616E+04  0.7818609E-02  0.8008468E-01
        1   -1    0    0  501    0  0.00000000000E+00  0.00000000000E+00  0.19288498597E+04  0.19288498597E+04  0.50400001928E-02 0. -1.
       -1   -1    0    0    0  501  0.00000000000E+00  0.00000000000E+00 -0.20537244545E+04  0.20537244545E+04  0.50400001928E-02 0.  1.
    10030    2    1    2    0    0  0.00000000000E+00  0.00000000000E+00 -0.12487459485E+03  0.39825743142E+04  0.39806160960E+04 0.  0.
        4    1    3    3  502    0 -0.10813400743E+04 -0.97281461941E+03  0.12967816775E+04  0.19486685126E+04  0.12699999809E+01 0. -1.
       -4    1    3    3    0  502  0.10813400743E+04  0.97281461941E+03 -0.14216562723E+04  0.20339058016E+04  0.12699999809E+01 0.  1.
</event>
<event>
 5   0  0.5515000E-08  0.3945916E+04  0.7818609E-02  0.8015547E-01
        1   -1    0    0  501    0  0.00000000000E+00  0.00000000000E+00  0.22444974763E+04  0.22444974763E+04  0.50400001928E-02 0.  1.
       -1   -1    0    0    0  501  0.00000000000E+00  0.00000000000E+00 -0.17342694212E+04  0.17342694212E+04  0.50400001928E-02 0. -1.
    10030    2    1    2    0    0  0.00000000000E+00  0.00000000000E+00  0.51022805504E+03  0.39787668975E+04  0.39459160351E+04 0.  0.
        2    1    3    3  502    0 -0.88436004743E+03  0.74603278426E+03 -0.13562849645E+04  0.17827412918E+04  0.25500000920E-02 0. -1.
       -2    1    3    3    0  502  0.88436004743E+03 -0.74603278426E+03  0.18665130195E+04  0.21960256057E+04  0.25500000920E-02 0.  1.
</event>
<event>
 5   0  0.5515000E-08  0.4051858E+04  0.7818609E-02  0.7994166E-01
        1   -1    0    0  501    0  0.00000000000E+00  0.00000000000E+00  0.21728538156E+04  0.21728538156E+04  0.50400001928E-02 0.  1.
       -1   -1    0    0    0  501  0.00000000000E+00  0.00000000000E+00 -0.18889387225E+04  0.18889387225E+04  0.50400001928E-02 0. -1.
    10030    2    1    2    0    0  0.00000000000E+00  0.00000000000E+00  0.28391509312E+03  0.40617925381E+04  0.40518577026E+04 0.  0.
        1    1    3    3  502    0  0.14634518852E+04 -0.27676870691E+03 -0.12347616791E+04  0.19346650205E+04  0.50400001928E-02 0. -1.
       -1    1    3    3    0  502 -0.14634518852E+04  0.27676870691E+03  0.15186767722E+04  0.21271275176E+04  0.50400001928E-02 0.  1.
</event>
<event>
 5   0  0.1819906E-07  0.3997956E+04  0.7818609E-02  0.8004959E-01
       -2   -1    0    0    0  501  0.00000000000E+00  0.00000000000E+00  0.29959448296E+04  0.29959448296E+04  0.25500000920E-02 0.  1.
        2   -1    0    0  501    0  0.00000000000E+00  0.00000000000E+00 -0.13337740424E+04  0.13337740424E+04  0.25500000920E-02 0. -1.
    10030    2    1    2    0    0  0.00000000000E+00  0.00000000000E+00  0.16621707872E+04  0.43297188721E+04  0.39979562010E+04 0.  0.
        1    1    3    3  502    0  0.85269771989E+03 -0.35194240693E+03 -0.10894795354E+04  0.14275582361E+04  0.50400001928E-02 0. -1.
       -1    1    3    3    0  502 -0.85269771989E+03  0.35194240693E+03  0.27516503226E+04  0.29021606360E+04  0.50400001928E-02 0.  1.
</event>
<event>
 5   0  0.5515000E-08  0.4001604E+04  0.7818609E-02  0.8004223E-01
       -1   -1    0    0    0  501  0.00000000000E+00  0.00000000000E+00  0.16598233183E+04  0.16598233183E+04  0.50400001928E-02 0.  1.
        1   -1    0    0  501    0  0.00000000000E+00  0.00000000000E+00 -0.24118277800E+04  0.24118277800E+04  0.50400001928E-02 0. -1.
    10030    2    1    2    0    0  0.00000000000E+00  0.00000000000E+00 -0.75200446173E+03  0.40716510983E+04  0.40016036730E+04 0.  0.
        3    1    3    3  502    0  0.57777223150E+03 -0.19127467108E+04 -0.27032247371E+03  0.20163072636E+04  0.10100000352E+00 0.  1.
       -3    1    3    3    0  502 -0.57777223150E+03  0.19127467108E+04 -0.48168198802E+03  0.20553438347E+04  0.10100000352E+00 0. -1.
</event>
<event>
 5   0  0.5515000E-08  0.3989833E+04  0.7818609E-02  0.8006601E-01
        3   -1    0    0  501    0  0.00000000000E+00  0.00000000000E+00  0.19876631475E+04  0.19876631501E+04  0.10100000352E+00 0.  1.
       -3   -1    0    0    0  501  0.00000000000E+00  0.00000000000E+00 -0.20021959799E+04  0.20021959825E+04  0.10100000352E+00 0. -1.
    10030    2    1    2    0    0  0.00000000000E+00  0.00000000000E+00 -0.14532832398E+02  0.39898591325E+04  0.39898326650E+04 0.  0.
        2    1    3    3  502    0  0.37978981298E+03  0.97541855594E+03  0.16909820274E+04  0.19887437940E+04  0.25500000920E-02 0.  1.
       -2    1    3    3    0  502 -0.37978981298E+03 -0.97541855594E+03 -0.17055148598E+04  0.20011153385E+04  0.25500000920E-02 0. -1.
</event>
<event>
 5   0  0.5515000E-08  0.3971045E+04  0.7818609E-02  0.8010413E-01
        1   -1    0    0  501    0  0.00000000000E+00  0.00000000000E+00  0.14151370401E+04  0.14151370401E+04  0.50400001928E-02 0.  1.
       -1   -1    0    0    0  501  0.00000000000E+00  0.00000000000E+00 -0.27858082602E+04  0.27858082602E+04  0.50400001928E-02 0. -1.
    10030    2    1    2    0    0  0.00000000000E+00  0.00000000000E+00 -0.13706712201E+04  0.42009453002E+04  0.39710454319E+04 0.  0.
        3    1    3    3  502    0 -0.49926111527E+03  0.17556238315E+04  0.14146374111E+03  0.18307071582E+04  0.10100000352E+00 0.  1.
       -3    1    3    3    0  502  0.49926111527E+03 -0.17556238315E+04 -0.15121349612E+04  0.23702381420E+04  0.10100000352E+00 0. -1.
</event>
<event>
 5   0  0.1785559E-07  0.3981198E+04  0.7818609E-02  0.8008350E-01
        2   -1    0    0  501    0  0.00000000000E+00  0.00000000000E+00  0.22260675572E+04  0.22260675572E+04  0.25500000920E-02 0.  1.
       -2   -1    0    0    0  501  0.00000000000E+00  0.00000000000E+00 -0.17800376455E+04  0.17800376455E+04  0.25500000920E-02 0. -1.
    10030    2    1    2    0    0  0.00000000000E+00  0.00000000000E+00  0.44602991173E+03  0.40061052027E+04  0.39811978364E+04 0.  0.
        2    1    3    3  502    0  0.58975297630E+02 -0.72915295983E+03  0.20859053682E+04  0.22104622434E+04  0.25500000920E-02 0.  1.
       -2    1    3    3    0  502 -0.58975297630E+02  0.72915295983E+03 -0.16398754564E+04  0.17956429593E+04  0.25500000920E-02 0. -1.
</event>
<event>
 5   0  0.1785559E-07  0.3301845E+04  0.7818609E-02  0.8162426E-01
       -2   -1    0    0    0  501  0.00000000000E+00  0.00000000000E+00  0.17795677557E+04  0.17795677557E+04  0.25500000920E-02 0.  1.
        2   -1    0    0  501    0  0.00000000000E+00  0.00000000000E+00 -0.15315768051E+04  0.15315768051E+04  0.25500000920E-02 0. -1.
    10030    2    1    2    0    0  0.00000000000E+00  0.00000000000E+00  0.24799095066E+03  0.33111445608E+04  0.33018447558E+04 0.  0.
        2    1    3    3  502    0  0.11595158983E+04  0.26096503083E+03 -0.10250786326E+04  0.15695114108E+04  0.25500000920E-02 0. -1.
       -2    1    3    3    0  502 -0.11595158983E+04 -0.26096503083E+03  0.12730695832E+04  0.17416331501E+04  0.25500000920E-02 0.  1.
</event>
<event>
 5   0  0.1776653E-07  0.3971938E+04  0.7818609E-02  0.8010232E-01
        2   -1    0    0  501    0  0.00000000000E+00  0.00000000000E+00  0.23477630307E+04  0.23477630307E+04  0.25500000920E-02 0.  1.
       -2   -1    0    0    0  501  0.00000000000E+00  0.00000000000E+00 -0.16799277390E+04  0.16799277390E+04  0.25500000920E-02 0. -1.
    10030    2    1    2    0    0  0.00000000000E+00  0.00000000000E+00  0.66783529171E+03  0.40276907697E+04  0.39719376832E+04 0.  0.
        4    1    3    3  502    0 -0.36861036284E+03  0.56005650988E+03  0.22295246825E+04  0.23281578161E+04  0.12699999809E+01 0.  1.
       -4    1    3    3    0  502  0.36861036284E+03 -0.56005650988E+03 -0.15616893908E+04  0.16995329536E+04  0.12699999809E+01 0. -1.
</event>
<event>
 5   0  0.5515000E-08  0.3968400E+04  0.7818609E-02  0.8010952E-01
       -1   -1    0    0    0  501  0.00000000000E+00  0.00000000000E+00  0.28626307105E+04  0.28626307105E+04  0.50400001928E-02 0.  1.
        1   -1    0    0  501    0  0.00000000000E+00  0.00000000000E+00 -0.13753256198E+04  0.13753256198E+04  0.50400001928E-02 0. -1.
    10030    2    1    2    0    0  0.00000000000E+00  0.00000000000E+00  0.14873050907E+04  0.42379563303E+04  0.39683998569E+04 0.  0.
        3    1    3    3  502    0 -0.16633679158E+04 -0.17780562421E+03 -0.39590061786E+03  0.17190535107E+04  0.10100000352E+00 0. -1.
       -3    1    3    3    0  502  0.16633679158E+04  0.17780562421E+03  0.18832057085E+04  0.25189028195E+04  0.10100000352E+00 0.  1.
</event>
<event>
 5   0  0.5515000E-08  0.3879710E+04  0.7818609E-02  0.8029262E-01
       -1   -1    0    0    0  501  0.00000000000E+00  0.00000000000E+00  0.28854523133E+04  0.28854523133E+04  0.50400001928E-02 0. -1.
        1   -1    0    0  501    0  0.00000000000E+00  0.00000000000E+00 -0.13041413003E+04  0.13041413003E+04  0.50400001928E-02 0.  1.
    10030    2    1    2    0    0  0.00000000000E+00  0.00000000000E+00  0.15813110130E+04  0.41895936136E+04  0.38797100571E+04 0.  0.
        4    1    3    3  502    0 -0.14782134302E+04  0.96924073475E+03 -0.72225331821E+02  0.17691129581E+04  0.12699999809E+01 0.  1.
       -4    1    3    3    0  502  0.14782134302E+04 -0.96924073475E+03  0.16535363448E+04  0.24204806555E+04  0.12699999809E+01 0. -1.
</event>
<event>
 5   0  0.1821433E-07  0.3971122E+04  0.7818609E-02  0.8010398E-01
        2   -1    0    0  501    0  0.00000000000E+00  0.00000000000E+00  0.19878319175E+04  0.19878319175E+04  0.25500000920E-02 0.  1.
       -2   -1    0    0    0  501  0.00000000000E+00  0.00000000000E+00 -0.19832924700E+04  0.19832924700E+04  0.25500000920E-02 0. -1.
    10030    2    1    2    0    0  0.00000000000E+00  0.00000000000E+00  0.45394474586E+01  0.39711243875E+04  0.39711217929E+04 0.  0.
        5    1    3    3  502    0  0.72284076093E+03 -0.50297291837E+03 -0.17773239376E+04  0.19835279155E+04  0.46999998093E+01 0. -1.
       -5    1    3    3    0  502 -0.72284076093E+03  0.50297291837E+03  0.17818633851E+04  0.19875964720E+04  0.46999998093E+01 0.  1.
</event>
<event>
 5   0  0.5515000E-08  0.3938799E+04  0.7818609E-02  0.8017008E-01
        1   -1    0    0  501    0  0.00000000000E+00  0.00000000000E+00  0.31779699790E+04  0.31779699790E+04  0.50400001928E-02 0. -1.
       -1   -1    0    0    0  501  0.00000000000E+00  0.00000000000E+00 -0.12204441943E+04  0.12204441943E+04  0.50400001928E-02 0.  1.
    10030    2    1    2    0    0  0.00000000000E+00  0.00000000000E+00  0.19575257848E+04  0.43984141733E+04  0.39387993148E+04 0.  0.
        5    1    3    3  502    0 -0.15389307870E+04 -0.61013321466E+03  0.21699840836E+04  0.27293632078E+04  0.46999998093E+01 0. -1.
       -5    1    3    3    0  502  0.15389307870E+04  0.61013321466E+03 -0.21245829879E+03  0.16690509656E+04  0.46999998093E+01 0.  1.
</event>
<event>
 5   0  0.5515000E-08  0.4085254E+04  0.7818609E-02  0.7987566E-01
       -1   -1    0    0    0  501  0.00000000000E+00  0.00000000000E+00  0.23288323610E+04  0.23288323610E+04  0.50400001928E-02 0. -1.
        1   -1    0    0  501    0  0.00000000000E+00  0.00000000000E+00 -0.17915948762E+04  0.17915948762E+04  0.50400001928E-02 0.  1.
    10030    2    1    2    0    0  0.00000000000E+00  0.00000000000E+00  0.53723748487E+03  0.41204272372E+04  0.40852535419E+04 0.  0.
        4    1    3    3  502    0 -0.10839649329E+04  0.91515224728E+03  0.17509112508E+04  0.22534807371E+04  0.12699999809E+01 0. -1.
       -4    1    3    3    0  502  0.10839649329E+04 -0.91515224728E+03 -0.12136737659E+04  0.18669465001E+04  0.12699999809E+01 0.  1.
</event>
<event>
 5   0  0.1773903E-07  0.4007251E+04  0.7818609E-02  0.8003085E-01
        2   -1    0    0  501    0  0.00000000000E+00  0.00000000000E+00  0.15045089800E+04  0.15045089800E+04  0.25500000920E-02 0. -1.
       -2   -1    0    0    0  501  0.00000000000E+00  0.00000000000E+00 -0.26683222738E+04  0.26683222738E+04  0.25500000920E-02 0.  1.
    10030    2    1    2    0    0  0.00000000000E+00  0.00000000000E+00 -0.11638132938E+04  0.41728312539E+04  0.40072508394E+04 0.  0.
        3    1    3    3  502    0 -0.71618966760E+03  0.18171709384E+04 -0.10469898521E+04  0.22161285206E+04  0.10100000352E+00 0.  1.
       -3    1    3    3    0  502  0.71618966760E+03 -0.18171709384E+04 -0.11682344175E+03  0.19567027332E+04  0.10100000352E+00 0. -1.
</event>
<event>
 5   0  0.5515000E-08  0.3966096E+04  0.7818609E-02  0.8011421E-01
       -1   -1    0    0    0  501  0.00000000000E+00  0.00000000000E+00  0.36461024511E+04  0.36461024511E+04  0.50400001928E-02 0.  1.
        1   -1    0    0  501    0  0.00000000000E+00  0.00000000000E+00 -0.10785433446E+04  0.10785433446E+04  0.50400001928E-02 0. -1.
    10030    2    1    2    0    0  0.00000000000E+00  0.00000000000E+00  0.25675591064E+04  0.47246457957E+04  0.39660960818E+04 0.  0.
        5    1    3    3  502    0  0.12388772933E+04 -0.87674506056E+03  0.28041907060E+04  0.31885743609E+04  0.46999998093E+01 0.  1.
       -5    1    3    3    0  502 -0.12388772933E+04  0.87674506056E+03 -0.23663159958E+03  0.15360714348E+04  0.46999998093E+01 0. -1.
</event>
<event>
 5   0  0.5515000E-08  0.3695987E+04  0.7818609E-02  0.8068852E-01
       -1   -1    0    0    0  501  0.00000000000E+00  0.00000000000E+00  0.21809742811E+04  0.21809742811E+04  0.50400001928E-02 0.  1.
        1   -1    0    0  501    0  0.00000000000E+00  0.00000000000E+00 -0.15658507653E+04  0.15658507653E+04  0.50400001928E-02 0. -1.
    10030    2    1    2    0    0  0.00000000000E+00  0.00000000000E+00  0.61512351584E+03  0.37468250464E+04  0.36959871467E+04 0.  0.
        5    1    3    3  502    0  0.15009060868E+04 -0.66354224693E+03  0.11689854811E+04  0.20148341222E+04  0.46999998093E+01 0.  1.
       -5    1    3    3    0  502 -0.15009060868E+04  0.66354224693E+03 -0.55386196528E+03  0.17319909242E+04  0.46999998093E+01 0. -1.
</event>
<event>
 5   0  0.5515000E-08  0.4024267E+04  0.7818609E-02  0.7999669E-01
        1   -1    0    0  501    0  0.00000000000E+00  0.00000000000E+00  0.15910861229E+04  0.15910861229E+04  0.50400001928E-02 0.  1.
       -1   -1    0    0    0  501  0.00000000000E+00  0.00000000000E+00 -0.25446022894E+04  0.25446022894E+04  0.50400001928E-02 0. -1.
    10030    2    1    2    0    0  0.00000000000E+00  0.00000000000E+00 -0.95351616647E+03  0.41356884123E+04  0.40242670841E+04 0.  0.
        3    1    3    3  502    0  0.20679522359E+03 -0.19142912480E+04 -0.10772354941E+04  0.22062890941E+04  0.10100000352E+00 0. -1.
       -3    1    3    3    0  502 -0.20679522359E+03  0.19142912480E+04  0.12371932767E+03  0.19293993182E+04  0.10100000352E+00 0.  1.
</event>
<event>
 5   0  0.5515000E-08  0.4009777E+04  0.7818609E-02  0.8002577E-01
       -1   -1    0    0    0  501  0.00000000000E+00  0.00000000000E+00  0.15327222329E+04  0.15327222329E+04  0.50400001928E-02 0.  1.
        1   -1    0    0  501    0  0.00000000000E+00  0.00000000000E+00 -0.26225087090E+04  0.26225087090E+04  0.50400001928E-02 0. -1.
    10030    2    1    2    0    0  0.00000000000E+00  0.00000000000E+00 -0.10897864761E+04  0.41552309419E+04  0.40097767540E+04 0.  0.
        2    1    3    3  502    0 -0.74002474700E+03  0.86862032563E+02 -0.24737000094E+04  0.25834808642E+04  0.25500000920E-02 0. -1.
       -2    1    3    3    0  502  0.74002474700E+03 -0.86862032563E+02  0.13839135334E+04  0.15717500777E+04  0.25500000920E-02 0.  1.
</event>
<event>
 5   0  0.5515000E-08  0.4035725E+04  0.7818609E-02  0.7997378E-01
        1   -1    0    0  501    0  0.00000000000E+00  0.00000000000E+00  0.26410652547E+04  0.26410652547E+04  0.50400001928E-02 0.  1.
       -1   -1    0    0    0  501  0.00000000000E+00  0.00000000000E+00 -0.15417145526E+04  0.15417145526E+04  0.50400001928E-02 0. -1.
    10030    2    1    2    0    0  0.00000000000E+00  0.00000000000E+00  0.10993507022E+04  0.41827798073E+04  0.40357248357E+04 0.  0.
        4    1    3    3  502    0  0.10230991718E+04  0.44528992114E+03 -0.11928829476E+04  0.16333971865E+04  0.12699999809E+01 0. -1.
       -4    1    3    3    0  502 -0.10230991718E+04 -0.44528992114E+03  0.22922336498E+04  0.25493826208E+04  0.12699999809E+01 0.  1.
</event>
<event>
 5   0  0.5515000E-08  0.3946879E+04  0.7818609E-02  0.8015349E-01
        1   -1    0    0  501    0  0.00000000000E+00  0.00000000000E+00  0.15096025227E+04  0.15096025227E+04  0.50400001928E-02 0.  1.
       -1   -1    0    0    0  501  0.00000000000E+00  0.00000000000E+00 -0.25797937760E+04  0.25797937760E+04  0.50400001928E-02 0. -1.
    10030    2    1    2    0    0  0.00000000000E+00  0.00000000000E+00 -0.10701912532E+04  0.40893962987E+04  0.39468788643E+04 0.  0.
        4    1    3    3  502    0  0.19732708294E+04 -0.16368418624E+02 -0.51448023675E+03  0.20393031208E+04  0.12699999809E+01 0. -1.
       -4    1    3    3    0  502 -0.19732708294E+04  0.16368418624E+02 -0.55571101647E+03  0.20500931779E+04  0.12699999809E+01 0.  1.
</event>
<event>
 5   0  0.1773903E-07  0.4035409E+04  0.7818609E-02  0.7997441E-01
       -2   -1    0    0    0  501  0.00000000000E+00  0.00000000000E+00  0.32374847411E+04  0.32374847411E+04  0.25500000920E-02 0.  1.
        2   -1    0    0  501    0  0.00000000000E+00  0.00000000000E+00 -0.12574982641E+04  0.12574982641E+04  0.25500000920E-02 0. -1.
    10030    2    1    2    0    0  0.00000000000E+00  0.00000000000E+00  0.19799864770E+04  0.44949830051E+04  0.40354089963E+04 0.  0.
        3    1    3    3  502    0 -0.16182859152E+04  0.63804780686E+03 -0.14877525811E+03  0.17458775429E+04  0.10100000352E+00 0. -1.
       -3    1    3    3    0  502  0.16182859152E+04 -0.63804780686E+03  0.21287617351E+04  0.27491054622E+04  0.10100000352E+00 0.  1.
</event>
<event>
 5   0  0.1776653E-07  0.3971235E+04  0.7818609E-02  0.8010375E-01
        2   -1    0    0  501    0  0.00000000000E+00  0.00000000000E+00  0.20810986930E+04  0.20810986930E+04  0.25500000920E-02 0. -1.
       -2   -1    0    0    0  501  0.00000000000E+00  0.00000000000E+00 -0.18945166526E+04  0.18945166526E+04  0.25500000920E-02 0.  1.
    10030    2    1    2    0    0  0.00000000000E+00  0.00000000000E+00  0.18658204040E+03  0.39756153457E+04  0.39712346341E+04 0.  0.
        4    1    3    3  502    0  0.41316820416E+03  0.13596249684E+04  0.14816829873E+04  0.20529671472E+04  0.12699999809E+01 0. -1.
       -4    1    3    3    0  502 -0.41316820416E+03 -0.13596249684E+04 -0.12951009469E+04  0.19226481985E+04  0.12699999809E+01 0.  1.
</event>
<event>
 5   0  0.1776653E-07  0.3887610E+04  0.7818609E-02  0.8027611E-01
       -2   -1    0    0    0  501  0.00000000000E+00  0.00000000000E+00  0.17262061950E+04  0.17262061950E+04  0.25500000920E-02 0. -1.
        2   -1    0    0  501    0  0.00000000000E+00  0.00000000000E+00 -0.21888339086E+04  0.21888339086E+04  0.25500000920E-02 0.  1.
    10030    2    1    2    0    0  0.00000000000E+00  0.00000000000E+00 -0.46262771361E+03  0.39150401035E+04  0.38876103986E+04 0.  0.
        4    1    3    3  502    0  0.19107701785E+04 -0.14601474170E+03 -0.55920917330E+03  0.19962663881E+04  0.12699999809E+01 0.  1.
       -4    1    3    3    0  502 -0.19107701785E+04  0.14601474170E+03  0.96581459682E+02  0.19187737154E+04  0.12699999809E+01 0. -1.
</event>
<event>
 5   0  0.5515000E-08  0.3999814E+04  0.7818609E-02  0.8004584E-01
        1   -1    0    0  501    0  0.00000000000E+00  0.00000000000E+00  0.20434062174E+04  0.20434062174E+04  0.50400001928E-02 0. -1.
       -1   -1    0    0    0  501  0.00000000000E+00  0.00000000000E+00 -0.19573336013E+04  0.19573336013E+04  0.50400001928E-02 0.  1.
    10030    2    1    2    0    0  0.00000000000E+00  0.00000000000E+00  0.86072616089E+02  0.40007398187E+04  0.39998138209E+04 0.  0.
        5    1    3    3  502    0 -0.16262850489E+04 -0.11618681380E+04 -0.26728890998E+02  0.19988689687E+04  0.46999998093E+01 0.  1.
       -5    1    3    3    0  502  0.16262850489E+04  0.11618681380E+04  0.11280150709E+03  0.20018708501E+04  0.46999998093E+01 0. -1.
</event>
<event>
 5   0  0.5515000E-08  0.3946256E+04  0.7818609E-02  0.8015477E-01
        1   -1    0    0  501    0  0.00000000000E+00  0.00000000000E+00  0.25252603921E+04  0.25252603921E+04  0.50400001928E-02 0.  1.
       -1   -1    0    0    0  501  0.00000000000E+00  0.00000000000E+00 -0.15417161673E+04  0.15417161673E+04  0.50400001928E-02 0. -1.
    10030    2    1    2    0    0  0.00000000000E+00  0.00000000000E+00  0.98354422481E+03  0.40669765593E+04  0.39462563389E+04 0.  0.
        3    1    3    3  502    0  0.14354444080E+04  0.45275738308E+03 -0.82308797921E+03  0.17155068429E+04  0.10100000352E+00 0. -1.
       -3    1    3    3    0  502 -0.14354444080E+04 -0.45275738308E+03  0.18066322040E+04  0.23514697164E+04  0.10100000352E+00 0.  1.
</event>
<event>
 5   0  0.1776653E-07  0.3950708E+04  0.7818609E-02  0.8014565E-01
       -2   -1    0    0    0  501  0.00000000000E+00  0.00000000000E+00  0.14543522675E+04  0.14543522675E+04  0.25500000920E-02 0. -1.
        2   -1    0    0  501    0  0.00000000000E+00  0.00000000000E+00 -0.26829970253E+04  0.26829970253E+04  0.25500000920E-02 0.  1.
    10030    2    1    2    0    0  0.00000000000E+00  0.00000000000E+00 -0.12286447578E+04  0.41373492928E+04  0.39507076872E+04 0.  0.
        4    1    3    3  502    0 -0.80502302613E+03 -0.52926869298E+03  0.11916272572E+04  0.15323721986E+04  0.12699999809E+01 0. -1.
       -4    1    3    3    0  502  0.80502302613E+03  0.52926869298E+03 -0.24202720150E+04  0.26049770942E+04  0.12699999809E+01 0.  1.
</event>
<event>
 5   0  0.1821433E-07  0.3923304E+04  0.7818609E-02  0.8020200E-01
        2   -1    0    0  501    0  0.00000000000E+00  0.00000000000E+00  0.25388927168E+04  0.25388927168E+04  0.25500000920E-02 0. -1.
       -2   -1    0    0    0  501  0.00000000000E+00  0.00000000000E+00 -0.15156525964E+04  0.15156525964E+04  0.25500000920E-02 0.  1.
    10030    2    1    2    0    0  0.00000000000E+00  0.00000000000E+00  0.10232401204E+04  0.40545453132E+04  0.39233043921E+04 0.  0.
        5    1    3    3  502    0 -0.59013566147E+02 -0.18756746267E+04 -0.78823100598E+02  0.18782633142E+04  0.46999998093E+01 0.  1.
       -5    1    3    3    0  502  0.59013566147E+02  0.18756746267E+04  0.11020632210E+04  0.21762819990E+04  0.46999998093E+01 0. -1.
</event>
<event>
 5   0  0.5515000E-08  0.3999087E+04  0.7818609E-02  0.8004731E-01
        1   -1    0    0  501    0  0.00000000000E+00  0.00000000000E+00  0.19009776134E+04  0.19009776134E+04  0.50400001928E-02 0. -1.
       -1   -1    0    0    0  501  0.00000000000E+00  0.00000000000E+00 -0.21032205346E+04  0.21032205346E+04  0.50400001928E-02 0.  1.
    10030    2    1    2    0    0  0.00000000000E+00  0.00000000000E+00 -0.20224292122E+03  0.40041981481E+04  0.39990874721E+04 0.  0.
        5    1    3    3  502    0  0.34318902954E+03 -0.44549076243E+02  0.18707580804E+04  0.19025039331E+04  0.46999998093E+01 0. -1.
       -5    1    3    3    0  502 -0.34318902954E+03  0.44549076243E+02 -0.20730010016E+04  0.21016942149E+04  0.46999998093E+01 0.  1.
</event>
<event>
 5   0  0.5515000E-08  0.3963772E+04  0.7818609E-02  0.8011895E-01
        1   -1    0    0  501    0  0.00000000000E+00  0.00000000000E+00  0.28190494456E+04  0.28190494456E+04  0.50400001928E-02 0. -1.
       -1   -1    0    0    0  501  0.00000000000E+00  0.00000000000E+00 -0.13933321864E+04  0.13933321864E+04  0.50400001928E-02 0.  1.
    10030    2    1    2    0    0  0.00000000000E+00  0.00000000000E+00  0.14257172593E+04  0.42123816320E+04  0.39637721062E+04 0.  0.
        3    1    3    3  502    0 -0.23956851271E+03 -0.11092305222E+04 -0.10138861185E+04  0.15217590135E+04  0.10100000352E+00 0.  1.
       -3    1    3    3    0  502  0.23956851271E+03  0.11092305222E+04  0.24396033778E+04  0.26906226184E+04  0.10100000352E+00 0. -1.
</event>
<event>
 5   0  0.1785559E-07  0.3959568E+04  0.7818609E-02  0.8012753E-01
        2   -1    0    0  501    0  0.00000000000E+00  0.00000000000E+00  0.17368422443E+04  0.17368422443E+04  0.25500000920E-02 0.  1.
       -2   -1    0    0    0  501  0.00000000000E+00  0.00000000000E+00 -0.22567071283E+04  0.22567071283E+04  0.25500000920E-02 0. -1.
    10030    2    1    2    0    0  0.00000000000E+00  0.00000000000E+00 -0.51986488402E+03  0.39935493727E+04  0.39595677913E+04 0.  0.
        2    1    3    3  502    0 -0.13758428023E+04 -0.13686027836E+04 -0.65512071602E+03  0.20482187746E+04  0.25500000920E-02 0. -1.
       -2    1    3    3    0  502  0.13758428023E+04  0.13686027836E+04  0.13525583200E+03  0.19453305981E+04  0.25500000920E-02 0.  1.
</event>
<event>
 5   0  0.1821433E-07  0.4018393E+04  0.7818609E-02  0.8000846E-01
       -2   -1    0    0    0  501  0.00000000000E+00  0.00000000000E+00  0.23595682983E+04  0.23595682983E+04  0.25500000920E-02 0.  1.
        2   -1    0    0  501    0  0.00000000000E+00  0.00000000000E+00 -0.17108517081E+04  0.17108517081E+04  0.25500000920E-02 0. -1.
    10030    2    1    2    0    0  0.00000000000E+00  0.00000000000E+00  0.64871659012E+03  0.40704200064E+04  0.40183934369E+04 0.  0.
        5    1    3    3  502    0 -0.17944425761E+04  0.74678259396E+03 -0.19129144324E+03  0.19530291620E+04  0.46999998093E+01 0. -1.
       -5    1    3    3    0  502  0.17944425761E+04 -0.74678259396E+03  0.84000803336E+03  0.21173908443E+04  0.46999998093E+01 0.  1.
</event>
<event>
 5   0  0.1819906E-07  0.3978503E+04  0.7818609E-02  0.8008897E-01
       -2   -1    0    0    0  501  0.00000000000E+00  0.00000000000E+00  0.30163653848E+04  0.30163653848E+04  0.25500000920E-02 0.  1.
        2   -1    0    0  501    0  0.00000000000E+00  0.00000000000E+00 -0.13118838402E+04  0.13118838402E+04  0.25500000920E-02 0. -1.
    10030    2    1    2    0    0  0.00000000000E+00  0.00000000000E+00  0.17044815446E+04  0.43282492250E+04  0.39785027357E+04 0.  0.
        1    1    3    3  502    0  0.19407977730E+04  0.71463119477E+02  0.38391135537E+03  0.19796946487E+04  0.50400001928E-02 0.  1.
       -1    1    3    3    0  502 -0.19407977730E+04 -0.71463119477E+02  0.13205701892E+04  0.23485545763E+04  0.50400001928E-02 0. -1.
</event>
<event>
 5   0  0.1776653E-07  0.3948053E+04  0.7818609E-02  0.8015109E-01
       -2   -1    0    0    0  501  0.00000000000E+00  0.00000000000E+00  0.17346944613E+04  0.17346944613E+04  0.25500000920E-02 0. -1.
        2   -1    0    0  501    0  0.00000000000E+00  0.00000000000E+00 -0.22463782939E+04  0.22463782939E+04  0.25500000920E-02 0.  1.
    10030    2    1    2    0    0  0.00000000000E+00  0.00000000000E+00 -0.51168383260E+03  0.39810727551E+04  0.39480526766E+04 0.  0.
        4    1    3    3  502    0  0.71971992007E+03 -0.12448259814E+04 -0.16196289950E+04  0.21658227494E+04  0.12699999809E+01 0. -1.
       -4    1    3    3    0  502 -0.71971992007E+03  0.12448259814E+04  0.11079451625E+04  0.18152500057E+04  0.12699999809E+01 0.  1.
</event>
<event>
 5   0  0.1821433E-07  0.3952821E+04  0.7818609E-02  0.8014132E-01
       -2   -1    0    0    0  501  0.00000000000E+00  0.00000000000E+00  0.18365554728E+04  0.18365554728E+04  0.25500000920E-02 0. -1.
        2   -1    0    0  501    0  0.00000000000E+00  0.00000000000E+00 -0.21269158770E+04  0.21269158771E+04  0.25500000920E-02 0.  1.
    10030    2    1    2    0    0  0.00000000000E+00  0.00000000000E+00 -0.29036040423E+03  0.39634713499E+04  0.39528212680E+04 0.  0.
        5    1    3    3  502    0 -0.12842397023E+04  0.14927672254E+04 -0.31460676685E+03  0.19941477152E+04  0.46999998093E+01 0.  1.
       -5    1    3    3    0  502  0.12842397023E+04 -0.14927672254E+04  0.24246362622E+02  0.19693236347E+04  0.46999998093E+01 0. -1.
</event>
<event>
 5   0  0.1773903E-07  0.4003508E+04  0.7818609E-02  0.8003839E-01
       -2   -1    0    0    0  501  0.00000000000E+00  0.00000000000E+00  0.17498593820E+04  0.17498593820E+04  0.25500000920E-02 0. -1.
        2   -1    0    0  501    0  0.00000000000E+00  0.00000000000E+00 -0.22899086894E+04  0.22899086894E+04  0.25500000920E-02 0.  1.
    10030    2    1    2    0    0  0.00000000000E+00  0.00000000000E+00 -0.54004930743E+03  0.40397680713E+04  0.40035075641E+04 0.  0.
        3    1    3    3  502    0  0.89797100713E+03 -0.16275651325E+03  0.15277337211E+04  0.17795538612E+04  0.10100000352E+00 0. -1.
       -3    1    3    3    0  502 -0.89797100713E+03  0.16275651325E+03 -0.20677830285E+04  0.22602142101E+04  0.10100000352E+00 0.  1.
</event>
<event>
 5   0  0.5515000E-08  0.3975414E+04  0.7818609E-02  0.8009525E-01
        1   -1    0    0  501    0  0.00000000000E+00  0.00000000000E+00  0.18542748271E+04  0.18542748271E+04  0.50400001928E-02 0. -1.
       -1   -1    0    0    0  501  0.00000000000E+00  0.00000000000E+00 -0.21307406166E+04  0.21307406166E+04  0.50400001928E-02 0.  1.
    10030    2    1    2    0    0  0.00000000000E+00  0.00000000000E+00 -0.27646578947E+03  0.39850154437E+04  0.39754137840E+04 0.  0.
        4    1    3    3  502    0 -0.92159323473E+03  0.10017049884E+04  0.13137925478E+04  0.18917715099E+04  0.12699999809E+01 0. -1.
       -4    1    3    3    0  502  0.92159323473E+03 -0.10017049884E+04 -0.15902583373E+04  0.20932439338E+04  0.12699999809E+01 0.  1.
</event>
<event>
 5   0  0.1821433E-07  0.3991540E+04  0.7818609E-02  0.8006255E-01
        2   -1    0    0  501    0  0.00000000000E+00  0.00000000000E+00  0.23660364998E+04  0.23660364998E+04  0.25500000920E-02 0.  1.
       -2   -1    0    0    0  501  0.00000000000E+00  0.00000000000E+00 -0.16834474923E+04  0.16834474923E+04  0.25500000920E-02 0. -1.
    10030    2    1    2    0    0  0.00000000000E+00  0.00000000000E+00  0.68258900747E+03  0.40494839921E+04  0.39915401600E+04 0.  0.
        5    1    3    3  502    0 -0.11675738217E+04 -0.11304018406E+04 -0.83398667010E+03  0.18266342837E+04  0.46999998093E+01 0. -1.
       -5    1    3    3    0  502  0.11675738217E+04  0.11304018406E+04  0.15165756776E+04  0.22228497084E+04  0.46999998093E+01 0.  1.
</event>
<event>
 5   0  0.5515000E-08  0.3222429E+04  0.7818609E-02  0.8182919E-01
        1   -1    0    0  501    0  0.00000000000E+00  0.00000000000E+00  0.17052830711E+04  0.17052830711E+04  0.50400001928E-02 0.  1.
       -1   -1    0    0    0  501  0.00000000000E+00  0.00000000000E+00 -0.15223351154E+04  0.15223351154E+04  0.50400001928E-02 0. -1.
    10030    2    1    2    0    0  0.00000000000E+00  0.00000000000E+00  0.18294795576E+03  0.32276181865E+04  0.32224290843E+04 0.  0.
        5    1    3    3  502    0  0.89848014519E+03 -0.23177176521E+02  0.14308582228E+04  0.16897281132E+04  0.46999998093E+01 0.  1.
       -5    1    3    3    0  502 -0.89848014519E+03  0.23177176521E+02 -0.12479102671E+04  0.15378900733E+04  0.46999998093E+01 0. -1.
</event>
<event>
 5   0  0.5515000E-08  0.3970199E+04  0.7818609E-02  0.8010585E-01
        1   -1    0    0  501    0  0.00000000000E+00  0.00000000000E+00  0.16431940249E+04  0.16431940249E+04  0.50400001928E-02 0.  1.
       -1   -1    0    0    0  501  0.00000000000E+00  0.00000000000E+00 -0.23981470632E+04  0.23981470632E+04  0.50400001928E-02 0. -1.
    10030    2    1    2    0    0  0.00000000000E+00  0.00000000000E+00 -0.75495303826E+03  0.40413410881E+04  0.39701994535E+04 0.  0.
        5    1    3    3  502    0  0.59537333947E+03 -0.23192995839E+02 -0.23049729668E+04  0.23807414383E+04  0.46999998093E+01 0. -1.
       -5    1    3    3    0  502 -0.59537333947E+03  0.23192995839E+02  0.15500199285E+04  0.16605996499E+04  0.46999998093E+01 0.  1.
</event>
<event>
 5   0  0.5515000E-08  0.3969648E+04  0.7818609E-02  0.8010698E-01
        1   -1    0    0  501    0  0.00000000000E+00  0.00000000000E+00  0.20649246145E+04  0.20649246145E+04  0.50400001928E-02 0. -1.
       -1   -1    0    0    0  501  0.00000000000E+00  0.00000000000E+00 -0.19078301415E+04  0.19078301415E+04  0.50400001928E-02 0.  1.
    10030    2    1    2    0    0  0.00000000000E+00  0.00000000000E+00  0.15709447302E+03  0.39727547561E+04  0.39696475509E+04 0.  0.
        5    1    3    3  502    0 -0.17381840797E+04  0.66889480924E+03 -0.60813790582E+03  0.19592238165E+04  0.46999998093E+01 0. -1.
       -5    1    3    3    0  502  0.17381840797E+04 -0.66889480924E+03  0.76523237884E+03  0.20135309395E+04  0.46999998093E+01 0.  1.
</event>
<event>
 5   0  0.5515000E-08  0.4003842E+04  0.7818609E-02  0.8003772E-01
        1   -1    0    0  501    0  0.00000000000E+00  0.00000000000E+00  0.18351421851E+04  0.18351421851E+04  0.50400001928E-02 0.  1.
       -1   -1    0    0    0  501  0.00000000000E+00  0.00000000000E+00 -0.21838567446E+04  0.21838567446E+04  0.50400001928E-02 0. -1.
    10030    2    1    2    0    0  0.00000000000E+00  0.00000000000E+00 -0.34871455944E+03  0.40189989297E+04  0.40038419740E+04 0.  0.
        1    1    3    3  502    0  0.17453227593E+03  0.25949891460E+03  0.18104714340E+04  0.18372827804E+04  0.50400001928E-02 0.  1.
       -1    1    3    3    0  502 -0.17453227593E+03 -0.25949891460E+03 -0.21591859934E+04  0.21817161493E+04  0.50400001928E-02 0. -1.
</event>
<event>
 5   0  0.1773903E-07  0.3968436E+04  0.7818609E-02  0.8010945E-01
        2   -1    0    0  501    0  0.00000000000E+00  0.00000000000E+00  0.17321337109E+04  0.17321337109E+04  0.25500000920E-02 0.  1.
       -2   -1    0    0    0  501  0.00000000000E+00  0.00000000000E+00 -0.22729887453E+04  0.22729887453E+04  0.25500000920E-02 0. -1.
    10030    2    1    2    0    0  0.00000000000E+00  0.00000000000E+00 -0.54085503436E+03  0.40051224562E+04  0.39684356768E+04 0.  0.
        3    1    3    3  502    0  0.16669799941E+04  0.80570014455E+03  0.44971319602E+03  0.19053128332E+04  0.10100000352E+00 0.  1.
       -3    1    3    3    0  502 -0.16669799941E+04 -0.80570014455E+03 -0.99056823038E+03  0.20998096230E+04  0.10100000352E+00 0. -1.
</event>
<event>
 5   0  0.5515000E-08  0.3926605E+04  0.7818609E-02  0.8019519E-01
       -1   -1    0    0    0  501  0.00000000000E+00  0.00000000000E+00  0.26632555078E+04  0.26632555078E+04  0.50400001928E-02 0. -1.
        1   -1    0    0  501    0  0.00000000000E+00  0.00000000000E+00 -0.14473098628E+04  0.14473098628E+04  0.50400001928E-02 0.  1.
    10030    2    1    2    0    0  0.00000000000E+00  0.00000000000E+00  0.12159456450E+04  0.41105653706E+04  0.39266046216E+04 0.  0.
        2    1    3    3  502    0 -0.13418309856E+04 -0.11711828261E+04  0.14727343729E+04  0.23110876528E+04  0.25500000920E-02 0. -1.
       -2    1    3    3    0  502  0.13418309856E+04  0.11711828261E+04 -0.25678872794E+03  0.17994777178E+04  0.25500000920E-02 0.  1.
</event>
<event>
 5   0  0.5515000E-08  0.4005595E+04  0.7818609E-02  0.8003419E-01
        1   -1    0    0  501    0  0.00000000000E+00  0.00000000000E+00  0.23132653677E+04  0.23132653677E+04  0.50400001928E-02 0.  1.
       -1   -1    0    0    0  501  0.00000000000E+00  0.00000000000E+00 -0.17339984180E+04  0.17339984180E+04  0.50400001928E-02 0. -1.
    10030    2    1    2    0    0  0.00000000000E+00  0.00000000000E+00  0.57926694970E+03  0.40472637857E+04  0.40055953306E+04 0.  0.
        4    1    3    3  502    0 -0.65570420063E+03 -0.18891599297E+04  0.40180015760E+03  0.20396858136E+04  0.12699999809E+01 0.  1.
       -4    1    3    3    0  502  0.65570420063E+03  0.18891599297E+04  0.17746679210E+03  0.20075779721E+04  0.12699999809E+01 0. -1.
</event>
<event>
 5   0  0.1776653E-07  0.4012166E+04  0.7818609E-02  0.8002097E-01
        2   -1    0    0  501    0  0.00000000000E+00  0.00000000000E+00  0.15687093391E+04  0.15687093391E+04  0.25500000920E-02 0. -1.
       -2   -1    0    0    0  501  0.00000000000E+00  0.00000000000E+00 -0.25654014707E+04  0.25654014707E+04  0.25500000920E-02 0.  1.
    10030    2    1    2    0    0  0.00000000000E+00  0.00000000000E+00 -0.99669213159E+03  0.41341108099E+04  0.40121661211E+04 0.  0.
        4    1    3    3  502    0  0.36911961180E+02  0.15722157925E+04 -0.17816486692E+04  0.23764466298E+04  0.12699999809E+01 0.  1.
       -4    1    3    3    0  502 -0.36911961180E+02 -0.15722157925E+04  0.78495653760E+03  0.17576641801E+04  0.12699999809E+01 0. -1.
</event>
<event>
 5   0  0.1785559E-07  0.4035869E+04  0.7818609E-02  0.7997349E-01
        2   -1    0    0  501    0  0.00000000000E+00  0.00000000000E+00  0.24730864524E+04  0.24730864524E+04  0.25500000920E-02 0.  1.
       -2   -1    0    0    0  501  0.00000000000E+00  0.00000000000E+00 -0.16465499011E+04  0.16465499011E+04  0.25500000920E-02 0. -1.
    10030    2    1    2    0    0  0.00000000000E+00  0.00000000000E+00  0.82653655130E+03  0.41196363535E+04  0.40358693010E+04 0.  0.
        2    1    3    3  502    0 -0.19273009403E+04  0.30794440956E+03 -0.10995395954E+03  0.19548423331E+04  0.25500000920E-02 0. -1.
       -2    1    3    3    0  502  0.19273009403E+04 -0.30794440956E+03  0.93649051084E+03  0.21647940204E+04  0.25500000920E-02 0.  1.
</event>
<event>
 5   0  0.5515000E-08  0.3907749E+04  0.7818609E-02  0.8023419E-01
        1   -1    0    0  501    0  0.00000000000E+00  0.00000000000E+00  0.25169355241E+04  0.25169355241E+04  0.50400001928E-02 0.  1.
       -1   -1    0    0    0  501  0.00000000000E+00  0.00000000000E+00 -0.15167755236E+04  0.15167755236E+04  0.50400001928E-02 0. -1.
    10030    2    1    2    0    0  0.00000000000E+00  0.00000000000E+00  0.10001600005E+04  0.40337110478E+04  0.39077493254E+04 0.  0.
        1    1    3    3  502    0 -0.11028257783E+04  0.96591368984E+03 -0.83322581098E+03  0.16862619030E+04  0.50400001928E-02 0. -1.
       -1    1    3    3    0  502  0.11028257783E+04 -0.96591368984E+03  0.18333858115E+04  0.23474491448E+04  0.50400001928E-02 0.  1.
</event>
<event>
 5   0  0.1821433E-07  0.3999932E+04  0.7818609E-02  0.8004560E-01
        2   -1    0    0  501    0  0.00000000000E+00  0.00000000000E+00  0.21608892872E+04  0.21608892872E+04  0.25500000920E-02 0.  1.
       -2   -1    0    0    0  501  0.00000000000E+00  0.00000000000E+00 -0.18510270024E+04  0.18510270024E+04  0.25500000920E-02 0. -1.
    10030    2    1    2    0    0  0.00000000000E+00  0.00000000000E+00  0.30986228475E+03  0.40119162896E+04  0.39999322093E+04 0.  0.
        5    1    3    3  502    0 -0.28732297268E+03 -0.19109194708E+04  0.67191176094E+03  0.20458873916E+04  0.46999998093E+01 0. -1.
       -5    1    3    3    0  502  0.28732297268E+03  0.19109194708E+04 -0.36204947619E+03  0.19660288980E+04  0.46999998093E+01 0.  1.
</event>
<event>
 5   0  0.5515000E-08  0.3924622E+04  0.7818609E-02  0.8019928E-01
        1   -1    0    0  501    0  0.00000000000E+00  0.00000000000E+00  0.15165897074E+04  0.15165897074E+04  0.50400001928E-02 0.  1.
       -1   -1    0    0    0  501  0.00000000000E+00  0.00000000000E+00 -0.25390290809E+04  0.25390290809E+04  0.50400001928E-02 0. -1.
    10030    2    1    2    0    0  0.00000000000E+00  0.00000000000E+00 -0.10224393735E+04  0.40556187883E+04  0.39246224639E+04 0.  0.
        3    1    3    3  502    0 -0.74705313311E+03 -0.16043286914E+04  0.36484264099E+03  0.18069502197E+04  0.10100000352E+00 0.  1.
       -3    1    3    3    0  502  0.74705313311E+03  0.16043286914E+04 -0.13872820145E+04  0.22486685686E+04  0.10100000352E+00 0. -1.
</event>
<event>
 5   0  0.1776653E-07  0.3788799E+04  0.7818609E-02  0.8048563E-01
       -2   -1    0    0    0  501  0.00000000000E+00  0.00000000000E+00  0.33291331188E+04  0.33291331188E+04  0.25500000920E-02 0. -1.
        2   -1    0    0  501    0  0.00000000000E+00  0.00000000000E+00 -0.10779832468E+04  0.10779832468E+04  0.25500000920E-02 0.  1.
    10030    2    1    2    0    0  0.00000000000E+00  0.00000000000E+00  0.22511498720E+04  0.44071163656E+04  0.37887991388E+04 0.  0.
        4    1    3    3  502    0  0.91297119773E+03 -0.30997169039E+03 -0.77123708515E+03  0.12346688265E+04  0.12699999809E+01 0.  1.
       -4    1    3    3    0  502 -0.91297119773E+03  0.30997169039E+03  0.30223869572E+04  0.31724475391E+04  0.12699999809E+01 0. -1.
</event>
<event>
 5   0  0.5515000E-08  0.4109143E+04  0.7818609E-02  0.7982884E-01
        1   -1    0    0  501    0  0.00000000000E+00  0.00000000000E+00  0.27899771033E+04  0.27899771033E+04  0.50400001928E-02 0. -1.
       -1   -1    0    0    0  501  0.00000000000E+00  0.00000000000E+00 -0.15130100860E+04  0.15130100860E+04  0.50400001928E-02 0.  1.
    10030    2    1    2    0    0  0.00000000000E+00  0.00000000000E+00  0.12769670174E+04  0.43029871893E+04  0.41091427315E+04 0.  0.
        2    1    3    3  502    0  0.21713894969E+03  0.16781484055E+04 -0.58179188522E+03  0.17893611128E+04  0.25500000920E-02 0.  1.
       -2    1    3    3    0  502 -0.21713894969E+03 -0.16781484055E+04  0.18587589026E+04  0.25136260765E+04  0.25500000920E-02 0. -1.
</event>
<event>
 5   0  0.5515000E-08  0.3815610E+04  0.7818609E-02  0.8042813E-01
        1   -1    0    0  501    0  0.00000000000E+00  0.00000000000E+00  0.13996058487E+04  0.13996058487E+04  0.50400001928E-02 0. -1.
       -1   -1    0    0    0  501  0.00000000000E+00  0.00000000000E+00 -0.26005324833E+04  0.26005324834E+04  0.50400001928E-02 0.  1.
    10030    2    1    2    0    0  0.00000000000E+00  0.00000000000E+00 -0.12009266346E+04  0.40001383321E+04  0.38156102911E+04 0.  0.
        3    1    3    3  502    0  0.17015804516E+04 -0.45014915755E+03 -0.13720673554E+04  0.22317211150E+04  0.10100000352E+00 0.  1.
       -3    1    3    3    0  502 -0.17015804516E+04  0.45014915755E+03  0.17114072072E+03  0.17684172171E+04  0.10100000352E+00 0. -1.
</event>
<event>
 5   0  0.5515000E-08  0.3955411E+04  0.7818609E-02  0.8013602E-01
       -1   -1    0    0    0  501  0.00000000000E+00  0.00000000000E+00  0.17836805513E+04  0.17836805513E+04  0.50400001928E-02 0. -1.
        1   -1    0    0  501    0  0.00000000000E+00  0.00000000000E+00 -0.21928364895E+04  0.21928364895E+04  0.50400001928E-02 0.  1.
    10030    2    1    2    0    0  0.00000000000E+00  0.00000000000E+00 -0.40915593822E+03  0.39765170408E+04  0.39554113811E+04 0.  0.
        1    1    3    3  502    0 -0.15264150160E+04  0.12569946119E+04 -0.16775545173E+03  0.19844697395E+04  0.50400001928E-02 0. -1.
       -1    1    3    3    0  502  0.15264150160E+04 -0.12569946119E+04 -0.24140048649E+03  0.19920473013E+04  0.50400001928E-02 0.  1.
</event>
<event>
 5   0  0.5515000E-08  0.3986918E+04  0.7818609E-02  0.8007191E-01
        1   -1    0    0  501    0  0.00000000000E+00  0.00000000000E+00  0.15955591484E+04  0.15955591484E+04  0.50400001928E-02 0.  1.
       -1   -1    0    0    0  501  0.00000000000E+00  0.00000000000E+00 -0.24905865970E+04  0.24905865970E+04  0.50400001928E-02 0. -1.
    10030    2    1    2    0    0  0.00000000000E+00  0.00000000000E+00 -0.89502744855E+03  0.40861457454E+04  0.39869177216E+04 0.  0.
        3    1    3    3  502    0 -0.11815402049E+03 -0.38623028048E+03  0.15531839539E+04  0.16048409912E+04  0.10100000352E+00 0.  1.
       -3    1    3    3    0  502  0.11815402049E+03  0.38623028048E+03 -0.24482114024E+04  0.24813047542E+04  0.10100000352E+00 0. -1.
</event>
<event>
 5   0  0.1776653E-07  0.3966871E+04  0.7818609E-02  0.8011263E-01
       -2   -1    0    0    0  501  0.00000000000E+00  0.00000000000E+00  0.21207891945E+04  0.21207891945E+04  0.25500000920E-02 0.  1.
        2   -1    0    0  501    0  0.00000000000E+00  0.00000000000E+00 -0.18549777475E+04  0.18549777475E+04  0.25500000920E-02 0. -1.
    10030    2    1    2    0    0  0.00000000000E+00  0.00000000000E+00  0.26581144698E+03  0.39757669419E+04  0.39668711917E+04 0.  0.
        4    1    3    3  502    0 -0.48378295347E+03  0.19227718972E+04  0.18704013452E+03  0.19915027843E+04  0.12699999809E+01 0. -1.
       -4    1    3    3    0  502  0.48378295347E+03 -0.19227718972E+04  0.78771312461E+02  0.19842641577E+04  0.12699999809E+01 0.  1.
</event>
<event>
 5   0  0.1819906E-07  0.4011988E+04  0.7818609E-02  0.8002132E-01
       -2   -1    0    0    0  501  0.00000000000E+00  0.00000000000E+00  0.18274949697E+04  0.18274949697E+04  0.25500000920E-02 0. -1.
        2   -1    0    0  501    0  0.00000000000E+00  0.00000000000E+00 -0.22019281577E+04  0.22019281577E+04  0.25500000920E-02 0.  1.
    10030    2    1    2    0    0  0.00000000000E+00  0.00000000000E+00 -0.37443318801E+03  0.40294231273E+04  0.40119883508E+04 0.  0.
        1    1    3    3  502    0  0.12480595955E+04  0.11470455658E+04  0.89012677543E+03  0.19145996867E+04  0.50400001928E-02 0. -1.
       -1    1    3    3    0  502 -0.12480595955E+04 -0.11470455658E+04 -0.12645599634E+04  0.21148234406E+04  0.50400001928E-02 0.  1.
</event>
<event>
 5   0  0.5515000E-08  0.3949612E+04  0.7818609E-02  0.8014789E-01
        1   -1    0    0  501    0  0.00000000000E+00  0.00000000000E+00  0.14659055437E+04  0.14659055437E+04  0.50400001928E-02 0. -1.
       -1   -1    0    0    0  501  0.00000000000E+00  0.00000000000E+00 -0.26603750668E+04  0.26603750668E+04  0.50400001928E-02 0.  1.
    10030    2    1    2    0    0  0.00000000000E+00  0.00000000000E+00 -0.11944695231E+04  0.41262806105E+04  0.39496119094E+04 0.  0.
        2    1    3    3  502    0 -0.11758596194E+04 -0.11025432844E+04 -0.17891488243E+04  0.24081738006E+04  0.25500000920E-02 0.  1.
       -2    1    3    3    0  502  0.11758596194E+04  0.11025432844E+04  0.59467930124E+03  0.17181068098E+04  0.25500000920E-02 0. -1.
</event>
<event>
 5   0  0.5515000E-08  0.4012948E+04  0.7818609E-02  0.8001940E-01
       -1   -1    0    0    0  501  0.00000000000E+00  0.00000000000E+00  0.16881808712E+04  0.16881808712E+04  0.50400001928E-02 0.  1.
        1   -1    0    0  501    0  0.00000000000E+00  0.00000000000E+00 -0.23847790922E+04  0.23847790922E+04  0.50400001928E-02 0. -1.
    10030    2    1    2    0    0  0.00000000000E+00  0.00000000000E+00 -0.69659822100E+03  0.40729599635E+04  0.40129482656E+04 0.  0.
        2    1    3    3  502    0 -0.12960711024E+04  0.63739594405E+03  0.10653195969E+04  0.17947088164E+04  0.25500000920E-02 0.  1.
       -2    1    3    3    0  502  0.12960711024E+04 -0.63739594405E+03 -0.17619178179E+04  0.22782511471E+04  0.25500000920E-02 0. -1.
</event>
<event>
 5   0  0.1776653E-07  0.4010998E+04  0.7818609E-02  0.8002332E-01
        2   -1    0    0  501    0  0.00000000000E+00  0.00000000000E+00  0.18588998815E+04  0.18588998815E+04  0.25500000920E-02 0.  1.
       -2   -1    0    0    0  501  0.00000000000E+00  0.00000000000E+00 -0.21636593413E+04  0.21636593413E+04  0.25500000920E-02 0. -1.
    10030    2    1    2    0    0  0.00000000000E+00  0.00000000000E+00 -0.30475945978E+03  0.40225592228E+04  0.40109979273E+04 0.  0.
        4    1    3    3  502    0 -0.70978969634E+03  0.17043474884E+04 -0.93785032778E+03  0.20707888894E+04  0.12699999809E+01 0. -1.
       -4    1    3    3    0  502  0.70978969634E+03 -0.17043474884E+04  0.63309086800E+03  0.19517703334E+04  0.12699999809E+01 0.  1.
</event>
<event>
 5   0  0.5515000E-08  0.3990083E+04  0.7818609E-02  0.8006550E-01
        1   -1    0    0  501    0  0.00000000000E+00  0.00000000000E+00  0.21447068279E+04  0.21447068279E+04  0.50400001928E-02 0. -1.
       -1   -1    0    0    0  501  0.00000000000E+00  0.00000000000E+00 -0.18558202393E+04  0.18558202394E+04  0.50400001928E-02 0.  1.
    10030    2    1    2    0    0  0.00000000000E+00  0.00000000000E+00  0.28888658857E+03  0.40005270673E+04  0.39900828757E+04 0.  0.
        3    1    3    3  502    0  0.60591149316E+03 -0.13479478859E+04  0.14881371218E+04  0.20972945296E+04  0.10100000352E+00 0. -1.
       -3    1    3    3    0  502 -0.60591149316E+03  0.13479478859E+04 -0.11992505332E+04  0.19032325376E+04  0.10100000352E+00 0.  1.
</event>
<event>
 5   0  0.1776653E-07  0.3985065E+04  0.7818609E-02  0.8007566E-01
       -2   -1    0    0    0  501  0.00000000000E+00  0.00000000000E+00  0.19619333733E+04  0.19619333733E+04  0.25500000920E-02 0.  1.
        2   -1    0    0  501    0  0.00000000000E+00  0.00000000000E+00 -0.20236089708E+04  0.20236089708E+04  0.25500000920E-02 0. -1.
    10030    2    1    2    0    0  0.00000000000E+00  0.00000000000E+00 -0.61675597509E+02  0.39855423441E+04  0.39850651058E+04 0.  0.
        4    1    3    3  502    0 -0.15511588893E+04 -0.11628465273E+04  0.42951985175E+03  0.19856472148E+04  0.12699999809E+01 0.  1.
       -4    1    3    3    0  502  0.15511588893E+04  0.11628465273E+04 -0.49119544926E+03  0.19998951293E+04  0.12699999809E+01 0. -1.
</event>
<event>
 5   0  0.5515000E-08  0.4005513E+04  0.7818609E-02  0.8003435E-01
       -1   -1    0    0    0  501  0.00000000000E+00  0.00000000000E+00  0.25741536602E+04  0.25741536602E+04  0.50400001928E-02 0.  1.
        1   -1    0    0  501    0  0.00000000000E+00  0.00000000000E+00 -0.15581954681E+04  0.15581954681E+04  0.50400001928E-02 0. -1.
    10030    2    1    2    0    0  0.00000000000E+00  0.00000000000E+00  0.10159581921E+04  0.41323491284E+04  0.40055134840E+04 0.  0.
        3    1    3    3  502    0  0.67085413008E+03 -0.12583450311E+03 -0.14345002989E+04  0.15886065289E+04  0.10100000352E+00 0. -1.
       -3    1    3    3    0  502 -0.67085413008E+03  0.12583450311E+03  0.24504584910E+04  0.25437425995E+04  0.10100000352E+00 0.  1.
</event>
<event>
 5   0  0.5515000E-08  0.4023276E+04  0.7818609E-02  0.7999867E-01
       -1   -1    0    0    0  501  0.00000000000E+00  0.00000000000E+00  0.21006853145E+04  0.21006853145E+04  0.50400001928E-02 0.  1.
        1   -1    0    0  501    0  0.00000000000E+00  0.00000000000E+00 -0.19263653204E+04  0.19263653204E+04  0.50400001928E-02 0. -1.
    10030    2    1    2    0    0  0.00000000000E+00  0.00000000000E+00  0.17431999411E+03  0.40270506349E+04  0.40232759482E+04 0.  0.
        3    1    3    3  502    0  0.14053556917E+04 -0.13697554228E+03  0.15212988776E+04  0.20756052623E+04  0.10100000352E+00 0.  1.
       -3    1    3    3    0  502 -0.14053556917E+04  0.13697554228E+03 -0.13469788835E+04  0.19514453726E+04  0.10100000352E+00 0. -1.
</event>
<event>
 5   0  0.1776653E-07  0.4028916E+04  0.7818609E-02  0.7998739E-01
       -2   -1    0    0    0  501  0.00000000000E+00  0.00000000000E+00  0.25955012356E+04  0.25955012356E+04  0.25500000920E-02 0.  1.
        2   -1    0    0  501    0  0.00000000000E+00  0.00000000000E+00 -0.15634902818E+04  0.15634902818E+04  0.25500000920E-02 0. -1.
    10030    2    1    2    0    0  0.00000000000E+00  0.00000000000E+00  0.10320109537E+04  0.41589915174E+04  0.40289159625E+04 0.  0.
        4    1    3    3  502    0  0.15026806736E+04 -0.32586647453E+02 -0.86853847456E+03  0.17359354225E+04  0.12699999809E+01 0. -1.
       -4    1    3    3    0  502 -0.15026806736E+04  0.32586647453E+02  0.19005494283E+04  0.24230560949E+04  0.12699999809E+01 0.  1.
</event>
<event>
 5   0  0.1819906E-07  0.3960452E+04  0.7818609E-02  0.8012573E-01
       -2   -1    0    0    0  501  0.00000000000E+00  0.00000000000E+00  0.20208937020E+04  0.20208937020E+04  0.25500000920E-02 0. -1.
        2   -1    0    0  501    0  0.00000000000E+00  0.00000000000E+00 -0.19403765442E+04  0.19403765442E+04  0.25500000920E-02 0.  1.
    10030    2    1    2    0    0  0.00000000000E+00  0.00000000000E+00  0.80517157805E+02  0.39612702463E+04  0.39604518620E+04 0.  0.
        1    1    3    3  502    0 -0.18697346452E+04 -0.12419542952E+03 -0.60015693913E+03  0.19676179761E+04  0.50400001928E-02 0.  1.
       -1    1    3    3    0  502  0.18697346452E+04  0.12419542952E+03  0.68067409694E+03  0.19936522702E+04  0.50400001928E-02 0. -1.
</event>
<event>
 5   0  0.1776653E-07  0.4044026E+04  0.7818609E-02  0.7995724E-01
       -2   -1    0    0    0  501  0.00000000000E+00  0.00000000000E+00  0.12706884695E+04  0.12706884695E+04  0.25500000920E-02 0. -1.
        2   -1    0    0  501    0  0.00000000000E+00  0.00000000000E+00 -0.32175755337E+04  0.32175755337E+04  0.25500000920E-02 0.  1.
    10030    2    1    2    0    0  0.00000000000E+00  0.00000000000E+00 -0.19468870642E+04  0.44882640032E+04  0.40440257815E+04 0.  0.
        4    1    3    3  502    0 -0.14257350047E+04 -0.14107828484E+04 -0.12575001519E+04  0.23673480509E+04  0.12699999809E+01 0. -1.
       -4    1    3    3    0  502  0.14257350047E+04  0.14107828484E+04 -0.68938691233E+03  0.21209159523E+04  0.12699999809E+01 0.  1.
</event>
<event>
 5   0  0.1776653E-07  0.3954972E+04  0.7818609E-02  0.8013692E-01
       -2   -1    0    0    0  501  0.00000000000E+00  0.00000000000E+00  0.27433077063E+04  0.27433077063E+04  0.25500000920E-02 0.  1.
        2   -1    0    0  501    0  0.00000000000E+00  0.00000000000E+00 -0.14254513727E+04  0.14254513727E+04  0.25500000920E-02 0. -1.
    10030    2    1    2    0    0  0.00000000000E+00  0.00000000000E+00  0.13178563336E+04  0.41687590789E+04  0.39549724326E+04 0.  0.
        4    1    3    3  502    0  0.10240078065E+03  0.11278747300E+04  0.23676236824E+04  0.26245439301E+04  0.12699999809E+01 0.  1.
       -4    1    3    3    0  502 -0.10240078065E+03 -0.11278747300E+04 -0.10497673488E+04  0.15442151489E+04  0.12699999809E+01 0. -1.
</event>
<event>
 5   0  0.5515000E-08  0.3958687E+04  0.7818609E-02  0.8012933E-01
       -1   -1    0    0    0  501  0.00000000000E+00  0.00000000000E+00  0.12081214486E+04  0.12081214487E+04  0.50400001928E-02 0.  1.
        1   -1    0    0  501    0  0.00000000000E+00  0.00000000000E+00 -0.32428858917E+04  0.32428858917E+04  0.50400001928E-02 0. -1.
    10030    2    1    2    0    0  0.00000000000E+00  0.00000000000E+00 -0.20347644430E+04  0.44510073403E+04  0.39586866515E+04 0.  0.
        3    1    3    3  502    0 -0.18714176844E+04  0.61078527559E+03 -0.12492773237E+04  0.23315138095E+04  0.10100000352E+00 0. -1.
       -3    1    3    3    0  502  0.18714176844E+04 -0.61078527559E+03 -0.78548711934E+03  0.21194935308E+04  0.10100000352E+00 0.  1.
</event>
<event>
 5   0  0.5515000E-08  0.3955592E+04  0.7818609E-02  0.8013565E-01
        1   -1    0    0  501    0  0.00000000000E+00  0.00000000000E+00  0.18349691066E+04  0.18349691067E+04  0.50400001928E-02 0.  1.
       -1   -1    0    0    0  501  0.00000000000E+00  0.00000000000E+00 -0.21317400783E+04  0.21317400783E+04  0.50400001928E-02 0. -1.
    10030    2    1    2    0    0  0.00000000000E+00  0.00000000000E+00 -0.29677097169E+03  0.39667091850E+04  0.39555920857E+04 0.  0.
        3    1    3    3  502    0  0.93180210012E+03  0.62630393470E+03  0.14844306160E+04  0.18611947873E+04  0.10100000352E+00 0.  1.
       -3    1    3    3    0  502 -0.93180210012E+03 -0.62630393470E+03 -0.17812015877E+04  0.21055143977E+04  0.10100000352E+00 0. -1.
</event>
<event>
 5   0  0.1785559E-07  0.4072879E+04  0.7818609E-02  0.7990004E-01
        2   -1    0    0  501    0  0.00000000000E+00  0.00000000000E+00  0.20960662183E+04  0.20960662183E+04  0.25500000920E-02 0.  1.
       -2   -1    0    0    0  501  0.00000000000E+00  0.00000000000E+00 -0.19785086683E+04  0.19785086683E+04  0.25500000920E-02 0. -1.
    10030    2    1    2    0    0  0.00000000000E+00  0.00000000000E+00  0.11755754999E+03  0.40745748866E+04  0.40728786784E+04 0.  0.
        2    1    3    3  502    0  0.13596525956E+04  0.66486205730E+03  0.14218396712E+04  0.20766137789E+04  0.25500000920E-02 0.  1.
       -2    1    3    3    0  502 -0.13596525956E+04 -0.66486205730E+03 -0.13042821213E+04  0.19979611077E+04  0.25500000920E-02 0. -1.
</event>
<event>
 5   0  0.5515000E-08  0.3951873E+04  0.7818609E-02  0.8014326E-01
       -1   -1    0    0    0  501  0.00000000000E+00  0.00000000000E+00  0.33859214496E+04  0.33859214496E+04  0.50400001928E-02 0. -1.
        1   -1    0    0  501    0  0.00000000000E+00  0.00000000000E+00 -0.11531053858E+04  0.11531053859E+04  0.50400001928E-02 0.  1.
    10030    2    1    2    0    0  0.00000000000E+00  0.00000000000E+00  0.22328160637E+04  0.45390268354E+04  0.39518725989E+04 0.  0.
        2    1    3    3  502    0  0.18118824308E+04 -0.77002026245E+02  0.20174929709E+04  0.27127707501E+04  0.25500000920E-02 0. -1.
       -2    1    3    3    0  502 -0.18118824308E+04  0.77002026245E+02  0.21532309285E+03  0.18262560853E+04  0.25500000920E-02 0.  1.
</event>
<event>
 5   0  0.5515000E-08  0.4004643E+04  0.7818609E-02  0.8003611E-01
        1   -1    0    0  501    0  0.00000000000E+00  0.00000000000E+00  0.16819828797E+04  0.16819828797E+04  0.50400001928E-02 0. -1.
       -1   -1    0    0    0  501  0.00000000000E+00  0.00000000000E+00 -0.23836690947E+04  0.23836690947E+04  0.50400001928E-02 0.  1.
    10030    2    1    2    0    0  0.00000000000E+00  0.00000000000E+00 -0.70168621494E+03  0.40656519744E+04  0.40046426099E+04 0.  0.
        4    1    3    3  502    0  0.14503810656E+04 -0.11026799269E+04  0.49234013582E+03  0.18873019575E+04  0.12699999809E+01 0. -1.
       -4    1    3    3    0  502 -0.14503810656E+04  0.11026799269E+04 -0.11940263508E+04  0.21783500168E+04  0.12699999809E+01 0.  1.
</event>
<event>
 5   0  0.5515000E-08  0.3771456E+04  0.7818609E-02  0.8052308E-01
       -1   -1    0    0    0  501  0.00000000000E+00  0.00000000000E+00  0.23511376415E+04  0.23511376415E+04  0.50400001928E-02 0.  1.
        1   -1    0    0  501    0  0.00000000000E+00  0.00000000000E+00 -0.15124467794E+04  0.15124467794E+04  0.50400001928E-02 0. -1.
    10030    2    1    2    0    0  0.00000000000E+00  0.00000000000E+00  0.83869086209E+03  0.38635844209E+04  0.37714562460E+04 0.  0.
        4    1    3    3  502    0  0.50542004612E+02  0.40423212965E+03 -0.14668290965E+04  0.15223492766E+04  0.12699999809E+01 0. -1.
       -4    1    3    3    0  502 -0.50542004612E+02 -0.40423212965E+03  0.23055199585E+04  0.23412351443E+04  0.12699999809E+01 0.  1.
</event>
<event>
 5   0  0.1785559E-07  0.3994930E+04  0.7818609E-02  0.8005570E-01
        2   -1    0    0  501    0  0.00000000000E+00  0.00000000000E+00  0.22006385012E+04  0.22006385012E+04  0.25500000920E-02 0.  1.
       -2   -1    0    0    0  501  0.00000000000E+00  0.00000000000E+00 -0.18130494629E+04  0.18130494629E+04  0.25500000920E-02 0. -1.
    10030    2    1    2    0    0  0.00000000000E+00  0.00000000000E+00  0.38758903823E+03  0.40136879641E+04  0.39949300132E+04 0.  0.
        2    1    3    3  502    0 -0.36777500848E+03  0.16274984105E+04  0.12970658188E+04  0.21133833707E+04  0.25500000920E-02 0.  1.
       -2    1    3    3    0  502  0.36777500848E+03 -0.16274984105E+04 -0.90947678061E+03  0.19003045934E+04  0.25500000920E-02 0. -1.
</event>
<event>
 5   0  0.5515000E-08  0.3939346E+04  0.7818609E-02  0.8016895E-01
        1   -1    0    0  501    0  0.00000000000E+00  0.00000000000E+00  0.12758283320E+04  0.12758283320E+04  0.50400001928E-02 0. -1.
       -1   -1    0    0    0  501  0.00000000000E+00  0.00000000000E+00 -0.30408566786E+04  0.30408566786E+04  0.50400001928E-02 0.  1.
    10030    2    1    2    0    0  0.00000000000E+00  0.00000000000E+00 -0.17650283466E+04  0.43166850106E+04  0.39393456838E+04 0.  0.
        3    1    3    3  502    0  0.11234213824E+04  0.10811560814E+04  0.43636817671E+03  0.16190711135E+04  0.10100000352E+00 0. -1.
       -3    1    3    3    0  502 -0.11234213824E+04 -0.10811560814E+04 -0.22013965233E+04  0.26976138971E+04  0.10100000352E+00 0.  1.
</event>
<event>
 5   0  0.1785559E-07  0.3975464E+04  0.7818609E-02  0.8009515E-01
        2   -1    0    0  501    0  0.00000000000E+00  0.00000000000E+00  0.21560126781E+04  0.21560126781E+04  0.25500000920E-02 0. -1.
       -2   -1    0    0    0  501  0.00000000000E+00  0.00000000000E+00 -0.18325861134E+04  0.18325861134E+04  0.25500000920E-02 0.  1.
    10030    2    1    2    0    0  0.00000000000E+00  0.00000000000E+00  0.32342656474E+03  0.39885987915E+04  0.39754641963E+04 0.  0.
        2    1    3    3  502    0  0.76243661392E+03  0.16884800918E+04  0.88437372625E+03  0.20528983166E+04  0.25500000920E-02 0.  1.
       -2    1    3    3    0  502 -0.76243661392E+03 -0.16884800918E+04 -0.56094716151E+03  0.19357004749E+04  0.25500000920E-02 0. -1.
</event>
<event>
 5   0  0.1785559E-07  0.3963623E+04  0.7818609E-02  0.8011925E-01
        2   -1    0    0  501    0  0.00000000000E+00  0.00000000000E+00  0.19736648120E+04  0.19736648120E+04  0.25500000920E-02 0.  1.
       -2   -1    0    0    0  501  0.00000000000E+00  0.00000000000E+00 -0.19899921937E+04  0.19899921937E+04  0.25500000920E-02 0. -1.
    10030    2    1    2    0    0  0.00000000000E+00  0.00000000000E+00 -0.16327381699E+02  0.39636570058E+04  0.39636233771E+04 0.  0.
        2    1    3    3  502    0 -0.94672940194E+03  0.14074967620E+04  0.10166541927E+04  0.19776069992E+04  0.25500000920E-02 0.  1.
       -2    1    3    3    0  502  0.94672940194E+03 -0.14074967620E+04 -0.10329815744E+04  0.19860500066E+04  0.25500000920E-02 0. -1.
</event>
<event>
 5   0  0.1785559E-07  0.3818736E+04  0.7818609E-02  0.8042146E-01
        2   -1    0    0  501    0  0.00000000000E+00  0.00000000000E+00  0.13112896683E+04  0.13112896683E+04  0.25500000920E-02 0. -1.
       -2   -1    0    0    0  501  0.00000000000E+00  0.00000000000E+00 -0.27802288941E+04  0.27802288941E+04  0.25500000920E-02 0.  1.
    10030    2    1    2    0    0  0.00000000000E+00  0.00000000000E+00 -0.14689392258E+04  0.40915185623E+04  0.38187356149E+04 0.  0.
        2    1    3    3  502    0 -0.11072150836E+04  0.15496273533E+04 -0.58907318725E+03  0.19935589771E+04  0.25500000920E-02 0. -1.
       -2    1    3    3    0  502  0.11072150836E+04 -0.15496273533E+04 -0.87986603859E+03  0.20979595852E+04  0.25500000920E-02 0.  1.
</event>
<event>
 5   0  0.1819906E-07  0.3934185E+04  0.7818609E-02  0.8017957E-01
        2   -1    0    0  501    0  0.00000000000E+00  0.00000000000E+00  0.22194156073E+04  0.22194156073E+04  0.25500000920E-02 0.  1.
       -2   -1    0    0    0  501  0.00000000000E+00  0.00000000000E+00 -0.17434554564E+04  0.17434554564E+04  0.25500000920E-02 0. -1.
    10030    2    1    2    0    0  0.00000000000E+00  0.00000000000E+00  0.47596015088E+03  0.39628710637E+04  0.39341846681E+04 0.  0.
        1    1    3    3  502    0 -0.37810919607E+03  0.16594105249E+04 -0.75553953824E+03  0.18621089786E+04  0.50400001928E-02 0. -1.
       -1    1    3    3    0  502  0.37810919607E+03 -0.16594105249E+04  0.12314996891E+04  0.21007620852E+04  0.50400001928E-02 0.  1.
</event>
<event>
 5   0  0.5515000E-08  0.3991875E+04  0.7818609E-02  0.8006188E-01
       -1   -1    0    0    0  501  0.00000000000E+00  0.00000000000E+00  0.22303264248E+04  0.22303264248E+04  0.50400001928E-02 0.  1.
        1   -1    0    0  501    0  0.00000000000E+00  0.00000000000E+00 -0.17861809682E+04  0.17861809682E+04  0.50400001928E-02 0. -1.
    10030    2    1    2    0    0  0.00000000000E+00  0.00000000000E+00  0.44414545658E+03  0.40165073931E+04  0.39918750546E+04 0.  0.
        4    1    3    3  502    0 -0.41748939473E+03 -0.15666992641E+04  0.13932661425E+04  0.21377642844E+04  0.12699999809E+01 0.  1.
       -4    1    3    3    0  502  0.41748939473E+03  0.15666992641E+04 -0.94912068594E+03  0.18787431086E+04  0.12699999809E+01 0. -1.
</event>
<event>
 5   0  0.1776653E-07  0.3994632E+04  0.7818609E-02  0.8005630E-01
       -2   -1    0    0    0  501  0.00000000000E+00  0.00000000000E+00  0.16764872922E+04  0.16764872922E+04  0.25500000920E-02 0.  1.
        2   -1    0    0  501    0  0.00000000000E+00  0.00000000000E+00 -0.23795410323E+04  0.23795410323E+04  0.25500000920E-02 0. -1.
    10030    2    1    2    0    0  0.00000000000E+00  0.00000000000E+00 -0.70305374010E+03  0.40560283245E+04  0.39946315485E+04 0.  0.
        4    1    3    3  502    0 -0.86752660076E+02 -0.57453464712E+03  0.15887735554E+04  0.16916911976E+04  0.12699999809E+01 0.  1.
       -4    1    3    3    0  502  0.86752660076E+02  0.57453464712E+03 -0.22918272955E+04  0.23643371270E+04  0.12699999809E+01 0. -1.
</event>
<event>
 5   0  0.1821433E-07  0.3950967E+04  0.7818609E-02  0.8014512E-01
        2   -1    0    0  501    0  0.00000000000E+00  0.00000000000E+00  0.26404123354E+04  0.26404123354E+04  0.25500000920E-02 0.  1.
       -2   -1    0    0    0  501  0.00000000000E+00  0.00000000000E+00 -0.14780020321E+04  0.14780020321E+04  0.25500000920E-02 0. -1.
    10030    2    1    2    0    0  0.00000000000E+00  0.00000000000E+00  0.11624103033E+04  0.41184143675E+04  0.39509668676E+04 0.  0.
        5    1    3    3  502    0 -0.19685868979E+04  0.12265556455E+02  0.40983597350E+03  0.20108387389E+04  0.46999998093E+01 0. -1.
       -5    1    3    3    0  502  0.19685868979E+04 -0.12265556455E+02  0.75257432977E+03  0.21075756286E+04  0.46999998093E+01 0.  1.
</event>
<event>
 5   0  0.5515000E-08  0.3977409E+04  0.7818609E-02  0.8009119E-01
        1   -1    0    0  501    0  0.00000000000E+00  0.00000000000E+00  0.15859874035E+04  0.15859874036E+04  0.50400001928E-02 0. -1.
       -1   -1    0    0    0  501  0.00000000000E+00  0.00000000000E+00 -0.24936802971E+04  0.24936802971E+04  0.50400001928E-02 0.  1.
    10030    2    1    2    0    0  0.00000000000E+00  0.00000000000E+00 -0.90769289360E+03  0.40796677007E+04  0.39774089756E+04 0.  0.
        5    1    3    3  502    0 -0.10234002932E+03 -0.13093091252E+04 -0.19856127490E+04  0.23806393985E+04  0.46999998093E+01 0.  1.
       -5    1    3    3    0  502  0.10234002932E+03  0.13093091252E+04  0.10779198554E+04  0.16990283022E+04  0.46999998093E+01 0. -1.
</event>
<event>
 5   0  0.1821433E-07  0.3967525E+04  0.7818609E-02  0.8011130E-01
        2   -1    0    0  501    0  0.00000000000E+00  0.00000000000E+00  0.19326934526E+04  0.19326934526E+04  0.25500000920E-02 0.  1.
       -2   -1    0    0    0  501  0.00000000000E+00  0.00000000000E+00 -0.20361805358E+04  0.20361805358E+04  0.25500000920E-02 0. -1.
    10030    2    1    2    0    0  0.00000000000E+00  0.00000000000E+00 -0.10348708314E+03  0.39688739884E+04  0.39675245632E+04 0.  0.
        5    1    3    3  502    0  0.36662091460E+03  0.28589648511E+03 -0.19809074349E+04  0.20347393078E+04  0.46999998093E+01 0. -1.
       -5    1    3    3    0  502 -0.36662091460E+03 -0.28589648511E+03  0.18774203518E+04  0.19341346805E+04  0.46999998093E+01 0.  1.
</event>
<event>
 5   0  0.5515000E-08  0.3945792E+04  0.7818609E-02  0.8015572E-01
       -1   -1    0    0    0  501  0.00000000000E+00  0.00000000000E+00  0.17163468299E+04  0.17163468299E+04  0.50400001928E-02 0.  1.
        1   -1    0    0  501    0  0.00000000000E+00  0.00000000000E+00 -0.22677927741E+04  0.22677927741E+04  0.50400001928E-02 0. -1.
    10030    2    1    2    0    0  0.00000000000E+00  0.00000000000E+00 -0.55144594418E+03  0.39841396040E+04  0.39457921581E+04 0.  0.
        5    1    3    3  502    0  0.26549032034E+03 -0.15191018245E+04 -0.15181862376E+04  0.21640395111E+04  0.46999998093E+01 0. -1.
       -5    1    3    3    0  502 -0.26549032034E+03  0.15191018245E+04  0.96674029339E+03  0.18201000930E+04  0.46999998093E+01 0.  1.
</event>
<event>
 5   0  0.1821433E-07  0.4015976E+04  0.7818609E-02  0.8001331E-01
        2   -1    0    0  501    0  0.00000000000E+00  0.00000000000E+00  0.12137576935E+04  0.12137576935E+04  0.25500000920E-02 0. -1.
       -2   -1    0    0    0  501  0.00000000000E+00  0.00000000000E+00 -0.33219280740E+04  0.33219280740E+04  0.25500000920E-02 0.  1.
    10030    2    1    2    0    0  0.00000000000E+00  0.00000000000E+00 -0.21081703805E+04  0.45356857675E+04  0.40159759745E+04 0.  0.
        5    1    3    3  502    0  0.76051794443E+03 -0.94568846659E+03 -0.28608877930E+04  0.31076382148E+04  0.46999998093E+01 0.  1.
       -5    1    3    3    0  502 -0.76051794443E+03  0.94568846659E+03  0.75271741252E+03  0.14280475527E+04  0.46999998093E+01 0. -1.
</event>
<event>
 5   0  0.1785559E-07  0.3582355E+04  0.7818609E-02  0.8094546E-01
       -2   -1    0    0    0  501  0.00000000000E+00  0.00000000000E+00  0.14715369247E+04  0.14715369247E+04  0.25500000920E-02 0.  1.
        2   -1    0    0  501    0  0.00000000000E+00  0.00000000000E+00 -0.21802488291E+04  0.21802488291E+04  0.25500000920E-02 0. -1.
    10030    2    1    2    0    0  0.00000000000E+00  0.00000000000E+00 -0.70871190441E+03  0.36517857538E+04  0.35823548998E+04 0.  0.
        2    1    3    3  502    0  0.28597388759E+03 -0.92442995867E+02 -0.21543622820E+04  0.21752249571E+04  0.25500000920E-02 0. -1.
       -2    1    3    3    0  502 -0.28597388759E+03  0.92442995867E+02  0.14456503776E+04  0.14765607966E+04  0.25500000920E-02 0.  1.
</event>
<event>
 5   0  0.5515000E-08  0.4014128E+04  0.7818609E-02  0.8001702E-01
        1   -1    0    0  501    0  0.00000000000E+00  0.00000000000E+00  0.19153467909E+04  0.19153467909E+04  0.50400001928E-02 0. -1.
       -1   -1    0    0    0  501  0.00000000000E+00  0.00000000000E+00 -0.21031735078E+04  0.21031735078E+04  0.50400001928E-02 0.  1.
    10030    2    1    2    0    0  0.00000000000E+00  0.00000000000E+00 -0.18782671693E+03  0.40185202986E+04  0.40141283630E+04 0.  0.
        1    1    3    3  502    0  0.64278883092E+03 -0.18403313957E+04 -0.57225358312E+03  0.20316178998E+04  0.50400001928E-02 0. -1.
       -1    1    3    3    0  502 -0.64278883092E+03  0.18403313957E+04  0.38442686619E+03  0.19869023989E+04  0.50400001928E-02 0.  1.
</event>
<event>
 5   0  0.5515000E-08  0.4041793E+04  0.7818609E-02  0.7996168E-01
       -1   -1    0    0    0  501  0.00000000000E+00  0.00000000000E+00  0.18117920314E+04  0.18117920314E+04  0.50400001928E-02 0. -1.
        1   -1    0    0  501    0  0.00000000000E+00  0.00000000000E+00 -0.22541343578E+04  0.22541343578E+04  0.50400001928E-02 0.  1.
    10030    2    1    2    0    0  0.00000000000E+00  0.00000000000E+00 -0.44234232632E+03  0.40659263892E+04  0.40417930017E+04 0.  0.
        3    1    3    3  502    0  0.10521780888E+04  0.31762939597E+03 -0.19271909932E+04  0.22185653694E+04  0.10100000352E+00 0.  1.
       -3    1    3    3    0  502 -0.10521780888E+04 -0.31762939597E+03  0.14848486669E+04  0.18473610198E+04  0.10100000352E+00 0. -1.
</event>
<event>
 5   0  0.1776653E-07  0.4094004E+04  0.7818609E-02  0.7985847E-01
        2   -1    0    0  501    0  0.00000000000E+00  0.00000000000E+00  0.26694908629E+04  0.26694908629E+04  0.25500000920E-02 0.  1.
       -2   -1    0    0    0  501  0.00000000000E+00  0.00000000000E+00 -0.15696689278E+04  0.15696689278E+04  0.25500000920E-02 0. -1.
    10030    2    1    2    0    0  0.00000000000E+00  0.00000000000E+00  0.10998219351E+04  0.42391597908E+04  0.40940038401E+04 0.  0.
        4    1    3    3  502    0 -0.60803182261E+03  0.15040701116E+03  0.25678254095E+04  0.26431144343E+04  0.12699999809E+01 0.  1.
       -4    1    3    3    0  502  0.60803182261E+03 -0.15040701116E+03 -0.14680034744E+04  0.15960453565E+04  0.12699999809E+01 0. -1.
</event>
<event>
 5   0  0.1776653E-07  0.3976798E+04  0.7818609E-02  0.8009244E-01
       -2   -1    0    0    0  501  0.00000000000E+00  0.00000000000E+00  0.17940084217E+04  0.17940084217E+04  0.25500000920E-02 0.  1.
        2   -1    0    0  501    0  0.00000000000E+00  0.00000000000E+00 -0.22038523968E+04  0.22038523968E+04  0.25500000920E-02 0. -1.
    10030    2    1    2    0    0  0.00000000000E+00  0.00000000000E+00 -0.40984397507E+03  0.39978608185E+04  0.39767975860E+04 0.  0.
        4    1    3    3  502    0 -0.13955561730E+04 -0.42248344548E+03  0.11541477787E+04  0.18596042594E+04  0.12699999809E+01 0.  1.
       -4    1    3    3    0  502  0.13955561730E+04  0.42248344548E+03 -0.15639917538E+04  0.21382565591E+04  0.12699999809E+01 0. -1.
</event>
<event>
 5   0  0.1819906E-07  0.4145334E+04  0.7818609E-02  0.7975853E-01
       -2   -1    0    0    0  501  0.00000000000E+00  0.00000000000E+00  0.25025822222E+04  0.25025822222E+04  0.25500000920E-02 0. -1.
        2   -1    0    0  501    0  0.00000000000E+00  0.00000000000E+00 -0.17166060829E+04  0.17166060829E+04  0.25500000920E-02 0.  1.
    10030    2    1    2    0    0  0.00000000000E+00  0.00000000000E+00  0.78597613936E+03  0.42191883051E+04  0.41453336974E+04 0.  0.
        1    1    3    3  502    0  0.11881091795E+04 -0.16931394616E+04  0.52810565597E+03  0.21347646809E+04  0.50400001928E-02 0. -1.
       -1    1    3    3    0  502 -0.11881091795E+04  0.16931394616E+04  0.25787048339E+03  0.20844236242E+04  0.50400001928E-02 0.  1.
</event>
<event>
 5   0  0.5515000E-08  0.4004910E+04  0.7818609E-02  0.8003557E-01
        1   -1    0    0  501    0  0.00000000000E+00  0.00000000000E+00  0.23513554470E+04  0.23513554470E+04  0.50400001928E-02 0.  1.
       -1   -1    0    0    0  501  0.00000000000E+00  0.00000000000E+00 -0.17053256611E+04  0.17053256611E+04  0.50400001928E-02 0. -1.
    10030    2    1    2    0    0  0.00000000000E+00  0.00000000000E+00  0.64602978593E+03  0.40566811081E+04  0.40049103771E+04 0.  0.
        2    1    3    3  502    0  0.65184877296E+03  0.18658511085E+04 -0.28888593736E+01  0.19764401148E+04  0.25500000920E-02 0.  1.
       -2    1    3    3    0  502 -0.65184877296E+03 -0.18658511085E+04  0.64891864530E+03  0.20802409933E+04  0.25500000920E-02 0. -1.
</event>
<event>
 5   0  0.5515000E-08  0.4053132E+04  0.7818609E-02  0.7993913E-01
       -1   -1    0    0    0  501  0.00000000000E+00  0.00000000000E+00  0.19224502524E+04  0.19224502524E+04  0.50400001928E-02 0.  1.
        1   -1    0    0  501    0  0.00000000000E+00  0.00000000000E+00 -0.21363209087E+04  0.21363209088E+04  0.50400001928E-02 0. -1.
    10030    2    1    2    0    0  0.00000000000E+00  0.00000000000E+00 -0.21387065639E+03  0.40587711611E+04  0.40531324529E+04 0.  0.
        5    1    3    3  502    0  0.13244912053E+04 -0.25063619832E+03  0.14083959332E+04  0.19495375481E+04  0.46999998093E+01 0.  1.
       -5    1    3    3    0  502 -0.13244912053E+04  0.25063619832E+03 -0.16222665896E+04  0.21092336130E+04  0.46999998093E+01 0. -1.
</event>
<event>
 5   0  0.5515000E-08  0.4054213E+04  0.7818609E-02  0.7993698E-01
        1   -1    0    0  501    0  0.00000000000E+00  0.00000000000E+00  0.25044435945E+04  0.25044435945E+04  0.50400001928E-02 0.  1.
       -1   -1    0    0    0  501  0.00000000000E+00  0.00000000000E+00 -0.16407480629E+04  0.16407480629E+04  0.50400001928E-02 0. -1.
    10030    2    1    2    0    0  0.00000000000E+00  0.00000000000E+00  0.86369553160E+03  0.41451916573E+04  0.40542131055E+04 0.  0.
        1    1    3    3  502    0 -0.10389239360E+04 -0.15117127613E+02  0.22114727839E+04  0.24433999562E+04  0.50400001928E-02 0.  1.
       -1    1    3    3    0  502  0.10389239360E+04  0.15117127613E+02 -0.13477772523E+04  0.17017917011E+04  0.50400001928E-02 0. -1.
</event>
<event>
 5   0  0.1785559E-07  0.4011244E+04  0.7818609E-02  0.8002282E-01
       -2   -1    0    0    0  501  0.00000000000E+00  0.00000000000E+00  0.34697633256E+04  0.34697633256E+04  0.25500000920E-02 0. -1.
        2   -1    0    0  501    0  0.00000000000E+00  0.00000000000E+00 -0.11593065430E+04  0.11593065430E+04  0.25500000920E-02 0.  1.
    10030    2    1    2    0    0  0.00000000000E+00  0.00000000000E+00  0.23104567827E+04  0.46290698686E+04  0.40112438599E+04 0.  0.
        2    1    3    3  502    0  0.16469888353E+04 -0.11263653877E+04  0.92085045380E+03  0.21975524495E+04  0.25500000920E-02 0.  1.
       -2    1    3    3    0  502 -0.16469888353E+04  0.11263653877E+04  0.13896063289E+04  0.24315174191E+04  0.25500000920E-02 0. -1.
</event>
<event>
 5   0  0.5515000E-08  0.4040099E+04  0.7818609E-02  0.7996506E-01
        1   -1    0    0  501    0  0.00000000000E+00  0.00000000000E+00  0.21593515838E+04  0.21593515838E+04  0.50400001928E-02 0. -1.
       -1   -1    0    0    0  501  0.00000000000E+00  0.00000000000E+00 -0.18897339357E+04  0.18897339357E+04  0.50400001928E-02 0.  1.
    10030    2    1    2    0    0  0.00000000000E+00  0.00000000000E+00  0.26961764802E+03  0.40490855195E+04  0.40400989924E+04 0.  0.
        5    1    3    3  502    0 -0.58545685489E+02 -0.71725741231E+03 -0.17568991189E+04  0.18985790468E+04  0.46999998093E+01 0.  1.
       -5    1    3    3    0  502  0.58545685489E+02  0.71725741231E+03  0.20265167669E+04  0.21505064728E+04  0.46999998093E+01 0. -1.
</event>
<event>
 5   0  0.5515000E-08  0.3944567E+04  0.7818609E-02  0.8015823E-01
       -1   -1    0    0    0  501  0.00000000000E+00  0.00000000000E+00  0.29887316316E+04  0.29887316316E+04  0.50400001928E-02 0. -1.
        1   -1    0    0  501    0  0.00000000000E+00  0.00000000000E+00 -0.13015227294E+04  0.13015227295E+04  0.50400001928E-02 0.  1.
    10030    2    1    2    0    0  0.00000000000E+00  0.00000000000E+00  0.16872089021E+04  0.42902543611E+04  0.39445669728E+04 0.  0.
        3    1    3    3  502    0 -0.45236553014E+03 -0.14055659067E+04 -0.57851990012E+03  0.15858547777E+04  0.10100000352E+00 0.  1.
       -3    1    3    3    0  502  0.45236553014E+03  0.14055659067E+04  0.22657288023E+04  0.27043995834E+04  0.10100000352E+00 0. -1.
</event>
<event>
 5   0  0.5515000E-08  0.3948035E+04  0.7818609E-02  0.8015112E-01
       -1   -1    0    0    0  501  0.00000000000E+00  0.00000000000E+00  0.19547677259E+04  0.19547677259E+04  0.50400001928E-02 0.  1.
        1   -1    0    0  501    0  0.00000000000E+00  0.00000000000E+00 -0.19934569455E+04  0.19934569455E+04  0.50400001928E-02 0. -1.
    10030    2    1    2    0    0  0.00000000000E+00  0.00000000000E+00 -0.38689219585E+02  0.39482246715E+04  0.39480351063E+04 0.  0.
        2    1    3    3  502    0 -0.12267539979E+04  0.10714570324E+04  0.10959666480E+04  0.19631832408E+04  0.25500000920E-02 0.  1.
       -2    1    3    3    0  502  0.12267539979E+04 -0.10714570324E+04 -0.11346558676E+04  0.19850414306E+04  0.25500000920E-02 0. -1.
</event>
<event>
 5   0  0.1785559E-07  0.4095163E+04  0.7818609E-02  0.7985620E-01
       -2   -1    0    0    0  501  0.00000000000E+00  0.00000000000E+00  0.16925901575E+04  0.16925901575E+04  0.25500000920E-02 0.  1.
        2   -1    0    0  501    0  0.00000000000E+00  0.00000000000E+00 -0.24770255899E+04  0.24770255899E+04  0.25500000920E-02 0. -1.
    10030    2    1    2    0    0  0.00000000000E+00  0.00000000000E+00 -0.78443543234E+03  0.41696157474E+04  0.40951625772E+04 0.  0.
        2    1    3    3  502    0 -0.92658085190E+03 -0.79130270399E+03 -0.20676981490E+04  0.24000182665E+04  0.25500000920E-02 0. -1.
       -2    1    3    3    0  502  0.92658085190E+03  0.79130270399E+03  0.12832627166E+04  0.17695974809E+04  0.25500000920E-02 0.  1.
</event>
<event>
 5   0  0.1773903E-07  0.3974779E+04  0.7818609E-02  0.8009654E-01
        2   -1    0    0  501    0  0.00000000000E+00  0.00000000000E+00  0.20989630579E+04  0.20989630579E+04  0.25500000920E-02 0.  1.
       -2   -1    0    0    0  501  0.00000000000E+00  0.00000000000E+00 -0.18817464216E+04  0.18817464216E+04  0.25500000920E-02 0. -1.
    10030    2    1    2    0    0  0.00000000000E+00  0.00000000000E+00  0.21721663629E+03  0.39807094795E+04  0.39747785967E+04 0.  0.
        3    1    3    3  502    0  0.91038161587E+03  0.16907563113E+04  0.62149024580E+03  0.20183413305E+04  0.10100000352E+00 0.  1.
       -3    1    3    3    0  502 -0.91038161587E+03 -0.16907563113E+04 -0.40427360951E+03  0.19623681490E+04  0.10100000352E+00 0. -1.
</event>
<event>
 5   0  0.5515000E-08  0.4008273E+04  0.7818609E-02  0.8002880E-01
       -3   -1    0    0    0  501  0.00000000000E+00  0.00000000000E+00  0.14022318005E+04  0.14022318041E+04  0.10100000352E+00 0. -1.
        3   -1    0    0  501    0  0.00000000000E+00  0.00000000000E+00 -0.28644078096E+04  0.28644078114E+04  0.10100000352E+00 0.  1.
    10030    2    1    2    0    0  0.00000000000E+00  0.00000000000E+00 -0.14621760091E+04  0.42666396156E+04  0.40082733100E+04 0.  0.
        2    1    3    3  502    0  0.15338495810E+04  0.24387054568E+03  0.61720557803E+03  0.16712600354E+04  0.25500000920E-02 0. -1.
       -2    1    3    3    0  502 -0.15338495810E+04 -0.24387054568E+03 -0.20793815872E+04  0.25953795802E+04  0.25500000920E-02 0.  1.
</event>
<event>
 5   0  0.5515000E-08  0.3984081E+04  0.7818609E-02  0.8007766E-01
        1   -1    0    0  501    0  0.00000000000E+00  0.00000000000E+00  0.20320266316E+04  0.20320266316E+04  0.50400001928E-02 0.  1.
       -1   -1    0    0    0  501  0.00000000000E+00  0.00000000000E+00 -0.19528411559E+04  0.19528411559E+04  0.50400001928E-02 0. -1.
    10030    2    1    2    0    0  0.00000000000E+00  0.00000000000E+00  0.79185475779E+02  0.39848677875E+04  0.39840809410E+04 0.  0.
        1    1    3    3  502    0  0.46077571041E+03  0.12126316971E+04  0.15516569472E+04  0.20224809443E+04  0.50400001928E-02 0.  1.
       -1    1    3    3    0  502 -0.46077571041E+03 -0.12126316971E+04 -0.14724714715E+04  0.19623868432E+04  0.50400001928E-02 0. -1.
</event>
<event>
 5   0  0.5515000E-08  0.4019536E+04  0.7818609E-02  0.8000617E-01
        1   -1    0    0  501    0  0.00000000000E+00  0.00000000000E+00  0.19079680466E+04  0.19079680466E+04  0.50400001928E-02 0.  1.
       -1   -1    0    0    0  501  0.00000000000E+00  0.00000000000E+00 -0.21169993831E+04  0.21169993831E+04  0.50400001928E-02 0. -1.
    10030    2    1    2    0    0  0.00000000000E+00  0.00000000000E+00 -0.20903133652E+03  0.40249674297E+04  0.40195358824E+04 0.  0.
        5    1    3    3  502    0 -0.83861103112E+03 -0.17447158643E+04  0.43643944971E+03  0.19843899294E+04  0.46999998093E+01 0.  1.
       -5    1    3    3    0  502  0.83861103112E+03  0.17447158643E+04 -0.64547078623E+03  0.20405775003E+04  0.46999998093E+01 0. -1.
</event>
<event>
 5   0  0.1821433E-07  0.4006237E+04  0.7818609E-02  0.8003289E-01
       -2   -1    0    0    0  501  0.00000000000E+00  0.00000000000E+00  0.23801266925E+04  0.23801266925E+04  0.25500000920E-02 0. -1.
        2   -1    0    0  501    0  0.00000000000E+00  0.00000000000E+00 -0.16858281123E+04  0.16858281123E+04  0.25500000920E-02 0.  1.
    10030    2    1    2    0    0  0.00000000000E+00  0.00000000000E+00  0.69429858026E+03  0.40659548048E+04  0.40062373814E+04 0.  0.
        5    1    3    3  502    0  0.13094319066E+04  0.11375089164E+03  0.18812735322E+04  0.22949430007E+04  0.46999998093E+01 0. -1.
       -5    1    3    3    0  502 -0.13094319066E+04 -0.11375089164E+03 -0.11869749520E+04  0.17710118041E+04  0.46999998093E+01 0.  1.
</event>
<event>
 5   0  0.1785559E-07  0.4044551E+04  0.7818609E-02  0.7995619E-01
       -2   -1    0    0    0  501  0.00000000000E+00  0.00000000000E+00  0.23266378848E+04  0.23266378848E+04  0.25500000920E-02 0. -1.
        2   -1    0    0  501    0  0.00000000000E+00  0.00000000000E+00 -0.17577287074E+04  0.17577287074E+04  0.25500000920E-02 0.  1.
    10030    2    1    2    0    0  0.00000000000E+00  0.00000000000E+00  0.56890917734E+03  0.40843665922E+04  0.40445510020E+04 0.  0.
        2    1    3    3  502    0  0.11347117393E+04  0.15077188377E+04  0.10188074546E+04  0.21444709031E+04  0.25500000920E-02 0.  1.
       -2    1    3    3    0  502 -0.11347117393E+04 -0.15077188377E+04 -0.44989827725E+03  0.19398956891E+04  0.25500000920E-02 0. -1.
</event>
<event>
 5   0  0.1785559E-07  0.3481576E+04  0.7818609E-02  0.8118170E-01
        2   -1    0    0  501    0  0.00000000000E+00  0.00000000000E+00  0.17872313183E+04  0.17872313183E+04  0.25500000920E-02 0.  1.
       -2   -1    0    0    0  501  0.00000000000E+00  0.00000000000E+00 -0.16955511736E+04  0.16955511736E+04  0.25500000920E-02 0. -1.
    10030    2    1    2    0    0  0.00000000000E+00  0.00000000000E+00  0.91680144743E+02  0.34827824919E+04  0.34815755969E+04 0.  0.
        2    1    3    3  502    0  0.10481532098E+04 -0.13789268665E+03 -0.13376442713E+04  0.17049726510E+04  0.25500000920E-02 0. -1.
       -2    1    3    3    0  502 -0.10481532098E+04  0.13789268665E+03  0.14293244160E+04  0.17778098409E+04  0.25500000920E-02 0.  1.
</event>
<event>
 5   0  0.1821433E-07  0.3904127E+04  0.7818609E-02  0.8024171E-01
        2   -1    0    0  501    0  0.00000000000E+00  0.00000000000E+00  0.22991041820E+04  0.22991041820E+04  0.25500000920E-02 0. -1.
       -2   -1    0    0    0  501  0.00000000000E+00  0.00000000000E+00 -0.16574076158E+04  0.16574076158E+04  0.25500000920E-02 0.  1.
    10030    2    1    2    0    0  0.00000000000E+00  0.00000000000E+00  0.64169656622E+03  0.39565117978E+04  0.39041274471E+04 0.  0.
        5    1    3    3  502    0  0.13644981167E+04 -0.75151176974E+03  0.15130279716E+04  0.21716124846E+04  0.46999998093E+01 0.  1.
       -5    1    3    3    0  502 -0.13644981167E+04  0.75151176974E+03 -0.87133140536E+03  0.17848993132E+04  0.46999998093E+01 0. -1.
</event>
<event>
 5   0  0.1819906E-07  0.4048246E+04  0.7818609E-02  0.7994884E-01
        2   -1    0    0  501    0  0.00000000000E+00  0.00000000000E+00  0.27582749639E+04  0.27582749639E+04  0.25500000920E-02 0.  1.
       -2   -1    0    0    0  501  0.00000000000E+00  0.00000000000E+00 -0.14853755389E+04  0.14853755389E+04  0.25500000920E-02 0. -1.
    10030    2    1    2    0    0  0.00000000000E+00  0.00000000000E+00  0.12728994250E+04  0.42436505028E+04  0.40482461195E+04 0.  0.
        1    1    3    3  502    0 -0.45379811732E+03  0.16394624586E+04  0.17863506579E+04  0.24667424992E+04  0.50400001928E-02 0.  1.
       -1    1    3    3    0  502  0.45379811732E+03 -0.16394624586E+04 -0.51345123295E+03  0.17769080036E+04  0.50400001928E-02 0. -1.
</event>
<event>
 5   0  0.1785559E-07  0.3940718E+04  0.7818609E-02  0.8016613E-01
       -2   -1    0    0    0  501  0.00000000000E+00  0.00000000000E+00  0.22654697714E+04  0.22654697714E+04  0.25500000920E-02 0.  1.
        2   -1    0    0  501    0  0.00000000000E+00  0.00000000000E+00 -0.17136909291E+04  0.17136909291E+04  0.25500000920E-02 0. -1.
    10030    2    1    2    0    0  0.00000000000E+00  0.00000000000E+00  0.55177884230E+03  0.39791607004E+04  0.39407182072E+04 0.  0.
        2    1    3    3  502    0  0.14799528285E+04  0.11240071869E+04  0.93699957499E+03  0.20812546059E+04  0.25500000920E-02 0.  1.
       -2    1    3    3    0  502 -0.14799528285E+04 -0.11240071869E+04 -0.38522073269E+03  0.18979060946E+04  0.25500000920E-02 0. -1.
</event>
<event>
 5   0  0.1819906E-07  0.4008160E+04  0.7818609E-02  0.8002902E-01
       -2   -1    0    0    0  501  0.00000000000E+00  0.00000000000E+00  0.13474561977E+04  0.13474561977E+04  0.25500000920E-02 0.  1.
        2   -1    0    0  501    0  0.00000000000E+00  0.00000000000E+00 -0.29806806469E+04  0.29806806469E+04  0.25500000920E-02 0. -1.
    10030    2    1    2    0    0  0.00000000000E+00  0.00000000000E+00 -0.16332244492E+04  0.43281368446E+04  0.40081599823E+04 0.  0.
        1    1    3    3  502    0  0.18742164387E+03 -0.89908618696E+03  0.11068380534E+04  0.14382535662E+04  0.50400001928E-02 0.  1.
       -1    1    3    3    0  502 -0.18742164387E+03  0.89908618696E+03 -0.27400625026E+04  0.28898832783E+04  0.50400001928E-02 0. -1.
</event>
<event>
 5   0  0.5515000E-08  0.4559891E+04  0.7818609E-02  0.7900235E-01
       -1   -1    0    0    0  501  0.00000000000E+00  0.00000000000E+00  0.15250816657E+04  0.15250816657E+04  0.50400001928E-02 0.  1.
        1   -1    0    0  501    0  0.00000000000E+00  0.00000000000E+00 -0.34084410600E+04  0.34084410600E+04  0.50400001928E-02 0. -1.
    10030    2    1    2    0    0  0.00000000000E+00  0.00000000000E+00 -0.18833593943E+04  0.49335227257E+04  0.45598907747E+04 0.  0.
        4    1    3    3  502    0  0.77024624415E+03 -0.10762533423E+04  0.10669270196E+04  0.16999810033E+04  0.12699999809E+01 0.  1.
       -4    1    3    3    0  502 -0.77024624415E+03  0.10762533423E+04 -0.29502864139E+04  0.32335417224E+04  0.12699999809E+01 0. -1.
</event>
<event>
 5   0  0.5515000E-08  0.4008679E+04  0.7818609E-02  0.8002798E-01
        1   -1    0    0  501    0  0.00000000000E+00  0.00000000000E+00  0.26593077341E+04  0.26593077341E+04  0.50400001928E-02 0.  1.
       -1   -1    0    0    0  501  0.00000000000E+00  0.00000000000E+00 -0.15106852171E+04  0.15106852171E+04  0.50400001928E-02 0. -1.
    10030    2    1    2    0    0  0.00000000000E+00  0.00000000000E+00  0.11486225170E+04  0.41699929513E+04  0.40086790252E+04 0.  0.
        1    1    3    3  502    0  0.11260951843E+04  0.37835213471E+03 -0.11050053758E+04  0.16224295308E+04  0.50400001928E-02 0. -1.
       -1    1    3    3    0  502 -0.11260951843E+04 -0.37835213471E+03  0.22536278928E+04  0.25475634204E+04  0.50400001928E-02 0.  1.
</event>
<event>
 5   0  0.5515000E-08  0.3964628E+04  0.7818609E-02  0.8011720E-01
        1   -1    0    0  501    0  0.00000000000E+00  0.00000000000E+00  0.15647994021E+04  0.15647994021E+04  0.50400001928E-02 0.  1.
       -1   -1    0    0    0  501  0.00000000000E+00  0.00000000000E+00 -0.25112285197E+04  0.25112285197E+04  0.50400001928E-02 0. -1.
    10030    2    1    2    0    0  0.00000000000E+00  0.00000000000E+00 -0.94642911757E+03  0.40760279218E+04  0.39646280462E+04 0.  0.
        1    1    3    3  502    0 -0.37664476216E+03  0.92189527890E+03 -0.22353814997E+04  0.24471785042E+04  0.50400001928E-02 0. -1.
       -1    1    3    3    0  502  0.37664476216E+03 -0.92189527890E+03  0.12889523821E+04  0.16288494177E+04  0.50400001928E-02 0.  1.
</event>
<event>
 5   0  0.1776653E-07  0.4018763E+04  0.7818609E-02  0.8000772E-01
       -2   -1    0    0    0  501  0.00000000000E+00  0.00000000000E+00  0.18960119956E+04  0.18960119956E+04  0.25500000920E-02 0.  1.
        2   -1    0    0  501    0  0.00000000000E+00  0.00000000000E+00 -0.21295299164E+04  0.21295299164E+04  0.25500000920E-02 0. -1.
    10030    2    1    2    0    0  0.00000000000E+00  0.00000000000E+00 -0.23351792075E+03  0.40255419120E+04  0.40187631264E+04 0.  0.
        4    1    3    3  502    0 -0.13254262681E+04  0.61786232653E+03  0.12636453888E+04  0.19326949910E+04  0.12699999809E+01 0.  1.
       -4    1    3    3    0  502  0.13254262681E+04 -0.61786232653E+03 -0.14971633095E+04  0.20928469211E+04  0.12699999809E+01 0. -1.
</event>
<event>
 5   0  0.5515000E-08  0.4001925E+04  0.7818609E-02  0.8004158E-01
        3   -1    0    0  501    0  0.00000000000E+00  0.00000000000E+00  0.18184646576E+04  0.18184646604E+04  0.10100000352E+00 0. -1.
       -3   -1    0    0    0  501  0.00000000000E+00  0.00000000000E+00 -0.22017756616E+04  0.22017756639E+04  0.10100000352E+00 0.  1.
    10030    2    1    2    0    0  0.00000000000E+00  0.00000000000E+00 -0.38331100402E+03  0.40202403243E+04  0.40019251541E+04 0.  0.
        1    1    3    3  502    0 -0.93481025253E+03 -0.44517544057E+03  0.15284307027E+04  0.18461180337E+04  0.50400001928E-02 0. -1.
       -1    1    3    3    0  502  0.93481025253E+03  0.44517544057E+03 -0.19117417068E+04  0.21741222906E+04  0.50400001928E-02 0.  1.
</event>
<event>
 5   0  0.5515000E-08  0.4003873E+04  0.7818609E-02  0.8003766E-01
       -1   -1    0    0    0  501  0.00000000000E+00  0.00000000000E+00  0.14637542320E+04  0.14637542320E+04  0.50400001928E-02 0.  1.
        1   -1    0    0  501    0  0.00000000000E+00  0.00000000000E+00 -0.27379937776E+04  0.27379937776E+04  0.50400001928E-02 0. -1.
    10030    2    1    2    0    0  0.00000000000E+00  0.00000000000E+00 -0.12742395457E+04  0.42017480096E+04  0.40038731144E+04 0.  0.
        2    1    3    3  502    0 -0.14319585062E+04  0.12244771919E+04  0.73005908604E+02  0.18855183424E+04  0.25500000920E-02 0.  1.
       -2    1    3    3    0  502  0.14319585062E+04 -0.12244771919E+04 -0.13472454543E+04  0.23162296672E+04  0.25500000920E-02 0. -1.
</event>
<event>
 5   0  0.5515000E-08  0.4002917E+04  0.7818609E-02  0.8003958E-01
        1   -1    0    0  501    0  0.00000000000E+00  0.00000000000E+00  0.21484604863E+04  0.21484604864E+04  0.50400001928E-02 0.  1.
       -1   -1    0    0    0  501  0.00000000000E+00  0.00000000000E+00 -0.18645145847E+04  0.18645145847E+04  0.50400001928E-02 0. -1.
    10030    2    1    2    0    0  0.00000000000E+00  0.00000000000E+00  0.28394590169E+03  0.40129750710E+04  0.40029168922E+04 0.  0.
        1    1    3    3  502    0  0.19137491825E+04 -0.53136051984E+03  0.38968890385E+03  0.20240151624E+04  0.50400001928E-02 0. -1.
       -1    1    3    3    0  502 -0.19137491825E+04  0.53136051984E+03 -0.10574300216E+03  0.19889599086E+04  0.50400001928E-02 0.  1.
</event>
<event>
 5   0  0.5515000E-08  0.3996702E+04  0.7818609E-02  0.8005212E-01
       -1   -1    0    0    0  501  0.00000000000E+00  0.00000000000E+00  0.15286132320E+04  0.15286132320E+04  0.50400001928E-02 0.  1.
        1   -1    0    0  501    0  0.00000000000E+00  0.00000000000E+00 -0.26124371303E+04  0.26124371303E+04  0.50400001928E-02 0. -1.
    10030    2    1    2    0    0  0.00000000000E+00  0.00000000000E+00 -0.10838238983E+04  0.41410503623E+04  0.39967016227E+04 0.  0.
        1    1    3    3  502    0 -0.11866703403E+04  0.15935028276E+04 -0.31976642450E+03  0.20123837418E+04  0.50400001928E-02 0. -1.
       -1    1    3    3    0  502  0.11866703403E+04 -0.15935028276E+04 -0.76405747382E+03  0.21286666205E+04  0.50400001928E-02 0.  1.
</event>
<event>
 5   0  0.1773903E-07  0.3966705E+04  0.7818609E-02  0.8011297E-01
        2   -1    0    0  501    0  0.00000000000E+00  0.00000000000E+00  0.28970307055E+04  0.28970307055E+04  0.25500000920E-02 0. -1.
       -2   -1    0    0    0  501  0.00000000000E+00  0.00000000000E+00 -0.13578343601E+04  0.13578343601E+04  0.25500000920E-02 0.  1.
    10030    2    1    2    0    0  0.00000000000E+00  0.00000000000E+00  0.15391963454E+04  0.42548650656E+04  0.39667053504E+04 0.  0.
        3    1    3    3  502    0  0.62696697065E+03  0.42698212258E+03 -0.11960904422E+04  0.14163451809E+04  0.10100000352E+00 0.  1.
       -3    1    3    3    0  502 -0.62696697065E+03 -0.42698212258E+03  0.27352867876E+04  0.28385198847E+04  0.10100000352E+00 0. -1.
</event>
<event>
 5   0  0.5515000E-08  0.4008159E+04  0.7818609E-02  0.8002903E-01
       -1   -1    0    0    0  501  0.00000000000E+00  0.00000000000E+00  0.23709847958E+04  0.23709847958E+04  0.50400001928E-02 0.  1.
        1   -1    0    0  501    0  0.00000000000E+00  0.00000000000E+00 -0.16939524496E+04  0.16939524496E+04  0.50400001928E-02 0. -1.
    10030    2    1    2    0    0  0.00000000000E+00  0.00000000000E+00  0.67703234620E+03  0.40649372454E+04  0.40081594294E+04 0.  0.
        2    1    3    3  502    0  0.47430913362E+03  0.16752475849E+04  0.13450017252E+04  0.22001030125E+04  0.25500000920E-02 0.  1.
       -2    1    3    3    0  502 -0.47430913362E+03 -0.16752475849E+04 -0.66796937896E+03  0.18648342329E+04  0.25500000920E-02 0. -1.
</event>
<event>
 5   0  0.1773903E-07  0.4030399E+04  0.7818609E-02  0.7998442E-01
       -2   -1    0    0    0  501  0.00000000000E+00  0.00000000000E+00  0.18874165222E+04  0.18874165222E+04  0.25500000920E-02 0. -1.
        2   -1    0    0  501    0  0.00000000000E+00  0.00000000000E+00 -0.21516334565E+04  0.21516334565E+04  0.25500000920E-02 0.  1.
    10030    2    1    2    0    0  0.00000000000E+00  0.00000000000E+00 -0.26421693430E+03  0.40390499787E+04  0.40303987572E+04 0.  0.
        3    1    3    3  502    0  0.16553134252E+04 -0.96188194707E+03 -0.76254472739E+03  0.20607653644E+04  0.10100000352E+00 0.  1.
       -3    1    3    3    0  502 -0.16553134252E+04  0.96188194707E+03  0.49832779309E+03  0.19782846143E+04  0.10100000352E+00 0. -1.
</event>
<event>
 5   0  0.1773903E-07  0.3973530E+04  0.7818609E-02  0.8009908E-01
        2   -1    0    0  501    0  0.00000000000E+00  0.00000000000E+00  0.14520440634E+04  0.14520440634E+04  0.25500000920E-02 0.  1.
       -2   -1    0    0    0  501  0.00000000000E+00  0.00000000000E+00 -0.27183996601E+04  0.27183996601E+04  0.25500000920E-02 0. -1.
    10030    2    1    2    0    0  0.00000000000E+00  0.00000000000E+00 -0.12663555968E+04  0.41704437235E+04  0.39735304646E+04 0.  0.
        3    1    3    3  502    0 -0.51336098920E+03 -0.17881581238E+04  0.98647523778E+02  0.18630030395E+04  0.10100000352E+00 0.  1.
       -3    1    3    3    0  502  0.51336098920E+03  0.17881581238E+04 -0.13650031206E+04  0.23074406840E+04  0.10100000352E+00 0. -1.
</event>
<event>
 5   0  0.5515000E-08  0.3942508E+04  0.7818609E-02  0.8016246E-01
       -1   -1    0    0    0  501  0.00000000000E+00  0.00000000000E+00  0.11794696367E+04  0.11794696367E+04  0.50400001928E-02 0.  1.
        1   -1    0    0  501    0  0.00000000000E+00  0.00000000000E+00 -0.32945669061E+04  0.32945669061E+04  0.50400001928E-02 0. -1.
    10030    2    1    2    0    0  0.00000000000E+00  0.00000000000E+00 -0.21150972694E+04  0.44740365428E+04  0.39425076445E+04 0.  0.
        3    1    3    3  502    0  0.91212955439E+03 -0.61189467152E+03 -0.29151370941E+04  0.31151917598E+04  0.10100000352E+00 0. -1.
       -3    1    3    3    0  502 -0.91212955439E+03  0.61189467152E+03  0.80003982462E+03  0.13588447830E+04  0.10100000352E+00 0.  1.
</event>
<event>
 5   0  0.5515000E-08  0.3785197E+04  0.7818609E-02  0.8049339E-01
        1   -1    0    0  501    0  0.00000000000E+00  0.00000000000E+00  0.19105409478E+04  0.19105409478E+04  0.50400001928E-02 0. -1.
       -1   -1    0    0    0  501  0.00000000000E+00  0.00000000000E+00 -0.18748246388E+04  0.18748246389E+04  0.50400001928E-02 0.  1.
    10030    2    1    2    0    0  0.00000000000E+00  0.00000000000E+00  0.35716308947E+02  0.37853655867E+04  0.37851970847E+04 0.  0.
        5    1    3    3  502    0  0.12900428584E+03  0.18356679235E+04  0.46013152612E+03  0.18968558044E+04  0.46999998093E+01 0. -1.
       -5    1    3    3    0  502 -0.12900428584E+03 -0.18356679235E+04 -0.42441521717E+03  0.18885097823E+04  0.46999998093E+01 0.  1.
</event>
<event>
 5   0  0.1821433E-07  0.3944103E+04  0.7818609E-02  0.8015919E-01
       -2   -1    0    0    0  501  0.00000000000E+00  0.00000000000E+00  0.16388771359E+04  0.16388771359E+04  0.25500000920E-02 0.  1.
        2   -1    0    0  501    0  0.00000000000E+00  0.00000000000E+00 -0.23729587175E+04  0.23729587175E+04  0.25500000920E-02 0. -1.
    10030    2    1    2    0    0  0.00000000000E+00  0.00000000000E+00 -0.73408158157E+03  0.40118358535E+04  0.39441033387E+04 0.  0.
        5    1    3    3  502    0  0.76552497046E+03  0.17410067766E+04  0.16328855016E+03  0.19088788116E+04  0.46999998093E+01 0.  1.
       -5    1    3    3    0  502 -0.76552497046E+03 -0.17410067766E+04 -0.89737013173E+03  0.21029570419E+04  0.46999998093E+01 0. -1.
</event>
<event>
 5   0  0.5515000E-08  0.3402809E+04  0.7818609E-02  0.8137217E-01
       -1   -1    0    0    0  501  0.00000000000E+00  0.00000000000E+00  0.12207884443E+04  0.12207884443E+04  0.50400001928E-02 0. -1.
        1   -1    0    0  501    0  0.00000000000E+00  0.00000000000E+00 -0.23712362465E+04  0.23712362465E+04  0.50400001928E-02 0.  1.
    10030    2    1    2    0    0  0.00000000000E+00  0.00000000000E+00 -0.11504478023E+04  0.35920246908E+04  0.34028093149E+04 0.  0.
        3    1    3    3  502    0 -0.15306706797E+04 -0.56766706725E+03 -0.69436577848E+02  0.16340196074E+04  0.10100000352E+00 0. -1.
       -3    1    3    3    0  502  0.15306706797E+04  0.56766706725E+03 -0.10810112244E+04  0.19580050833E+04  0.10100000352E+00 0.  1.
</event>
<event>
 5   0  0.5515000E-08  0.4003839E+04  0.7818609E-02  0.8003773E-01
       -1   -1    0    0    0  501  0.00000000000E+00  0.00000000000E+00  0.25313337458E+04  0.25313337458E+04  0.50400001928E-02 0.  1.
        1   -1    0    0  501    0  0.00000000000E+00  0.00000000000E+00 -0.15832288838E+04  0.15832288838E+04  0.50400001928E-02 0. -1.
    10030    2    1    2    0    0  0.00000000000E+00  0.00000000000E+00  0.94810486198E+03  0.41145626296E+04  0.40038385087E+04 0.  0.
        2    1    3    3  502    0  0.38844811264E+02 -0.19914372439E+04  0.68047925144E+03  0.21048475544E+04  0.25500000920E-02 0. -1.
       -2    1    3    3    0  502 -0.38844811264E+02  0.19914372439E+04  0.26762561055E+03  0.20097150751E+04  0.25500000920E-02 0.  1.
</event>
<event>
 5   0  0.1785559E-07  0.4062566E+04  0.7818609E-02  0.7992043E-01
        2   -1    0    0  501    0  0.00000000000E+00  0.00000000000E+00  0.23744438630E+04  0.23744438630E+04  0.25500000920E-02 0. -1.
       -2   -1    0    0    0  501  0.00000000000E+00  0.00000000000E+00 -0.17377162677E+04  0.17377162677E+04  0.25500000920E-02 0.  1.
    10030    2    1    2    0    0  0.00000000000E+00  0.00000000000E+00  0.63672759533E+03  0.41121601307E+04  0.40625655576E+04 0.  0.
        2    1    3    3  502    0 -0.75950867569E+03 -0.85411261935E+03  0.20180736010E+04  0.23192634292E+04  0.25500000920E-02 0. -1.
       -2    1    3    3    0  502  0.75950867569E+03  0.85411261935E+03 -0.13813460056E+04  0.17928967015E+04  0.25500000920E-02 0.  1.
</event>
<event>
 5   0  0.1785559E-07  0.3791874E+04  0.7818609E-02  0.8047901E-01
        2   -1    0    0  501    0  0.00000000000E+00  0.00000000000E+00  0.13761912187E+04  0.13761912187E+04  0.25500000920E-02 0.  1.
       -2   -1    0    0    0  501  0.00000000000E+00  0.00000000000E+00 -0.26119744052E+04  0.26119744052E+04  0.25500000920E-02 0. -1.
    10030    2    1    2    0    0  0.00000000000E+00  0.00000000000E+00 -0.12357831865E+04  0.39881656239E+04  0.37918735421E+04 0.  0.
        2    1    3    3  502    0 -0.11633151725E+03  0.19032424762E+03 -0.25981252056E+04  0.26076830568E+04  0.25500000920E-02 0. -1.
       -2    1    3    3    0  502  0.11633151725E+03 -0.19032424762E+03  0.13623420190E+04  0.13804825670E+04  0.25500000920E-02 0.  1.
</event>
<event>
 5   0  0.1776653E-07  0.3990518E+04  0.7818609E-02  0.8006462E-01
        2   -1    0    0  501    0  0.00000000000E+00  0.00000000000E+00  0.14692041168E+04  0.14692041168E+04  0.25500000920E-02 0.  1.
       -2   -1    0    0    0  501  0.00000000000E+00  0.00000000000E+00 -0.27096695335E+04  0.27096695335E+04  0.25500000920E-02 0. -1.
    10030    2    1    2    0    0  0.00000000000E+00  0.00000000000E+00 -0.12404654166E+04  0.41788736503E+04  0.39905175774E+04 0.  0.
        4    1    3    3  502    0  0.85814932991E+03  0.15634527643E+04 -0.15570247224E+04  0.23675160861E+04  0.12699999809E+01 0. -1.
       -4    1    3    3    0  502 -0.85814932991E+03 -0.15634527643E+04  0.31655930577E+03  0.18113575643E+04  0.12699999809E+01 0.  1.
</event>
<event>
 5   0  0.1819906E-07  0.3967881E+04  0.7818609E-02  0.8011058E-01
        2   -1    0    0  501    0  0.00000000000E+00  0.00000000000E+00  0.25493713041E+04  0.25493713041E+04  0.25500000920E-02 0.  1.
       -2   -1    0    0    0  501  0.00000000000E+00  0.00000000000E+00 -0.15439177140E+04  0.15439177140E+04  0.25500000920E-02 0. -1.
    10030    2    1    2    0    0  0.00000000000E+00  0.00000000000E+00  0.10054535901E+04  0.40932890181E+04  0.39678808026E+04 0.  0.
        1    1    3    3  502    0  0.17098088198E+04 -0.96893150883E+03  0.78287008275E+03  0.21154574057E+04  0.50400001928E-02 0.  1.
       -1    1    3    3    0  502 -0.17098088198E+04  0.96893150883E+03  0.22258350732E+03  0.19778316123E+04  0.50400001928E-02 0. -1.
</event>
<event>
 5   0  0.5515000E-08  0.3377929E+04  0.7818609E-02  0.8143345E-01
        1   -1    0    0  501    0  0.00000000000E+00  0.00000000000E+00  0.16262928114E+04  0.16262928114E+04  0.50400001928E-02 0.  1.
       -1   -1    0    0    0  501  0.00000000000E+00  0.00000000000E+00 -0.17540513239E+04  0.17540513239E+04  0.50400001928E-02 0. -1.
    10030    2    1    2    0    0  0.00000000000E+00  0.00000000000E+00 -0.12775851256E+03  0.33803441353E+04  0.33779289862E+04 0.  0.
        2    1    3    3  502    0  0.12306131830E+04 -0.60335078431E+03  0.92382190813E+03  0.16528423679E+04  0.25500000920E-02 0. -1.
       -2    1    3    3    0  502 -0.12306131830E+04  0.60335078431E+03 -0.10515804207E+04  0.17275017674E+04  0.25500000920E-02 0.  1.
</event>
<event>
 5   0  0.1776653E-07  0.4010024E+04  0.7818609E-02  0.8002528E-01
       -2   -1    0    0    0  501  0.00000000000E+00  0.00000000000E+00  0.12962738054E+04  0.12962738054E+04  0.25500000920E-02 0.  1.
        2   -1    0    0  501    0  0.00000000000E+00  0.00000000000E+00 -0.31012524743E+04  0.31012524743E+04  0.25500000920E-02 0. -1.
    10030    2    1    2    0    0  0.00000000000E+00  0.00000000000E+00 -0.18049786689E+04  0.43975262797E+04  0.40100236141E+04 0.  0.
        4    1    3    3  502    0  0.18914291572E+04  0.56572330136E+03 -0.51863059858E+03  0.20412070990E+04  0.12699999809E+01 0.  1.
       -4    1    3    3    0  502 -0.18914291572E+04 -0.56572330136E+03 -0.12863480704E+04  0.23563191807E+04  0.12699999809E+01 0. -1.
</event>
<event>
 5   0  0.1773903E-07  0.3999463E+04  0.7818609E-02  0.8004655E-01
       -2   -1    0    0    0  501  0.00000000000E+00  0.00000000000E+00  0.15615767550E+04  0.15615767550E+04  0.25500000920E-02 0.  1.
        2   -1    0    0  501    0  0.00000000000E+00  0.00000000000E+00 -0.25608259026E+04  0.25608259026E+04  0.25500000920E-02 0. -1.
    10030    2    1    2    0    0  0.00000000000E+00  0.00000000000E+00 -0.99924914759E+03  0.41224026577E+04  0.39994630656E+04 0.  0.
        3    1    3    3  502    0 -0.38662860797E+03 -0.92955758296E+03  0.12813084960E+04  0.16295123359E+04  0.10100000352E+00 0.  1.
       -3    1    3    3    0  502  0.38662860797E+03  0.92955758296E+03 -0.22805576436E+04  0.24928903218E+04  0.10100000352E+00 0. -1.
</event>
<event>
 5   0  0.5515000E-08  0.3968018E+04  0.7818609E-02  0.8011030E-01
        1   -1    0    0  501    0  0.00000000000E+00  0.00000000000E+00  0.26515528118E+04  0.26515528118E+04  0.50400001928E-02 0.  1.
       -1   -1    0    0    0  501  0.00000000000E+00  0.00000000000E+00 -0.14845232559E+04  0.14845232559E+04  0.50400001928E-02 0. -1.
    10030    2    1    2    0    0  0.00000000000E+00  0.00000000000E+00  0.11670295559E+04  0.41360760677E+04  0.39680180511E+04 0.  0.
        3    1    3    3  502    0 -0.98944005235E+03  0.17073337394E+03  0.23671726743E+04  0.25713125019E+04  0.10100000352E+00 0.  1.
       -3    1    3    3    0  502  0.98944005235E+03 -0.17073337394E+03 -0.12001431184E+04  0.15647635658E+04  0.10100000352E+00 0. -1.
</event>
<event>
 5   0  0.1821433E-07  0.4015112E+04  0.7818609E-02  0.8001505E-01
        2   -1    0    0  501    0  0.00000000000E+00  0.00000000000E+00  0.23255283758E+04  0.23255283758E+04  0.25500000920E-02 0.  1.
       -2   -1    0    0    0  501  0.00000000000E+00  0.00000000000E+00 -0.17330605500E+04  0.17330605500E+04  0.25500000920E-02 0. -1.
    10030    2    1    2    0    0  0.00000000000E+00  0.00000000000E+00  0.59246782586E+03  0.40585889258E+04  0.40151121957E+04 0.  0.
        5    1    3    3  502    0  0.14364277040E+04  0.14022082988E+04  0.32385624034E+03  0.20333267363E+04  0.46999998093E+01 0. -1.
       -5    1    3    3    0  502 -0.14364277040E+04 -0.14022082988E+04  0.26861158552E+03  0.20252621895E+04  0.46999998093E+01 0.  1.
</event>
<event>
 5   0  0.5515000E-08  0.3993549E+04  0.7818609E-02  0.8005849E-01
        1   -1    0    0  501    0  0.00000000000E+00  0.00000000000E+00  0.13887486106E+04  0.13887486106E+04  0.50400001928E-02 0. -1.
       -1   -1    0    0    0  501  0.00000000000E+00  0.00000000000E+00 -0.28710073321E+04  0.28710073321E+04  0.50400001928E-02 0.  1.
    10030    2    1    2    0    0  0.00000000000E+00  0.00000000000E+00 -0.14822587214E+04  0.42597559427E+04  0.39935485191E+04 0.  0.
        4    1    3    3  502    0  0.72453109721E+03  0.16945353050E+04 -0.15609392288E+04  0.24151455649E+04  0.12699999809E+01 0. -1.
       -4    1    3    3    0  502 -0.72453109721E+03 -0.16945353050E+04  0.78680507402E+02  0.18446103778E+04  0.12699999809E+01 0.  1.
</event>
<event>
 5   0  0.1819906E-07  0.4044314E+04  0.7818609E-02  0.7995666E-01
       -2   -1    0    0    0  501  0.00000000000E+00  0.00000000000E+00  0.18112186307E+04  0.18112186307E+04  0.25500000920E-02 0. -1.
        2   -1    0    0  501    0  0.00000000000E+00  0.00000000000E+00 -0.22576618283E+04  0.22576618283E+04  0.25500000920E-02 0.  1.
    10030    2    1    2    0    0  0.00000000000E+00  0.00000000000E+00 -0.44644319757E+03  0.40688804590E+04  0.40443141150E+04 0.  0.
        1    1    3    3  502    0  0.10177715699E+04 -0.17437444118E+04 -0.33622314989E+03  0.20468389161E+04  0.50400001928E-02 0. -1.
       -1    1    3    3    0  502 -0.10177715699E+04  0.17437444118E+04 -0.11022004768E+03  0.20220415428E+04  0.50400001928E-02 0.  1.
</event>
<event>
 5   0  0.1785559E-07  0.3344940E+04  0.7818609E-02  0.8151554E-01
        2   -1    0    0  501    0  0.00000000000E+00  0.00000000000E+00  0.10253881446E+04  0.10253881446E+04  0.25500000920E-02 0.  1.
       -2   -1    0    0    0  501  0.00000000000E+00  0.00000000000E+00 -0.27279001171E+04  0.27279001171E+04  0.25500000920E-02 0. -1.
    10030    2    1    2    0    0  0.00000000000E+00  0.00000000000E+00 -0.17025119725E+04  0.37532882617E+04  0.33449403221E+04 0.  0.
        2    1    3    3  502    0 -0.77389734460E+03  0.12628592838E+04  0.20380643889E+02  0.14812650139E+04  0.25500000920E-02 0. -1.
       -2    1    3    3    0  502  0.77389734460E+03 -0.12628592838E+04 -0.17228926164E+04  0.22720232478E+04  0.25500000920E-02 0.  1.
</event>
<event>
 5   0  0.5515000E-08  0.3963083E+04  0.7818609E-02  0.8012036E-01
        3   -1    0    0  501    0  0.00000000000E+00  0.00000000000E+00  0.21694081301E+04  0.21694081324E+04  0.10100000352E+00 0.  1.
       -3   -1    0    0    0  501  0.00000000000E+00  0.00000000000E+00 -0.18099437973E+04  0.18099438001E+04  0.10100000352E+00 0. -1.
    10030    2    1    2    0    0  0.00000000000E+00  0.00000000000E+00  0.35946433281E+03  0.39793519325E+04  0.39630830418E+04 0.  0.
        5    1    3    3  502    0  0.80417649741E+03  0.10015371293E+04 -0.13353384227E+04  0.18528160333E+04  0.46999998093E+01 0. -1.
       -5    1    3    3    0  502 -0.80417649741E+03 -0.10015371293E+04  0.16948027555E+04  0.21265358991E+04  0.46999998093E+01 0.  1.
</event>
<event>
 5   0  0.1776653E-07  0.3575500E+04  0.7818609E-02  0.8096127E-01
       -2   -1    0    0    0  501  0.00000000000E+00  0.00000000000E+00  0.15923077762E+04  0.15923077762E+04  0.25500000920E-02 0.  1.
        2   -1    0    0  501    0  0.00000000000E+00  0.00000000000E+00 -0.20071813200E+04  0.20071813200E+04  0.25500000920E-02 0. -1.
    10030    2    1    2    0    0  0.00000000000E+00  0.00000000000E+00 -0.41487354376E+03  0.35994890962E+04  0.35755002022E+04 0.  0.
        4    1    3    3  502    0 -0.17796041815E+03 -0.14901056413E+04 -0.11855334623E+04  0.19124790027E+04  0.12699999809E+01 0. -1.
       -4    1    3    3    0  502  0.17796041815E+03  0.14901056413E+04  0.77065991856E+03  0.16870100935E+04  0.12699999809E+01 0.  1.
</event>
<event>
 5   0  0.1821433E-07  0.3972962E+04  0.7818609E-02  0.8010023E-01
       -2   -1    0    0    0  501  0.00000000000E+00  0.00000000000E+00  0.19206163525E+04  0.19206163525E+04  0.25500000920E-02 0. -1.
        2   -1    0    0  501    0  0.00000000000E+00  0.00000000000E+00 -0.20546048010E+04  0.20546048010E+04  0.25500000920E-02 0.  1.
    10030    2    1    2    0    0  0.00000000000E+00  0.00000000000E+00 -0.13398844855E+03  0.39752211535E+04  0.39729624105E+04 0.  0.
        5    1    3    3  502    0 -0.11518843914E+04  0.14725233084E+04 -0.73888395842E+03  0.20102572320E+04  0.46999998093E+01 0.  1.
       -5    1    3    3    0  502  0.11518843914E+04 -0.14725233084E+04  0.60489550987E+03  0.19649639215E+04  0.46999998093E+01 0. -1.
</event>
<event>
 5   0  0.5515000E-08  0.4001259E+04  0.7818609E-02  0.8004293E-01
       -1   -1    0    0    0  501  0.00000000000E+00  0.00000000000E+00  0.21739405635E+04  0.21739405635E+04  0.50400001928E-02 0. -1.
        1   -1    0    0  501    0  0.00000000000E+00  0.00000000000E+00 -0.18411351535E+04  0.18411351535E+04  0.50400001928E-02 0.  1.
    10030    2    1    2    0    0  0.00000000000E+00  0.00000000000E+00  0.33280540993E+03  0.40150757170E+04  0.40012589984E+04 0.  0.
        4    1    3    3  502    0  0.54778181618E+03  0.26885777849E+03  0.20782816896E+04  0.21660114999E+04  0.12699999809E+01 0. -1.
       -4    1    3    3    0  502 -0.54778181618E+03 -0.26885777849E+03 -0.17454762797E+04  0.18490642171E+04  0.12699999809E+01 0.  1.
</event>
<event>
 5   0  0.1773903E-07  0.4027923E+04  0.7818609E-02  0.7998937E-01
       -2   -1    0    0    0  501  0.00000000000E+00  0.00000000000E+00  0.34116136220E+04  0.34116136220E+04  0.25500000920E-02 0.  1.
        2   -1    0    0  501    0  0.00000000000E+00  0.00000000000E+00 -0.11888924365E+04  0.11888924365E+04  0.25500000920E-02 0. -1.
    10030    2    1    2    0    0  0.00000000000E+00  0.00000000000E+00  0.22227211855E+04  0.46005060585E+04  0.40279233515E+04 0.  0.
        3    1    3    3  502    0 -0.22045882030E+03  0.15097650730E+04 -0.39006021403E+03  0.15748459124E+04  0.10100000352E+00 0. -1.
       -3    1    3    3    0  502  0.22045882030E+03 -0.15097650730E+04  0.26127813996E+04  0.30256601460E+04  0.10100000352E+00 0.  1.
</event>
<event>
 5   0  0.5515000E-08  0.4002688E+04  0.7818609E-02  0.8004005E-01
       -1   -1    0    0    0  501  0.00000000000E+00  0.00000000000E+00  0.18150233913E+04  0.18150233913E+04  0.50400001928E-02 0.  1.
        1   -1    0    0  501    0  0.00000000000E+00  0.00000000000E+00 -0.22067909550E+04  0.22067909550E+04  0.50400001928E-02 0. -1.
    10030    2    1    2    0    0  0.00000000000E+00  0.00000000000E+00 -0.39176756368E+03  0.40218143462E+04  0.40026876985E+04 0.  0.
        3    1    3    3  502    0 -0.14298639907E+04 -0.11956621805E+04  0.53647366060E+03  0.19395677561E+04  0.10100000352E+00 0.  1.
       -3    1    3    3    0  502  0.14298639907E+04  0.11956621805E+04 -0.92824122428E+03  0.20822465902E+04  0.10100000352E+00 0. -1.
</event>
<event>
 5   0  0.5515000E-08  0.3977500E+04  0.7818609E-02  0.8009101E-01
        1   -1    0    0  501    0  0.00000000000E+00  0.00000000000E+00  0.18853986537E+04  0.18853986537E+04  0.50400001928E-02 0.  1.
       -1   -1    0    0    0  501  0.00000000000E+00  0.00000000000E+00 -0.20977663194E+04  0.20977663194E+04  0.50400001928E-02 0. -1.
    10030    2    1    2    0    0  0.00000000000E+00  0.00000000000E+00 -0.21236766573E+03  0.39831649731E+04  0.39774996138E+04 0.  0.
        5    1    3    3  502    0 -0.11621991786E+04 -0.97997118637E+03  0.11778488785E+04  0.19231225981E+04  0.46999998093E+01 0.  1.
       -5    1    3    3    0  502  0.11621991786E+04  0.97997118637E+03 -0.13902165443E+04  0.20600423750E+04  0.46999998093E+01 0. -1.
</event>
<event>
 5   0  0.5515000E-08  0.3979163E+04  0.7818609E-02  0.8008763E-01
       -1   -1    0    0    0  501  0.00000000000E+00  0.00000000000E+00  0.23169217690E+04  0.23169217690E+04  0.50400001928E-02 0.  1.
        1   -1    0    0  501    0  0.00000000000E+00  0.00000000000E+00 -0.17084886868E+04  0.17084886868E+04  0.50400001928E-02 0. -1.
    10030    2    1    2    0    0  0.00000000000E+00  0.00000000000E+00  0.60843308223E+03  0.40254104558E+04  0.39791630429E+04 0.  0.
        1    1    3    3  502    0  0.96210480965E+03 -0.17409862476E+04  0.34660643282E+03  0.20191123789E+04  0.50400001928E-02 0. -1.
       -1    1    3    3    0  502 -0.96210480965E+03  0.17409862476E+04  0.26182664941E+03  0.20062980769E+04  0.50400001928E-02 0.  1.
</event>
<event>
 5   0  0.1773903E-07  0.3966351E+04  0.7818609E-02  0.8011369E-01
       -2   -1    0    0    0  501  0.00000000000E+00  0.00000000000E+00  0.16777812807E+04  0.16777812807E+04  0.25500000920E-02 0. -1.
        2   -1    0    0  501    0  0.00000000000E+00  0.00000000000E+00 -0.23441582102E+04  0.23441582102E+04  0.25500000920E-02 0.  1.
    10030    2    1    2    0    0  0.00000000000E+00  0.00000000000E+00 -0.66637692949E+03  0.40219394909E+04  0.39663508488E+04 0.  0.
        3    1    3    3  502    0 -0.11395963353E+04  0.95682586933E+03  0.99621165369E+03  0.17907074638E+04  0.10100000352E+00 0. -1.
       -3    1    3    3    0  502  0.11395963353E+04 -0.95682586933E+03 -0.16625885832E+04  0.22312320271E+04  0.10100000352E+00 0.  1.
</event>
<event>
 5   0  0.1773903E-07  0.4072389E+04  0.7818609E-02  0.7990101E-01
        2   -1    0    0  501    0  0.00000000000E+00  0.00000000000E+00  0.17996095220E+04  0.17996095220E+04  0.25500000920E-02 0. -1.
       -2   -1    0    0    0  501  0.00000000000E+00  0.00000000000E+00 -0.23038816171E+04  0.23038816171E+04  0.25500000920E-02 0.  1.
    10030    2    1    2    0    0  0.00000000000E+00  0.00000000000E+00 -0.50427209512E+03  0.41034911392E+04  0.40723886336E+04 0.  0.
        3    1    3    3  502    0 -0.10895383566E+04  0.14187532015E+04 -0.12322584922E+04  0.21721914002E+04  0.10100000352E+00 0.  1.
       -3    1    3    3    0  502  0.10895383566E+04 -0.14187532015E+04  0.72798639708E+03  0.19312997390E+04  0.10100000352E+00 0. -1.
</event>
<event>
 5   0  0.1821433E-07  0.4001043E+04  0.7818609E-02  0.8004336E-01
        2   -1    0    0  501    0  0.00000000000E+00  0.00000000000E+00  0.20389547847E+04  0.20389547847E+04  0.25500000920E-02 0.  1.
       -2   -1    0    0    0  501  0.00000000000E+00  0.00000000000E+00 -0.19628130099E+04  0.19628130099E+04  0.25500000920E-02 0. -1.
    10030    2    1    2    0    0  0.00000000000E+00  0.00000000000E+00  0.76141774833E+02  0.40017677946E+04  0.40010433529E+04 0.  0.
        5    1    3    3  502    0 -0.20398871393E+03 -0.10107208197E+04  0.17527024122E+04  0.20335082509E+04  0.46999998093E+01 0.  1.
       -5    1    3    3    0  502  0.20398871393E+03  0.10107208197E+04 -0.16765606373E+04  0.19682595437E+04  0.46999998093E+01 0. -1.
</event>
<event>
 5   0  0.5515000E-08  0.4180730E+04  0.7818609E-02  0.7969048E-01
        1   -1    0    0  501    0  0.00000000000E+00  0.00000000000E+00  0.19408334298E+04  0.19408334298E+04  0.50400001928E-02 0. -1.
       -1   -1    0    0    0  501  0.00000000000E+00  0.00000000000E+00 -0.22514169529E+04  0.22514169529E+04  0.50400001928E-02 0.  1.
    10030    2    1    2    0    0  0.00000000000E+00  0.00000000000E+00 -0.31058352309E+03  0.41922503828E+04  0.41807297386E+04 0.  0.
        4    1    3    3  502    0  0.23022899914E+03  0.12822451083E+04 -0.17945644170E+04  0.22175709616E+04  0.12699999809E+01 0.  1.
       -4    1    3    3    0  502 -0.23022899914E+03 -0.12822451083E+04  0.14839808940E+04  0.19746794212E+04  0.12699999809E+01 0. -1.
</event>
<event>
 5   0  0.5515000E-08  0.4000378E+04  0.7818609E-02  0.8004470E-01
       -1   -1    0    0    0  501  0.00000000000E+00  0.00000000000E+00  0.18854688097E+04  0.18854688097E+04  0.50400001928E-02 0. -1.
        1   -1    0    0  501    0  0.00000000000E+00  0.00000000000E+00 -0.21218887975E+04  0.21218887975E+04  0.50400001928E-02 0.  1.
    10030    2    1    2    0    0  0.00000000000E+00  0.00000000000E+00 -0.23641998775E+03  0.40073576072E+04  0.40003775549E+04 0.  0.
        1    1    3    3  502    0 -0.15947265411E+04  0.79184590866E+02 -0.13250245335E+04  0.20748766119E+04  0.50400001928E-02 0.  1.
       -1    1    3    3    0  502  0.15947265411E+04 -0.79184590866E+02  0.10886045457E+04  0.19324809953E+04  0.50400001928E-02 0. -1.
</event>
<event>
 5   0  0.1785559E-07  0.4032336E+04  0.7818609E-02  0.7998055E-01
       -2   -1    0    0    0  501  0.00000000000E+00  0.00000000000E+00  0.15401039985E+04  0.15401039985E+04  0.25500000920E-02 0. -1.
        2   -1    0    0  501    0  0.00000000000E+00  0.00000000000E+00 -0.26393891538E+04  0.26393891538E+04  0.25500000920E-02 0.  1.
    10030    2    1    2    0    0  0.00000000000E+00  0.00000000000E+00 -0.10992851553E+04  0.41794931524E+04  0.40323361911E+04 0.  0.
        2    1    3    3  502    0 -0.12856355828E+04  0.15528461889E+04 -0.57790774793E+03  0.20971808466E+04  0.25500000920E-02 0. -1.
       -2    1    3    3    0  502  0.12856355828E+04 -0.15528461889E+04 -0.52137740734E+03  0.20823123058E+04  0.25500000920E-02 0.  1.
</event>
<event>
 5   0  0.1773903E-07  0.3955186E+04  0.7818609E-02  0.8013648E-01
        2   -1    0    0  501    0  0.00000000000E+00  0.00000000000E+00  0.16695063122E+04  0.16695063122E+04  0.25500000920E-02 0.  1.
       -2   -1    0    0    0  501  0.00000000000E+00  0.00000000000E+00 -0.23425333177E+04  0.23425333177E+04  0.25500000920E-02 0. -1.
    10030    2    1    2    0    0  0.00000000000E+00  0.00000000000E+00 -0.67302700549E+03  0.40120396298E+04  0.39551860438E+04 0.  0.
        3    1    3    3  502    0  0.42801090164E+03 -0.20421098523E+03 -0.22840011323E+04  0.23327144362E+04  0.10100000352E+00 0. -1.
       -3    1    3    3    0  502 -0.42801090164E+03  0.20421098523E+03  0.16109741268E+04  0.16793251936E+04  0.10100000352E+00 0.  1.
</event>
<event>
 5   0  0.5515000E-08  0.3985421E+04  0.7818609E-02  0.8007494E-01
       -1   -1    0    0    0  501  0.00000000000E+00  0.00000000000E+00  0.22539712124E+04  0.22539712124E+04  0.50400001928E-02 0.  1.
        1   -1    0    0  501    0  0.00000000000E+00  0.00000000000E+00 -0.17617332700E+04  0.17617332700E+04  0.50400001928E-02 0. -1.
    10030    2    1    2    0    0  0.00000000000E+00  0.00000000000E+00  0.49223794237E+03  0.40157044824E+04  0.39854214705E+04 0.  0.
        1    1    3    3  502    0  0.96086381623E+03 -0.14761138712E+04  0.11852551237E+04  0.21229698873E+04  0.50400001928E-02 0.  1.
       -1    1    3    3    0  502 -0.96086381623E+03  0.14761138712E+04 -0.69301718129E+03  0.18927345951E+04  0.50400001928E-02 0. -1.
</event>
<event>
 5   0  0.1821433E-07  0.4002070E+04  0.7818609E-02  0.8004129E-01
       -2   -1    0    0    0  501  0.00000000000E+00  0.00000000000E+00  0.21772632489E+04  0.21772632489E+04  0.25500000920E-02 0. -1.
        2   -1    0    0  501    0  0.00000000000E+00  0.00000000000E+00 -0.18390708068E+04  0.18390708068E+04  0.25500000920E-02 0.  1.
    10030    2    1    2    0    0  0.00000000000E+00  0.00000000000E+00  0.33819244208E+03  0.40163340558E+04  0.40020701043E+04 0.  0.
        5    1    3    3  502    0 -0.55307674927E+03 -0.69688771956E+03 -0.16296571682E+04  0.18567043276E+04  0.46999998093E+01 0.  1.
       -5    1    3    3    0  502  0.55307674927E+03  0.69688771956E+03  0.19678496103E+04  0.21596297282E+04  0.46999998093E+01 0. -1.
</event>
<event>
 5   0  0.5515000E-08  0.3981250E+04  0.7818609E-02  0.8008340E-01
        1   -1    0    0  501    0  0.00000000000E+00  0.00000000000E+00  0.30413836665E+04  0.30413836665E+04  0.50400001928E-02 0.  1.
       -1   -1    0    0    0  501  0.00000000000E+00  0.00000000000E+00 -0.13028895257E+04  0.13028895257E+04  0.50400001928E-02 0. -1.
    10030    2    1    2    0    0  0.00000000000E+00  0.00000000000E+00  0.17384941408E+04  0.43442731923E+04  0.39812495138E+04 0.  0.
        1    1    3    3  502    0  0.17583134741E+04 -0.72728489709E+03  0.15073583022E+04  0.24274963740E+04  0.50400001928E-02 0.  1.
       -1    1    3    3    0  502 -0.17583134741E+04  0.72728489709E+03  0.23113583863E+03  0.19167768182E+04  0.50400001928E-02 0. -1.
</event>
<event>
 5   0  0.5515000E-08  0.4124654E+04  0.7818609E-02  0.7979861E-01
        1   -1    0    0  501    0  0.00000000000E+00  0.00000000000E+00  0.29307051955E+04  0.29307051955E+04  0.50400001928E-02 0.  1.
       -1   -1    0    0    0  501  0.00000000000E+00  0.00000000000E+00 -0.14512521439E+04  0.14512521439E+04  0.50400001928E-02 0. -1.
    10030    2    1    2    0    0  0.00000000000E+00  0.00000000000E+00  0.14794530516E+04  0.43819573394E+04  0.41246537785E+04 0.  0.
        5    1    3    3  502    0  0.11004625729E+04 -0.16533481054E+04  0.14956190481E+03  0.19917250527E+04  0.46999998093E+01 0. -1.
       -5    1    3    3    0  502 -0.11004625729E+04  0.16533481054E+04  0.13298911468E+04  0.23902322867E+04  0.46999998093E+01 0.  1.
</event>
<event>
 5   0  0.1785559E-07  0.3992201E+04  0.7818609E-02  0.8006122E-01
        2   -1    0    0  501    0  0.00000000000E+00  0.00000000000E+00  0.26274730849E+04  0.26274730849E+04  0.25500000920E-02 0. -1.
       -2   -1    0    0    0  501  0.00000000000E+00  0.00000000000E+00 -0.15164443829E+04  0.15164443829E+04  0.25500000920E-02 0.  1.
    10030    2    1    2    0    0  0.00000000000E+00  0.00000000000E+00  0.11110287021E+04  0.41439174678E+04  0.39922007969E+04 0.  0.
        2    1    3    3  502    0  0.31511370018E+03  0.62694530003E+02  0.26004570680E+04  0.26202298012E+04  0.25500000920E-02 0. -1.
       -2    1    3    3    0  502 -0.31511370018E+03 -0.62694530003E+02 -0.14894283660E+04  0.15236876666E+04  0.25500000920E-02 0.  1.
</event>
<event>
 5   0  0.5515000E-08  0.3836805E+04  0.7818609E-02  0.8038303E-01
        1   -1    0    0  501    0  0.00000000000E+00  0.00000000000E+00  0.17399501976E+04  0.17399501977E+04  0.50400001928E-02 0. -1.
       -1   -1    0    0    0  501  0.00000000000E+00  0.00000000000E+00 -0.21151567834E+04  0.21151567834E+04  0.50400001928E-02 0.  1.
    10030    2    1    2    0    0  0.00000000000E+00  0.00000000000E+00 -0.37520658575E+03  0.38551069811E+04  0.38368046410E+04 0.  0.
        1    1    3    3  502    0  0.14120047359E+04 -0.23625114357E+03 -0.14706816584E+04  0.20524318545E+04  0.50400001928E-02 0.  1.
       -1    1    3    3    0  502 -0.14120047359E+04  0.23625114357E+03  0.10954750727E+04  0.18026751265E+04  0.50400001928E-02 0. -1.
</event>
<event>
 5   0  0.5515000E-08  0.3992883E+04  0.7818609E-02  0.8005984E-01
        1   -1    0    0  501    0  0.00000000000E+00  0.00000000000E+00  0.12318182814E+04  0.12318182814E+04  0.50400001928E-02 0. -1.
       -1   -1    0    0    0  501  0.00000000000E+00  0.00000000000E+00 -0.32356871485E+04  0.32356871485E+04  0.50400001928E-02 0.  1.
    10030    2    1    2    0    0  0.00000000000E+00  0.00000000000E+00 -0.20038688671E+04  0.44675054299E+04  0.39928829597E+04 0.  0.
        2    1    3    3  502    0  0.18384126248E+03  0.14434949076E+03  0.12164560624E+04  0.12387088992E+04  0.25500000920E-02 0. -1.
       -2    1    3    3    0  502 -0.18384126248E+03 -0.14434949076E+03 -0.32203249295E+04  0.32287965307E+04  0.25500000920E-02 0.  1.
</event>
<event>
 5   0  0.1821433E-07  0.3828234E+04  0.7818609E-02  0.8040123E-01
       -2   -1    0    0    0  501  0.00000000000E+00  0.00000000000E+00  0.14872144757E+04  0.14872144757E+04  0.25500000920E-02 0.  1.
        2   -1    0    0  501    0  0.00000000000E+00  0.00000000000E+00 -0.24635612178E+04  0.24635612178E+04  0.25500000920E-02 0. -1.
    10030    2    1    2    0    0  0.00000000000E+00  0.00000000000E+00 -0.97634674210E+03  0.39507756935E+04  0.38282340079E+04 0.  0.
        5    1    3    3  502    0  0.99473214891E+03 -0.18820989212E+03 -0.21646438973E+04  0.23896904201E+04  0.46999998093E+01 0. -1.
       -5    1    3    3    0  502 -0.99473214891E+03  0.18820989212E+03  0.11882971552E+04  0.15610852734E+04  0.46999998093E+01 0.  1.
</event>
<event>
 5   0  0.1776653E-07  0.4370690E+04  0.7818609E-02  0.7933675E-01
        2   -1    0    0  501    0  0.00000000000E+00  0.00000000000E+00  0.18054308747E+04  0.18054308747E+04  0.25500000920E-02 0. -1.
       -2   -1    0    0    0  501  0.00000000000E+00  0.00000000000E+00 -0.26452035384E+04  0.26452035384E+04  0.25500000920E-02 0.  1.
    10030    2    1    2    0    0  0.00000000000E+00  0.00000000000E+00 -0.83977266369E+03  0.44506344130E+04  0.43706897112E+04 0.  0.
        4    1    3    3  502    0  0.11263109349E+04  0.13464184144E+04 -0.17453523420E+04  0.24754141632E+04  0.12699999809E+01 0.  1.
       -4    1    3    3    0  502 -0.11263109349E+04 -0.13464184144E+04  0.90557967836E+03  0.19752202498E+04  0.12699999809E+01 0. -1.
</event>
<event>
 5   0  0.5515000E-08  0.4008867E+04  0.7818609E-02  0.8002760E-01
        1   -1    0    0  501    0  0.00000000000E+00  0.00000000000E+00  0.19561288896E+04  0.19561288896E+04  0.50400001928E-02 0. -1.
       -1   -1    0    0    0  501  0.00000000000E+00  0.00000000000E+00 -0.20539313073E+04  0.20539313073E+04  0.50400001928E-02 0.  1.
    10030    2    1    2    0    0  0.00000000000E+00  0.00000000000E+00 -0.97802417740E+02  0.40100601969E+04  0.40088673550E+04 0.  0.
        2    1    3    3  502    0  0.45050014375E+03  0.18934279411E+04  0.43054780384E+03  0.19933366898E+04  0.25500000920E-02 0. -1.
       -2    1    3    3    0  502 -0.45050014375E+03 -0.18934279411E+04 -0.52835022158E+03  0.20167235071E+04  0.25500000920E-02 0.  1.
</event>
<event>
 5   0  0.5515000E-08  0.3968699E+04  0.7818609E-02  0.8010891E-01
        1   -1    0    0  501    0  0.00000000000E+00  0.00000000000E+00  0.13168278595E+04  0.13168278596E+04  0.50400001928E-02 0. -1.
       -1   -1    0    0    0  501  0.00000000000E+00  0.00000000000E+00 -0.29902487292E+04  0.29902487292E+04  0.50400001928E-02 0.  1.
    10030    2    1    2    0    0  0.00000000000E+00  0.00000000000E+00 -0.16734208697E+04  0.43070765888E+04  0.39686989473E+04 0.  0.
        5    1    3    3  502    0 -0.49032892871E+03  0.19221509273E+04 -0.78207855402E+03  0.21323122661E+04  0.46999998093E+01 0.  1.
       -5    1    3    3    0  502  0.49032892871E+03 -0.19221509273E+04 -0.89134231564E+03  0.21747643227E+04  0.46999998093E+01 0. -1.
</event>
<event>
 5   0  0.5515000E-08  0.4009556E+04  0.7818609E-02  0.8002622E-01
        1   -1    0    0  501    0  0.00000000000E+00  0.00000000000E+00  0.22790335353E+04  0.22790335353E+04  0.50400001928E-02 0.  1.
       -1   -1    0    0    0  501  0.00000000000E+00  0.00000000000E+00 -0.17635255597E+04  0.17635255597E+04  0.50400001928E-02 0. -1.
    10030    2    1    2    0    0  0.00000000000E+00  0.00000000000E+00  0.51550797562E+03  0.40425590950E+04  0.40095555319E+04 0.  0.
        2    1    3    3  502    0  0.35095359963E+03 -0.19569396295E+04 -0.19565681571E+01  0.19881612034E+04  0.25500000920E-02 0. -1.
       -2    1    3    3    0  502 -0.35095359963E+03  0.19569396295E+04  0.51746454378E+03  0.20543978915E+04  0.25500000920E-02 0.  1.
</event>
<event>
 5   0  0.1773903E-07  0.3409629E+04  0.7818609E-02  0.8135547E-01
       -2   -1    0    0    0  501  0.00000000000E+00  0.00000000000E+00  0.12429691259E+04  0.12429691259E+04  0.25500000920E-02 0.  1.
        2   -1    0    0  501    0  0.00000000000E+00  0.00000000000E+00 -0.23382663976E+04  0.23382663976E+04  0.25500000920E-02 0. -1.
    10030    2    1    2    0    0  0.00000000000E+00  0.00000000000E+00 -0.10952972717E+04  0.35812355235E+04  0.34096292703E+04 0.  0.
        3    1    3    3  502    0 -0.16335209767E+04  0.65859753586E+02 -0.10553662410E+04  0.19458998436E+04  0.10100000352E+00 0.  1.
       -3    1    3    3    0  502  0.16335209767E+04 -0.65859753586E+02 -0.39931030692E+02  0.16353356799E+04  0.10100000352E+00 0. -1.
</event>
<event>
 5   0  0.5515000E-08  0.3994581E+04  0.7818609E-02  0.8005641E-01
        1   -1    0    0  501    0  0.00000000000E+00  0.00000000000E+00  0.14472245620E+04  0.14472245620E+04  0.50400001928E-02 0.  1.
       -1   -1    0    0    0  501  0.00000000000E+00  0.00000000000E+00 -0.27564274148E+04  0.27564274148E+04  0.50400001928E-02 0. -1.
    10030    2    1    2    0    0  0.00000000000E+00  0.00000000000E+00 -0.13092028528E+04  0.42036519769E+04  0.39945810585E+04 0.  0.
        1    1    3    3  502    0  0.16468325251E+04 -0.89360908689E+02 -0.18401190349E+04  0.24710485225E+04  0.50400001928E-02 0. -1.
       -1    1    3    3    0  502 -0.16468325251E+04  0.89360908689E+02  0.53091618208E+03  0.17326034544E+04  0.50400001928E-02 0.  1.
</event>
<event>
 5   0  0.5515000E-08  0.4046174E+04  0.7818609E-02  0.7995296E-01
       -1   -1    0    0    0  501  0.00000000000E+00  0.00000000000E+00  0.15379570959E+04  0.15379570959E+04  0.50400001928E-02 0. -1.
        1   -1    0    0  501    0  0.00000000000E+00  0.00000000000E+00 -0.26612449240E+04  0.26612449240E+04  0.50400001928E-02 0.  1.
    10030    2    1    2    0    0  0.00000000000E+00  0.00000000000E+00 -0.11232878281E+04  0.41992020200E+04  0.40461737555E+04 0.  0.
        3    1    3    3  502    0 -0.69330488504E+03  0.18067563435E+04 -0.11737296001E+04  0.22633341187E+04  0.10100000352E+00 0.  1.
       -3    1    3    3    0  502  0.69330488504E+03 -0.18067563435E+04  0.50441772032E+02  0.19358679013E+04  0.10100000352E+00 0. -1.
</event>
<event>
 5   0  0.1819906E-07  0.3984758E+04  0.7818609E-02  0.8007628E-01
        2   -1    0    0  501    0  0.00000000000E+00  0.00000000000E+00  0.13207752417E+04  0.13207752417E+04  0.25500000920E-02 0. -1.
       -2   -1    0    0    0  501  0.00000000000E+00  0.00000000000E+00 -0.30054881565E+04  0.30054881565E+04  0.25500000920E-02 0.  1.
    10030    2    1    2    0    0  0.00000000000E+00  0.00000000000E+00 -0.16847129148E+04  0.43262633982E+04  0.39847581338E+04 0.  0.
        1    1    3    3  502    0 -0.38120110761E+03 -0.17943282507E+04  0.18752360018E+01  0.18343750086E+04  0.50400001928E-02 0. -1.
       -1    1    3    3    0  502  0.38120110761E+03  0.17943282507E+04 -0.16865881508E+04  0.24918883896E+04  0.50400001928E-02 0.  1.
</event>
<event>
 5   0  0.5515000E-08  0.3996399E+04  0.7818609E-02  0.8005273E-01
       -1   -1    0    0    0  501  0.00000000000E+00  0.00000000000E+00  0.23333567923E+04  0.23333567923E+04  0.50400001928E-02 0. -1.
        1   -1    0    0  501    0  0.00000000000E+00  0.00000000000E+00 -0.17111830077E+04  0.17111830077E+04  0.50400001928E-02 0.  1.
    10030    2    1    2    0    0  0.00000000000E+00  0.00000000000E+00  0.62217378461E+03  0.40445398001E+04  0.39963986258E+04 0.  0.
        3    1    3    3  502    0 -0.41889494332E+03  0.48330950897E+03  0.22269678676E+04  0.23169909255E+04  0.10100000352E+00 0. -1.
       -3    1    3    3    0  502  0.41889494332E+03 -0.48330950897E+03 -0.16047940830E+04  0.17275488746E+04  0.10100000352E+00 0.  1.
</event>
<event>
 5   0  0.1773903E-07  0.3974957E+04  0.7818609E-02  0.8009618E-01
       -2   -1    0    0    0  501  0.00000000000E+00  0.00000000000E+00  0.14587406791E+04  0.14587406791E+04  0.25500000920E-02 0. -1.
        2   -1    0    0  501    0  0.00000000000E+00  0.00000000000E+00 -0.27078630230E+04  0.27078630230E+04  0.25500000920E-02 0.  1.
    10030    2    1    2    0    0  0.00000000000E+00  0.00000000000E+00 -0.12491223439E+04  0.41666037021E+04  0.39749565759E+04 0.  0.
        3    1    3    3  502    0  0.41621596175E+03  0.14451333279E+04  0.73748098201E+03  0.16749699315E+04  0.10100000352E+00 0. -1.
       -3    1    3    3    0  502 -0.41621596175E+03 -0.14451333279E+04 -0.19866033259E+04  0.24916337707E+04  0.10100000352E+00 0.  1.
</event>
<event>
 5   0  0.1773903E-07  0.3985311E+04  0.7818609E-02  0.8007516E-01
       -2   -1    0    0    0  501  0.00000000000E+00  0.00000000000E+00  0.15827650797E+04  0.15827650797E+04  0.25500000920E-02 0. -1.
        2   -1    0    0  501    0  0.00000000000E+00  0.00000000000E+00 -0.25086956272E+04  0.25086956272E+04  0.25500000920E-02 0.  1.
    10030    2    1    2    0    0  0.00000000000E+00  0.00000000000E+00 -0.92593054751E+03  0.40914607069E+04  0.39853109461E+04 0.  0.
        3    1    3    3  502    0 -0.72526052178E+03  0.12379022181E+04 -0.18826467091E+04  0.23670157092E+04  0.10100000352E+00 0.  1.
       -3    1    3    3    0  502  0.72526052178E+03 -0.12379022181E+04  0.95671616159E+03  0.17244449977E+04  0.10100000352E+00 0. -1.
</event>
<event>
 5   0  0.1776653E-07  0.4000121E+04  0.7818609E-02  0.8004522E-01
       -2   -1    0    0    0  501  0.00000000000E+00  0.00000000000E+00  0.15905840931E+04  0.15905840931E+04  0.25500000920E-02 0.  1.
        2   -1    0    0  501    0  0.00000000000E+00  0.00000000000E+00 -0.25149514646E+04  0.25149514646E+04  0.25500000920E-02 0. -1.
    10030    2    1    2    0    0  0.00000000000E+00  0.00000000000E+00 -0.92436737154E+03  0.41055355577E+04  0.40001208954E+04 0.  0.
        4    1    3    3  502    0 -0.16178910234E+04 -0.95037216115E+03 -0.11728628840E+04  0.22127782460E+04  0.12699999809E+01 0. -1.
       -4    1    3    3    0  502  0.16178910234E+04  0.95037216115E+03  0.24849551241E+03  0.18927573117E+04  0.12699999809E+01 0.  1.
</event>
<event>
 5   0  0.5515000E-08  0.4043840E+04  0.7818609E-02  0.7995761E-01
        1   -1    0    0  501    0  0.00000000000E+00  0.00000000000E+00  0.19659231255E+04  0.19659231255E+04  0.50400001928E-02 0.  1.
       -1   -1    0    0    0  501  0.00000000000E+00  0.00000000000E+00 -0.20795120420E+04  0.20795120420E+04  0.50400001928E-02 0. -1.
    10030    2    1    2    0    0  0.00000000000E+00  0.00000000000E+00 -0.11358891655E+03  0.40454351675E+04  0.40438401616E+04 0.  0.
        5    1    3    3  502    0 -0.10673894714E+04  0.53100028723E+03  0.15769011433E+04  0.19768461989E+04  0.46999998093E+01 0.  1.
       -5    1    3    3    0  502  0.10673894714E+04 -0.53100028723E+03 -0.16904900598E+04  0.20685889686E+04  0.46999998093E+01 0. -1.
</event>
<event>
 5   0  0.1776653E-07  0.3920776E+04  0.7818609E-02  0.8020722E-01
        2   -1    0    0  501    0  0.00000000000E+00  0.00000000000E+00  0.24947974124E+04  0.24947974125E+04  0.25500000920E-02 0.  1.
       -2   -1    0    0    0  501  0.00000000000E+00  0.00000000000E+00 -0.15404540453E+04  0.15404540453E+04  0.25500000920E-02 0. -1.
    10030    2    1    2    0    0  0.00000000000E+00  0.00000000000E+00  0.95434336713E+03  0.40352514578E+04  0.39207758244E+04 0.  0.
        4    1    3    3  502    0  0.53923121426E+02 -0.39968699069E+03  0.24516380776E+04  0.24845901613E+04  0.12699999809E+01 0.  1.
       -4    1    3    3    0  502 -0.53923121426E+02  0.39968699069E+03 -0.14972947104E+04  0.15506612964E+04  0.12699999809E+01 0. -1.
</event>
<event>
 5   0  0.5515000E-08  0.3962418E+04  0.7818609E-02  0.8012171E-01
        1   -1    0    0  501    0  0.00000000000E+00  0.00000000000E+00  0.12191190355E+04  0.12191190355E+04  0.50400001928E-02 0.  1.
       -1   -1    0    0    0  501  0.00000000000E+00  0.00000000000E+00 -0.32196933478E+04  0.32196933478E+04  0.50400001928E-02 0. -1.
    10030    2    1    2    0    0  0.00000000000E+00  0.00000000000E+00 -0.20005743123E+04  0.44388123833E+04  0.39624181752E+04 0.  0.
        5    1    3    3  502    0 -0.17291968977E+04 -0.64595712923E+03 -0.18063727233E+04  0.25827092421E+04  0.46999998093E+01 0. -1.
       -5    1    3    3    0  502  0.17291968977E+04  0.64595712923E+03 -0.19420158901E+03  0.18561031412E+04  0.46999998093E+01 0.  1.
</event>
<event>
 5   0  0.1819906E-07  0.3983029E+04  0.7818609E-02  0.8007979E-01
       -2   -1    0    0    0  501  0.00000000000E+00  0.00000000000E+00  0.14323685634E+04  0.14323685634E+04  0.25500000920E-02 0. -1.
        2   -1    0    0  501    0  0.00000000000E+00  0.00000000000E+00 -0.27689310312E+04  0.27689310312E+04  0.25500000920E-02 0.  1.
    10030    2    1    2    0    0  0.00000000000E+00  0.00000000000E+00 -0.13365624677E+04  0.42012995946E+04  0.39830288793E+04 0.  0.
        1    1    3    3  502    0  0.82870417395E+03 -0.17666228548E+04 -0.10881166776E+04  0.22342123496E+04  0.50400001928E-02 0.  1.
       -1    1    3    3    0  502 -0.82870417395E+03  0.17666228548E+04 -0.24844579018E+03  0.19670872450E+04  0.50400001928E-02 0. -1.
</event>
<event>
 5   0  0.5515000E-08  0.3994312E+04  0.7818609E-02  0.8005695E-01
        1   -1    0    0  501    0  0.00000000000E+00  0.00000000000E+00  0.22686604384E+04  0.22686604384E+04  0.50400001928E-02 0.  1.
       -1   -1    0    0    0  501  0.00000000000E+00  0.00000000000E+00 -0.17581437291E+04  0.17581437291E+04  0.50400001928E-02 0. -1.
    10030    2    1    2    0    0  0.00000000000E+00  0.00000000000E+00  0.51051670927E+03  0.40268041675E+04  0.39943115168E+04 0.  0.
        2    1    3    3  502    0 -0.16727034805E+03 -0.77503649507E+02 -0.17495475162E+04  0.17592335537E+04  0.25500000920E-02 0. -1.
       -2    1    3    3    0  502  0.16727034805E+03  0.77503649507E+02  0.22600642255E+04  0.22675706138E+04  0.25500000920E-02 0.  1.
</event>
<event>
 5   0  0.1821433E-07  0.3990841E+04  0.7818609E-02  0.8006397E-01
       -2   -1    0    0    0  501  0.00000000000E+00  0.00000000000E+00  0.18019390774E+04  0.18019390774E+04  0.25500000920E-02 0.  1.
        2   -1    0    0  501    0  0.00000000000E+00  0.00000000000E+00 -0.22096769315E+04  0.22096769315E+04  0.25500000920E-02 0. -1.
    10030    2    1    2    0    0  0.00000000000E+00  0.00000000000E+00 -0.40773785414E+03  0.40116160089E+04  0.39908411200E+04 0.  0.
        5    1    3    3  502    0  0.10262847519E+04  0.81806579822E+03 -0.17147532237E+04  0.21593732309E+04  0.46999998093E+01 0. -1.
       -5    1    3    3    0  502 -0.10262847519E+04 -0.81806579822E+03  0.13070153695E+04  0.18522427780E+04  0.46999998093E+01 0.  1.
</event>
<event>
 5   0  0.5515000E-08  0.4022985E+04  0.7818609E-02  0.7999926E-01
       -1   -1    0    0    0  501  0.00000000000E+00  0.00000000000E+00  0.21244773528E+04  0.21244773528E+04  0.50400001928E-02 0.  1.
        1   -1    0    0  501    0  0.00000000000E+00  0.00000000000E+00 -0.19045165797E+04  0.19045165797E+04  0.50400001928E-02 0. -1.
    10030    2    1    2    0    0  0.00000000000E+00  0.00000000000E+00  0.21996077310E+03  0.40289939325E+04  0.40229851313E+04 0.  0.
        5    1    3    3  502    0  0.15612506871E+04 -0.46049068541E+03 -0.10735312256E+04  0.19498837815E+04  0.46999998093E+01 0. -1.
       -5    1    3    3    0  502 -0.15612506871E+04  0.46049068541E+03  0.12934919987E+04  0.20791101510E+04  0.46999998093E+01 0.  1.
</event>
<event>
 5   0  0.5515000E-08  0.3979814E+04  0.7818609E-02  0.8008631E-01
       -1   -1    0    0    0  501  0.00000000000E+00  0.00000000000E+00  0.17417692470E+04  0.17417692470E+04  0.50400001928E-02 0.  1.
        1   -1    0    0  501    0  0.00000000000E+00  0.00000000000E+00 -0.22733954708E+04  0.22733954709E+04  0.50400001928E-02 0. -1.
    10030    2    1    2    0    0  0.00000000000E+00  0.00000000000E+00 -0.53162622383E+03  0.40151647179E+04  0.39798142255E+04 0.  0.
        3    1    3    3  502    0  0.10822723143E+04  0.28289775569E+03 -0.19261485244E+04  0.22274183825E+04  0.10100000352E+00 0. -1.
       -3    1    3    3    0  502 -0.10822723143E+04 -0.28289775569E+03  0.13945223006E+04  0.17877463353E+04  0.10100000352E+00 0.  1.
</event>
<event>
 5   0  0.5515000E-08  0.4079229E+04  0.7818609E-02  0.7988752E-01
       -1   -1    0    0    0  501  0.00000000000E+00  0.00000000000E+00  0.19850886029E+04  0.19850886029E+04  0.50400001928E-02 0. -1.
        1   -1    0    0  501    0  0.00000000000E+00  0.00000000000E+00 -0.20956381519E+04  0.20956381519E+04  0.50400001928E-02 0.  1.
    10030    2    1    2    0    0  0.00000000000E+00  0.00000000000E+00 -0.11054954903E+03  0.40807267548E+04  0.40792290503E+04 0.  0.
        3    1    3    3  502    0 -0.17811232692E+04  0.75209988643E+03  0.59455826287E+03  0.20227589766E+04  0.10100000352E+00 0. -1.
       -3    1    3    3    0  502  0.17811232692E+04 -0.75209988643E+03 -0.70510781190E+03  0.20579677782E+04  0.10100000352E+00 0.  1.
</event>
<event>
 5   0  0.5515000E-08  0.3983045E+04  0.7818609E-02  0.8007976E-01
       -1   -1    0    0    0  501  0.00000000000E+00  0.00000000000E+00  0.30449507174E+04  0.30449507174E+04  0.50400001928E-02 0. -1.
        1   -1    0    0  501    0  0.00000000000E+00  0.00000000000E+00 -0.13025374942E+04  0.13025374942E+04  0.50400001928E-02 0.  1.
    10030    2    1    2    0    0  0.00000000000E+00  0.00000000000E+00  0.17424132232E+04  0.43474882116E+04  0.39830453060E+04 0.  0.
        4    1    3    3  502    0  0.56766701059E+03  0.18879858232E+04  0.56359652053E+03  0.20504582303E+04  0.12699999809E+01 0.  1.
       -4    1    3    3    0  502 -0.56766701059E+03 -0.18879858232E+04  0.11788167027E+04  0.22970299813E+04  0.12699999809E+01 0. -1.
</event>
<event>
 5   0  0.5515000E-08  0.3973081E+04  0.7818609E-02  0.8009999E-01
        1   -1    0    0  501    0  0.00000000000E+00  0.00000000000E+00  0.25791917282E+04  0.25791917282E+04  0.50400001928E-02 0. -1.
       -1   -1    0    0    0  501  0.00000000000E+00  0.00000000000E+00 -0.15300699557E+04  0.15300699557E+04  0.50400001928E-02 0.  1.
    10030    2    1    2    0    0  0.00000000000E+00  0.00000000000E+00  0.10491217725E+04  0.41092616839E+04  0.39730813097E+04 0.  0.
        5    1    3    3  502    0 -0.11671885949E+03 -0.12739630951E+04  0.20964274535E+04  0.24559388058E+04  0.46999998093E+01 0. -1.
       -5    1    3    3    0  502  0.11671885949E+03  0.12739630951E+04 -0.10473056810E+04  0.16533228781E+04  0.46999998093E+01 0.  1.
</event>
<event>
 5   0  0.1821433E-07  0.3987154E+04  0.7818609E-02  0.8007143E-01
       -2   -1    0    0    0  501  0.00000000000E+00  0.00000000000E+00  0.18332420056E+04  0.18332420056E+04  0.25500000920E-02 0.  1.
        2   -1    0    0  501    0  0.00000000000E+00  0.00000000000E+00 -0.21679346084E+04  0.21679346084E+04  0.25500000920E-02 0. -1.
    10030    2    1    2    0    0  0.00000000000E+00  0.00000000000E+00 -0.33469260284E+03  0.40011766140E+04  0.39871537665E+04 0.  0.
        5    1    3    3  502    0  0.17094237899E+04  0.36322301516E+03 -0.11300251652E+04  0.20811149934E+04  0.46999998093E+01 0. -1.
       -5    1    3    3    0  502 -0.17094237899E+04 -0.36322301516E+03  0.79533256231E+03  0.19200616206E+04  0.46999998093E+01 0.  1.
</event>
<event>
 5   0  0.1819906E-07  0.4043235E+04  0.7818609E-02  0.7995881E-01
        2   -1    0    0  501    0  0.00000000000E+00  0.00000000000E+00  0.22954550093E+04  0.22954550093E+04  0.25500000920E-02 0. -1.
       -2   -1    0    0    0  501  0.00000000000E+00  0.00000000000E+00 -0.17804480070E+04  0.17804480070E+04  0.25500000920E-02 0.  1.
    10030    2    1    2    0    0  0.00000000000E+00  0.00000000000E+00  0.51500700235E+03  0.40759030163E+04  0.40432354848E+04 0.  0.
        1    1    3    3  502    0  0.14384093934E+04 -0.23365000615E+02  0.16893210129E+04  0.22188675019E+04  0.50400001928E-02 0. -1.
       -1    1    3    3    0  502 -0.14384093934E+04  0.23365000615E+02 -0.11743140105E+04  0.18570355144E+04  0.50400001928E-02 0.  1.
</event>
<event>
 5   0  0.5515000E-08  0.3988681E+04  0.7818609E-02  0.8006834E-01
       -1   -1    0    0    0  501  0.00000000000E+00  0.00000000000E+00  0.29861381898E+04  0.29861381898E+04  0.50400001928E-02 0. -1.
        1   -1    0    0  501    0  0.00000000000E+00  0.00000000000E+00 -0.13319523856E+04  0.13319523856E+04  0.50400001928E-02 0.  1.
    10030    2    1    2    0    0  0.00000000000E+00  0.00000000000E+00  0.16541858042E+04  0.43180905754E+04  0.39886809276E+04 0.  0.
        1    1    3    3  502    0 -0.11678343275E+04 -0.84236706301E+03  0.23208948673E+04  0.27312949804E+04  0.50400001928E-02 0. -1.
       -1    1    3    3    0  502  0.11678343275E+04  0.84236706301E+03 -0.66670906305E+03  0.15867955949E+04  0.50400001928E-02 0.  1.
</event>
<event>
 5   0  0.1776653E-07  0.3959067E+04  0.7818609E-02  0.8012855E-01
        2   -1    0    0  501    0  0.00000000000E+00  0.00000000000E+00  0.11959556519E+04  0.11959556519E+04  0.25500000920E-02 0. -1.
       -2   -1    0    0    0  501  0.00000000000E+00  0.00000000000E+00 -0.32765035698E+04  0.32765035698E+04  0.25500000920E-02 0.  1.
    10030    2    1    2    0    0  0.00000000000E+00  0.00000000000E+00 -0.20805479179E+04  0.44724592217E+04  0.39590670430E+04 0.  0.
        4    1    3    3  502    0 -0.24142478280E+03  0.79140554311E+03 -0.30717873671E+04  0.31812714283E+04  0.12699999809E+01 0.  1.
       -4    1    3    3    0  502  0.24142478280E+03 -0.79140554311E+03  0.99123944913E+03  0.12911877934E+04  0.12699999809E+01 0. -1.
</event>
<event>
 5   0  0.1773903E-07  0.4030631E+04  0.7818609E-02  0.7998396E-01
       -2   -1    0    0    0  501  0.00000000000E+00  0.00000000000E+00  0.30314539414E+04  0.30314539414E+04  0.25500000920E-02 0. -1.
        2   -1    0    0  501    0  0.00000000000E+00  0.00000000000E+00 -0.13397851030E+04  0.13397851030E+04  0.25500000920E-02 0.  1.
    10030    2    1    2    0    0  0.00000000000E+00  0.00000000000E+00  0.16916688384E+04  0.43712390444E+04  0.40306311323E+04 0.  0.
        3    1    3    3  502    0 -0.57398398680E+03 -0.72381279099E+03  0.27883198429E+04  0.29373610826E+04  0.10100000352E+00 0. -1.
       -3    1    3    3    0  502  0.57398398680E+03  0.72381279099E+03 -0.10966510045E+04  0.14338779618E+04  0.10100000352E+00 0.  1.
</event>
<event>
 5   0  0.5515000E-08  0.3983924E+04  0.7818609E-02  0.8007797E-01
       -1   -1    0    0    0  501  0.00000000000E+00  0.00000000000E+00  0.20813456100E+04  0.20813456100E+04  0.50400001928E-02 0. -1.
        1   -1    0    0  501    0  0.00000000000E+00  0.00000000000E+00 -0.19064174154E+04  0.19064174154E+04  0.50400001928E-02 0.  1.
    10030    2    1    2    0    0  0.00000000000E+00  0.00000000000E+00  0.17492819456E+03  0.39877630254E+04  0.39839244563E+04 0.  0.
        3    1    3    3  502    0 -0.15193140318E+04  0.72595392529E+03 -0.97779308442E+03  0.19471526789E+04  0.10100000352E+00 0.  1.
       -3    1    3    3    0  502  0.15193140318E+04 -0.72595392529E+03  0.11527212790E+04  0.20406103465E+04  0.10100000352E+00 0. -1.
</event>
<event>
 5   0  0.5515000E-08  0.3987066E+04  0.7818609E-02  0.8007161E-01
       -3   -1    0    0    0  501  0.00000000000E+00  0.00000000000E+00  0.31169602667E+04  0.31169602684E+04  0.10100000352E+00 0. -1.
        3   -1    0    0  501    0  0.00000000000E+00  0.00000000000E+00 -0.12750159295E+04  0.12750159335E+04  0.10100000352E+00 0.  1.
    10030    2    1    2    0    0  0.00000000000E+00  0.00000000000E+00  0.18419443372E+04  0.43919762019E+04  0.39870660913E+04 0.  0.
        4    1    3    3  502    0 -0.13703164098E+04 -0.22469048847E+03 -0.65464540341E+03  0.15351922016E+04  0.12699999809E+01 0.  1.
       -4    1    3    3    0  502  0.13703164098E+04  0.22469048847E+03  0.24965897406E+04  0.28567840003E+04  0.12699999809E+01 0. -1.
</event>
<event>
 5   0  0.5515000E-08  0.4010761E+04  0.7818609E-02  0.8002379E-01
        1   -1    0    0  501    0  0.00000000000E+00  0.00000000000E+00  0.34446554139E+04  0.34446554139E+04  0.50400001928E-02 0. -1.
       -1   -1    0    0    0  501  0.00000000000E+00  0.00000000000E+00 -0.11674756554E+04  0.11674756554E+04  0.50400001928E-02 0.  1.
    10030    2    1    2    0    0  0.00000000000E+00  0.00000000000E+00  0.22771797586E+04  0.46121310693E+04  0.40107611930E+04 0.  0.
        4    1    3    3  502    0  0.16844909223E+04  0.34933866371E+03  0.23236424515E+04  0.28911698367E+04  0.12699999809E+01 0. -1.
       -4    1    3    3    0  502 -0.16844909223E+04 -0.34933866371E+03 -0.46462692945E+02  0.17209612326E+04  0.12699999809E+01 0.  1.
</event>
<event>
 5   0  0.1821433E-07  0.4015897E+04  0.7818609E-02  0.8001347E-01
        2   -1    0    0  501    0  0.00000000000E+00  0.00000000000E+00  0.22958242086E+04  0.22958242086E+04  0.25500000920E-02 0.  1.
       -2   -1    0    0    0  501  0.00000000000E+00  0.00000000000E+00 -0.17561696256E+04  0.17561696256E+04  0.25500000920E-02 0. -1.
    10030    2    1    2    0    0  0.00000000000E+00  0.00000000000E+00  0.53965458294E+03  0.40519938342E+04  0.40158967819E+04 0.  0.
        5    1    3    3  502    0  0.19267581959E+04 -0.10330588947E+03  0.83048854890E+03  0.21006671731E+04  0.46999998093E+01 0.  1.
       -5    1    3    3    0  502 -0.19267581959E+04  0.10330588947E+03 -0.29083396596E+03  0.19513266610E+04  0.46999998093E+01 0. -1.
</event>
<event>
 5   0  0.1785559E-07  0.3998755E+04  0.7818609E-02  0.8004798E-01
        2   -1    0    0  501    0  0.00000000000E+00  0.00000000000E+00  0.23574806497E+04  0.23574806497E+04  0.25500000920E-02 0. -1.
       -2   -1    0    0    0  501  0.00000000000E+00  0.00000000000E+00 -0.16956700917E+04  0.16956700917E+04  0.25500000920E-02 0.  1.
    10030    2    1    2    0    0  0.00000000000E+00  0.00000000000E+00  0.66181055793E+03  0.40531507414E+04  0.39987545208E+04 0.  0.
        2    1    3    3  502    0  0.19730354106E+03  0.16260076810E+04  0.14930975980E+04  0.22163416035E+04  0.25500000920E-02 0. -1.
       -2    1    3    3    0  502 -0.19730354106E+03 -0.16260076810E+04 -0.83128704008E+03  0.18368091379E+04  0.25500000920E-02 0.  1.
</event>
<event>
 5   0  0.1773903E-07  0.3991547E+04  0.7818609E-02  0.8006254E-01
       -2   -1    0    0    0  501  0.00000000000E+00  0.00000000000E+00  0.12462170430E+04  0.12462170430E+04  0.25500000920E-02 0. -1.
        2   -1    0    0  501    0  0.00000000000E+00  0.00000000000E+00 -0.31961619458E+04  0.31961619458E+04  0.25500000920E-02 0.  1.
    10030    2    1    2    0    0  0.00000000000E+00  0.00000000000E+00 -0.19499449029E+04  0.44423789888E+04  0.39915468124E+04 0.  0.
        3    1    3    3  502    0  0.11408226981E+04 -0.68215752071E+03  0.68189694806E+03  0.14939206035E+04  0.10100000352E+00 0. -1.
       -3    1    3    3    0  502 -0.11408226981E+04  0.68215752071E+03 -0.26318418509E+04  0.29484583853E+04  0.10100000352E+00 0.  1.
</event>
<event>
 5   0  0.1785559E-07  0.3993757E+04  0.7818609E-02  0.8005807E-01
        2   -1    0    0  501    0  0.00000000000E+00  0.00000000000E+00  0.22345150005E+04  0.22345150005E+04  0.25500000920E-02 0.  1.
       -2   -1    0    0    0  501  0.00000000000E+00  0.00000000000E+00 -0.17845145090E+04  0.17845145090E+04  0.25500000920E-02 0. -1.
    10030    2    1    2    0    0  0.00000000000E+00  0.00000000000E+00  0.45000049142E+03  0.40190295095E+04  0.39937573482E+04 0.  0.
        2    1    3    3  502    0 -0.15789079049E+04  0.99297787077E+03 -0.49265283628E+03  0.19291609682E+04  0.25500000920E-02 0. -1.
       -2    1    3    3    0  502  0.15789079049E+04 -0.99297787077E+03  0.94265332770E+03  0.20898685414E+04  0.25500000920E-02 0.  1.
</event>
<event>
 5   0  0.1773903E-07  0.4013365E+04  0.7818609E-02  0.8001856E-01
       -2   -1    0    0    0  501  0.00000000000E+00  0.00000000000E+00  0.18327151421E+04  0.18327151421E+04  0.25500000920E-02 0. -1.
        2   -1    0    0  501    0  0.00000000000E+00  0.00000000000E+00 -0.21971638237E+04  0.21971638237E+04  0.25500000920E-02 0.  1.
    10030    2    1    2    0    0  0.00000000000E+00  0.00000000000E+00 -0.36444868163E+03  0.40298789658E+04  0.40133653755E+04 0.  0.
        3    1    3    3  502    0 -0.17295283249E+04  0.58093771934E+03  0.65668838364E+03  0.19390710414E+04  0.10100000352E+00 0. -1.
       -3    1    3    3    0  502  0.17295283249E+04 -0.58093771934E+03 -0.10211370653E+04  0.20908079244E+04  0.10100000352E+00 0.  1.
</event>
<event>
 5   0  0.1821433E-07  0.4030321E+04  0.7818609E-02  0.7998458E-01
        2   -1    0    0  501    0  0.00000000000E+00  0.00000000000E+00  0.17116378789E+04  0.17116378789E+04  0.25500000920E-02 0.  1.
       -2   -1    0    0    0  501  0.00000000000E+00  0.00000000000E+00 -0.23725062679E+04  0.23725062679E+04  0.25500000920E-02 0. -1.
    10030    2    1    2    0    0  0.00000000000E+00  0.00000000000E+00 -0.66086838897E+03  0.40841441468E+04  0.40303208786E+04 0.  0.
        5    1    3    3  502    0 -0.84210271685E+03  0.17639571957E+04  0.16617937857E+03  0.19617134474E+04  0.46999998093E+01 0.  1.
       -5    1    3    3    0  502  0.84210271685E+03 -0.17639571957E+04 -0.82704776754E+03  0.21224306994E+04  0.46999998093E+01 0. -1.
</event>
<event>
 5   0  0.1776653E-07  0.3940679E+04  0.7818609E-02  0.8016621E-01
       -2   -1    0    0    0  501  0.00000000000E+00  0.00000000000E+00  0.24736385509E+04  0.24736385509E+04  0.25500000920E-02 0.  1.
        2   -1    0    0  501    0  0.00000000000E+00  0.00000000000E+00 -0.15694444879E+04  0.15694444879E+04  0.25500000920E-02 0. -1.
    10030    2    1    2    0    0  0.00000000000E+00  0.00000000000E+00  0.90419406298E+03  0.40430830388E+04  0.39406793266E+04 0.  0.
        4    1    3    3  502    0  0.17255989347E+03 -0.37065984587E+03 -0.15254423127E+04  0.15792851232E+04  0.12699999809E+01 0. -1.
       -4    1    3    3    0  502 -0.17255989347E+03  0.37065984587E+03  0.24296363756E+04  0.24637979156E+04  0.12699999809E+01 0.  1.
</event>
<event>
 5   0  0.1776653E-07  0.3988491E+04  0.7818609E-02  0.8006872E-01
        2   -1    0    0  501    0  0.00000000000E+00  0.00000000000E+00  0.24096385145E+04  0.24096385146E+04  0.25500000920E-02 0. -1.
       -2   -1    0    0    0  501  0.00000000000E+00  0.00000000000E+00 -0.16504613970E+04  0.16504613970E+04  0.25500000920E-02 0.  1.
    10030    2    1    2    0    0  0.00000000000E+00  0.00000000000E+00  0.75917711758E+03  0.40600999115E+04  0.39884911177E+04 0.  0.
        4    1    3    3  502    0  0.72384734668E+03  0.15393463446E+04 -0.67999901105E+03  0.18319231474E+04  0.12699999809E+01 0.  1.
       -4    1    3    3    0  502 -0.72384734668E+03 -0.15393463446E+04  0.14391761286E+04  0.22281767641E+04  0.12699999809E+01 0. -1.
</event>
<event>
 5   0  0.5515000E-08  0.3996779E+04  0.7818609E-02  0.8005197E-01
        1   -1    0    0  501    0  0.00000000000E+00  0.00000000000E+00  0.11949517147E+04  0.11949517147E+04  0.50400001928E-02 0.  1.
       -1   -1    0    0    0  501  0.00000000000E+00  0.00000000000E+00 -0.33420266623E+04  0.33420266623E+04  0.50400001928E-02 0. -1.
    10030    2    1    2    0    0  0.00000000000E+00  0.00000000000E+00 -0.21470749476E+04  0.45369783770E+04  0.39967789484E+04 0.  0.
        1    1    3    3  502    0 -0.10223032322E+04  0.15349275628E+04 -0.19472808308E+04  0.26819785897E+04  0.50400001928E-02 0. -1.
       -1    1    3    3    0  502  0.10223032322E+04 -0.15349275628E+04 -0.19979411681E+03  0.18549997873E+04  0.50400001928E-02 0.  1.
</event>
<event>
 5   0  0.1785559E-07  0.3937649E+04  0.7818609E-02  0.8017244E-01
        2   -1    0    0  501    0  0.00000000000E+00  0.00000000000E+00  0.21062650463E+04  0.21062650463E+04  0.25500000920E-02 0.  1.
       -2   -1    0    0    0  501  0.00000000000E+00  0.00000000000E+00 -0.18403521166E+04  0.18403521166E+04  0.25500000920E-02 0. -1.
    10030    2    1    2    0    0  0.00000000000E+00  0.00000000000E+00  0.26591292965E+03  0.39466171629E+04  0.39376487076E+04 0.  0.
        2    1    3    3  502    0 -0.17032641056E+04 -0.44026454911E+03 -0.75298429716E+03  0.19136161680E+04  0.25500000920E-02 0.  1.
       -2    1    3    3    0  502  0.17032641056E+04  0.44026454911E+03  0.10188972268E+04  0.20330009949E+04  0.25500000920E-02 0. -1.
</event>
<event>
 5   0  0.5515000E-08  0.4038110E+04  0.7818609E-02  0.7996902E-01
       -3   -1    0    0    0  501  0.00000000000E+00  0.00000000000E+00  0.16480068575E+04  0.16480068606E+04  0.10100000352E+00 0. -1.
        3   -1    0    0  501    0  0.00000000000E+00  0.00000000000E+00 -0.24736448964E+04  0.24736448985E+04  0.10100000352E+00 0.  1.
    10030    2    1    2    0    0  0.00000000000E+00  0.00000000000E+00 -0.82563803892E+03  0.41216517591E+04  0.40381103318E+04 0.  0.
        1    1    3    3  502    0  0.18120177513E+04  0.64307827818E+03 -0.10417036074E+04  0.21868023250E+04  0.50400001928E-02 0.  1.
       -1    1    3    3    0  502 -0.18120177513E+04 -0.64307827818E+03  0.21606556851E+03  0.19348494341E+04  0.50400001928E-02 0. -1.
</event>
<event>
 5   0  0.5515000E-08  0.3967784E+04  0.7818609E-02  0.8011077E-01
        1   -1    0    0  501    0  0.00000000000E+00  0.00000000000E+00  0.16356467859E+04  0.16356467859E+04  0.50400001928E-02 0. -1.
       -1   -1    0    0    0  501  0.00000000000E+00  0.00000000000E+00 -0.24062816836E+04  0.24062816837E+04  0.50400001928E-02 0.  1.
    10030    2    1    2    0    0  0.00000000000E+00  0.00000000000E+00 -0.77063489779E+03  0.40419284695E+04  0.39677837147E+04 0.  0.
        1    1    3    3  502    0 -0.12694735275E+04 -0.42736069373E+02  0.11671147789E+04  0.17249771929E+04  0.50400001928E-02 0. -1.
       -1    1    3    3    0  502  0.12694735275E+04  0.42736069373E+02 -0.19377496767E+04  0.23169512766E+04  0.50400001928E-02 0.  1.
</event>
<event>
 5   0  0.5515000E-08  0.4079143E+04  0.7818609E-02  0.7988768E-01
       -1   -1    0    0    0  501  0.00000000000E+00  0.00000000000E+00  0.16441431946E+04  0.16441431946E+04  0.50400001928E-02 0. -1.
        1   -1    0    0  501    0  0.00000000000E+00  0.00000000000E+00 -0.25301032376E+04  0.25301032376E+04  0.50400001928E-02 0.  1.
    10030    2    1    2    0    0  0.00000000000E+00  0.00000000000E+00 -0.88596004295E+03  0.41742464322E+04  0.40791430569E+04 0.  0.
        5    1    3    3  502    0  0.53722025006E+02 -0.15389639018E+04 -0.18115208117E+04  0.23775882083E+04  0.46999998093E+01 0.  1.
       -5    1    3    3    0  502 -0.53722025006E+02  0.15389639018E+04  0.92556076873E+03  0.17966582239E+04  0.46999998093E+01 0. -1.
</event>
<event>
 5   0  0.1819906E-07  0.3981556E+04  0.7818609E-02  0.8008278E-01
       -2   -1    0    0    0  501  0.00000000000E+00  0.00000000000E+00  0.21763447311E+04  0.21763447311E+04  0.25500000920E-02 0.  1.
        2   -1    0    0  501    0  0.00000000000E+00  0.00000000000E+00 -0.18210334670E+04  0.18210334670E+04  0.25500000920E-02 0. -1.
    10030    2    1    2    0    0  0.00000000000E+00  0.00000000000E+00  0.35531126412E+03  0.39973781981E+04  0.39815557718E+04 0.  0.
        1    1    3    3  502    0  0.24839755341E+03 -0.15389093619E+04  0.14208223623E+04  0.21091893121E+04  0.50400001928E-02 0.  1.
       -1    1    3    3    0  502 -0.24839755341E+03  0.15389093619E+04 -0.10655110982E+04  0.18881888860E+04  0.50400001928E-02 0. -1.
</event>
<event>
 5   0  0.1773903E-07  0.4128859E+04  0.7818609E-02  0.7979044E-01
       -2   -1    0    0    0  501  0.00000000000E+00  0.00000000000E+00  0.17031630527E+04  0.17031630527E+04  0.25500000920E-02 0. -1.
        2   -1    0    0  501    0  0.00000000000E+00  0.00000000000E+00 -0.25023262927E+04  0.25023262927E+04  0.25500000920E-02 0.  1.
    10030    2    1    2    0    0  0.00000000000E+00  0.00000000000E+00 -0.79916324004E+03  0.42054893455E+04  0.41288592554E+04 0.  0.
        3    1    3    3  502    0 -0.20501983426E+04 -0.19462217146E+03 -0.25311202313E+03  0.20749112607E+04  0.10100000352E+00 0. -1.
       -3    1    3    3    0  502  0.20501983426E+04  0.19462217146E+03 -0.54605121691E+03  0.21305780847E+04  0.10100000352E+00 0.  1.
</event>
<event>
 5   0  0.1821433E-07  0.4029443E+04  0.7818609E-02  0.7998633E-01
        2   -1    0    0  501    0  0.00000000000E+00  0.00000000000E+00  0.21879794432E+04  0.21879794432E+04  0.25500000920E-02 0.  1.
       -2   -1    0    0    0  501  0.00000000000E+00  0.00000000000E+00 -0.18551831686E+04  0.18551831686E+04  0.25500000920E-02 0. -1.
    10030    2    1    2    0    0  0.00000000000E+00  0.00000000000E+00  0.33279627460E+03  0.40431626118E+04  0.40294429571E+04 0.  0.
        5    1    3    3  502    0  0.19509550402E+04 -0.24868658614E+03  0.60493307848E+03  0.20576775030E+04  0.46999998093E+01 0.  1.
       -5    1    3    3    0  502 -0.19509550402E+04  0.24868658614E+03 -0.27213680388E+03  0.19854851087E+04  0.46999998093E+01 0. -1.
</event>
<event>
 5   0  0.5515000E-08  0.4024746E+04  0.7818609E-02  0.7999573E-01
       -3   -1    0    0    0  501  0.00000000000E+00  0.00000000000E+00  0.16186412582E+04  0.16186412614E+04  0.10100000352E+00 0. -1.
        3   -1    0    0  501    0  0.00000000000E+00  0.00000000000E+00 -0.25018798337E+04  0.25018798358E+04  0.10100000352E+00 0.  1.
    10030    2    1    2    0    0  0.00000000000E+00  0.00000000000E+00 -0.88323857549E+03  0.41205210972E+04  0.40247464182E+04 0.  0.
        1    1    3    3  502    0 -0.58691663854E+03  0.19563111642E+03 -0.24021034839E+04  0.24804926571E+04  0.50400001928E-02 0.  1.
       -1    1    3    3    0  502  0.58691663854E+03 -0.19563111642E+03  0.15188649084E+04  0.16400284401E+04  0.50400001928E-02 0. -1.
</event>
<event>
 5   0  0.1773903E-07  0.4000860E+04  0.7818609E-02  0.8004373E-01
       -2   -1    0    0    0  501  0.00000000000E+00  0.00000000000E+00  0.24534087792E+04  0.24534087792E+04  0.25500000920E-02 0.  1.
        2   -1    0    0  501    0  0.00000000000E+00  0.00000000000E+00 -0.16310857383E+04  0.16310857383E+04  0.25500000920E-02 0. -1.
    10030    2    1    2    0    0  0.00000000000E+00  0.00000000000E+00  0.82232304081E+03  0.40844945175E+04  0.40008599426E+04 0.  0.
        3    1    3    3  502    0 -0.81468658711E+03  0.36938440958E+03 -0.14155327155E+04  0.16744825936E+04  0.10100000352E+00 0. -1.
       -3    1    3    3    0  502  0.81468658711E+03 -0.36938440958E+03  0.22378557563E+04  0.24100119239E+04  0.10100000352E+00 0.  1.
</event>
<event>
 5   0  0.1776653E-07  0.3999783E+04  0.7818609E-02  0.8004590E-01
       -2   -1    0    0    0  501  0.00000000000E+00  0.00000000000E+00  0.28702354676E+04  0.28702354677E+04  0.25500000920E-02 0. -1.
        2   -1    0    0  501    0  0.00000000000E+00  0.00000000000E+00 -0.13934625788E+04  0.13934625788E+04  0.25500000920E-02 0.  1.
    10030    2    1    2    0    0  0.00000000000E+00  0.00000000000E+00  0.14767728888E+04  0.42636980465E+04  0.39997828524E+04 0.  0.
        4    1    3    3  502    0  0.49366936776E+03  0.54115524348E+03 -0.12453164505E+04  0.14447744174E+04  0.12699999809E+01 0.  1.
       -4    1    3    3    0  502 -0.49366936776E+03 -0.54115524348E+03  0.27220893394E+04  0.28189236291E+04  0.12699999809E+01 0. -1.
</event>
<event>
 5   0  0.1821433E-07  0.4091728E+04  0.7818609E-02  0.7986293E-01
       -2   -1    0    0    0  501  0.00000000000E+00  0.00000000000E+00  0.27910915884E+04  0.27910915884E+04  0.25500000920E-02 0. -1.
        2   -1    0    0  501    0  0.00000000000E+00  0.00000000000E+00 -0.14996138785E+04  0.14996138785E+04  0.25500000920E-02 0.  1.
    10030    2    1    2    0    0  0.00000000000E+00  0.00000000000E+00  0.12914777099E+04  0.42907054669E+04  0.40917280858E+04 0.  0.
        5    1    3    3  502    0  0.14579563344E+04  0.36544075172E+03  0.21011643737E+04  0.25834274581E+04  0.46999998093E+01 0. -1.
       -5    1    3    3    0  502 -0.14579563344E+04 -0.36544075172E+03 -0.80968666377E+03  0.17072780088E+04  0.46999998093E+01 0.  1.
</event>
<event>
 5   0  0.5515000E-08  0.3999780E+04  0.7818609E-02  0.8004591E-01
       -1   -1    0    0    0  501  0.00000000000E+00  0.00000000000E+00  0.23690614741E+04  0.23690614741E+04  0.50400001928E-02 0. -1.
        1   -1    0    0  501    0  0.00000000000E+00  0.00000000000E+00 -0.16882463736E+04  0.16882463736E+04  0.50400001928E-02 0.  1.
    10030    2    1    2    0    0  0.00000000000E+00  0.00000000000E+00  0.68081510048E+03  0.40573078477E+04  0.39997797152E+04 0.  0.
        5    1    3    3  502    0  0.14250975345E+04 -0.12207633082E+04  0.10419992659E+04  0.21463808138E+04  0.46999998093E+01 0. -1.
       -5    1    3    3    0  502 -0.14250975345E+04  0.12207633082E+04 -0.36118416540E+03  0.19109270339E+04  0.46999998093E+01 0.  1.
</event>
<event>
 5   0  0.1773903E-07  0.3960821E+04  0.7818609E-02  0.8012497E-01
        2   -1    0    0  501    0  0.00000000000E+00  0.00000000000E+00  0.18332467198E+04  0.18332467198E+04  0.25500000920E-02 0.  1.
       -2   -1    0    0    0  501  0.00000000000E+00  0.00000000000E+00 -0.21393880504E+04  0.21393880504E+04  0.25500000920E-02 0. -1.
    10030    2    1    2    0    0  0.00000000000E+00  0.00000000000E+00 -0.30614133060E+03  0.39726347702E+04  0.39608211905E+04 0.  0.
        3    1    3    3  502    0  0.18381922062E+04  0.30261387676E+03  0.52087123472E+03  0.19343817096E+04  0.10100000352E+00 0.  1.
       -3    1    3    3    0  502 -0.18381922062E+04 -0.30261387676E+03 -0.82701256532E+03  0.20382530605E+04  0.10100000352E+00 0. -1.
</event>
<event>
 5   0  0.1819906E-07  0.3989121E+04  0.7818609E-02  0.8006745E-01
        2   -1    0    0  501    0  0.00000000000E+00  0.00000000000E+00  0.20406531649E+04  0.20406531649E+04  0.25500000920E-02 0. -1.
       -2   -1    0    0    0  501  0.00000000000E+00  0.00000000000E+00 -0.19495087479E+04  0.19495087479E+04  0.25500000920E-02 0.  1.
    10030    2    1    2    0    0  0.00000000000E+00  0.00000000000E+00  0.91144417010E+02  0.39901619128E+04  0.39891208036E+04 0.  0.
        1    1    3    3  502    0  0.75674408770E+03  0.20645434251E+03 -0.17887510476E+04  0.19531808211E+04  0.50400001928E-02 0.  1.
       -1    1    3    3    0  502 -0.75674408770E+03 -0.20645434251E+03  0.18798954646E+04  0.20369810916E+04  0.50400001928E-02 0. -1.
</event>
<event>
 5   0  0.1776653E-07  0.3998765E+04  0.7818609E-02  0.8004796E-01
       -2   -1    0    0    0  501  0.00000000000E+00  0.00000000000E+00  0.17113255371E+04  0.17113255371E+04  0.25500000920E-02 0. -1.
        2   -1    0    0  501    0  0.00000000000E+00  0.00000000000E+00 -0.23359259603E+04  0.23359259603E+04  0.25500000920E-02 0.  1.
    10030    2    1    2    0    0  0.00000000000E+00  0.00000000000E+00 -0.62460042322E+03  0.40472514975E+04  0.39987646836E+04 0.  0.
        4    1    3    3  502    0 -0.13775995749E+04 -0.14437240461E+04 -0.18666439184E+03  0.20042367421E+04  0.12699999809E+01 0. -1.
       -4    1    3    3    0  502  0.13775995749E+04  0.14437240461E+04 -0.43793603138E+03  0.20430147554E+04  0.12699999809E+01 0.  1.
</event>
<event>
 5   0  0.1819906E-07  0.4039492E+04  0.7818609E-02  0.7996627E-01
       -2   -1    0    0    0  501  0.00000000000E+00  0.00000000000E+00  0.16152513974E+04  0.16152513974E+04  0.25500000920E-02 0.  1.
        2   -1    0    0  501    0  0.00000000000E+00  0.00000000000E+00 -0.25255346437E+04  0.25255346437E+04  0.25500000920E-02 0. -1.
    10030    2    1    2    0    0  0.00000000000E+00  0.00000000000E+00 -0.91028324626E+03  0.41407860411E+04  0.40394917316E+04 0.  0.
        1    1    3    3  502    0  0.15950517409E+04 -0.11321454699E+04 -0.97118359782E+03  0.21838363038E+04  0.50400001928E-02 0. -1.
       -1    1    3    3    0  502 -0.15950517409E+04  0.11321454699E+04  0.60900351561E+02  0.19569497372E+04  0.50400001928E-02 0.  1.
</event>
<event>
 5   0  0.1773903E-07  0.3958442E+04  0.7818609E-02  0.8012983E-01
       -2   -1    0    0    0  501  0.00000000000E+00  0.00000000000E+00  0.16279147742E+04  0.16279147742E+04  0.25500000920E-02 0. -1.
        2   -1    0    0  501    0  0.00000000000E+00  0.00000000000E+00 -0.24063399449E+04  0.24063399449E+04  0.25500000920E-02 0.  1.
    10030    2    1    2    0    0  0.00000000000E+00  0.00000000000E+00 -0.77842517069E+03  0.40342547191E+04  0.39584422936E+04 0.  0.
        3    1    3    3  502    0 -0.98937863693E+03  0.70880275743E+03 -0.19798882686E+04  0.23240544319E+04  0.10100000352E+00 0. -1.
       -3    1    3    3    0  502  0.98937863693E+03 -0.70880275743E+03  0.12014630980E+04  0.17102002871E+04  0.10100000352E+00 0.  1.
</event>
<event>
 5   0  0.1785559E-07  0.4000639E+04  0.7818609E-02  0.8004418E-01
       -2   -1    0    0    0  501  0.00000000000E+00  0.00000000000E+00  0.31190474215E+04  0.31190474215E+04  0.25500000920E-02 0. -1.
        2   -1    0    0  501    0  0.00000000000E+00  0.00000000000E+00 -0.12828525645E+04  0.12828525645E+04  0.25500000920E-02 0.  1.
    10030    2    1    2    0    0  0.00000000000E+00  0.00000000000E+00  0.18361948570E+04  0.44018999860E+04  0.40006389407E+04 0.  0.
        2    1    3    3  502    0 -0.74859184888E+03  0.17611768455E+04  0.27732605168E+03  0.19336606156E+04  0.25500000920E-02 0.  1.
       -2    1    3    3    0  502  0.74859184888E+03 -0.17611768455E+04  0.15588688053E+04  0.24682393704E+04  0.25500000920E-02 0. -1.
</event>
<event>
 5   0  0.1819906E-07  0.4012673E+04  0.7818609E-02  0.8001995E-01
       -2   -1    0    0    0  501  0.00000000000E+00  0.00000000000E+00  0.15435567702E+04  0.15435567702E+04  0.25500000920E-02 0. -1.
        2   -1    0    0  501    0  0.00000000000E+00  0.00000000000E+00 -0.26078639302E+04  0.26078639302E+04  0.25500000920E-02 0.  1.
    10030    2    1    2    0    0  0.00000000000E+00  0.00000000000E+00 -0.10643071600E+04  0.41514207004E+04  0.40126729372E+04 0.  0.
        1    1    3    3  502    0 -0.71859344543E+03  0.78005290598E+03 -0.22941354527E+04  0.25274327985E+04  0.50400001928E-02 0.  1.
       -1    1    3    3    0  502  0.71859344543E+03 -0.78005290598E+03  0.12298282927E+04  0.16239879019E+04  0.50400001928E-02 0. -1.
</event>
<event>
 5   0  0.1785559E-07  0.3546444E+04  0.7818609E-02  0.8102871E-01
        2   -1    0    0  501    0  0.00000000000E+00  0.00000000000E+00  0.20948100299E+04  0.20948100299E+04  0.25500000920E-02 0. -1.
       -2   -1    0    0    0  501  0.00000000000E+00  0.00000000000E+00 -0.15010028142E+04  0.15010028142E+04  0.25500000920E-02 0.  1.
    10030    2    1    2    0    0  0.00000000000E+00  0.00000000000E+00  0.59380721563E+03  0.35958128441E+04  0.35464437117E+04 0.  0.
        2    1    3    3  502    0 -0.29283673971E+02  0.16044673989E+04 -0.46801380636E+03  0.16715890914E+04  0.25500000920E-02 0. -1.
       -2    1    3    3    0  502  0.29283673971E+02 -0.16044673989E+04  0.10618210220E+04  0.19242237527E+04  0.25500000920E-02 0.  1.
</event>
<event>
 5   0  0.5515000E-08  0.4100998E+04  0.7818609E-02  0.7984476E-01
       -1   -1    0    0    0  501  0.00000000000E+00  0.00000000000E+00  0.22769039310E+04  0.22769039311E+04  0.50400001928E-02 0. -1.
        1   -1    0    0  501    0  0.00000000000E+00  0.00000000000E+00 -0.18466065194E+04  0.18466065194E+04  0.50400001928E-02 0.  1.
    10030    2    1    2    0    0  0.00000000000E+00  0.00000000000E+00  0.43029741165E+03  0.41235104505E+04  0.41009977533E+04 0.  0.
        1    1    3    3  502    0 -0.82499931303E+03 -0.18722318404E+04  0.35253594109E+03  0.20760918863E+04  0.50400001928E-02 0.  1.
       -1    1    3    3    0  502  0.82499931303E+03  0.18722318404E+04  0.77761470558E+02  0.20474185642E+04  0.50400001928E-02 0. -1.
</event>
<event>
 5   0  0.5515000E-08  0.4007980E+04  0.7818609E-02  0.8002939E-01
        1   -1    0    0  501    0  0.00000000000E+00  0.00000000000E+00  0.24726301608E+04  0.24726301608E+04  0.50400001928E-02 0. -1.
       -1   -1    0    0    0  501  0.00000000000E+00  0.00000000000E+00 -0.16241713102E+04  0.16241713102E+04  0.50400001928E-02 0.  1.
    10030    2    1    2    0    0  0.00000000000E+00  0.00000000000E+00  0.84845885067E+03  0.40968014710E+04  0.40079795248E+04 0.  0.
        2    1    3    3  502    0 -0.16566509970E+04 -0.85822170080E+02  0.15734755818E+04  0.22864127749E+04  0.25500000920E-02 0. -1.
       -2    1    3    3    0  502  0.16566509970E+04  0.85822170080E+02 -0.72501673109E+03  0.18103886961E+04  0.25500000920E-02 0.  1.
</event>
<event>
 5   0  0.5515000E-08  0.3982356E+04  0.7818609E-02  0.8008115E-01
       -1   -1    0    0    0  501  0.00000000000E+00  0.00000000000E+00  0.31296601228E+04  0.31296601228E+04  0.50400001928E-02 0. -1.
        1   -1    0    0  501    0  0.00000000000E+00  0.00000000000E+00 -0.12668437971E+04  0.12668437971E+04  0.50400001928E-02 0.  1.
    10030    2    1    2    0    0  0.00000000000E+00  0.00000000000E+00  0.18628163257E+04  0.43965039199E+04  0.39823563445E+04 0.  0.
        4    1    3    3  502    0 -0.85835565420E+03 -0.13916509207E+04 -0.32313224054E+03  0.16666981646E+04  0.12699999809E+01 0.  1.
       -4    1    3    3    0  502  0.85835565420E+03  0.13916509207E+04  0.21859485663E+04  0.27298057553E+04  0.12699999809E+01 0. -1.
</event>
<event>
 5   0  0.1773903E-07  0.3961706E+04  0.7818609E-02  0.8012317E-01
       -2   -1    0    0    0  501  0.00000000000E+00  0.00000000000E+00  0.12281486477E+04  0.12281486477E+04  0.25500000920E-02 0. -1.
        2   -1    0    0  501    0  0.00000000000E+00  0.00000000000E+00 -0.31948721188E+04  0.31948721188E+04  0.25500000920E-02 0.  1.
    10030    2    1    2    0    0  0.00000000000E+00  0.00000000000E+00 -0.19667234711E+04  0.44230207665E+04  0.39617056288E+04 0.  0.
        3    1    3    3  502    0 -0.17070142614E+04 -0.70815803291E+02 -0.21025179218E+04  0.27091500860E+04  0.10100000352E+00 0.  1.
       -3    1    3    3    0  502  0.17070142614E+04  0.70815803291E+02  0.13579445073E+03  0.17138706805E+04  0.10100000352E+00 0. -1.
</event>
<event>
 5   0  0.1773903E-07  0.3469842E+04  0.7818609E-02  0.8120974E-01
        2   -1    0    0  501    0  0.00000000000E+00  0.00000000000E+00  0.10315905626E+04  0.10315905626E+04  0.25500000920E-02 0. -1.
       -2   -1    0    0    0  501  0.00000000000E+00  0.00000000000E+00 -0.29177774757E+04  0.29177774757E+04  0.25500000920E-02 0.  1.
    10030    2    1    2    0    0  0.00000000000E+00  0.00000000000E+00 -0.18861869131E+04  0.39493680383E+04  0.34698424793E+04 0.  0.
        3    1    3    3  502    0  0.64878246245E+02  0.51562609354E+02 -0.29155233404E+04  0.29167009185E+04  0.10100000352E+00 0.  1.
       -3    1    3    3    0  502 -0.64878246245E+02 -0.51562609354E+02  0.10293364273E+04  0.10326671198E+04  0.10100000352E+00 0. -1.
</event>
<event>
 5   0  0.5515000E-08  0.4006877E+04  0.7818609E-02  0.8003161E-01
       -1   -1    0    0    0  501  0.00000000000E+00  0.00000000000E+00  0.18619668146E+04  0.18619668146E+04  0.50400001928E-02 0.  1.
        1   -1    0    0  501    0  0.00000000000E+00  0.00000000000E+00 -0.21556588910E+04  0.21556588910E+04  0.50400001928E-02 0. -1.
    10030    2    1    2    0    0  0.00000000000E+00  0.00000000000E+00 -0.29369207636E+03  0.40176257056E+04  0.40068767481E+04 0.  0.
        3    1    3    3  502    0  0.16868465120E+04 -0.95690382845E+03  0.35714459867E+03  0.19719706810E+04  0.10100000352E+00 0.  1.
       -3    1    3    3    0  502 -0.16868465120E+04  0.95690382845E+03 -0.65083667503E+03  0.20456550246E+04  0.10100000352E+00 0. -1.
</event>
<event>
 5   0  0.5515000E-08  0.4016095E+04  0.7818609E-02  0.8001308E-01
       -1   -1    0    0    0  501  0.00000000000E+00  0.00000000000E+00  0.28048507861E+04  0.28048507861E+04  0.50400001928E-02 0.  1.
        1   -1    0    0  501    0  0.00000000000E+00  0.00000000000E+00 -0.14376002796E+04  0.14376002796E+04  0.50400001928E-02 0. -1.
    10030    2    1    2    0    0  0.00000000000E+00  0.00000000000E+00  0.13672505065E+04  0.42424510657E+04  0.40160947570E+04 0.  0.
        4    1    3    3  502    0  0.13096710738E+04  0.21504508725E+03  0.22754654227E+04  0.26342412976E+04  0.12699999809E+01 0.  1.
       -4    1    3    3    0  502 -0.13096710738E+04 -0.21504508725E+03 -0.90821491625E+03  0.16082097681E+04  0.12699999809E+01 0. -1.
</event>
<event>
 5   0  0.1776653E-07  0.3974612E+04  0.7818609E-02  0.8009688E-01
       -2   -1    0    0    0  501  0.00000000000E+00  0.00000000000E+00  0.21544554193E+04  0.21544554193E+04  0.25500000920E-02 0.  1.
        2   -1    0    0  501    0  0.00000000000E+00  0.00000000000E+00 -0.18331242143E+04  0.18331242143E+04  0.25500000920E-02 0. -1.
    10030    2    1    2    0    0  0.00000000000E+00  0.00000000000E+00  0.32133120506E+03  0.39875796336E+04  0.39746116277E+04 0.  0.
        4    1    3    3  502    0 -0.15093127386E+04 -0.58326675789E+03  0.13181880712E+04  0.20870664718E+04  0.12699999809E+01 0.  1.
       -4    1    3    3    0  502  0.15093127386E+04  0.58326675789E+03 -0.99685686616E+03  0.19005131618E+04  0.12699999809E+01 0. -1.
</event>
<event>
 5   0  0.1776653E-07  0.3959890E+04  0.7818609E-02  0.8012687E-01
        2   -1    0    0  501    0  0.00000000000E+00  0.00000000000E+00  0.24647417243E+04  0.24647417243E+04  0.25500000920E-02 0. -1.
       -2   -1    0    0    0  501  0.00000000000E+00  0.00000000000E+00 -0.15905039311E+04  0.15905039311E+04  0.25500000920E-02 0.  1.
    10030    2    1    2    0    0  0.00000000000E+00  0.00000000000E+00  0.87423779319E+03  0.40552456554E+04  0.39598895952E+04 0.  0.
        4    1    3    3  502    0 -0.47783855803E+03  0.18357798934E+04  0.10180192733E+04  0.21528544675E+04  0.12699999809E+01 0. -1.
       -4    1    3    3    0  502  0.47783855803E+03 -0.18357798934E+04 -0.14378148007E+03  0.19023911878E+04  0.12699999809E+01 0.  1.
</event>
<event>
 5   0  0.1773903E-07  0.3894280E+04  0.7818609E-02  0.8026220E-01
       -2   -1    0    0    0  501  0.00000000000E+00  0.00000000000E+00  0.16316860977E+04  0.16316860977E+04  0.25500000920E-02 0.  1.
        2   -1    0    0  501    0  0.00000000000E+00  0.00000000000E+00 -0.23235805509E+04  0.23235805509E+04  0.25500000920E-02 0. -1.
    10030    2    1    2    0    0  0.00000000000E+00  0.00000000000E+00 -0.69189445321E+03  0.39552666486E+04  0.38942799497E+04 0.  0.
        3    1    3    3  502    0 -0.81228387221E+03 -0.14746021710E+04 -0.13395817474E+04  0.21514497252E+04  0.10100000352E+00 0. -1.
       -3    1    3    3    0  502  0.81228387221E+03  0.14746021710E+04  0.64768729420E+03  0.18038169234E+04  0.10100000352E+00 0.  1.
</event>
<event>
 5   0  0.5515000E-08  0.3976157E+04  0.7818609E-02  0.8009374E-01
       -1   -1    0    0    0  501  0.00000000000E+00  0.00000000000E+00  0.16681658162E+04  0.16681658162E+04  0.50400001928E-02 0. -1.
        1   -1    0    0  501    0  0.00000000000E+00  0.00000000000E+00 -0.23693427788E+04  0.23693427788E+04  0.50400001928E-02 0.  1.
    10030    2    1    2    0    0  0.00000000000E+00  0.00000000000E+00 -0.70117696258E+03  0.40375085950E+04  0.39761572557E+04 0.  0.
        1    1    3    3  502    0 -0.40544186986E+03 -0.34264431967E+03 -0.22960492776E+04  0.23566142078E+04  0.50400001928E-02 0.  1.
       -1    1    3    3    0  502  0.40544186986E+03  0.34264431967E+03  0.15948723150E+04  0.16808943871E+04  0.50400001928E-02 0. -1.
</event>
<event>
 5   0  0.1776653E-07  0.3941603E+04  0.7818609E-02  0.8016432E-01
       -2   -1    0    0    0  501  0.00000000000E+00  0.00000000000E+00  0.25563021638E+04  0.25563021638E+04  0.25500000920E-02 0. -1.
        2   -1    0    0  501    0  0.00000000000E+00  0.00000000000E+00 -0.15194053058E+04  0.15194053058E+04  0.25500000920E-02 0.  1.
    10030    2    1    2    0    0  0.00000000000E+00  0.00000000000E+00  0.10368968581E+04  0.40757074696E+04  0.39416032631E+04 0.  0.
        4    1    3    3  502    0 -0.88714947609E+03  0.15936873113E+04  0.12902922331E+04  0.22342177823E+04  0.12699999809E+01 0. -1.
       -4    1    3    3    0  502  0.88714947609E+03 -0.15936873113E+04 -0.25339537502E+03  0.18414896872E+04  0.12699999809E+01 0.  1.
</event>
<event>
 5   0  0.5515000E-08  0.4006599E+04  0.7818609E-02  0.8003217E-01
        1   -1    0    0  501    0  0.00000000000E+00  0.00000000000E+00  0.20334825319E+04  0.20334825319E+04  0.50400001928E-02 0. -1.
       -1   -1    0    0    0  501  0.00000000000E+00  0.00000000000E+00 -0.19735640440E+04  0.19735640440E+04  0.50400001928E-02 0.  1.
    10030    2    1    2    0    0  0.00000000000E+00  0.00000000000E+00  0.59918487873E+02  0.40070465759E+04  0.40065985619E+04 0.  0.
        4    1    3    3  502    0  0.16965080939E+04 -0.54848956398E+03 -0.88350255428E+03  0.19898640383E+04  0.12699999809E+01 0.  1.
       -4    1    3    3    0  502 -0.16965080939E+04  0.54848956398E+03  0.94342104216E+03  0.20171825376E+04  0.12699999809E+01 0. -1.
</event>
<event>
 5   0  0.1819906E-07  0.4001913E+04  0.7818609E-02  0.8004161E-01
       -2   -1    0    0    0  501  0.00000000000E+00  0.00000000000E+00  0.19133716225E+04  0.19133716225E+04  0.25500000920E-02 0. -1.
        2   -1    0    0  501    0  0.00000000000E+00  0.00000000000E+00 -0.20925502506E+04  0.20925502506E+04  0.25500000920E-02 0.  1.
    10030    2    1    2    0    0  0.00000000000E+00  0.00000000000E+00 -0.17917862808E+03  0.40059218732E+04  0.40019126768E+04 0.  0.
        1    1    3    3  502    0  0.11054073127E+04 -0.15651334655E+04  0.48740655751E+03  0.19771528125E+04  0.50400001928E-02 0. -1.
       -1    1    3    3    0  502 -0.11054073127E+04  0.15651334655E+04 -0.66658518559E+03  0.20287690606E+04  0.50400001928E-02 0.  1.
</event>
<event>
 5   0  0.1821433E-07  0.3975133E+04  0.7818609E-02  0.8009582E-01
        2   -1    0    0  501    0  0.00000000000E+00  0.00000000000E+00  0.16664652429E+04  0.16664652429E+04  0.25500000920E-02 0. -1.
       -2   -1    0    0    0  501  0.00000000000E+00  0.00000000000E+00 -0.23705388119E+04  0.23705388119E+04  0.25500000920E-02 0.  1.
    10030    2    1    2    0    0  0.00000000000E+00  0.00000000000E+00 -0.70407356896E+03  0.40370040548E+04  0.39751329724E+04 0.  0.
        5    1    3    3  502    0 -0.15741976643E+04 -0.67548169284E+02 -0.15823953753E+04  0.22330826799E+04  0.46999998093E+01 0.  1.
       -5    1    3    3    0  502  0.15741976643E+04  0.67548169284E+02  0.87832180629E+03  0.18039213749E+04  0.46999998093E+01 0. -1.
</event>
<event>
 5   0  0.5515000E-08  0.3789784E+04  0.7818609E-02  0.8048351E-01
        1   -1    0    0  501    0  0.00000000000E+00  0.00000000000E+00  0.31053221871E+04  0.31053221871E+04  0.50400001928E-02 0. -1.
       -1   -1    0    0    0  501  0.00000000000E+00  0.00000000000E+00 -0.11562780198E+04  0.11562780199E+04  0.50400001928E-02 0.  1.
    10030    2    1    2    0    0  0.00000000000E+00  0.00000000000E+00  0.19490441672E+04  0.42616002069E+04  0.37897840516E+04 0.  0.
        1    1    3    3  502    0 -0.18603030694E+04  0.35919745568E+03  0.10076034592E+04  0.21459298808E+04  0.50400001928E-02 0. -1.
       -1    1    3    3    0  502  0.18603030694E+04 -0.35919745568E+03  0.94144070797E+03  0.21156703261E+04  0.50400001928E-02 0.  1.
</event>
<event>
 5   0  0.5515000E-08  0.3992338E+04  0.7818609E-02  0.8006094E-01
        1   -1    0    0  501    0  0.00000000000E+00  0.00000000000E+00  0.12855598415E+04  0.12855598415E+04  0.50400001928E-02 0.  1.
       -1   -1    0    0    0  501  0.00000000000E+00  0.00000000000E+00 -0.30995769086E+04  0.30995769086E+04  0.50400001928E-02 0. -1.
    10030    2    1    2    0    0  0.00000000000E+00  0.00000000000E+00 -0.18140170671E+04  0.43851367501E+04  0.39923384623E+04 0.  0.
        1    1    3    3  502    0  0.11307195696E+04  0.16265970255E+04 -0.63718270053E+03  0.20809484430E+04  0.50400001928E-02 0. -1.
       -1    1    3    3    0  502 -0.11307195696E+04 -0.16265970255E+04 -0.11768343665E+04  0.23041883071E+04  0.50400001928E-02 0.  1.
</event>
<event>
 5   0  0.5515000E-08  0.3968289E+04  0.7818609E-02  0.8010974E-01
        1   -1    0    0  501    0  0.00000000000E+00  0.00000000000E+00  0.10847558638E+04  0.10847558638E+04  0.50400001928E-02 0.  1.
       -1   -1    0    0    0  501  0.00000000000E+00  0.00000000000E+00 -0.36292314211E+04  0.36292314211E+04  0.50400001928E-02 0. -1.
    10030    2    1    2    0    0  0.00000000000E+00  0.00000000000E+00 -0.25444755573E+04  0.47139872850E+04  0.39682893369E+04 0.  0.
        4    1    3    3  502    0 -0.17707749908E+04  0.65317326187E+03 -0.54522935862E+03  0.19645752835E+04  0.12699999809E+01 0.  1.
       -4    1    3    3    0  502  0.17707749908E+04 -0.65317326187E+03 -0.19992461987E+04  0.27494120015E+04  0.12699999809E+01 0. -1.
</event>
<event>
 5   0  0.1776653E-07  0.3994576E+04  0.7818609E-02  0.8005642E-01
        2   -1    0    0  501    0  0.00000000000E+00  0.00000000000E+00  0.20902129989E+04  0.20902129989E+04  0.25500000920E-02 0.  1.
       -2   -1    0    0    0  501  0.00000000000E+00  0.00000000000E+00 -0.19084939361E+04  0.19084939361E+04  0.25500000920E-02 0. -1.
    10030    2    1    2    0    0  0.00000000000E+00  0.00000000000E+00  0.18171906277E+03  0.39987069350E+04  0.39945757390E+04 0.  0.
        4    1    3    3  502    0 -0.19134061509E+04 -0.27185214469E+03  0.59549449864E+03  0.20222863293E+04  0.12699999809E+01 0.  1.
       -4    1    3    3    0  502  0.19134061509E+04  0.27185214469E+03 -0.41377543587E+03  0.19764206058E+04  0.12699999809E+01 0. -1.
</event>
<event>
 5   0  0.5515000E-08  0.3982597E+04  0.7818609E-02  0.8008067E-01
       -1   -1    0    0    0  501  0.00000000000E+00  0.00000000000E+00  0.26889112552E+04  0.26889112552E+04  0.50400001928E-02 0. -1.
        1   -1    0    0  501    0  0.00000000000E+00  0.00000000000E+00 -0.14746747120E+04  0.14746747120E+04  0.50400001928E-02 0.  1.
    10030    2    1    2    0    0  0.00000000000E+00  0.00000000000E+00  0.12142365432E+04  0.41635859673E+04  0.39825968568E+04 0.  0.
        1    1    3    3  502    0  0.15769400745E+04 -0.10066415619E+03  0.18739613110E+04  0.24512454520E+04  0.50400001928E-02 0. -1.
       -1    1    3    3    0  502 -0.15769400745E+04  0.10066415619E+03 -0.65972476778E+03  0.17123405153E+04  0.50400001928E-02 0.  1.
</event>
<event>
 5   0  0.1819906E-07  0.4037604E+04  0.7818609E-02  0.7997003E-01
        2   -1    0    0  501    0  0.00000000000E+00  0.00000000000E+00  0.19647714856E+04  0.19647714856E+04  0.25500000920E-02 0.  1.
       -2   -1    0    0    0  501  0.00000000000E+00  0.00000000000E+00 -0.20743187121E+04  0.20743187121E+04  0.25500000920E-02 0. -1.
    10030    2    1    2    0    0  0.00000000000E+00  0.00000000000E+00 -0.10954722656E+03  0.40390901977E+04  0.40376043678E+04 0.  0.
        1    1    3    3  502    0 -0.71463646783E+01 -0.20162751878E+04 -0.15553582062E+03  0.20222779471E+04  0.50400001928E-02 0.  1.
       -1    1    3    3    0  502  0.71463646783E+01  0.20162751878E+04  0.45988594059E+02  0.20168122507E+04  0.50400001928E-02 0. -1.
</event>
<event>
 5   0  0.1773903E-07  0.4018251E+04  0.7818609E-02  0.8000875E-01
       -2   -1    0    0    0  501  0.00000000000E+00  0.00000000000E+00  0.14213936370E+04  0.14213936370E+04  0.25500000920E-02 0.  1.
        2   -1    0    0  501    0  0.00000000000E+00  0.00000000000E+00 -0.28398780503E+04  0.28398780503E+04  0.25500000920E-02 0. -1.
    10030    2    1    2    0    0  0.00000000000E+00  0.00000000000E+00 -0.14184844133E+04  0.42612716874E+04  0.40182506595E+04 0.  0.
        3    1    3    3  502    0 -0.79377618319E+03 -0.94317564644E+03  0.97318863397E+03  0.15705913079E+04  0.10100000352E+00 0.  1.
       -3    1    3    3    0  502  0.79377618319E+03  0.94317564644E+03 -0.23916730473E+04  0.26906803794E+04  0.10100000352E+00 0. -1.
</event>
<event>
 5   0  0.5515000E-08  0.4222168E+04  0.7818609E-02  0.7961169E-01
        1   -1    0    0  501    0  0.00000000000E+00  0.00000000000E+00  0.28952497686E+04  0.28952497686E+04  0.50400001928E-02 0. -1.
       -1   -1    0    0    0  501  0.00000000000E+00  0.00000000000E+00 -0.15393057908E+04  0.15393057908E+04  0.50400001928E-02 0.  1.
    10030    2    1    2    0    0  0.00000000000E+00  0.00000000000E+00  0.13559439778E+04  0.44345555594E+04  0.42221675640E+04 0.  0.
        1    1    3    3  502    0  0.81702330028E+03  0.15682895523E+03 -0.13598737482E+04  0.15941703188E+04  0.50400001928E-02 0.  1.
       -1    1    3    3    0  502 -0.81702330028E+03 -0.15682895523E+03  0.27158177259E+04  0.28403852406E+04  0.50400001928E-02 0. -1.
</event>
<event>
 5   0  0.1821433E-07  0.3978411E+04  0.7818609E-02  0.8008916E-01
        2   -1    0    0  501    0  0.00000000000E+00  0.00000000000E+00  0.20657712505E+04  0.20657712505E+04  0.25500000920E-02 0.  1.
       -2   -1    0    0    0  501  0.00000000000E+00  0.00000000000E+00 -0.19154780449E+04  0.19154780449E+04  0.25500000920E-02 0. -1.
    10030    2    1    2    0    0  0.00000000000E+00  0.00000000000E+00  0.15029320560E+03  0.39812492953E+04  0.39784114800E+04 0.  0.
        5    1    3    3  502    0  0.48583134140E+03 -0.50480017140E+03  0.19382108941E+04  0.20609558135E+04  0.46999998093E+01 0.  1.
       -5    1    3    3    0  502 -0.48583134140E+03  0.50480017140E+03 -0.17879176885E+04  0.19202934818E+04  0.46999998093E+01 0. -1.
</event>
<event>
 5   0  0.5515000E-08  0.3977336E+04  0.7818609E-02  0.8009134E-01
       -1   -1    0    0    0  501  0.00000000000E+00  0.00000000000E+00  0.15818927629E+04  0.15818927629E+04  0.50400001928E-02 0.  1.
        1   -1    0    0  501    0  0.00000000000E+00  0.00000000000E+00 -0.25000437695E+04  0.25000437695E+04  0.50400001928E-02 0. -1.
    10030    2    1    2    0    0  0.00000000000E+00  0.00000000000E+00 -0.91815100659E+03  0.40819365324E+04  0.39773363680E+04 0.  0.
        3    1    3    3  502    0  0.19592778814E+03  0.49655669026E+03  0.15069890848E+04  0.15987408660E+04  0.10100000352E+00 0.  1.
       -3    1    3    3    0  502 -0.19592778814E+03 -0.49655669026E+03 -0.24251400914E+04  0.24831956664E+04  0.10100000352E+00 0. -1.
</event>
<event>
 5   0  0.5515000E-08  0.3918341E+04  0.7818609E-02  0.8021225E-01
        3   -1    0    0  501    0  0.00000000000E+00  0.00000000000E+00  0.13283477668E+04  0.13283477706E+04  0.10100000352E+00 0. -1.
       -3   -1    0    0    0  501  0.00000000000E+00  0.00000000000E+00 -0.28895657583E+04  0.28895657600E+04  0.10100000352E+00 0.  1.
    10030    2    1    2    0    0  0.00000000000E+00  0.00000000000E+00 -0.15612179915E+04  0.42179135306E+04  0.39183405843E+04 0.  0.
        5    1    3    3  502    0 -0.10140102572E+03 -0.10264533405E+04  0.10124020457E+04  0.14452918806E+04  0.46999998093E+01 0. -1.
       -5    1    3    3    0  502  0.10140102572E+03  0.10264533405E+04 -0.25736200372E+04  0.27726216500E+04  0.46999998093E+01 0.  1.
</event>
<event>
 5   0  0.5515000E-08  0.4000996E+04  0.7818609E-02  0.8004346E-01
       -1   -1    0    0    0  501  0.00000000000E+00  0.00000000000E+00  0.13910273352E+04  0.13910273352E+04  0.50400001928E-02 0.  1.
        1   -1    0    0  501    0  0.00000000000E+00  0.00000000000E+00 -0.28770049338E+04  0.28770049338E+04  0.50400001928E-02 0. -1.
    10030    2    1    2    0    0  0.00000000000E+00  0.00000000000E+00 -0.14859775986E+04  0.42680322690E+04  0.40009961292E+04 0.  0.
        3    1    3    3  502    0 -0.19908855514E+04  0.17928197913E+03 -0.82715463735E+03  0.21633196969E+04  0.10100000352E+00 0.  1.
       -3    1    3    3    0  502  0.19908855514E+04 -0.17928197913E+03 -0.65882296122E+03  0.21047125721E+04  0.10100000352E+00 0. -1.
</event>
<event>
 5   0  0.1776653E-07  0.4000022E+04  0.7818609E-02  0.8004542E-01
        2   -1    0    0  501    0  0.00000000000E+00  0.00000000000E+00  0.32908182640E+04  0.32908182640E+04  0.25500000920E-02 0.  1.
       -2   -1    0    0    0  501  0.00000000000E+00  0.00000000000E+00 -0.12155167320E+04  0.12155167320E+04  0.25500000920E-02 0. -1.
    10030    2    1    2    0    0  0.00000000000E+00  0.00000000000E+00  0.20753015321E+04  0.45063349960E+04  0.40000223308E+04 0.  0.
        4    1    3    3  502    0 -0.22005793619E+03  0.97753340987E+03 -0.91235230455E+03  0.13551329836E+04  0.12699999809E+01 0. -1.
       -4    1    3    3    0  502  0.22005793619E+03 -0.97753340987E+03  0.29876538366E+04  0.31512020124E+04  0.12699999809E+01 0.  1.
</event>
<event>
 5   0  0.5515000E-08  0.3980362E+04  0.7818609E-02  0.8008520E-01
        1   -1    0    0  501    0  0.00000000000E+00  0.00000000000E+00  0.20009066568E+04  0.20009066568E+04  0.50400001928E-02 0.  1.
       -1   -1    0    0    0  501  0.00000000000E+00  0.00000000000E+00 -0.19795124935E+04  0.19795124935E+04  0.50400001928E-02 0. -1.
    10030    2    1    2    0    0  0.00000000000E+00  0.00000000000E+00  0.21394163245E+02  0.39804191503E+04  0.39803616547E+04 0.  0.
        2    1    3    3  502    0  0.50046081662E+03 -0.15568184784E+04 -0.11236362440E+04  0.19841127016E+04  0.25500000920E-02 0. -1.
       -2    1    3    3    0  502 -0.50046081662E+03  0.15568184784E+04  0.11450304073E+04  0.19963064487E+04  0.25500000920E-02 0.  1.
</event>
<event>
 5   0  0.1819906E-07  0.4006092E+04  0.7818609E-02  0.8003319E-01
       -2   -1    0    0    0  501  0.00000000000E+00  0.00000000000E+00  0.18218379578E+04  0.18218379578E+04  0.25500000920E-02 0. -1.
        2   -1    0    0  501    0  0.00000000000E+00  0.00000000000E+00 -0.22022773378E+04  0.22022773378E+04  0.25500000920E-02 0.  1.
    10030    2    1    2    0    0  0.00000000000E+00  0.00000000000E+00 -0.38043938003E+03  0.40241152956E+04  0.40060915854E+04 0.  0.
        1    1    3    3  502    0  0.17876342928E+04 -0.82476382367E+03 -0.56109717886E+03  0.20471203614E+04  0.50400001928E-02 0. -1.
       -1    1    3    3    0  502 -0.17876342928E+04  0.82476382367E+03  0.18065779883E+03  0.19769949342E+04  0.50400001928E-02 0.  1.
</event>
<event>
 5   0  0.1776653E-07  0.4051903E+04  0.7818609E-02  0.7994157E-01
        2   -1    0    0  501    0  0.00000000000E+00  0.00000000000E+00  0.30256392556E+04  0.30256392556E+04  0.25500000920E-02 0.  1.
       -2   -1    0    0    0  501  0.00000000000E+00  0.00000000000E+00 -0.13565657512E+04  0.13565657512E+04  0.25500000920E-02 0. -1.
    10030    2    1    2    0    0  0.00000000000E+00  0.00000000000E+00  0.16690735043E+04  0.43822050068E+04  0.40519025603E+04 0.  0.
        4    1    3    3  502    0  0.36531517257E+02 -0.67063251624E+02  0.30240816085E+04  0.30250459863E+04  0.12699999809E+01 0.  1.
       -4    1    3    3    0  502 -0.36531517257E+02  0.67063251624E+02 -0.13550081042E+04  0.13571590204E+04  0.12699999809E+01 0. -1.
</event>
<event>
 5   0  0.1776653E-07  0.3991288E+04  0.7818609E-02  0.8006306E-01
        2   -1    0    0  501    0  0.00000000000E+00  0.00000000000E+00  0.23331305376E+04  0.23331305376E+04  0.25500000920E-02 0.  1.
       -2   -1    0    0    0  501  0.00000000000E+00  0.00000000000E+00 -0.17069747657E+04  0.17069747657E+04  0.25500000920E-02 0. -1.
    10030    2    1    2    0    0  0.00000000000E+00  0.00000000000E+00  0.62615577188E+03  0.40401053033E+04  0.39912879890E+04 0.  0.
        4    1    3    3  502    0  0.19533870096E+04  0.80518933262E+01 -0.10033847863E+03  0.19559793111E+04  0.12699999809E+01 0. -1.
       -4    1    3    3    0  502 -0.19533870096E+04 -0.80518933262E+01  0.72649425051E+03  0.20841259922E+04  0.12699999809E+01 0.  1.
</event>
<event>
 5   0  0.1785559E-07  0.3867301E+04  0.7818609E-02  0.8031865E-01
        2   -1    0    0  501    0  0.00000000000E+00  0.00000000000E+00  0.26576876338E+04  0.26576876338E+04  0.25500000920E-02 0.  1.
       -2   -1    0    0    0  501  0.00000000000E+00  0.00000000000E+00 -0.14068637758E+04  0.14068637758E+04  0.25500000920E-02 0. -1.
    10030    2    1    2    0    0  0.00000000000E+00  0.00000000000E+00  0.12508238580E+04  0.40645514096E+04  0.38673011051E+04 0.  0.
        2    1    3    3  502    0 -0.17302242611E+04  0.21306006676E+03 -0.25388010718E+03  0.17616826316E+04  0.25500000920E-02 0. -1.
       -2    1    3    3    0  502  0.17302242611E+04 -0.21306006676E+03  0.15047039652E+04  0.23028687780E+04  0.25500000920E-02 0.  1.
</event>
<event>
 5   0  0.1773903E-07  0.3437216E+04  0.7818609E-02  0.8128832E-01
        2   -1    0    0  501    0  0.00000000000E+00  0.00000000000E+00  0.16195572310E+04  0.16195572310E+04  0.25500000920E-02 0. -1.
       -2   -1    0    0    0  501  0.00000000000E+00  0.00000000000E+00 -0.18237169632E+04  0.18237169632E+04  0.25500000920E-02 0.  1.
    10030    2    1    2    0    0  0.00000000000E+00  0.00000000000E+00 -0.20415973219E+03  0.34432741942E+04  0.34372163127E+04 0.  0.
        3    1    3    3  502    0  0.38485583233E+03 -0.92096025748E+03  0.12994327494E+04  0.16385381558E+04  0.10100000352E+00 0. -1.
       -3    1    3    3    0  502 -0.38485583233E+03  0.92096025748E+03 -0.15035924816E+04  0.18047360384E+04  0.10100000352E+00 0.  1.
</event>
<event>
 5   0  0.5515000E-08  0.4025962E+04  0.7818609E-02  0.7999330E-01
       -1   -1    0    0    0  501  0.00000000000E+00  0.00000000000E+00  0.18061632673E+04  0.18061632673E+04  0.50400001928E-02 0.  1.
        1   -1    0    0  501    0  0.00000000000E+00  0.00000000000E+00 -0.22434811272E+04  0.22434811272E+04  0.50400001928E-02 0. -1.
    10030    2    1    2    0    0  0.00000000000E+00  0.00000000000E+00 -0.43731785999E+03  0.40496443945E+04  0.40259623460E+04 0.  0.
        3    1    3    3  502    0 -0.13047199278E+04 -0.45845944687E+03  0.12526873632E+04  0.18659326876E+04  0.10100000352E+00 0.  1.
       -3    1    3    3    0  502  0.13047199278E+04  0.45845944687E+03 -0.16900052232E+04  0.21837117069E+04  0.10100000352E+00 0. -1.
</event>
<event>
 5   0  0.5515000E-08  0.3954563E+04  0.7818609E-02  0.8013776E-01
       -1   -1    0    0    0  501  0.00000000000E+00  0.00000000000E+00  0.24960652497E+04  0.24960652498E+04  0.50400001928E-02 0. -1.
        1   -1    0    0  501    0  0.00000000000E+00  0.00000000000E+00 -0.15663218752E+04  0.15663218752E+04  0.50400001928E-02 0.  1.
    10030    2    1    2    0    0  0.00000000000E+00  0.00000000000E+00  0.92974337459E+03  0.40623871249E+04  0.39545627331E+04 0.  0.
        1    1    3    3  502    0  0.10756293905E+04  0.16589257840E+04  0.43912315289E+03  0.20253005915E+04  0.50400001928E-02 0. -1.
       -1    1    3    3    0  502 -0.10756293905E+04 -0.16589257840E+04  0.49062022170E+03  0.20370865334E+04  0.50400001928E-02 0.  1.
</event>
<event>
 5   0  0.1773903E-07  0.3997597E+04  0.7818609E-02  0.8005032E-01
       -2   -1    0    0    0  501  0.00000000000E+00  0.00000000000E+00  0.17824661486E+04  0.17824661486E+04  0.25500000920E-02 0. -1.
        2   -1    0    0  501    0  0.00000000000E+00  0.00000000000E+00 -0.22413863250E+04  0.22413863250E+04  0.25500000920E-02 0.  1.
    10030    2    1    2    0    0  0.00000000000E+00  0.00000000000E+00 -0.45892017632E+03  0.40238524736E+04  0.39975969033E+04 0.  0.
        3    1    3    3  502    0  0.66448393696E+03 -0.18557518014E+04 -0.56306040454E+03  0.20499733364E+04  0.10100000352E+00 0.  1.
       -3    1    3    3    0  502 -0.66448393696E+03  0.18557518014E+04  0.10414022822E+03  0.19738791372E+04  0.10100000352E+00 0. -1.
</event>
<event>
 5   0  0.1785559E-07  0.3997927E+04  0.7818609E-02  0.8004965E-01
       -2   -1    0    0    0  501  0.00000000000E+00  0.00000000000E+00  0.13736399922E+04  0.13736399922E+04  0.25500000920E-02 0. -1.
        2   -1    0    0  501    0  0.00000000000E+00  0.00000000000E+00 -0.29089538445E+04  0.29089538445E+04  0.25500000920E-02 0.  1.
    10030    2    1    2    0    0  0.00000000000E+00  0.00000000000E+00 -0.15353138522E+04  0.42825938367E+04  0.39979271311E+04 0.  0.
        2    1    3    3  502    0 -0.13118963562E+04 -0.29257221510E+03  0.81728452677E+03  0.15730939413E+04  0.25500000920E-02 0. -1.
       -2    1    3    3    0  502  0.13118963562E+04  0.29257221510E+03 -0.23525983790E+04  0.27094998954E+04  0.25500000920E-02 0.  1.
</event>
<event>
 5   0  0.5515000E-08  0.4060217E+04  0.7818609E-02  0.7992508E-01
        1   -1    0    0  501    0  0.00000000000E+00  0.00000000000E+00  0.12670360737E+04  0.12670360737E+04  0.50400001928E-02 0. -1.
       -1   -1    0    0    0  501  0.00000000000E+00  0.00000000000E+00 -0.32527409836E+04  0.32527409836E+04  0.50400001928E-02 0.  1.
    10030    2    1    2    0    0  0.00000000000E+00  0.00000000000E+00 -0.19857049099E+04  0.45197770573E+04  0.40602168240E+04 0.  0.
        1    1    3    3  502    0  0.25298305561E+03  0.12140048428E+04  0.79641271406E+03  0.14737982887E+04  0.50400001928E-02 0. -1.
       -1    1    3    3    0  502 -0.25298305561E+03 -0.12140048428E+04 -0.27821176240E+04  0.30459787685E+04  0.50400001928E-02 0.  1.
</event>
<event>
 5   0  0.1819906E-07  0.4014043E+04  0.7818609E-02  0.8001720E-01
       -2   -1    0    0    0  501  0.00000000000E+00  0.00000000000E+00  0.17518303008E+04  0.17518303009E+04  0.25500000920E-02 0. -1.
        2   -1    0    0  501    0  0.00000000000E+00  0.00000000000E+00 -0.22993872193E+04  0.22993872193E+04  0.25500000920E-02 0.  1.
    10030    2    1    2    0    0  0.00000000000E+00  0.00000000000E+00 -0.54755691840E+03  0.40512175201E+04  0.40140434497E+04 0.  0.
        1    1    3    3  502    0  0.90836928711E+03  0.17839148979E+04 -0.41880712038E+03  0.20452106319E+04  0.50400001928E-02 0.  1.
       -1    1    3    3    0  502 -0.90836928711E+03 -0.17839148979E+04 -0.12874979803E+03  0.20060068882E+04  0.50400001928E-02 0. -1.
</event>
<event>
 5   0  0.5515000E-08  0.3966501E+04  0.7818609E-02  0.8011339E-01
        1   -1    0    0  501    0  0.00000000000E+00  0.00000000000E+00  0.21227710972E+04  0.21227710972E+04  0.50400001928E-02 0.  1.
       -1   -1    0    0    0  501  0.00000000000E+00  0.00000000000E+00 -0.18529000702E+04  0.18529000702E+04  0.50400001928E-02 0. -1.
    10030    2    1    2    0    0  0.00000000000E+00  0.00000000000E+00  0.26987102705E+03  0.39756711674E+04  0.39665010853E+04 0.  0.
        2    1    3    3  502    0  0.17094699686E+04  0.83441464725E+02 -0.86939532814E+03  0.19196609826E+04  0.25500000920E-02 0. -1.
       -2    1    3    3    0  502 -0.17094699686E+04 -0.83441464725E+02  0.11392663552E+04  0.20560101847E+04  0.25500000920E-02 0.  1.
</event>
<event>
 5   0  0.1821433E-07  0.4049683E+04  0.7818609E-02  0.7994598E-01
        2   -1    0    0  501    0  0.00000000000E+00  0.00000000000E+00  0.19838824237E+04  0.19838824237E+04  0.25500000920E-02 0. -1.
       -2   -1    0    0    0  501  0.00000000000E+00  0.00000000000E+00 -0.20666459950E+04  0.20666459950E+04  0.25500000920E-02 0.  1.
    10030    2    1    2    0    0  0.00000000000E+00  0.00000000000E+00 -0.82763571309E+02  0.40505284187E+04  0.40496827854E+04 0.  0.
        5    1    3    3  502    0 -0.88711253458E+03 -0.16568572822E+04 -0.79507471672E+03  0.20406642541E+04  0.46999998093E+01 0. -1.
       -5    1    3    3    0  502  0.88711253458E+03  0.16568572822E+04  0.71231114541E+03  0.20098641647E+04  0.46999998093E+01 0.  1.
</event>
<event>
 5   0  0.5515000E-08  0.3983176E+04  0.7818609E-02  0.8007949E-01
        1   -1    0    0  501    0  0.00000000000E+00  0.00000000000E+00  0.27801280040E+04  0.27801280040E+04  0.50400001928E-02 0. -1.
       -1   -1    0    0    0  501  0.00000000000E+00  0.00000000000E+00 -0.14267052101E+04  0.14267052101E+04  0.50400001928E-02 0.  1.
    10030    2    1    2    0    0  0.00000000000E+00  0.00000000000E+00  0.13534227938E+04  0.42068332141E+04  0.39831761739E+04 0.  0.
        2    1    3    3  502    0 -0.52914834469E+03  0.32755279059E+03 -0.13213773618E+04  0.14605912958E+04  0.25500000920E-02 0.  1.
       -2    1    3    3    0  502  0.52914834469E+03 -0.32755279059E+03  0.26748001556E+04  0.27462419183E+04  0.25500000920E-02 0. -1.
</event>
<event>
 5   0  0.5515000E-08  0.3998051E+04  0.7818609E-02  0.8004940E-01
       -1   -1    0    0    0  501  0.00000000000E+00  0.00000000000E+00  0.31693040430E+04  0.31693040430E+04  0.50400001928E-02 0. -1.
        1   -1    0    0  501    0  0.00000000000E+00  0.00000000000E+00 -0.12608772268E+04  0.12608772268E+04  0.50400001928E-02 0.  1.
    10030    2    1    2    0    0  0.00000000000E+00  0.00000000000E+00  0.19084268161E+04  0.44301812698E+04  0.39980511716E+04 0.  0.
        3    1    3    3  502    0  0.15971346576E+04 -0.32946918850E+03  0.22353411409E+04  0.27669729104E+04  0.10100000352E+00 0.  1.
       -3    1    3    3    0  502 -0.15971346576E+04  0.32946918850E+03 -0.32691432471E+03  0.16632083594E+04  0.10100000352E+00 0. -1.
</event>
<event>
 5   0  0.1819906E-07  0.3995980E+04  0.7818609E-02  0.8005358E-01
        2   -1    0    0  501    0  0.00000000000E+00  0.00000000000E+00  0.28890311562E+04  0.28890311562E+04  0.25500000920E-02 0.  1.
       -2   -1    0    0    0  501  0.00000000000E+00  0.00000000000E+00 -0.13817653945E+04  0.13817653945E+04  0.25500000920E-02 0. -1.
    10030    2    1    2    0    0  0.00000000000E+00  0.00000000000E+00  0.15072657618E+04  0.42707965507E+04  0.39959796172E+04 0.  0.
        1    1    3    3  502    0 -0.22355020769E+03  0.17661063523E+04  0.17231328177E+04  0.24775578803E+04  0.50400001928E-02 0.  1.
       -1    1    3    3    0  502  0.22355020769E+03 -0.17661063523E+04 -0.21586705592E+03  0.17932386704E+04  0.50400001928E-02 0. -1.
</event>
<event>
 5   0  0.5515000E-08  0.4131596E+04  0.7818609E-02  0.7978513E-01
       -1   -1    0    0    0  501  0.00000000000E+00  0.00000000000E+00  0.15947008297E+04  0.15947008297E+04  0.50400001928E-02 0. -1.
        1   -1    0    0  501    0  0.00000000000E+00  0.00000000000E+00 -0.26760642760E+04  0.26760642760E+04  0.50400001928E-02 0.  1.
    10030    2    1    2    0    0  0.00000000000E+00  0.00000000000E+00 -0.10813634463E+04  0.42707651057E+04  0.41315962636E+04 0.  0.
        5    1    3    3  502    0  0.74782476229E+03 -0.12827993088E+04 -0.20252635774E+04  0.25112806672E+04  0.46999998093E+01 0.  1.
       -5    1    3    3    0  502 -0.74782476229E+03  0.12827993088E+04  0.94390013115E+03  0.17594844385E+04  0.46999998093E+01 0. -1.
</event>
<event>
 5   0  0.1785559E-07  0.4006079E+04  0.7818609E-02  0.8003321E-01
       -2   -1    0    0    0  501  0.00000000000E+00  0.00000000000E+00  0.26576821638E+04  0.26576821638E+04  0.25500000920E-02 0.  1.
        2   -1    0    0  501    0  0.00000000000E+00  0.00000000000E+00 -0.15096491260E+04  0.15096491260E+04  0.25500000920E-02 0. -1.
    10030    2    1    2    0    0  0.00000000000E+00  0.00000000000E+00  0.11480330378E+04  0.41673312898E+04  0.40060791584E+04 0.  0.
        2    1    3    3  502    0  0.94879151218E+03  0.83933419388E+02  0.24070209979E+04  0.25886290265E+04  0.25500000920E-02 0.  1.
       -2    1    3    3    0  502 -0.94879151218E+03 -0.83933419388E+02 -0.12589879601E+04  0.15787022633E+04  0.25500000920E-02 0. -1.
</event>
<event>
 5   0  0.5515000E-08  0.3969888E+04  0.7818609E-02  0.8010649E-01
        1   -1    0    0  501    0  0.00000000000E+00  0.00000000000E+00  0.29749183022E+04  0.29749183022E+04  0.50400001928E-02 0. -1.
       -1   -1    0    0    0  501  0.00000000000E+00  0.00000000000E+00 -0.13244072991E+04  0.13244072991E+04  0.50400001928E-02 0.  1.
    10030    2    1    2    0    0  0.00000000000E+00  0.00000000000E+00  0.16505110031E+04  0.42993256013E+04  0.39698884185E+04 0.  0.
        4    1    3    3  502    0 -0.23532175472E+03 -0.12604833761E+04 -0.81567333219E+03  0.15197102578E+04  0.12699999809E+01 0.  1.
       -4    1    3    3    0  502  0.23532175472E+03  0.12604833761E+04  0.24661843353E+04  0.27796153436E+04  0.12699999809E+01 0. -1.
</event>
<event>
 5   0  0.5515000E-08  0.3989360E+04  0.7818609E-02  0.8006696E-01
       -1   -1    0    0    0  501  0.00000000000E+00  0.00000000000E+00  0.33676433714E+04  0.33676433714E+04  0.50400001928E-02 0.  1.
        1   -1    0    0  501    0  0.00000000000E+00  0.00000000000E+00 -0.11814634866E+04  0.11814634866E+04  0.50400001928E-02 0. -1.
    10030    2    1    2    0    0  0.00000000000E+00  0.00000000000E+00  0.21861798848E+04  0.45491068580E+04  0.39893596876E+04 0.  0.
        5    1    3    3  502    0 -0.17538988868E+04 -0.17168084554E+03  0.21585874633E+04  0.27866032269E+04  0.46999998093E+01 0.  1.
       -5    1    3    3    0  502  0.17538988868E+04  0.17168084554E+03  0.27592421573E+02  0.17625036311E+04  0.46999998093E+01 0. -1.
</event>
<event>
 5   0  0.1821433E-07  0.4001340E+04  0.7818609E-02  0.8004276E-01
       -2   -1    0    0    0  501  0.00000000000E+00  0.00000000000E+00  0.35166160687E+04  0.35166160687E+04  0.25500000920E-02 0.  1.
        2   -1    0    0  501    0  0.00000000000E+00  0.00000000000E+00 -0.11382194634E+04  0.11382194634E+04  0.25500000920E-02 0. -1.
    10030    2    1    2    0    0  0.00000000000E+00  0.00000000000E+00  0.23783966053E+04  0.46548355321E+04  0.40013402028E+04 0.  0.
        5    1    3    3  502    0 -0.10452922210E+04  0.15261965356E+04  0.30267046445E+03  0.18744447692E+04  0.46999998093E+01 0. -1.
       -5    1    3    3    0  502  0.10452922210E+04 -0.15261965356E+04  0.20757261409E+04  0.27803907629E+04  0.46999998093E+01 0.  1.
</event>
<event>
 5   0  0.5515000E-08  0.3992953E+04  0.7818609E-02  0.8005970E-01
       -3   -1    0    0    0  501  0.00000000000E+00  0.00000000000E+00  0.16248721581E+04  0.16248721612E+04  0.10100000352E+00 0. -1.
        3   -1    0    0  501    0  0.00000000000E+00  0.00000000000E+00 -0.24530654258E+04  0.24530654279E+04  0.10100000352E+00 0.  1.
    10030    2    1    2    0    0  0.00000000000E+00  0.00000000000E+00 -0.82819326773E+03  0.40779375891E+04  0.39929526534E+04 0.  0.
        5    1    3    3  502    0  0.45631694952E+03  0.14897702570E+04  0.86077273535E+03  0.17800540354E+04  0.46999998093E+01 0. -1.
       -5    1    3    3    0  502 -0.45631694952E+03 -0.14897702570E+04 -0.16889660031E+04  0.22978835537E+04  0.46999998093E+01 0.  1.
</event>
<event>
 5   0  0.5515000E-08  0.3974034E+04  0.7818609E-02  0.8009805E-01
        1   -1    0    0  501    0  0.00000000000E+00  0.00000000000E+00  0.35106325668E+04  0.35106325668E+04  0.50400001928E-02 0. -1.
       -1   -1    0    0    0  501  0.00000000000E+00  0.00000000000E+00 -0.11246512437E+04  0.11246512437E+04  0.50400001928E-02 0.  1.
    10030    2    1    2    0    0  0.00000000000E+00  0.00000000000E+00  0.23859813231E+04  0.46352838105E+04  0.39740343644E+04 0.  0.
        2    1    3    3  502    0  0.78782433686E+03  0.95374440202E+03 -0.62071841280E+03  0.13840472962E+04  0.25500000920E-02 0.  1.
       -2    1    3    3    0  502 -0.78782433686E+03 -0.95374440202E+03  0.30066997359E+04  0.32512365143E+04  0.25500000920E-02 0. -1.
</event>
<event>
 5   0  0.1819906E-07  0.3999363E+04  0.7818609E-02  0.8004675E-01
        2   -1    0    0  501    0  0.00000000000E+00  0.00000000000E+00  0.17411765698E+04  0.17411765698E+04  0.25500000920E-02 0.  1.
       -2   -1    0    0    0  501  0.00000000000E+00  0.00000000000E+00 -0.22965652721E+04  0.22965652721E+04  0.25500000920E-02 0. -1.
    10030    2    1    2    0    0  0.00000000000E+00  0.00000000000E+00 -0.55538870229E+03  0.40377418419E+04  0.39993627706E+04 0.  0.
        1    1    3    3  502    0  0.49169471278E+03  0.99212595411E+03 -0.19588004392E+04  0.22501059442E+04  0.50400001928E-02 0. -1.
       -1    1    3    3    0  502 -0.49169471278E+03 -0.99212595411E+03  0.14034117369E+04  0.17876358977E+04  0.50400001928E-02 0.  1.
</event>
<event>
 5   0  0.5515000E-08  0.3963143E+04  0.7818609E-02  0.8012023E-01
       -1   -1    0    0    0  501  0.00000000000E+00  0.00000000000E+00  0.14422040679E+04  0.14422040679E+04  0.50400001928E-02 0.  1.
        1   -1    0    0  501    0  0.00000000000E+00  0.00000000000E+00 -0.27226563371E+04  0.27226563371E+04  0.50400001928E-02 0. -1.
    10030    2    1    2    0    0  0.00000000000E+00  0.00000000000E+00 -0.12804522692E+04  0.41648604051E+04  0.39631432197E+04 0.  0.
        1    1    3    3  502    0  0.13708318091E+04  0.86755269901E+03  0.55558275619E+03  0.17147885390E+04  0.50400001928E-02 0.  1.
       -1    1    3    3    0  502 -0.13708318091E+04 -0.86755269901E+03 -0.18360350254E+04  0.24500718661E+04  0.50400001928E-02 0. -1.
</event>
<event>
 5   0  0.1819906E-07  0.4019910E+04  0.7818609E-02  0.8000542E-01
        2   -1    0    0  501    0  0.00000000000E+00  0.00000000000E+00  0.27586439853E+04  0.27586439853E+04  0.25500000920E-02 0. -1.
       -2   -1    0    0    0  501  0.00000000000E+00  0.00000000000E+00 -0.14644583092E+04  0.14644583092E+04  0.25500000920E-02 0.  1.
    10030    2    1    2    0    0  0.00000000000E+00  0.00000000000E+00  0.12941856761E+04  0.42231022946E+04  0.40199100022E+04 0.  0.
        1    1    3    3  502    0  0.12184490974E+04 -0.77613886248E+03 -0.82100945038E+03  0.16616456465E+04  0.50400001928E-02 0.  1.
       -1    1    3    3    0  502 -0.12184490974E+04  0.77613886248E+03  0.21151951265E+04  0.25614566481E+04  0.50400001928E-02 0. -1.
</event>
<event>
 5   0  0.1819906E-07  0.3999843E+04  0.7818609E-02  0.8004578E-01
        2   -1    0    0  501    0  0.00000000000E+00  0.00000000000E+00  0.13328443634E+04  0.13328443634E+04  0.25500000920E-02 0. -1.
       -2   -1    0    0    0  501  0.00000000000E+00  0.00000000000E+00 -0.30008645439E+04  0.30008645439E+04  0.25500000920E-02 0.  1.
    10030    2    1    2    0    0  0.00000000000E+00  0.00000000000E+00 -0.16680201805E+04  0.43337089073E+04  0.39998426933E+04 0.  0.
        1    1    3    3  502    0 -0.45760690701E+03  0.15670863223E+04 -0.20856507315E+04  0.26486038958E+04  0.50400001928E-02 0.  1.
       -1    1    3    3    0  502  0.45760690701E+03 -0.15670863223E+04  0.41763055107E+03  0.16851050116E+04  0.50400001928E-02 0. -1.
</event>
<event>
 5   0  0.5515000E-08  0.3980362E+04  0.7818609E-02  0.8008520E-01
        1   -1    0    0  501    0  0.00000000000E+00  0.00000000000E+00  0.15297981519E+04  0.15297981519E+04  0.50400001928E-02 0. -1.
       -1   -1    0    0    0  501  0.00000000000E+00  0.00000000000E+00 -0.25891129792E+04  0.25891129792E+04  0.50400001928E-02 0.  1.
    10030    2    1    2    0    0  0.00000000000E+00  0.00000000000E+00 -0.10593148273E+04  0.41189111311E+04  0.39803619186E+04 0.  0.
        4    1    3    3  502    0  0.19881265360E+04 -0.80191231952E+02 -0.48648121748E+03  0.20483513724E+04  0.12699999809E+01 0. -1.
       -4    1    3    3    0  502 -0.19881265360E+04  0.80191231952E+02 -0.57283360982E+03  0.20705597587E+04  0.12699999809E+01 0.  1.
</event>
<event>
 5   0  0.5515000E-08  0.4041967E+04  0.7818609E-02  0.7996134E-01
        1   -1    0    0  501    0  0.00000000000E+00  0.00000000000E+00  0.15859481132E+04  0.15859481132E+04  0.50400001928E-02 0. -1.
       -1   -1    0    0    0  501  0.00000000000E+00  0.00000000000E+00 -0.25753521870E+04  0.25753521870E+04  0.50400001928E-02 0.  1.
    10030    2    1    2    0    0  0.00000000000E+00  0.00000000000E+00 -0.98940407380E+03  0.41613003003E+04  0.40419673141E+04 0.  0.
        5    1    3    3  502    0 -0.34202534038E+03  0.19258721156E+04  0.28624220690E+02  0.19562224247E+04  0.46999998093E+01 0. -1.
       -5    1    3    3    0  502  0.34202534038E+03 -0.19258721156E+04 -0.10180282945E+04  0.22050778756E+04  0.46999998093E+01 0.  1.
</event>
<event>
 5   0  0.1776653E-07  0.3986902E+04  0.7818609E-02  0.8007194E-01
        2   -1    0    0  501    0  0.00000000000E+00  0.00000000000E+00  0.11238363012E+04  0.11238363012E+04  0.25500000920E-02 0.  1.
       -2   -1    0    0    0  501  0.00000000000E+00  0.00000000000E+00 -0.35359666989E+04  0.35359666989E+04  0.25500000920E-02 0. -1.
    10030    2    1    2    0    0  0.00000000000E+00  0.00000000000E+00 -0.24121303977E+04  0.46598030000E+04  0.39869024246E+04 0.  0.
        4    1    3    3  502    0  0.17654374795E+04  0.29567752909E+03 -0.22314313802E+04  0.28606786455E+04  0.12699999809E+01 0. -1.
       -4    1    3    3    0  502 -0.17654374795E+04 -0.29567752909E+03 -0.18069901751E+03  0.17991243545E+04  0.12699999809E+01 0.  1.
</event>
<event>
 5   0  0.5515000E-08  0.3895403E+04  0.7818609E-02  0.8025986E-01
       -1   -1    0    0    0  501  0.00000000000E+00  0.00000000000E+00  0.13611554973E+04  0.13611554973E+04  0.50400001928E-02 0.  1.
        1   -1    0    0  501    0  0.00000000000E+00  0.00000000000E+00 -0.27870001187E+04  0.27870001187E+04  0.50400001928E-02 0. -1.
    10030    2    1    2    0    0  0.00000000000E+00  0.00000000000E+00 -0.14258446214E+04  0.41481556160E+04  0.38954026916E+04 0.  0.
        4    1    3    3  502    0  0.89762863945E+03 -0.17036023059E+04 -0.10243732612E+04  0.21811327750E+04  0.12699999809E+01 0.  1.
       -4    1    3    3    0  502 -0.89762863945E+03  0.17036023059E+04 -0.40147136027E+03  0.19670228410E+04  0.12699999809E+01 0. -1.
</event>
<event>
 5   0  0.5515000E-08  0.4070559E+04  0.7818609E-02  0.7990462E-01
       -1   -1    0    0    0  501  0.00000000000E+00  0.00000000000E+00  0.22940934168E+04  0.22940934168E+04  0.50400001928E-02 0.  1.
        1   -1    0    0  501    0  0.00000000000E+00  0.00000000000E+00 -0.18056641096E+04  0.18056641096E+04  0.50400001928E-02 0. -1.
    10030    2    1    2    0    0  0.00000000000E+00  0.00000000000E+00  0.48842930729E+03  0.40997575264E+04  0.40705587561E+04 0.  0.
        1    1    3    3  502    0 -0.18622541305E+04 -0.41568112343E+03  0.95751862286E+03  0.21348590483E+04  0.50400001928E-02 0.  1.
       -1    1    3    3    0  502  0.18622541305E+04  0.41568112343E+03 -0.46908931558E+03  0.19648984781E+04  0.50400001928E-02 0. -1.
</event>
<event>
 5   0  0.5515000E-08  0.4011362E+04  0.7818609E-02  0.8002258E-01
        3   -1    0    0  501    0  0.00000000000E+00  0.00000000000E+00  0.17294396582E+04  0.17294396612E+04  0.10100000352E+00 0.  1.
       -3   -1    0    0    0  501  0.00000000000E+00  0.00000000000E+00 -0.23260459444E+04  0.23260459466E+04  0.10100000352E+00 0. -1.
    10030    2    1    2    0    0  0.00000000000E+00  0.00000000000E+00 -0.59660628615E+03  0.40554856077E+04  0.40113619201E+04 0.  0.
        3    1    3    3  502    0 -0.77928828803E+03 -0.12676985973E+04 -0.16578650971E+04  0.22277492363E+04  0.10100000352E+00 0. -1.
       -3    1    3    3    0  502  0.77928828803E+03  0.12676985973E+04  0.10612588109E+04  0.18277363714E+04  0.10100000352E+00 0.  1.
</event>
<event>
 5   0  0.1776653E-07  0.4227690E+04  0.7818609E-02  0.7960126E-01
        2   -1    0    0  501    0  0.00000000000E+00  0.00000000000E+00  0.20240549852E+04  0.20240549852E+04  0.25500000920E-02 0. -1.
       -2   -1    0    0    0  501  0.00000000000E+00  0.00000000000E+00 -0.22076182106E+04  0.22076182106E+04  0.25500000920E-02 0.  1.
    10030    2    1    2    0    0  0.00000000000E+00  0.00000000000E+00 -0.18356322539E+03  0.42316731959E+04  0.42276899814E+04 0.  0.
        4    1    3    3  502    0 -0.16621011379E+04 -0.12963740363E+04 -0.25059173326E+03  0.21227255274E+04  0.12699999809E+01 0.  1.
       -4    1    3    3    0  502  0.16621011379E+04  0.12963740363E+04  0.67028507861E+02  0.21089476685E+04  0.12699999809E+01 0. -1.
</event>
<event>
 5   0  0.1785559E-07  0.3956688E+04  0.7818609E-02  0.8013341E-01
        2   -1    0    0  501    0  0.00000000000E+00  0.00000000000E+00  0.20170337801E+04  0.20170337801E+04  0.25500000920E-02 0.  1.
       -2   -1    0    0    0  501  0.00000000000E+00  0.00000000000E+00 -0.19403966338E+04  0.19403966338E+04  0.25500000920E-02 0. -1.
    10030    2    1    2    0    0  0.00000000000E+00  0.00000000000E+00  0.76637146325E+02  0.39574304139E+04  0.39566882906E+04 0.  0.
        2    1    3    3  502    0 -0.21625117544E+03 -0.62549492184E+03  0.19030279552E+04  0.20148260139E+04  0.25500000920E-02 0.  1.
       -2    1    3    3    0  502  0.21625117544E+03  0.62549492184E+03 -0.18263908089E+04  0.19426044000E+04  0.25500000920E-02 0. -1.
</event>
<event>
 5   0  0.5515000E-08  0.4055930E+04  0.7818609E-02  0.7993358E-01
        1   -1    0    0  501    0  0.00000000000E+00  0.00000000000E+00  0.22102370222E+04  0.22102370222E+04  0.50400001928E-02 0. -1.
       -1   -1    0    0    0  501  0.00000000000E+00  0.00000000000E+00 -0.18607246955E+04  0.18607246955E+04  0.50400001928E-02 0.  1.
    10030    2    1    2    0    0  0.00000000000E+00  0.00000000000E+00  0.34951232664E+03  0.40709617177E+04  0.40559302805E+04 0.  0.
        5    1    3    3  502    0  0.19017123636E+04  0.68444358599E+03  0.34164801319E+03  0.20498093549E+04  0.46999998093E+01 0.  1.
       -5    1    3    3    0  502 -0.19017123636E+04 -0.68444358599E+03  0.78643134485E+01  0.20211523628E+04  0.46999998093E+01 0. -1.
</event>
<event>
 5   0  0.5515000E-08  0.3819357E+04  0.7818609E-02  0.8042014E-01
       -1   -1    0    0    0  501  0.00000000000E+00  0.00000000000E+00  0.16635764989E+04  0.16635764989E+04  0.50400001928E-02 0. -1.
        1   -1    0    0  501    0  0.00000000000E+00  0.00000000000E+00 -0.21921879010E+04  0.21921879010E+04  0.50400001928E-02 0.  1.
    10030    2    1    2    0    0  0.00000000000E+00  0.00000000000E+00 -0.52861140215E+03  0.38557643999E+04  0.38193571571E+04 0.  0.
        1    1    3    3  502    0  0.12392978704E+04 -0.11887731540E+04  0.57902029176E+03  0.18122652459E+04  0.50400001928E-02 0. -1.
       -1    1    3    3    0  502 -0.12392978704E+04  0.11887731540E+04 -0.11076316939E+04  0.20434991540E+04  0.50400001928E-02 0.  1.
</event>
<event>
 5   0  0.1773903E-07  0.3953685E+04  0.7818609E-02  0.8013955E-01
        2   -1    0    0  501    0  0.00000000000E+00  0.00000000000E+00  0.12660178623E+04  0.12660178623E+04  0.25500000920E-02 0.  1.
       -2   -1    0    0    0  501  0.00000000000E+00  0.00000000000E+00 -0.30867707475E+04  0.30867707475E+04  0.25500000920E-02 0. -1.
    10030    2    1    2    0    0  0.00000000000E+00  0.00000000000E+00 -0.18207528852E+04  0.43527886098E+04  0.39536853203E+04 0.  0.
        3    1    3    3  502    0  0.82071231852E+03 -0.12554383306E+04  0.50732769009E+03  0.15833747210E+04  0.10100000352E+00 0.  1.
       -3    1    3    3    0  502 -0.82071231852E+03  0.12554383306E+04 -0.23280805753E+04  0.27694138887E+04  0.10100000352E+00 0. -1.
</event>
<event>
 5   0  0.1776653E-07  0.4034822E+04  0.7818609E-02  0.7997558E-01
       -2   -1    0    0    0  501  0.00000000000E+00  0.00000000000E+00  0.13691203026E+04  0.13691203026E+04  0.25500000920E-02 0.  1.
        2   -1    0    0  501    0  0.00000000000E+00  0.00000000000E+00 -0.29726732247E+04  0.29726732247E+04  0.25500000920E-02 0. -1.
    10030    2    1    2    0    0  0.00000000000E+00  0.00000000000E+00 -0.16035529220E+04  0.43417935273E+04  0.40348220605E+04 0.  0.
        4    1    3    3  502    0 -0.14208960482E+04 -0.11281687490E+04 -0.17510694122E+04  0.25214987617E+04  0.12699999809E+01 0. -1.
       -4    1    3    3    0  502  0.14208960482E+04  0.11281687490E+04  0.14751649022E+03  0.18202947656E+04  0.12699999809E+01 0.  1.
</event>
<event>
 5   0  0.1776653E-07  0.3978450E+04  0.7818609E-02  0.8008908E-01
       -2   -1    0    0    0  501  0.00000000000E+00  0.00000000000E+00  0.12934162887E+04  0.12934162887E+04  0.25500000920E-02 0.  1.
        2   -1    0    0  501    0  0.00000000000E+00  0.00000000000E+00 -0.30593519385E+04  0.30593519385E+04  0.25500000920E-02 0. -1.
    10030    2    1    2    0    0  0.00000000000E+00  0.00000000000E+00 -0.17659356498E+04  0.43527682271E+04  0.39784497634E+04 0.  0.
        4    1    3    3  502    0  0.66646367744E+03  0.14475951684E+04  0.41955051394E+03  0.16479471629E+04  0.12699999809E+01 0.  1.
       -4    1    3    3    0  502 -0.66646367744E+03 -0.14475951684E+04 -0.21854861637E+04  0.27048210643E+04  0.12699999809E+01 0. -1.
</event>
<event>
 5   0  0.5515000E-08  0.3975068E+04  0.7818609E-02  0.8009595E-01
       -1   -1    0    0    0  501  0.00000000000E+00  0.00000000000E+00  0.16288989542E+04  0.16288989542E+04  0.50400001928E-02 0.  1.
        1   -1    0    0  501    0  0.00000000000E+00  0.00000000000E+00 -0.24251303126E+04  0.24251303126E+04  0.50400001928E-02 0. -1.
    10030    2    1    2    0    0  0.00000000000E+00  0.00000000000E+00 -0.79623135835E+03  0.40540292668E+04  0.39750684170E+04 0.  0.
        3    1    3    3  502    0 -0.87971979612E+03  0.13121133500E+04 -0.16282018546E+04  0.22686096299E+04  0.10100000352E+00 0. -1.
       -3    1    3    3    0  502  0.87971979612E+03 -0.13121133500E+04  0.83197049628E+03  0.17854196369E+04  0.10100000352E+00 0.  1.
</event>
<event>
 5   0  0.5515000E-08  0.3996591E+04  0.7818609E-02  0.8005235E-01
       -1   -1    0    0    0  501  0.00000000000E+00  0.00000000000E+00  0.27733363853E+04  0.27733363853E+04  0.50400001928E-02 0.  1.
        1   -1    0    0  501    0  0.00000000000E+00  0.00000000000E+00 -0.14398487794E+04  0.14398487794E+04  0.50400001928E-02 0. -1.
    10030    2    1    2    0    0  0.00000000000E+00  0.00000000000E+00  0.13334876060E+04  0.42131851647E+04  0.39965910520E+04 0.  0.
        5    1    3    3  502    0  0.95721093781E+03  0.21742478949E+03  0.25016594497E+04  0.26873497001E+04  0.46999998093E+01 0.  1.
       -5    1    3    3    0  502 -0.95721093781E+03 -0.21742478949E+03 -0.11681718437E+04  0.15258354646E+04  0.46999998093E+01 0. -1.
</event>
<event>
 5   0  0.5515000E-08  0.3946286E+04  0.7818609E-02  0.8015471E-01
        1   -1    0    0  501    0  0.00000000000E+00  0.00000000000E+00  0.17526682265E+04  0.17526682265E+04  0.50400001928E-02 0. -1.
       -1   -1    0    0    0  501  0.00000000000E+00  0.00000000000E+00 -0.22213520330E+04  0.22213520330E+04  0.50400001928E-02 0.  1.
    10030    2    1    2    0    0  0.00000000000E+00  0.00000000000E+00 -0.46868380650E+03  0.39740202595E+04  0.39462859137E+04 0.  0.
        3    1    3    3  502    0  0.87465534263E+03  0.23158735629E+03  0.15314460770E+04  0.17787584909E+04  0.10100000352E+00 0. -1.
       -3    1    3    3    0  502 -0.87465534263E+03 -0.23158735629E+03 -0.20001298835E+04  0.21952617686E+04  0.10100000352E+00 0.  1.
</event>
<event>
 5   0  0.5515000E-08  0.3878350E+04  0.7818609E-02  0.8029547E-01
       -1   -1    0    0    0  501  0.00000000000E+00  0.00000000000E+00  0.12037431872E+04  0.12037431872E+04  0.50400001928E-02 0. -1.
        1   -1    0    0  501    0  0.00000000000E+00  0.00000000000E+00 -0.31239226365E+04  0.31239226365E+04  0.50400001928E-02 0.  1.
    10030    2    1    2    0    0  0.00000000000E+00  0.00000000000E+00 -0.19201794493E+04  0.43276658238E+04  0.38783504696E+04 0.  0.
        2    1    3    3  502    0  0.44196964767E+03 -0.11828008629E+04  0.68216476425E+03  0.14351668252E+04  0.25500000920E-02 0. -1.
       -2    1    3    3    0  502 -0.44196964767E+03  0.11828008629E+04 -0.26023442135E+04  0.28924989985E+04  0.25500000920E-02 0.  1.
</event>
<event>
 5   0  0.1773903E-07  0.3972564E+04  0.7818609E-02  0.8010104E-01
       -2   -1    0    0    0  501  0.00000000000E+00  0.00000000000E+00  0.17213261846E+04  0.17213261846E+04  0.25500000920E-02 0. -1.
        2   -1    0    0  501    0  0.00000000000E+00  0.00000000000E+00 -0.22920213636E+04  0.22920213636E+04  0.25500000920E-02 0.  1.
    10030    2    1    2    0    0  0.00000000000E+00  0.00000000000E+00 -0.57069517907E+03  0.40133475482E+04  0.39725641033E+04 0.  0.
        3    1    3    3  502    0  0.39053006414E+03 -0.89280739895E+02 -0.22507846317E+04  0.22861575296E+04  0.10100000352E+00 0.  1.
       -3    1    3    3    0  502 -0.39053006414E+03  0.89280739895E+02  0.16800894526E+04  0.17271900186E+04  0.10100000352E+00 0. -1.
</event>
<event>
 5   0  0.1773903E-07  0.3970518E+04  0.7818609E-02  0.8010520E-01
       -2   -1    0    0    0  501  0.00000000000E+00  0.00000000000E+00  0.20020886516E+04  0.20020886516E+04  0.25500000920E-02 0. -1.
        2   -1    0    0  501    0  0.00000000000E+00  0.00000000000E+00 -0.19685711300E+04  0.19685711300E+04  0.25500000920E-02 0.  1.
    10030    2    1    2    0    0  0.00000000000E+00  0.00000000000E+00  0.33517521655E+02  0.39706597816E+04  0.39705183134E+04 0.  0.
        3    1    3    3  502    0 -0.66257031673E+03  0.50725133841E+03 -0.17846800534E+04  0.19701234093E+04  0.10100000352E+00 0.  1.
       -3    1    3    3    0  502  0.66257031673E+03 -0.50725133841E+03  0.18181975750E+04  0.20005363723E+04  0.10100000352E+00 0. -1.
</event>
<event>
 5   0  0.5515000E-08  0.4010627E+04  0.7818609E-02  0.8002406E-01
        1   -1    0    0  501    0  0.00000000000E+00  0.00000000000E+00  0.17061427508E+04  0.17061427508E+04  0.50400001928E-02 0. -1.
       -1   -1    0    0    0  501  0.00000000000E+00  0.00000000000E+00 -0.23569433955E+04  0.23569433955E+04  0.50400001928E-02 0.  1.
    10030    2    1    2    0    0  0.00000000000E+00  0.00000000000E+00 -0.65080064469E+03  0.40630861463E+04  0.40106268279E+04 0.  0.
        5    1    3    3  502    0 -0.17036920423E+03 -0.19472412602E+04  0.12821255607E+03  0.19588860969E+04  0.46999998093E+01 0. -1.
       -5    1    3    3    0  502  0.17036920423E+03  0.19472412602E+04 -0.77901320076E+03  0.21042000494E+04  0.46999998093E+01 0.  1.
</event>
<event>
 5   0  0.1785559E-07  0.4100558E+04  0.7818609E-02  0.7984562E-01
       -2   -1    0    0    0  501  0.00000000000E+00  0.00000000000E+00  0.17643731187E+04  0.17643731187E+04  0.25500000920E-02 0.  1.
        2   -1    0    0  501    0  0.00000000000E+00  0.00000000000E+00 -0.23825146290E+04  0.23825146290E+04  0.25500000920E-02 0. -1.
    10030    2    1    2    0    0  0.00000000000E+00  0.00000000000E+00 -0.61814151028E+03  0.41468877477E+04  0.41005583846E+04 0.  0.
        2    1    3    3  502    0  0.72821550351E+03 -0.17211104971E+04 -0.11618810560E+04  0.22005650981E+04  0.25500000920E-02 0. -1.
       -2    1    3    3    0  502 -0.72821550351E+03  0.17211104971E+04  0.54373954568E+03  0.19463226496E+04  0.25500000920E-02 0.  1.
</event>
<event>
 5   0  0.1819906E-07  0.3994100E+04  0.7818609E-02  0.8005738E-01
       -2   -1    0    0    0  501  0.00000000000E+00  0.00000000000E+00  0.22491706581E+04  0.22491706581E+04  0.25500000920E-02 0. -1.
        2   -1    0    0  501    0  0.00000000000E+00  0.00000000000E+00 -0.17731909371E+04  0.17731909371E+04  0.25500000920E-02 0.  1.
    10030    2    1    2    0    0  0.00000000000E+00  0.00000000000E+00  0.47597972109E+03  0.40223615952E+04  0.39941001624E+04 0.  0.
        1    1    3    3  502    0  0.13607737661E+04  0.78673513346E+03 -0.10026161851E+04  0.18643756669E+04  0.50400001928E-02 0.  1.
       -1    1    3    3    0  502 -0.13607737661E+04 -0.78673513346E+03  0.14785959062E+04  0.21579859283E+04  0.50400001928E-02 0. -1.
</event>
<event>
 5   0  0.1776653E-07  0.4006845E+04  0.7818609E-02  0.8003167E-01
        2   -1    0    0  501    0  0.00000000000E+00  0.00000000000E+00  0.24300922840E+04  0.24300922840E+04  0.25500000920E-02 0.  1.
       -2   -1    0    0    0  501  0.00000000000E+00  0.00000000000E+00 -0.16516661455E+04  0.16516661455E+04  0.25500000920E-02 0. -1.
    10030    2    1    2    0    0  0.00000000000E+00  0.00000000000E+00  0.77842613852E+03  0.40817584295E+04  0.40068447217E+04 0.  0.
        4    1    3    3  502    0 -0.11997981170E+04  0.16013475245E+04  0.49041904579E+03  0.20601800575E+04  0.12699999809E+01 0.  1.
       -4    1    3    3    0  502  0.11997981170E+04 -0.16013475245E+04  0.28800709273E+03  0.20215783720E+04  0.12699999809E+01 0. -1.
</event>
<event>
 5   0  0.5515000E-08  0.4003118E+04  0.7818609E-02  0.8003918E-01
       -3   -1    0    0    0  501  0.00000000000E+00  0.00000000000E+00  0.16739674775E+04  0.16739674805E+04  0.10100000352E+00 0.  1.
        3   -1    0    0  501    0  0.00000000000E+00  0.00000000000E+00 -0.23932599217E+04  0.23932599238E+04  0.10100000352E+00 0. -1.
    10030    2    1    2    0    0  0.00000000000E+00  0.00000000000E+00 -0.71929244423E+03  0.40672274043E+04  0.40031184267E+04 0.  0.
        2    1    3    3  502    0 -0.63826066454E+03  0.89498861265E+03  0.13398212267E+04  0.17330615142E+04  0.25500000920E-02 0.  1.
       -2    1    3    3    0  502  0.63826066454E+03 -0.89498861265E+03 -0.20591136709E+04  0.23341658901E+04  0.25500000920E-02 0. -1.
</event>
<event>
 5   0  0.1819906E-07  0.3963012E+04  0.7818609E-02  0.8012050E-01
       -2   -1    0    0    0  501  0.00000000000E+00  0.00000000000E+00  0.11510420608E+04  0.11510420608E+04  0.25500000920E-02 0.  1.
        2   -1    0    0  501    0  0.00000000000E+00  0.00000000000E+00 -0.34111401385E+04  0.34111401385E+04  0.25500000920E-02 0. -1.
    10030    2    1    2    0    0  0.00000000000E+00  0.00000000000E+00 -0.22600980777E+04  0.45621821993E+04  0.39630118722E+04 0.  0.
        1    1    3    3  502    0 -0.78167884475E+02  0.19729743858E+04 -0.93870318109E+03  0.21862986546E+04  0.50400001928E-02 0.  1.
       -1    1    3    3    0  502  0.78167884475E+02 -0.19729743858E+04 -0.13213948966E+04  0.23758835447E+04  0.50400001928E-02 0. -1.
</event>
<event>
 5   0  0.1773903E-07  0.3952218E+04  0.7818609E-02  0.8014256E-01
        2   -1    0    0  501    0  0.00000000000E+00  0.00000000000E+00  0.24611435348E+04  0.24611435348E+04  0.25500000920E-02 0. -1.
       -2   -1    0    0    0  501  0.00000000000E+00  0.00000000000E+00 -0.15866638694E+04  0.15866638694E+04  0.25500000920E-02 0.  1.
    10030    2    1    2    0    0  0.00000000000E+00  0.00000000000E+00  0.87447966542E+03  0.40478074042E+04  0.39522183766E+04 0.  0.
        3    1    3    3  502    0  0.18726596171E+04  0.70194886100E+02 -0.20500423749E+03  0.18851546650E+04  0.10100000352E+00 0.  1.
       -3    1    3    3    0  502 -0.18726596171E+04 -0.70194886100E+02  0.10794839029E+04  0.21626527392E+04  0.10100000352E+00 0. -1.
</event>
<event>
 5   0  0.5515000E-08  0.4177609E+04  0.7818609E-02  0.7969645E-01
       -1   -1    0    0    0  501  0.00000000000E+00  0.00000000000E+00  0.19346715539E+04  0.19346715539E+04  0.50400001928E-02 0. -1.
        1   -1    0    0  501    0  0.00000000000E+00  0.00000000000E+00 -0.22552172641E+04  0.22552172641E+04  0.50400001928E-02 0.  1.
    10030    2    1    2    0    0  0.00000000000E+00  0.00000000000E+00 -0.32054571020E+03  0.41898888181E+04  0.41776092153E+04 0.  0.
        4    1    3    3  502    0 -0.20252387551E+04  0.36581654818E+02 -0.67184356148E+03  0.21340819142E+04  0.12699999809E+01 0. -1.
       -4    1    3    3    0  502  0.20252387551E+04 -0.36581654818E+02  0.35129785128E+03  0.20558069038E+04  0.12699999809E+01 0.  1.
</event>
<event>
 5   0  0.1821433E-07  0.4124881E+04  0.7818609E-02  0.7979817E-01
        2   -1    0    0  501    0  0.00000000000E+00  0.00000000000E+00  0.13149859951E+04  0.13149859951E+04  0.25500000920E-02 0.  1.
       -2   -1    0    0    0  501  0.00000000000E+00  0.00000000000E+00 -0.32347581915E+04  0.32347581915E+04  0.25500000920E-02 0. -1.
    10030    2    1    2    0    0  0.00000000000E+00  0.00000000000E+00 -0.19197721964E+04  0.45497441866E+04  0.41248814380E+04 0.  0.
        5    1    3    3  502    0 -0.81382781722E+03  0.25648951039E+03 -0.30309244908E+04  0.31487502194E+04  0.46999998093E+01 0. -1.
       -5    1    3    3    0  502  0.81382781722E+03 -0.25648951039E+03  0.11111522944E+04  0.14009939673E+04  0.46999998093E+01 0.  1.
</event>
<event>
 5   0  0.1785559E-07  0.3876105E+04  0.7818609E-02  0.8030017E-01
       -2   -1    0    0    0  501  0.00000000000E+00  0.00000000000E+00  0.26588461640E+04  0.26588461641E+04  0.25500000920E-02 0.  1.
        2   -1    0    0  501    0  0.00000000000E+00  0.00000000000E+00 -0.14126608439E+04  0.14126608439E+04  0.25500000920E-02 0. -1.
    10030    2    1    2    0    0  0.00000000000E+00  0.00000000000E+00  0.12461853201E+04  0.40715070080E+04  0.38761051926E+04 0.  0.
        2    1    3    3  502    0  0.19300781691E+04 -0.38634935126E+02  0.44312712254E+03  0.19806706046E+04  0.25500000920E-02 0. -1.
       -2    1    3    3    0  502 -0.19300781691E+04  0.38634935126E+02  0.80305819760E+03  0.20908364034E+04  0.25500000920E-02 0.  1.
</event>
<event>
 5   0  0.1785559E-07  0.3979077E+04  0.7818609E-02  0.8008781E-01
       -2   -1    0    0    0  501  0.00000000000E+00  0.00000000000E+00  0.14468892257E+04  0.14468892257E+04  0.25500000920E-02 0. -1.
        2   -1    0    0  501    0  0.00000000000E+00  0.00000000000E+00 -0.27357061056E+04  0.27357061056E+04  0.25500000920E-02 0.  1.
    10030    2    1    2    0    0  0.00000000000E+00  0.00000000000E+00 -0.12888168799E+04  0.41825953314E+04  0.39790771237E+04 0.  0.
        2    1    3    3  502    0 -0.47741324250E+03 -0.17991257464E+04 -0.13828247426E+04  0.23188318448E+04  0.25500000920E-02 0.  1.
       -2    1    3    3    0  502  0.47741324250E+03  0.17991257464E+04  0.94007862694E+02  0.18637634866E+04  0.25500000920E-02 0. -1.
</event>
<event>
 5   0  0.5515000E-08  0.3943189E+04  0.7818609E-02  0.8016106E-01
        1   -1    0    0  501    0  0.00000000000E+00  0.00000000000E+00  0.23727397122E+04  0.23727397122E+04  0.50400001928E-02 0. -1.
       -1   -1    0    0    0  501  0.00000000000E+00  0.00000000000E+00 -0.16382684144E+04  0.16382684144E+04  0.50400001928E-02 0.  1.
    10030    2    1    2    0    0  0.00000000000E+00  0.00000000000E+00  0.73447129780E+03  0.40110081266E+04  0.39431888243E+04 0.  0.
        3    1    3    3  502    0 -0.14990830118E+03 -0.19164034806E+04 -0.78605997129E+02  0.19238642655E+04  0.10100000352E+00 0.  1.
       -3    1    3    3    0  502  0.14990830118E+03  0.19164034806E+04  0.81307729493E+03  0.20871438611E+04  0.10100000352E+00 0. -1.
</event>
<event>
 5   0  0.5515000E-08  0.3983198E+04  0.7818609E-02  0.8007945E-01
       -1   -1    0    0    0  501  0.00000000000E+00  0.00000000000E+00  0.17475017670E+04  0.17475017670E+04  0.50400001928E-02 0.  1.
        1   -1    0    0  501    0  0.00000000000E+00  0.00000000000E+00 -0.22697922091E+04  0.22697922091E+04  0.50400001928E-02 0. -1.
    10030    2    1    2    0    0  0.00000000000E+00  0.00000000000E+00 -0.52229044207E+03  0.40172939761E+04  0.39831976582E+04 0.  0.
        2    1    3    3  502    0  0.16897067506E+04  0.29054359088E+03 -0.12832009805E+04  0.21415249794E+04  0.25500000920E-02 0. -1.
       -2    1    3    3    0  502 -0.16897067506E+04 -0.29054359088E+03  0.76091053843E+03  0.18757689966E+04  0.25500000920E-02 0.  1.
</event>
<event>
 5   0  0.1819906E-07  0.3989242E+04  0.7818609E-02  0.8006720E-01
        2   -1    0    0  501    0  0.00000000000E+00  0.00000000000E+00  0.19631583050E+04  0.19631583050E+04  0.25500000920E-02 0. -1.
       -2   -1    0    0    0  501  0.00000000000E+00  0.00000000000E+00 -0.20265876423E+04  0.20265876423E+04  0.25500000920E-02 0.  1.
    10030    2    1    2    0    0  0.00000000000E+00  0.00000000000E+00 -0.63429337213E+02  0.39897459473E+04  0.39892417128E+04 0.  0.
        1    1    3    3  502    0 -0.22373001351E+03  0.32352674378E+03 -0.19874125982E+04  0.20259648339E+04  0.50400001928E-02 0.  1.
       -1    1    3    3    0  502  0.22373001351E+03 -0.32352674378E+03  0.19239832609E+04  0.19637811134E+04  0.50400001928E-02 0. -1.
</event>
<event>
 5   0  0.5515000E-08  0.4031082E+04  0.7818609E-02  0.7998306E-01
       -1   -1    0    0    0  501  0.00000000000E+00  0.00000000000E+00  0.21307749608E+04  0.21307749608E+04  0.50400001928E-02 0.  1.
        1   -1    0    0  501    0  0.00000000000E+00  0.00000000000E+00 -0.19065385844E+04  0.19065385844E+04  0.50400001928E-02 0. -1.
    10030    2    1    2    0    0  0.00000000000E+00  0.00000000000E+00  0.22423637640E+03  0.40373135453E+04  0.40310815807E+04 0.  0.
        2    1    3    3  502    0  0.16092339020E+02 -0.13490891550E+04 -0.13875624490E+04  0.19353630309E+04  0.25500000920E-02 0. -1.
       -2    1    3    3    0  502 -0.16092339020E+02  0.13490891550E+04  0.16117988254E+04  0.21019505144E+04  0.25500000920E-02 0.  1.
</event>
<event>
 5   0  0.5515000E-08  0.4008906E+04  0.7818609E-02  0.8002752E-01
       -1   -1    0    0    0  501  0.00000000000E+00  0.00000000000E+00  0.27298978924E+04  0.27298978924E+04  0.50400001928E-02 0.  1.
        1   -1    0    0  501    0  0.00000000000E+00  0.00000000000E+00 -0.14717883802E+04  0.14717883802E+04  0.50400001928E-02 0. -1.
    10030    2    1    2    0    0  0.00000000000E+00  0.00000000000E+00  0.12581095123E+04  0.42016862726E+04  0.40089060838E+04 0.  0.
        5    1    3    3  502    0  0.32976371885E+03  0.86313579226E+03  0.24933739018E+04  0.26590755932E+04  0.46999998093E+01 0.  1.
       -5    1    3    3    0  502 -0.32976371885E+03 -0.86313579226E+03 -0.12352643895E+04  0.15426106794E+04  0.46999998093E+01 0. -1.
</event>
<event>
 5   0  0.1821433E-07  0.3932419E+04  0.7818609E-02  0.8018320E-01
       -2   -1    0    0    0  501  0.00000000000E+00  0.00000000000E+00  0.22977244118E+04  0.22977244118E+04  0.25500000920E-02 0.  1.
        2   -1    0    0  501    0  0.00000000000E+00  0.00000000000E+00 -0.16825254936E+04  0.16825254936E+04  0.25500000920E-02 0. -1.
    10030    2    1    2    0    0  0.00000000000E+00  0.00000000000E+00  0.61519891815E+03  0.39802499054E+04  0.39324190520E+04 0.  0.
        5    1    3    3  502    0 -0.21793115849E+03 -0.15896057475E+04  0.14579163334E+04  0.21679212503E+04  0.46999998093E+01 0.  1.
       -5    1    3    3    0  502  0.21793115849E+03  0.15896057475E+04 -0.84271741522E+03  0.18123286551E+04  0.46999998093E+01 0. -1.
</event>
<event>
 5   0  0.5515000E-08  0.3222253E+04  0.7818609E-02  0.8182965E-01
       -1   -1    0    0    0  501  0.00000000000E+00  0.00000000000E+00  0.15484644398E+04  0.15484644398E+04  0.50400001928E-02 0.  1.
        1   -1    0    0  501    0  0.00000000000E+00  0.00000000000E+00 -0.16763238362E+04  0.16763238362E+04  0.50400001928E-02 0. -1.
    10030    2    1    2    0    0  0.00000000000E+00  0.00000000000E+00 -0.12785939638E+03  0.32247882759E+04  0.32222525350E+04 0.  0.
        2    1    3    3  502    0  0.10518763540E+04 -0.99009783815E+03 -0.77792666468E+03  0.16407033519E+04  0.25500000920E-02 0. -1.
       -2    1    3    3    0  502 -0.10518763540E+04  0.99009783815E+03  0.65006726829E+03  0.15840849241E+04  0.25500000920E-02 0.  1.
</event>
<event>
 5   0  0.5515000E-08  0.3901888E+04  0.7818609E-02  0.8024637E-01
       -1   -1    0    0    0  501  0.00000000000E+00  0.00000000000E+00  0.22236109138E+04  0.22236109138E+04  0.50400001928E-02 0. -1.
        1   -1    0    0  501    0  0.00000000000E+00  0.00000000000E+00 -0.17117126603E+04  0.17117126604E+04  0.50400001928E-02 0.  1.
    10030    2    1    2    0    0  0.00000000000E+00  0.00000000000E+00  0.51189825343E+03  0.39353235741E+04  0.39018882367E+04 0.  0.
        3    1    3    3  502    0 -0.10314276363E+03 -0.93106334663E+02  0.22186139920E+04  0.22229609252E+04  0.10100000352E+00 0. -1.
       -3    1    3    3    0  502  0.10314276363E+03  0.93106334663E+02 -0.17067157385E+04  0.17123626490E+04  0.10100000352E+00 0.  1.
</event>
<event>
 5   0  0.5515000E-08  0.3692254E+04  0.7818609E-02  0.8069681E-01
       -1   -1    0    0    0  501  0.00000000000E+00  0.00000000000E+00  0.17522722356E+04  0.17522722356E+04  0.50400001928E-02 0. -1.
        1   -1    0    0  501    0  0.00000000000E+00  0.00000000000E+00 -0.19450092395E+04  0.19450092395E+04  0.50400001928E-02 0.  1.
    10030    2    1    2    0    0  0.00000000000E+00  0.00000000000E+00 -0.19273700386E+03  0.36972814751E+04  0.36922544270E+04 0.  0.
        5    1    3    3  502    0 -0.46009062730E+03 -0.52727134748E+03  0.16143090244E+04  0.17594641728E+04  0.46999998093E+01 0. -1.
       -5    1    3    3    0  502  0.46009062730E+03  0.52727134748E+03 -0.18070460282E+04  0.19378173024E+04  0.46999998093E+01 0.  1.
</event>
<event>
 5   0  0.1785559E-07  0.3852183E+04  0.7818609E-02  0.8035048E-01
       -2   -1    0    0    0  501  0.00000000000E+00  0.00000000000E+00  0.21955601530E+04  0.21955601530E+04  0.25500000920E-02 0.  1.
        2   -1    0    0  501    0  0.00000000000E+00  0.00000000000E+00 -0.16896958478E+04  0.16896958478E+04  0.25500000920E-02 0. -1.
    10030    2    1    2    0    0  0.00000000000E+00  0.00000000000E+00  0.50586430517E+03  0.38852560007E+04  0.38521832116E+04 0.  0.
        2    1    3    3  502    0 -0.10314997507E+04  0.91692937426E+03  0.16079987858E+04  0.21190590620E+04  0.25500000920E-02 0.  1.
       -2    1    3    3    0  502  0.10314997507E+04 -0.91692937426E+03 -0.11021344806E+04  0.17661969388E+04  0.25500000920E-02 0. -1.
</event>
<event>
 5   0  0.1773903E-07  0.4024477E+04  0.7818609E-02  0.7999627E-01
       -2   -1    0    0    0  501  0.00000000000E+00  0.00000000000E+00  0.17271752948E+04  0.17271752948E+04  0.25500000920E-02 0. -1.
        2   -1    0    0  501    0  0.00000000000E+00  0.00000000000E+00 -0.23443501708E+04  0.23443501708E+04  0.25500000920E-02 0.  1.
    10030    2    1    2    0    0  0.00000000000E+00  0.00000000000E+00 -0.61717487607E+03  0.40715254656E+04  0.40244769585E+04 0.  0.
        3    1    3    3  502    0  0.11170633703E+04  0.77626791534E+03  0.11915423861E+04  0.18083682473E+04  0.10100000352E+00 0. -1.
       -3    1    3    3    0  502 -0.11170633703E+04 -0.77626791534E+03 -0.18087172622E+04  0.22631572183E+04  0.10100000352E+00 0.  1.
</event>
<event>
 5   0  0.5515000E-08  0.3469163E+04  0.7818609E-02  0.8121137E-01
        1   -1    0    0  501    0  0.00000000000E+00  0.00000000000E+00  0.18671102123E+04  0.18671102123E+04  0.50400001928E-02 0.  1.
       -1   -1    0    0    0  501  0.00000000000E+00  0.00000000000E+00 -0.16114595277E+04  0.16114595277E+04  0.50400001928E-02 0. -1.
    10030    2    1    2    0    0  0.00000000000E+00  0.00000000000E+00  0.25565068465E+03  0.34785697400E+04  0.34691627468E+04 0.  0.
        3    1    3    3  502    0  0.84390856039E+03 -0.13396987842E+04  0.83812322634E+03  0.17914868248E+04  0.10100000352E+00 0.  1.
       -3    1    3    3    0  502 -0.84390856039E+03  0.13396987842E+04 -0.58247254168E+03  0.16870829152E+04  0.10100000352E+00 0. -1.
</event>
<event>
 5   0  0.1819906E-07  0.3927317E+04  0.7818609E-02  0.8019372E-01
        2   -1    0    0  501    0  0.00000000000E+00  0.00000000000E+00  0.23193806060E+04  0.23193806060E+04  0.25500000920E-02 0. -1.
       -2   -1    0    0    0  501  0.00000000000E+00  0.00000000000E+00 -0.16624929442E+04  0.16624929442E+04  0.25500000920E-02 0.  1.
    10030    2    1    2    0    0  0.00000000000E+00  0.00000000000E+00  0.65688766180E+03  0.39818735501E+04  0.39273165863E+04 0.  0.
        1    1    3    3  502    0  0.40782164101E+03  0.65643654016E+03 -0.15018276250E+04  0.16889978204E+04  0.50400001928E-02 0.  1.
       -1    1    3    3    0  502 -0.40782164101E+03 -0.65643654016E+03  0.21587152868E+04  0.22928757297E+04  0.50400001928E-02 0. -1.
</event>
<event>
 5   0  0.1819906E-07  0.4019033E+04  0.7818609E-02  0.8000718E-01
        2   -1    0    0  501    0  0.00000000000E+00  0.00000000000E+00  0.19290800422E+04  0.19290800422E+04  0.25500000920E-02 0.  1.
       -2   -1    0    0    0  501  0.00000000000E+00  0.00000000000E+00 -0.20933067556E+04  0.20933067556E+04  0.25500000920E-02 0. -1.
    10030    2    1    2    0    0  0.00000000000E+00  0.00000000000E+00 -0.16422671344E+03  0.40223867978E+04  0.40190328610E+04 0.  0.
        1    1    3    3  502    0 -0.18390760726E+03 -0.19999611180E+04 -0.15051449115E+02  0.20084553836E+04  0.50400001928E-02 0.  1.
       -1    1    3    3    0  502  0.18390760726E+03  0.19999611180E+04 -0.14917526433E+03  0.20139314142E+04  0.50400001928E-02 0. -1.
</event>
<event>
 5   0  0.1821433E-07  0.3979360E+04  0.7818609E-02  0.8008723E-01
        2   -1    0    0  501    0  0.00000000000E+00  0.00000000000E+00  0.14891919330E+04  0.14891919330E+04  0.25500000920E-02 0.  1.
       -2   -1    0    0    0  501  0.00000000000E+00  0.00000000000E+00 -0.26583724907E+04  0.26583724907E+04  0.25500000920E-02 0. -1.
    10030    2    1    2    0    0  0.00000000000E+00  0.00000000000E+00 -0.11691805576E+04  0.41475644237E+04  0.39793601838E+04 0.  0.
        5    1    3    3  502    0  0.97043151860E+03  0.11571433394E+04 -0.19347560476E+04  0.24543881302E+04  0.46999998093E+01 0. -1.
       -5    1    3    3    0  502 -0.97043151860E+03 -0.11571433394E+04  0.76557548992E+03  0.16931762935E+04  0.46999998093E+01 0.  1.
</event>
<event>
 5   0  0.1773903E-07  0.4040227E+04  0.7818609E-02  0.7996480E-01
        2   -1    0    0  501    0  0.00000000000E+00  0.00000000000E+00  0.27410086391E+04  0.27410086391E+04  0.25500000920E-02 0.  1.
       -2   -1    0    0    0  501  0.00000000000E+00  0.00000000000E+00 -0.14888162240E+04  0.14888162240E+04  0.25500000920E-02 0. -1.
    10030    2    1    2    0    0  0.00000000000E+00  0.00000000000E+00  0.12521924152E+04  0.42298248631E+04  0.40402267916E+04 0.  0.
        3    1    3    3  502    0  0.11133641868E+04 -0.50301066878E+03  0.23104001777E+04  0.26135318129E+04  0.10100000352E+00 0.  1.
       -3    1    3    3    0  502 -0.11133641868E+04  0.50301066878E+03 -0.10582077625E+04  0.16162930502E+04  0.10100000352E+00 0. -1.
</event>
<event>
 5   0  0.5515000E-08  0.4016533E+04  0.7818609E-02  0.8001220E-01
       -1   -1    0    0    0  501  0.00000000000E+00  0.00000000000E+00  0.18407489529E+04  0.18407489529E+04  0.50400001928E-02 0. -1.
        1   -1    0    0  501    0  0.00000000000E+00  0.00000000000E+00 -0.21910285288E+04  0.21910285288E+04  0.50400001928E-02 0.  1.
    10030    2    1    2    0    0  0.00000000000E+00  0.00000000000E+00 -0.35027957594E+03  0.40317774817E+04  0.40165325694E+04 0.  0.
        1    1    3    3  502    0  0.66590258329E+03 -0.29641418711E+02 -0.20767505253E+04  0.21811000914E+04  0.50400001928E-02 0.  1.
       -1    1    3    3    0  502 -0.66590258329E+03  0.29641418711E+02  0.17264709494E+04  0.18506773904E+04  0.50400001928E-02 0. -1.
</event>
<event>
 5   0  0.5515000E-08  0.4068430E+04  0.7818609E-02  0.7990883E-01
        1   -1    0    0  501    0  0.00000000000E+00  0.00000000000E+00  0.15793913174E+04  0.15793913174E+04  0.50400001928E-02 0.  1.
       -1   -1    0    0    0  501  0.00000000000E+00  0.00000000000E+00 -0.26200156152E+04  0.26200156152E+04  0.50400001928E-02 0. -1.
    10030    2    1    2    0    0  0.00000000000E+00  0.00000000000E+00 -0.10406242978E+04  0.41994069326E+04  0.40684296303E+04 0.  0.
        3    1    3    3  502    0 -0.83450666556E+03 -0.13520298817E+04  0.79087589178E+03  0.17747875541E+04  0.10100000352E+00 0.  1.
       -3    1    3    3    0  502  0.83450666556E+03  0.13520298817E+04 -0.18315001895E+04  0.24246193785E+04  0.10100000352E+00 0. -1.
</event>
<event>
 5   0  0.5515000E-08  0.3845585E+04  0.7818609E-02  0.8036443E-01
       -1   -1    0    0    0  501  0.00000000000E+00  0.00000000000E+00  0.13679040984E+04  0.13679040984E+04  0.50400001928E-02 0. -1.
        1   -1    0    0  501    0  0.00000000000E+00  0.00000000000E+00 -0.27027705257E+04  0.27027705257E+04  0.50400001928E-02 0.  1.
    10030    2    1    2    0    0  0.00000000000E+00  0.00000000000E+00 -0.13348664273E+04  0.40706746241E+04  0.38455849381E+04 0.  0.
        3    1    3    3  502    0 -0.11104571126E+04  0.62198754968E+03 -0.21930225188E+04  0.25356126063E+04  0.10100000352E+00 0.  1.
       -3    1    3    3    0  502  0.11104571126E+04 -0.62198754968E+03  0.85815609151E+03  0.15350620178E+04  0.10100000352E+00 0. -1.
</event>
<event>
 5   0  0.1821433E-07  0.4015369E+04  0.7818609E-02  0.8001453E-01
        2   -1    0    0  501    0  0.00000000000E+00  0.00000000000E+00  0.13325656210E+04  0.13325656210E+04  0.25500000920E-02 0. -1.
       -2   -1    0    0    0  501  0.00000000000E+00  0.00000000000E+00 -0.30248396538E+04  0.30248396538E+04  0.25500000920E-02 0.  1.
    10030    2    1    2    0    0  0.00000000000E+00  0.00000000000E+00 -0.16922740328E+04  0.43574052748E+04  0.40153691396E+04 0.  0.
        5    1    3    3  502    0 -0.11884263254E+03 -0.32329443390E+03  0.13002560117E+04  0.13451136191E+04  0.46999998093E+01 0. -1.
       -5    1    3    3    0  502  0.11884263254E+03  0.32329443390E+03 -0.29925300444E+04  0.30122916557E+04  0.46999998093E+01 0.  1.
</event>
<event>
 5   0  0.1819906E-07  0.3526952E+04  0.7818609E-02  0.8107432E-01
       -2   -1    0    0    0  501  0.00000000000E+00  0.00000000000E+00  0.12931314911E+04  0.12931314911E+04  0.25500000920E-02 0. -1.
        2   -1    0    0  501    0  0.00000000000E+00  0.00000000000E+00 -0.24048970404E+04  0.24048970404E+04  0.25500000920E-02 0.  1.
    10030    2    1    2    0    0  0.00000000000E+00  0.00000000000E+00 -0.11117655493E+04  0.36980285316E+04  0.35269522797E+04 0.  0.
        1    1    3    3  502    0 -0.11990279771E+04 -0.12925483514E+04 -0.59647449678E+03  0.18612176541E+04  0.50400001928E-02 0. -1.
       -1    1    3    3    0  502  0.11990279771E+04  0.12925483514E+04 -0.51529105252E+03  0.18368108774E+04  0.50400001928E-02 0.  1.
</event>
<event>
 5   0  0.5515000E-08  0.4020868E+04  0.7818609E-02  0.8000350E-01
       -1   -1    0    0    0  501  0.00000000000E+00  0.00000000000E+00  0.14686054861E+04  0.14686054861E+04  0.50400001928E-02 0. -1.
        1   -1    0    0  501    0  0.00000000000E+00  0.00000000000E+00 -0.27521648753E+04  0.27521648753E+04  0.50400001928E-02 0.  1.
    10030    2    1    2    0    0  0.00000000000E+00  0.00000000000E+00 -0.12835593892E+04  0.42207703613E+04  0.40208677842E+04 0.  0.
        5    1    3    3  502    0  0.13261189479E+04 -0.83553243105E+03  0.67982787143E+03  0.17084770798E+04  0.46999998093E+01 0. -1.
       -5    1    3    3    0  502 -0.13261189479E+04  0.83553243105E+03 -0.19633872606E+04  0.25122932816E+04  0.46999998093E+01 0.  1.
</event>
<event>
 5   0  0.5515000E-08  0.3964493E+04  0.7818609E-02  0.8011748E-01
        1   -1    0    0  501    0  0.00000000000E+00  0.00000000000E+00  0.16070147469E+04  0.16070147469E+04  0.50400001928E-02 0.  1.
       -1   -1    0    0    0  501  0.00000000000E+00  0.00000000000E+00 -0.24450931886E+04  0.24450931886E+04  0.50400001928E-02 0. -1.
    10030    2    1    2    0    0  0.00000000000E+00  0.00000000000E+00 -0.83807844171E+03  0.40521079355E+04  0.39644928108E+04 0.  0.
        5    1    3    3  502    0  0.15362657974E+04 -0.15951877624E+03 -0.16889628941E+04  0.22887063132E+04  0.46999998093E+01 0. -1.
       -5    1    3    3    0  502 -0.15362657974E+04  0.15951877624E+03  0.85088445243E+03  0.17634016223E+04  0.46999998093E+01 0.  1.
</event>
<event>
 5   0  0.1819906E-07  0.4027038E+04  0.7818609E-02  0.7999114E-01
       -2   -1    0    0    0  501  0.00000000000E+00  0.00000000000E+00  0.13914350111E+04  0.13914350111E+04  0.25500000920E-02 0. -1.
        2   -1    0    0  501    0  0.00000000000E+00  0.00000000000E+00 -0.29137245576E+04  0.29137245576E+04  0.25500000920E-02 0.  1.
    10030    2    1    2    0    0  0.00000000000E+00  0.00000000000E+00 -0.15222895465E+04  0.43051595687E+04  0.40270378007E+04 0.  0.
        1    1    3    3  502    0 -0.19109487905E+04 -0.52850881372E+03 -0.11364021145E+04  0.22852694835E+04  0.50400001928E-02 0.  1.
       -1    1    3    3    0  502  0.19109487905E+04  0.52850881372E+03 -0.38588743201E+03  0.20198900852E+04  0.50400001928E-02 0. -1.
</event>
<event>
 5   0  0.5515000E-08  0.3241681E+04  0.7818609E-02  0.8177895E-01
       -1   -1    0    0    0  501  0.00000000000E+00  0.00000000000E+00  0.16470654696E+04  0.16470654697E+04  0.50400001928E-02 0.  1.
        1   -1    0    0  501    0  0.00000000000E+00  0.00000000000E+00 -0.15950329342E+04  0.15950329342E+04  0.50400001928E-02 0. -1.
    10030    2    1    2    0    0  0.00000000000E+00  0.00000000000E+00  0.52032535430E+02  0.32420984039E+04  0.32416808411E+04 0.  0.
        3    1    3    3  502    0 -0.13020874568E+03 -0.50499161842E+03 -0.15088321231E+04  0.15964163736E+04  0.10100000352E+00 0. -1.
       -3    1    3    3    0  502  0.13020874568E+03  0.50499161842E+03  0.15608646585E+04  0.16456820302E+04  0.10100000352E+00 0.  1.
</event>
<event>
 5   0  0.5515000E-08  0.3997176E+04  0.7818609E-02  0.8005116E-01
       -1   -1    0    0    0  501  0.00000000000E+00  0.00000000000E+00  0.23085377307E+04  0.23085377307E+04  0.50400001928E-02 0.  1.
        1   -1    0    0  501    0  0.00000000000E+00  0.00000000000E+00 -0.17302528130E+04  0.17302528130E+04  0.50400001928E-02 0. -1.
    10030    2    1    2    0    0  0.00000000000E+00  0.00000000000E+00  0.57828491770E+03  0.40387905438E+04  0.39971759544E+04 0.  0.
        2    1    3    3  502    0 -0.51664314469E+03 -0.12799053256E+04  0.17496237058E+04  0.22285109139E+04  0.25500000920E-02 0.  1.
       -2    1    3    3    0  502  0.51664314469E+03  0.12799053256E+04 -0.11713387881E+04  0.18102796298E+04  0.25500000920E-02 0. -1.
</event>
<event>
 5   0  0.5515000E-08  0.3910095E+04  0.7818609E-02  0.8022933E-01
        1   -1    0    0  501    0  0.00000000000E+00  0.00000000000E+00  0.19137290262E+04  0.19137290263E+04  0.50400001928E-02 0. -1.
       -1   -1    0    0    0  501  0.00000000000E+00  0.00000000000E+00 -0.19972583654E+04  0.19972583654E+04  0.50400001928E-02 0.  1.
    10030    2    1    2    0    0  0.00000000000E+00  0.00000000000E+00 -0.83529339166E+02  0.39109873917E+04  0.39100952964E+04 0.  0.
        4    1    3    3  502    0  0.15356469035E+04  0.45151693034E+03 -0.11645762349E+04  0.19794742661E+04  0.12699999809E+01 0.  1.
       -4    1    3    3    0  502 -0.15356469035E+04 -0.45151693034E+03  0.10810468957E+04  0.19315131255E+04  0.12699999809E+01 0. -1.
</event>
<event>
 5   0  0.5515000E-08  0.3984607E+04  0.7818609E-02  0.8007659E-01
        1   -1    0    0  501    0  0.00000000000E+00  0.00000000000E+00  0.26971091091E+04  0.26971091091E+04  0.50400001928E-02 0.  1.
       -1   -1    0    0    0  501  0.00000000000E+00  0.00000000000E+00 -0.14716769467E+04  0.14716769467E+04  0.50400001928E-02 0. -1.
    10030    2    1    2    0    0  0.00000000000E+00  0.00000000000E+00  0.12254321624E+04  0.41687860558E+04  0.39846070314E+04 0.  0.
        4    1    3    3  502    0 -0.33787581346E+03 -0.58365757789E+02  0.26660076435E+04  0.26879667027E+04  0.12699999809E+01 0.  1.
       -4    1    3    3    0  502  0.33787581346E+03  0.58365757789E+02 -0.14405754810E+04  0.14808193531E+04  0.12699999809E+01 0. -1.
</event>
<event>
 5   0  0.5515000E-08  0.4002428E+04  0.7818609E-02  0.8004057E-01
       -1   -1    0    0    0  501  0.00000000000E+00  0.00000000000E+00  0.21045586758E+04  0.21045586758E+04  0.50400001928E-02 0.  1.
        1   -1    0    0  501    0  0.00000000000E+00  0.00000000000E+00 -0.19029444217E+04  0.19029444218E+04  0.50400001928E-02 0. -1.
    10030    2    1    2    0    0  0.00000000000E+00  0.00000000000E+00  0.20161425405E+03  0.40075030976E+04  0.40024283591E+04 0.  0.
        1    1    3    3  502    0  0.13996362367E+04  0.10179664577E+04 -0.90526580181E+03  0.19531368298E+04  0.50400001928E-02 0.  1.
       -1    1    3    3    0  502 -0.13996362367E+04 -0.10179664577E+04  0.11068800559E+04  0.20543662678E+04  0.50400001928E-02 0. -1.
</event>
<event>
 5   0  0.5515000E-08  0.4127402E+04  0.7818609E-02  0.7979327E-01
       -1   -1    0    0    0  501  0.00000000000E+00  0.00000000000E+00  0.15860386758E+04  0.15860386759E+04  0.50400001928E-02 0. -1.
        1   -1    0    0  501    0  0.00000000000E+00  0.00000000000E+00 -0.26852187667E+04  0.26852187667E+04  0.50400001928E-02 0.  1.
    10030    2    1    2    0    0  0.00000000000E+00  0.00000000000E+00 -0.10991800908E+04  0.42712574425E+04  0.41274015153E+04 0.  0.
        5    1    3    3  502    0 -0.97495949182E+03  0.17242772750E+04  0.49518488456E+02  0.19814520692E+04  0.46999998093E+01 0.  1.
       -5    1    3    3    0  502  0.97495949182E+03 -0.17242772750E+04 -0.11486985793E+04  0.22898053734E+04  0.46999998093E+01 0. -1.
</event>
<event>
 5   0  0.5515000E-08  0.3993115E+04  0.7818609E-02  0.8005937E-01
       -1   -1    0    0    0  501  0.00000000000E+00  0.00000000000E+00  0.25465595621E+04  0.25465595621E+04  0.50400001928E-02 0.  1.
        1   -1    0    0  501    0  0.00000000000E+00  0.00000000000E+00 -0.15653442295E+04  0.15653442295E+04  0.50400001928E-02 0. -1.
    10030    2    1    2    0    0  0.00000000000E+00  0.00000000000E+00  0.98121533255E+03  0.41119037916E+04  0.39931152328E+04 0.  0.
        4    1    3    3  502    0 -0.20884615741E+03 -0.43242827938E+02  0.25347953456E+04  0.25437522908E+04  0.12699999809E+01 0.  1.
       -4    1    3    3    0  502  0.20884615741E+03  0.43242827938E+02 -0.15535800131E+04  0.15681515008E+04  0.12699999809E+01 0. -1.
</event>
<event>
 5   0  0.1821433E-07  0.3980507E+04  0.7818609E-02  0.8008491E-01
        2   -1    0    0  501    0  0.00000000000E+00  0.00000000000E+00  0.18434030466E+04  0.18434030466E+04  0.25500000920E-02 0. -1.
       -2   -1    0    0    0  501  0.00000000000E+00  0.00000000000E+00 -0.21488019989E+04  0.21488019989E+04  0.25500000920E-02 0.  1.
    10030    2    1    2    0    0  0.00000000000E+00  0.00000000000E+00 -0.30539895228E+03  0.39922050455E+04  0.39805065764E+04 0.  0.
        5    1    3    3  502    0  0.34265355972E+03 -0.95546655750E+03  0.15642775810E+04  0.18647558137E+04  0.46999998093E+01 0. -1.
       -5    1    3    3    0  502 -0.34265355972E+03  0.95546655750E+03 -0.18696765333E+04  0.21274492317E+04  0.46999998093E+01 0.  1.
</event>
<event>
 5   0  0.5515000E-08  0.4020098E+04  0.7818609E-02  0.8000504E-01
        1   -1    0    0  501    0  0.00000000000E+00  0.00000000000E+00  0.30612081756E+04  0.30612081756E+04  0.50400001928E-02 0.  1.
       -1   -1    0    0    0  501  0.00000000000E+00  0.00000000000E+00 -0.13198373770E+04  0.13198373771E+04  0.50400001928E-02 0. -1.
    10030    2    1    2    0    0  0.00000000000E+00  0.00000000000E+00  0.17413707985E+04  0.43810455527E+04  0.40200979934E+04 0.  0.
        4    1    3    3  502    0 -0.10845092851E+04  0.16476224878E+04  0.44935231539E+03  0.20230519934E+04  0.12699999809E+01 0.  1.
       -4    1    3    3    0  502  0.10845092851E+04 -0.16476224878E+04  0.12920184832E+04  0.23579935593E+04  0.12699999809E+01 0. -1.
</event>
<event>
 5   0  0.5515000E-08  0.3891822E+04  0.7818609E-02  0.8026732E-01
        1   -1    0    0  501    0  0.00000000000E+00  0.00000000000E+00  0.30108324621E+04  0.30108324621E+04  0.50400001928E-02 0. -1.
       -1   -1    0    0    0  501  0.00000000000E+00  0.00000000000E+00 -0.12576489274E+04  0.12576489274E+04  0.50400001928E-02 0.  1.
    10030    2    1    2    0    0  0.00000000000E+00  0.00000000000E+00  0.17531835347E+04  0.42684813896E+04  0.38918223067E+04 0.  0.
        3    1    3    3  502    0  0.12203034872E+04  0.11021350619E+04 -0.26465630089E+03  0.16654985030E+04  0.10100000352E+00 0.  1.
       -3    1    3    3    0  502 -0.12203034872E+04 -0.11021350619E+04  0.20178398356E+04  0.26029828866E+04  0.10100000352E+00 0. -1.
</event>
<event>
 5   0  0.5515000E-08  0.3218873E+04  0.7818609E-02  0.8183850E-01
        1   -1    0    0  501    0  0.00000000000E+00  0.00000000000E+00  0.80765310106E+03  0.80765310107E+03  0.50400001928E-02 0.  1.
       -1   -1    0    0    0  501  0.00000000000E+00  0.00000000000E+00 -0.32071770405E+04  0.32071770405E+04  0.50400001928E-02 0. -1.
    10030    2    1    2    0    0  0.00000000000E+00  0.00000000000E+00 -0.23995239395E+04  0.40148301416E+04  0.32188733945E+04 0.  0.
        2    1    3    3  502    0  0.44043242259E+03 -0.61023371893E+03  0.57467269500E+03  0.94689736348E+03  0.25500000920E-02 0.  1.
       -2    1    3    3    0  502 -0.44043242259E+03  0.61023371893E+03 -0.29741966345E+04  0.30679327781E+04  0.25500000920E-02 0. -1.
</event>
<event>
 5   0  0.1819906E-07  0.3639070E+04  0.7818609E-02  0.8081600E-01
        2   -1    0    0  501    0  0.00000000000E+00  0.00000000000E+00  0.14603251732E+04  0.14603251732E+04  0.25500000920E-02 0. -1.
       -2   -1    0    0    0  501  0.00000000000E+00  0.00000000000E+00 -0.22671031690E+04  0.22671031690E+04  0.25500000920E-02 0.  1.
    10030    2    1    2    0    0  0.00000000000E+00  0.00000000000E+00 -0.80677799582E+03  0.37274283423E+04  0.36390701164E+04 0.  0.
        1    1    3    3  502    0  0.99454848038E+03  0.15303935663E+03 -0.19561657495E+04  0.21998027557E+04  0.50400001928E-02 0.  1.
       -1    1    3    3    0  502 -0.99454848038E+03 -0.15303935663E+03  0.11493877536E+04  0.15276255866E+04  0.50400001928E-02 0. -1.
</event>
<event>
 5   0  0.5515000E-08  0.3950682E+04  0.7818609E-02  0.8014570E-01
        1   -1    0    0  501    0  0.00000000000E+00  0.00000000000E+00  0.28365023971E+04  0.28365023971E+04  0.50400001928E-02 0. -1.
       -1   -1    0    0    0  501  0.00000000000E+00  0.00000000000E+00 -0.13756278946E+04  0.13756278946E+04  0.50400001928E-02 0.  1.
    10030    2    1    2    0    0  0.00000000000E+00  0.00000000000E+00  0.14608745024E+04  0.42121302917E+04  0.39506818756E+04 0.  0.
        3    1    3    3  502    0  0.13192715196E+04  0.14677204936E+04  0.63939899999E+03  0.20744907522E+04  0.10100000352E+00 0. -1.
       -3    1    3    3    0  502 -0.13192715196E+04 -0.14677204936E+04  0.82147550244E+03  0.21376395395E+04  0.10100000352E+00 0.  1.
</event>
<event>
 5   0  0.1785559E-07  0.4021305E+04  0.7818609E-02  0.8000262E-01
       -2   -1    0    0    0  501  0.00000000000E+00  0.00000000000E+00  0.14898311990E+04  0.14898311990E+04  0.25500000920E-02 0.  1.
        2   -1    0    0  501    0  0.00000000000E+00  0.00000000000E+00 -0.27135450464E+04  0.27135450464E+04  0.25500000920E-02 0. -1.
    10030    2    1    2    0    0  0.00000000000E+00  0.00000000000E+00 -0.12237138474E+04  0.42033762454E+04  0.40213052955E+04 0.  0.
        2    1    3    3  502    0  0.19919036843E+04  0.73010033207E+02 -0.33586962542E+03  0.20213409306E+04  0.25500000920E-02 0.  1.
       -2    1    3    3    0  502 -0.19919036843E+04 -0.73010033207E+02 -0.88784422196E+03  0.21820353148E+04  0.25500000920E-02 0. -1.
</event>
<event>
 5   0  0.5515000E-08  0.3945378E+04  0.7818609E-02  0.8015657E-01
       -1   -1    0    0    0  501  0.00000000000E+00  0.00000000000E+00  0.26585704998E+04  0.26585704998E+04  0.50400001928E-02 0.  1.
        1   -1    0    0  501    0  0.00000000000E+00  0.00000000000E+00 -0.14637573717E+04  0.14637573717E+04  0.50400001928E-02 0. -1.
    10030    2    1    2    0    0  0.00000000000E+00  0.00000000000E+00  0.11948131281E+04  0.41223278715E+04  0.39453781401E+04 0.  0.
        1    1    3    3  502    0 -0.15623498563E+04 -0.61244843653E+03  0.16809677801E+04  0.23752226924E+04  0.50400001928E-02 0.  1.
       -1    1    3    3    0  502  0.15623498563E+04  0.61244843653E+03 -0.48615465196E+03  0.17471051790E+04  0.50400001928E-02 0. -1.
</event>
<event>
 5   0  0.5515000E-08  0.3996627E+04  0.7818609E-02  0.8005227E-01
       -1   -1    0    0    0  501  0.00000000000E+00  0.00000000000E+00  0.22539396735E+04  0.22539396735E+04  0.50400001928E-02 0. -1.
        1   -1    0    0  501    0  0.00000000000E+00  0.00000000000E+00 -0.17716789588E+04  0.17716789588E+04  0.50400001928E-02 0.  1.
    10030    2    1    2    0    0  0.00000000000E+00  0.00000000000E+00  0.48226071466E+03  0.40256186323E+04  0.39966273251E+04 0.  0.
        3    1    3    3  502    0  0.97676992155E+03 -0.15520090398E+04  0.10408962959E+04  0.21086196073E+04  0.10100000352E+00 0. -1.
       -3    1    3    3    0  502 -0.97676992155E+03  0.15520090398E+04 -0.55863558123E+03  0.19169990250E+04  0.10100000352E+00 0.  1.
</event>
<event>
 5   0  0.1773903E-07  0.3959124E+04  0.7818609E-02  0.8012844E-01
       -2   -1    0    0    0  501  0.00000000000E+00  0.00000000000E+00  0.21476510736E+04  0.21476510736E+04  0.25500000920E-02 0. -1.
        2   -1    0    0  501    0  0.00000000000E+00  0.00000000000E+00 -0.18246287556E+04  0.18246287556E+04  0.25500000920E-02 0.  1.
    10030    2    1    2    0    0  0.00000000000E+00  0.00000000000E+00  0.32302231801E+03  0.39722798291E+04  0.39591240979E+04 0.  0.
        3    1    3    3  502    0 -0.86694487542E+03 -0.17622756915E+04  0.41023987284E+03  0.20063663158E+04  0.10100000352E+00 0. -1.
       -3    1    3    3    0  502  0.86694487542E+03  0.17622756915E+04 -0.87217554830E+02  0.19659135133E+04  0.10100000352E+00 0.  1.
</event>
<event>
 5   0  0.1776653E-07  0.3979481E+04  0.7818609E-02  0.8008699E-01
       -2   -1    0    0    0  501  0.00000000000E+00  0.00000000000E+00  0.19732851146E+04  0.19732851146E+04  0.25500000920E-02 0. -1.
        2   -1    0    0  501    0  0.00000000000E+00  0.00000000000E+00 -0.20063326111E+04  0.20063326111E+04  0.25500000920E-02 0.  1.
    10030    2    1    2    0    0  0.00000000000E+00  0.00000000000E+00 -0.33047496473E+02  0.39796177258E+04  0.39794805071E+04 0.  0.
        4    1    3    3  502    0  0.19702771075E+04 -0.13030994390E+03  0.22862160881E+03  0.19877731296E+04  0.12699999809E+01 0. -1.
       -4    1    3    3    0  502 -0.19702771075E+04  0.13030994390E+03 -0.26166910528E+03  0.19918445962E+04  0.12699999809E+01 0.  1.
</event>
<event>
 5   0  0.5515000E-08  0.3804801E+04  0.7818609E-02  0.8045125E-01
       -1   -1    0    0    0  501  0.00000000000E+00  0.00000000000E+00  0.20043771824E+04  0.20043771824E+04  0.50400001928E-02 0.  1.
        1   -1    0    0  501    0  0.00000000000E+00  0.00000000000E+00 -0.18056121042E+04  0.18056121042E+04  0.50400001928E-02 0. -1.
    10030    2    1    2    0    0  0.00000000000E+00  0.00000000000E+00  0.19876507819E+03  0.38099892866E+04  0.38048010208E+04 0.  0.
        1    1    3    3  502    0  0.15547651350E+04  0.49419003301E+03  0.10792920658E+04  0.19561159927E+04  0.50400001928E-02 0.  1.
       -1    1    3    3    0  502 -0.15547651350E+04 -0.49419003301E+03 -0.88052698762E+03  0.18538732939E+04  0.50400001928E-02 0. -1.
</event>
<event>
 5   0  0.5515000E-08  0.3990727E+04  0.7818609E-02  0.8006420E-01
       -1   -1    0    0    0  501  0.00000000000E+00  0.00000000000E+00  0.20735189345E+04  0.20735189345E+04  0.50400001928E-02 0. -1.
        1   -1    0    0  501    0  0.00000000000E+00  0.00000000000E+00 -0.19201543156E+04  0.19201543156E+04  0.50400001928E-02 0.  1.
    10030    2    1    2    0    0  0.00000000000E+00  0.00000000000E+00  0.15336461888E+03  0.39936732502E+04  0.39907274177E+04 0.  0.
        5    1    3    3  502    0  0.18083286024E+04  0.80362951296E+03  0.33296022253E+03  0.20066781825E+04  0.46999998093E+01 0.  1.
       -5    1    3    3    0  502 -0.18083286024E+04 -0.80362951296E+03 -0.17959560365E+03  0.19869950677E+04  0.46999998093E+01 0. -1.
</event>
<event>
 5   0  0.1773903E-07  0.3990779E+04  0.7818609E-02  0.8006409E-01
        2   -1    0    0  501    0  0.00000000000E+00  0.00000000000E+00  0.17349864173E+04  0.17349864173E+04  0.25500000920E-02 0.  1.
       -2   -1    0    0    0  501  0.00000000000E+00  0.00000000000E+00 -0.22948762526E+04  0.22948762526E+04  0.25500000920E-02 0. -1.
    10030    2    1    2    0    0  0.00000000000E+00  0.00000000000E+00 -0.55988983527E+03  0.40298626700E+04  0.39907789354E+04 0.  0.
        3    1    3    3  502    0 -0.16288013049E+03  0.14059257589E+04 -0.17002839928E+04  0.22122664493E+04  0.10100000352E+00 0. -1.
       -3    1    3    3    0  502  0.16288013049E+03 -0.14059257589E+04  0.11403941575E+04  0.18175962206E+04  0.10100000352E+00 0.  1.
</event>
<event>
 5   0  0.5515000E-08  0.3975538E+04  0.7818609E-02  0.8009500E-01
       -1   -1    0    0    0  501  0.00000000000E+00  0.00000000000E+00  0.27184174700E+04  0.27184174700E+04  0.50400001928E-02 0. -1.
        1   -1    0    0  501    0  0.00000000000E+00  0.00000000000E+00 -0.14535021281E+04  0.14535021281E+04  0.50400001928E-02 0.  1.
    10030    2    1    2    0    0  0.00000000000E+00  0.00000000000E+00  0.12649153419E+04  0.41719195981E+04  0.39755379901E+04 0.  0.
        4    1    3    3  502    0  0.69188608020E+03 -0.11852098409E+04  0.21414734770E+04  0.25434895283E+04  0.12699999809E+01 0. -1.
       -4    1    3    3    0  502 -0.69188608020E+03  0.11852098409E+04 -0.87655813516E+03  0.16284300698E+04  0.12699999809E+01 0.  1.
</event>
<event>
 5   0  0.1773903E-07  0.3971415E+04  0.7818609E-02  0.8010338E-01
        2   -1    0    0  501    0  0.00000000000E+00  0.00000000000E+00  0.19906533119E+04  0.19906533119E+04  0.25500000920E-02 0. -1.
       -2   -1    0    0    0  501  0.00000000000E+00  0.00000000000E+00 -0.19807739271E+04  0.19807739271E+04  0.25500000920E-02 0.  1.
    10030    2    1    2    0    0  0.00000000000E+00  0.00000000000E+00  0.98793847867E+01  0.39714272390E+04  0.39714149509E+04 0.  0.
        3    1    3    3  502    0 -0.14818563043E+04 -0.72550431207E+03  0.11098320442E+04  0.19884621671E+04  0.10100000352E+00 0.  1.
       -3    1    3    3    0  502  0.14818563043E+04  0.72550431207E+03 -0.10999526594E+04  0.19829650719E+04  0.10100000352E+00 0. -1.
</event>
<event>
 5   0  0.5515000E-08  0.3967252E+04  0.7818609E-02  0.8011186E-01
       -1   -1    0    0    0  501  0.00000000000E+00  0.00000000000E+00  0.16369593392E+04  0.16369593392E+04  0.50400001928E-02 0.  1.
        1   -1    0    0  501    0  0.00000000000E+00  0.00000000000E+00 -0.24037079721E+04  0.24037079721E+04  0.50400001928E-02 0. -1.
    10030    2    1    2    0    0  0.00000000000E+00  0.00000000000E+00 -0.76674863286E+03  0.40406673113E+04  0.39672520533E+04 0.  0.
        2    1    3    3  502    0 -0.18995707286E+04 -0.99683456290E+02  0.18958944060E+03  0.19116092437E+04  0.25500000920E-02 0.  1.
       -2    1    3    3    0  502  0.18995707286E+04  0.99683456290E+02 -0.95633807346E+03  0.21290580676E+04  0.25500000920E-02 0. -1.
</event>
<event>
 5   0  0.1821433E-07  0.4072368E+04  0.7818609E-02  0.7990105E-01
        2   -1    0    0  501    0  0.00000000000E+00  0.00000000000E+00  0.30064835102E+04  0.30064835102E+04  0.25500000920E-02 0. -1.
       -2   -1    0    0    0  501  0.00000000000E+00  0.00000000000E+00 -0.13790347008E+04  0.13790347008E+04  0.25500000920E-02 0.  1.
    10030    2    1    2    0    0  0.00000000000E+00  0.00000000000E+00  0.16274488094E+04  0.43855182110E+04  0.40723679047E+04 0.  0.
        5    1    3    3  502    0 -0.23674330738E+02  0.62558757159E+03  0.29002657186E+04  0.29670664994E+04  0.46999998093E+01 0. -1.
       -5    1    3    3    0  502  0.23674330738E+02 -0.62558757159E+03 -0.12728169092E+04  0.14184517115E+04  0.46999998093E+01 0.  1.
</event>
<event>
 5   0  0.5515000E-08  0.3973201E+04  0.7818609E-02  0.8009975E-01
       -1   -1    0    0    0  501  0.00000000000E+00  0.00000000000E+00  0.16264502437E+04  0.16264502437E+04  0.50400001928E-02 0. -1.
        1   -1    0    0  501    0  0.00000000000E+00  0.00000000000E+00 -0.24265001418E+04  0.24265001418E+04  0.50400001928E-02 0.  1.
    10030    2    1    2    0    0  0.00000000000E+00  0.00000000000E+00 -0.80004989811E+03  0.40529503855E+04  0.39732011009E+04 0.  0.
        1    1    3    3  502    0 -0.19572984490E+04  0.28421374236E+03 -0.20976835775E+03  0.19889186594E+04  0.50400001928E-02 0.  1.
       -1    1    3    3    0  502  0.19572984490E+04 -0.28421374236E+03 -0.59028154036E+03  0.20640317262E+04  0.50400001928E-02 0. -1.
</event>
<event>
 5   0  0.5515000E-08  0.4003930E+04  0.7818609E-02  0.8003754E-01
       -1   -1    0    0    0  501  0.00000000000E+00  0.00000000000E+00  0.21034702323E+04  0.21034702323E+04  0.50400001928E-02 0.  1.
        1   -1    0    0  501    0  0.00000000000E+00  0.00000000000E+00 -0.19053576462E+04  0.19053576462E+04  0.50400001928E-02 0. -1.
    10030    2    1    2    0    0  0.00000000000E+00  0.00000000000E+00  0.19811258609E+03  0.40088278785E+04  0.40039296151E+04 0.  0.
        1    1    3    3  502    0 -0.43507960531E+03  0.59062377530E+03  0.19640568475E+04  0.20965805511E+04  0.50400001928E-02 0.  1.
       -1    1    3    3    0  502  0.43507960531E+03 -0.59062377530E+03 -0.17659442614E+04  0.19122473275E+04  0.50400001928E-02 0. -1.
</event>
<event>
 5   0  0.1773903E-07  0.3538195E+04  0.7818609E-02  0.8104797E-01
       -2   -1    0    0    0  501  0.00000000000E+00  0.00000000000E+00  0.17096336835E+04  0.17096336835E+04  0.25500000920E-02 0. -1.
        2   -1    0    0  501    0  0.00000000000E+00  0.00000000000E+00 -0.18306293779E+04  0.18306293779E+04  0.25500000920E-02 0.  1.
    10030    2    1    2    0    0  0.00000000000E+00  0.00000000000E+00 -0.12099569447E+03  0.35402630614E+04  0.35381948202E+04 0.  0.
        3    1    3    3  502    0  0.97982666811E+03 -0.12796491159E+04 -0.79040591296E+03  0.17950776242E+04  0.10100000352E+00 0.  1.
       -3    1    3    3    0  502 -0.97982666811E+03  0.12796491159E+04  0.66941021849E+03  0.17451854372E+04  0.10100000352E+00 0. -1.
</event>
<event>
 5   0  0.5515000E-08  0.3622792E+04  0.7818609E-02  0.8085291E-01
       -1   -1    0    0    0  501  0.00000000000E+00  0.00000000000E+00  0.22289348610E+04  0.22289348610E+04  0.50400001928E-02 0. -1.
        1   -1    0    0  501    0  0.00000000000E+00  0.00000000000E+00 -0.14720728941E+04  0.14720728941E+04  0.50400001928E-02 0.  1.
    10030    2    1    2    0    0  0.00000000000E+00  0.00000000000E+00  0.75686196685E+03  0.37010077551E+04  0.36227915157E+04 0.  0.
        4    1    3    3  502    0 -0.10531451344E+04 -0.82608037767E+03 -0.86842354622E+03  0.15955201450E+04  0.12699999809E+01 0.  1.
       -4    1    3    3    0  502  0.10531451344E+04  0.82608037767E+03  0.16252855131E+04  0.21054876101E+04  0.12699999809E+01 0. -1.
</event>
<event>
 5   0  0.5515000E-08  0.3987166E+04  0.7818609E-02  0.8007141E-01
        1   -1    0    0  501    0  0.00000000000E+00  0.00000000000E+00  0.22789385515E+04  0.22789385515E+04  0.50400001928E-02 0. -1.
       -1   -1    0    0    0  501  0.00000000000E+00  0.00000000000E+00 -0.17439576449E+04  0.17439576449E+04  0.50400001928E-02 0.  1.
    10030    2    1    2    0    0  0.00000000000E+00  0.00000000000E+00  0.53498090655E+03  0.40228961964E+04  0.39871655642E+04 0.  0.
        1    1    3    3  502    0 -0.11716936280E+04 -0.12660677992E+04  0.12757345809E+04  0.21455284550E+04  0.50400001928E-02 0. -1.
       -1    1    3    3    0  502  0.11716936280E+04  0.12660677992E+04 -0.74075367435E+03  0.18773677414E+04  0.50400001928E-02 0.  1.
</event>
<event>
 5   0  0.1821433E-07  0.3977272E+04  0.7818609E-02  0.8009147E-01
        2   -1    0    0  501    0  0.00000000000E+00  0.00000000000E+00  0.17956075746E+04  0.17956075746E+04  0.25500000920E-02 0. -1.
       -2   -1    0    0    0  501  0.00000000000E+00  0.00000000000E+00 -0.22024152045E+04  0.22024152045E+04  0.25500000920E-02 0.  1.
    10030    2    1    2    0    0  0.00000000000E+00  0.00000000000E+00 -0.40680762987E+03  0.39980227791E+04  0.39772721424E+04 0.  0.
        5    1    3    3  502    0 -0.81904915457E+03  0.14780978247E+03  0.16121093824E+04  0.18142789201E+04  0.46999998093E+01 0. -1.
       -5    1    3    3    0  502  0.81904915457E+03 -0.14780978247E+03 -0.20189170122E+04  0.21837438590E+04  0.46999998093E+01 0.  1.
</event>
<event>
 5   0  0.5515000E-08  0.3851102E+04  0.7818609E-02  0.8035277E-01
        1   -1    0    0  501    0  0.00000000000E+00  0.00000000000E+00  0.23673657932E+04  0.23673657932E+04  0.50400001928E-02 0. -1.
       -1   -1    0    0    0  501  0.00000000000E+00  0.00000000000E+00 -0.15661910226E+04  0.15661910226E+04  0.50400001928E-02 0.  1.
    10030    2    1    2    0    0  0.00000000000E+00  0.00000000000E+00  0.80117477060E+03  0.39335568159E+04  0.38511022073E+04 0.  0.
        5    1    3    3  502    0 -0.17157858056E+04 -0.81815530250E+03  0.86720119013E+02  0.19028508872E+04  0.46999998093E+01 0.  1.
       -5    1    3    3    0  502  0.17157858056E+04  0.81815530250E+03  0.71445465158E+03  0.20307059287E+04  0.46999998093E+01 0. -1.
</event>
<event>
 5   0  0.1773903E-07  0.4016299E+04  0.7818609E-02  0.8001267E-01
       -2   -1    0    0    0  501  0.00000000000E+00  0.00000000000E+00  0.23595269998E+04  0.23595269998E+04  0.25500000920E-02 0.  1.
        2   -1    0    0  501    0  0.00000000000E+00  0.00000000000E+00 -0.17090986421E+04  0.17090986421E+04  0.25500000920E-02 0. -1.
    10030    2    1    2    0    0  0.00000000000E+00  0.00000000000E+00  0.65042835779E+03  0.40686256419E+04  0.40162989885E+04 0.  0.
        3    1    3    3  502    0 -0.62778940143E+03  0.10319107677E+04  0.19503927245E+04  0.22941209984E+04  0.10100000352E+00 0.  1.
       -3    1    3    3    0  502  0.62778940143E+03 -0.10319107677E+04 -0.12999643667E+04  0.17745046436E+04  0.10100000352E+00 0. -1.
</event>
<event>
 5   0  0.5515000E-08  0.4021442E+04  0.7818609E-02  0.8000235E-01
       -1   -1    0    0    0  501  0.00000000000E+00  0.00000000000E+00  0.22506888196E+04  0.22506888196E+04  0.50400001928E-02 0. -1.
        1   -1    0    0  501    0  0.00000000000E+00  0.00000000000E+00 -0.17963387577E+04  0.17963387577E+04  0.50400001928E-02 0.  1.
    10030    2    1    2    0    0  0.00000000000E+00  0.00000000000E+00  0.45435006197E+03  0.40470275773E+04  0.40214423075E+04 0.  0.
        2    1    3    3  502    0 -0.14324135455E+04  0.34536374071E+01  0.16472441390E+04  0.21829415353E+04  0.25500000920E-02 0. -1.
       -2    1    3    3    0  502  0.14324135455E+04 -0.34536374071E+01 -0.11928940770E+04  0.18640860420E+04  0.25500000920E-02 0.  1.
</event>
<event>
 5   0  0.5515000E-08  0.4028586E+04  0.7818609E-02  0.7998805E-01
       -1   -1    0    0    0  501  0.00000000000E+00  0.00000000000E+00  0.16460301640E+04  0.16460301641E+04  0.50400001928E-02 0.  1.
        1   -1    0    0  501    0  0.00000000000E+00  0.00000000000E+00 -0.24649468407E+04  0.24649468407E+04  0.50400001928E-02 0. -1.
    10030    2    1    2    0    0  0.00000000000E+00  0.00000000000E+00 -0.81891667670E+03  0.41109770048E+04  0.40285862794E+04 0.  0.
        4    1    3    3  502    0 -0.93546691142E+03  0.62676519707E+03  0.12948613785E+04  0.17159838452E+04  0.12699999809E+01 0.  1.
       -4    1    3    3    0  502  0.93546691142E+03 -0.62676519707E+03 -0.21137780552E+04  0.23949931596E+04  0.12699999809E+01 0. -1.
</event>
<event>
 5   0  0.5515000E-08  0.3997440E+04  0.7818609E-02  0.8005063E-01
        1   -1    0    0  501    0  0.00000000000E+00  0.00000000000E+00  0.24056305148E+04  0.24056305148E+04  0.50400001928E-02 0.  1.
       -1   -1    0    0    0  501  0.00000000000E+00  0.00000000000E+00 -0.16606376713E+04  0.16606376713E+04  0.50400001928E-02 0. -1.
    10030    2    1    2    0    0  0.00000000000E+00  0.00000000000E+00  0.74499284348E+03  0.40662681862E+04  0.39974395086E+04 0.  0.
        1    1    3    3  502    0  0.10032441102E+04 -0.70550625751E+03 -0.12328539924E+04  0.17390131657E+04  0.50400001928E-02 0. -1.
       -1    1    3    3    0  502 -0.10032441102E+04  0.70550625751E+03  0.19778468359E+04  0.23272550204E+04  0.50400001928E-02 0.  1.
</event>
<event>
 5   0  0.5515000E-08  0.3437069E+04  0.7818609E-02  0.8128868E-01
        1   -1    0    0  501    0  0.00000000000E+00  0.00000000000E+00  0.17548072806E+04  0.17548072806E+04  0.50400001928E-02 0.  1.
       -1   -1    0    0    0  501  0.00000000000E+00  0.00000000000E+00 -0.16830113454E+04  0.16830113454E+04  0.50400001928E-02 0. -1.
    10030    2    1    2    0    0  0.00000000000E+00  0.00000000000E+00  0.71795935187E+02  0.34378186260E+04  0.34370688455E+04 0.  0.
        4    1    3    3  502    0  0.24134076180E+03 -0.47343259741E+03 -0.15987703811E+04  0.16847706467E+04  0.12699999809E+01 0. -1.
       -4    1    3    3    0  502 -0.24134076180E+03  0.47343259741E+03  0.16705663163E+04  0.17530479793E+04  0.12699999809E+01 0.  1.
</event>
<event>
 5   0  0.1785559E-07  0.3910183E+04  0.7818609E-02  0.8022915E-01
        2   -1    0    0  501    0  0.00000000000E+00  0.00000000000E+00  0.19902569304E+04  0.19902569304E+04  0.25500000920E-02 0.  1.
       -2   -1    0    0    0  501  0.00000000000E+00  0.00000000000E+00 -0.19205469126E+04  0.19205469126E+04  0.25500000920E-02 0. -1.
    10030    2    1    2    0    0  0.00000000000E+00  0.00000000000E+00  0.69710017835E+02  0.39108038429E+04  0.39101825036E+04 0.  0.
        2    1    3    3  502    0  0.15338608811E+04 -0.80092783627E+03 -0.87532652175E+03  0.19391779498E+04  0.25500000920E-02 0.  1.
       -2    1    3    3    0  502 -0.15338608811E+04  0.80092783627E+03  0.94503653958E+03  0.19716258931E+04  0.25500000920E-02 0. -1.
</event>
<event>
 5   0  0.1819906E-07  0.3998834E+04  0.7818609E-02  0.8004782E-01
        2   -1    0    0  501    0  0.00000000000E+00  0.00000000000E+00  0.19989222977E+04  0.19989222977E+04  0.25500000920E-02 0. -1.
       -2   -1    0    0    0  501  0.00000000000E+00  0.00000000000E+00 -0.19999117817E+04  0.19999117817E+04  0.25500000920E-02 0.  1.
    10030    2    1    2    0    0  0.00000000000E+00  0.00000000000E+00 -0.98948401702E+00  0.39988340794E+04  0.39988339570E+04 0.  0.
        1    1    3    3  502    0  0.76608022284E+03 -0.73173745555E+02 -0.18458768590E+04  0.19998736668E+04  0.50400001928E-02 0.  1.
       -1    1    3    3    0  502 -0.76608022284E+03  0.73173745555E+02  0.18448873749E+04  0.19989604126E+04  0.50400001928E-02 0. -1.
</event>
<event>
 5   0  0.1773903E-07  0.3969608E+04  0.7818609E-02  0.8010706E-01
       -2   -1    0    0    0  501  0.00000000000E+00  0.00000000000E+00  0.21077071092E+04  0.21077071092E+04  0.25500000920E-02 0.  1.
        2   -1    0    0  501    0  0.00000000000E+00  0.00000000000E+00 -0.18690675780E+04  0.18690675780E+04  0.25500000920E-02 0. -1.
    10030    2    1    2    0    0  0.00000000000E+00  0.00000000000E+00  0.23863953122E+03  0.39767746872E+04  0.39696080520E+04 0.  0.
        3    1    3    3  502    0  0.70470568917E+03  0.18361613796E+04 -0.14827347913E+03  0.19723295250E+04  0.10100000352E+00 0. -1.
       -3    1    3    3    0  502 -0.70470568917E+03 -0.18361613796E+04  0.38691301035E+03  0.20044451622E+04  0.10100000352E+00 0.  1.
</event>
<event>
 5   0  0.1819906E-07  0.3935501E+04  0.7818609E-02  0.8017686E-01
       -2   -1    0    0    0  501  0.00000000000E+00  0.00000000000E+00  0.15163474929E+04  0.15163474929E+04  0.25500000920E-02 0.  1.
        2   -1    0    0  501    0  0.00000000000E+00  0.00000000000E+00 -0.25535315730E+04  0.25535315730E+04  0.25500000920E-02 0. -1.
    10030    2    1    2    0    0  0.00000000000E+00  0.00000000000E+00 -0.10371840801E+04  0.40698790659E+04  0.39355005775E+04 0.  0.
        1    1    3    3  502    0 -0.17587683310E+04 -0.28403072996E+03  0.34546193449E+03  0.18147406002E+04  0.50400001928E-02 0.  1.
       -1    1    3    3    0  502  0.17587683310E+04  0.28403072996E+03 -0.13826460146E+04  0.22551384657E+04  0.50400001928E-02 0. -1.
</event>
<event>
 5   0  0.1776653E-07  0.3941965E+04  0.7818609E-02  0.8016357E-01
       -2   -1    0    0    0  501  0.00000000000E+00  0.00000000000E+00  0.31356959489E+04  0.31356959489E+04  0.25500000920E-02 0. -1.
        2   -1    0    0  501    0  0.00000000000E+00  0.00000000000E+00 -0.12388867003E+04  0.12388867003E+04  0.25500000920E-02 0.  1.
    10030    2    1    2    0    0  0.00000000000E+00  0.00000000000E+00  0.18968092486E+04  0.43745826492E+04  0.39419649959E+04 0.  0.
        4    1    3    3  502    0  0.50925164352E+03 -0.63329744174E+03 -0.10443146922E+04  0.13232526876E+04  0.12699999809E+01 0.  1.
       -4    1    3    3    0  502 -0.50925164352E+03  0.63329744174E+03  0.29411239408E+04  0.30513299615E+04  0.12699999809E+01 0. -1.
</event>
<event>
 5   0  0.5515000E-08  0.3977030E+04  0.7818609E-02  0.8009196E-01
       -1   -1    0    0    0  501  0.00000000000E+00  0.00000000000E+00  0.22820981617E+04  0.22820981617E+04  0.50400001928E-02 0. -1.
        1   -1    0    0  501    0  0.00000000000E+00  0.00000000000E+00 -0.17327005498E+04  0.17327005498E+04  0.50400001928E-02 0.  1.
    10030    2    1    2    0    0  0.00000000000E+00  0.00000000000E+00  0.54939761194E+03  0.40147987115E+04  0.39770304196E+04 0.  0.
        3    1    3    3  502    0 -0.13465254325E+04 -0.61796434224E+03 -0.10642385459E+04  0.18241749810E+04  0.10100000352E+00 0.  1.
       -3    1    3    3    0  502  0.13465254325E+04  0.61796434224E+03  0.16136361578E+04  0.21906237305E+04  0.10100000352E+00 0. -1.
</event>
<event>
 5   0  0.5515000E-08  0.3862887E+04  0.7818609E-02  0.8032793E-01
        1   -1    0    0  501    0  0.00000000000E+00  0.00000000000E+00  0.17547121127E+04  0.17547121127E+04  0.50400001928E-02 0.  1.
       -1   -1    0    0    0  501  0.00000000000E+00  0.00000000000E+00 -0.21259750252E+04  0.21259750252E+04  0.50400001928E-02 0. -1.
    10030    2    1    2    0    0  0.00000000000E+00  0.00000000000E+00 -0.37126291254E+03  0.38806871379E+04  0.38628870695E+04 0.  0.
        1    1    3    3  502    0 -0.32037791703E+03 -0.55236652811E+03 -0.20168648957E+04  0.21155365273E+04  0.50400001928E-02 0. -1.
       -1    1    3    3    0  502  0.32037791703E+03  0.55236652811E+03  0.16456019831E+04  0.17651506106E+04  0.50400001928E-02 0.  1.
</event>
<event>
 5   0  0.5515000E-08  0.3948901E+04  0.7818609E-02  0.8014935E-01
        1   -1    0    0  501    0  0.00000000000E+00  0.00000000000E+00  0.17488838752E+04  0.17488838752E+04  0.50400001928E-02 0. -1.
       -1   -1    0    0    0  501  0.00000000000E+00  0.00000000000E+00 -0.22291100011E+04  0.22291100011E+04  0.50400001928E-02 0.  1.
    10030    2    1    2    0    0  0.00000000000E+00  0.00000000000E+00 -0.48022612588E+03  0.39779938763E+04  0.39489008784E+04 0.  0.
        1    1    3    3  502    0 -0.54248260727E+03 -0.12985933024E+04  0.11549443875E+04  0.18205846540E+04  0.50400001928E-02 0.  1.
       -1    1    3    3    0  502  0.54248260727E+03  0.12985933024E+04 -0.16351705134E+04  0.21574092222E+04  0.50400001928E-02 0. -1.
</event>
<event>
 5   0  0.5515000E-08  0.4195030E+04  0.7818609E-02  0.7966318E-01
       -1   -1    0    0    0  501  0.00000000000E+00  0.00000000000E+00  0.20824293516E+04  0.20824293516E+04  0.50400001928E-02 0. -1.
        1   -1    0    0  501    0  0.00000000000E+00  0.00000000000E+00 -0.21127098016E+04  0.21127098016E+04  0.50400001928E-02 0.  1.
    10030    2    1    2    0    0  0.00000000000E+00  0.00000000000E+00 -0.30280449959E+02  0.41951391532E+04  0.41950298699E+04 0.  0.
        4    1    3    3  502    0 -0.59555751021E+03  0.51228666294E+03  0.19297602838E+04  0.20835313146E+04  0.12699999809E+01 0. -1.
       -4    1    3    3    0  502  0.59555751021E+03 -0.51228666294E+03 -0.19600407338E+04  0.21116078386E+04  0.12699999809E+01 0.  1.
</event>
<event>
 5   0  0.5515000E-08  0.3951509E+04  0.7818609E-02  0.8014401E-01
       -1   -1    0    0    0  501  0.00000000000E+00  0.00000000000E+00  0.21765964935E+04  0.21765964935E+04  0.50400001928E-02 0. -1.
        1   -1    0    0  501    0  0.00000000000E+00  0.00000000000E+00 -0.17934449503E+04  0.17934449503E+04  0.50400001928E-02 0.  1.
    10030    2    1    2    0    0  0.00000000000E+00  0.00000000000E+00  0.38315154320E+03  0.39700414439E+04  0.39515090739E+04 0.  0.
        3    1    3    3  502    0 -0.36817480900E+03 -0.18401928467E+04 -0.42917594076E+03  0.19251115296E+04  0.10100000352E+00 0.  1.
       -3    1    3    3    0  502  0.36817480900E+03  0.18401928467E+04  0.81232748396E+03  0.20449299143E+04  0.10100000352E+00 0. -1.
</event>
<event>
 5   0  0.1776653E-07  0.4016653E+04  0.7818609E-02  0.8001195E-01
       -2   -1    0    0    0  501  0.00000000000E+00  0.00000000000E+00  0.21702104624E+04  0.21702104624E+04  0.25500000920E-02 0.  1.
        2   -1    0    0  501    0  0.00000000000E+00  0.00000000000E+00 -0.18585182136E+04  0.18585182136E+04  0.25500000920E-02 0. -1.
    10030    2    1    2    0    0  0.00000000000E+00  0.00000000000E+00  0.31169224877E+03  0.40287286760E+04  0.40166531698E+04 0.  0.
        4    1    3    3  502    0  0.19065857615E+04  0.33653907192E+03 -0.37965618720E+03  0.19729339183E+04  0.12699999809E+01 0. -1.
       -4    1    3    3    0  502 -0.19065857615E+04 -0.33653907192E+03  0.69134843597E+03  0.20557947576E+04  0.12699999809E+01 0.  1.
</event>
<event>
 5   0  0.5515000E-08  0.3993379E+04  0.7818609E-02  0.8005883E-01
       -1   -1    0    0    0  501  0.00000000000E+00  0.00000000000E+00  0.19926254552E+04  0.19926254552E+04  0.50400001928E-02 0.  1.
        1   -1    0    0  501    0  0.00000000000E+00  0.00000000000E+00 -0.20007621679E+04  0.20007621679E+04  0.50400001928E-02 0. -1.
    10030    2    1    2    0    0  0.00000000000E+00  0.00000000000E+00 -0.81367126469E+01  0.39933876231E+04  0.39933793336E+04 0.  0.
        2    1    3    3  502    0  0.12614052187E+04  0.15321394504E+04 -0.22355731822E+03  0.19971410305E+04  0.25500000920E-02 0.  1.
       -2    1    3    3    0  502 -0.12614052187E+04 -0.15321394504E+04  0.21542060557E+03  0.19962465926E+04  0.25500000920E-02 0. -1.
</event>
<event>
 5   0  0.5515000E-08  0.3779456E+04  0.7818609E-02  0.8050578E-01
       -1   -1    0    0    0  501  0.00000000000E+00  0.00000000000E+00  0.18191797620E+04  0.18191797620E+04  0.50400001928E-02 0. -1.
        1   -1    0    0  501    0  0.00000000000E+00  0.00000000000E+00 -0.19630124920E+04  0.19630124920E+04  0.50400001928E-02 0.  1.
    10030    2    1    2    0    0  0.00000000000E+00  0.00000000000E+00 -0.14383273004E+03  0.37821922540E+04  0.37794563620E+04 0.  0.
        3    1    3    3  502    0 -0.20483082409E+03 -0.15997055477E+04  0.91371237477E+03  0.18536137192E+04  0.10100000352E+00 0. -1.
       -3    1    3    3    0  502  0.20483082409E+03  0.15997055477E+04 -0.10575451048E+04  0.19285785348E+04  0.10100000352E+00 0.  1.
</event>
<event>
 5   0  0.1821433E-07  0.3967217E+04  0.7818609E-02  0.8011193E-01
       -2   -1    0    0    0  501  0.00000000000E+00  0.00000000000E+00  0.13915512079E+04  0.13915512079E+04  0.25500000920E-02 0. -1.
        2   -1    0    0  501    0  0.00000000000E+00  0.00000000000E+00 -0.28275665067E+04  0.28275665067E+04  0.25500000920E-02 0.  1.
    10030    2    1    2    0    0  0.00000000000E+00  0.00000000000E+00 -0.14360152988E+04  0.42191177146E+04  0.39672174570E+04 0.  0.
        5    1    3    3  502    0  0.19503933508E+04 -0.34550433610E+03 -0.83092877541E+03  0.21479925952E+04  0.46999998093E+01 0. -1.
       -5    1    3    3    0  502 -0.19503933508E+04  0.34550433610E+03 -0.60508652337E+03  0.20711251194E+04  0.46999998093E+01 0.  1.
</event>
<event>
 5   0  0.5515000E-08  0.4072083E+04  0.7818609E-02  0.7990161E-01
       -1   -1    0    0    0  501  0.00000000000E+00  0.00000000000E+00  0.13587355618E+04  0.13587355618E+04  0.50400001928E-02 0.  1.
        1   -1    0    0  501    0  0.00000000000E+00  0.00000000000E+00 -0.30509720062E+04  0.30509720062E+04  0.50400001928E-02 0. -1.
    10030    2    1    2    0    0  0.00000000000E+00  0.00000000000E+00 -0.16922364443E+04  0.44097075680E+04  0.40720825940E+04 0.  0.
        2    1    3    3  502    0  0.10700549791E+04  0.48703017374E+03 -0.26462452513E+04  0.28956570893E+04  0.25500000920E-02 0. -1.
       -2    1    3    3    0  502 -0.10700549791E+04 -0.48703017374E+03  0.95400880697E+03  0.15140504788E+04  0.25500000920E-02 0.  1.
</event>
<event>
 5   0  0.5515000E-08  0.3981951E+04  0.7818609E-02  0.8008197E-01
        1   -1    0    0  501    0  0.00000000000E+00  0.00000000000E+00  0.23754467796E+04  0.23754467796E+04  0.50400001928E-02 0. -1.
       -1   -1    0    0    0  501  0.00000000000E+00  0.00000000000E+00 -0.16687321563E+04  0.16687321563E+04  0.50400001928E-02 0.  1.
    10030    2    1    2    0    0  0.00000000000E+00  0.00000000000E+00  0.70671462321E+03  0.40441789359E+04  0.39819514948E+04 0.  0.
        5    1    3    3  502    0 -0.51864610765E+03  0.86154979401E+03 -0.13918382366E+04  0.17171189823E+04  0.46999998093E+01 0.  1.
       -5    1    3    3    0  502  0.51864610765E+03 -0.86154979401E+03  0.20985528598E+04  0.23270599536E+04  0.46999998093E+01 0. -1.
</event>
<event>
 5   0  0.5515000E-08  0.3963235E+04  0.7818609E-02  0.8012004E-01
       -1   -1    0    0    0  501  0.00000000000E+00  0.00000000000E+00  0.15154302519E+04  0.15154302519E+04  0.50400001928E-02 0. -1.
        1   -1    0    0  501    0  0.00000000000E+00  0.00000000000E+00 -0.25912170319E+04  0.25912170319E+04  0.50400001928E-02 0.  1.
    10030    2    1    2    0    0  0.00000000000E+00  0.00000000000E+00 -0.10757867801E+04  0.41066472838E+04  0.39632353851E+04 0.  0.
        5    1    3    3  502    0 -0.10747494083E+04  0.43704683120E+02 -0.22623845547E+04  0.25050753189E+04  0.46999998093E+01 0.  1.
       -5    1    3    3    0  502  0.10747494083E+04 -0.43704683120E+02  0.11865977747E+04  0.16015719649E+04  0.46999998093E+01 0. -1.
</event>
<event>
 5   0  0.1785559E-07  0.3342259E+04  0.7818609E-02  0.8152225E-01
        2   -1    0    0  501    0  0.00000000000E+00  0.00000000000E+00  0.20372976031E+04  0.20372976031E+04  0.25500000920E-02 0.  1.
       -2   -1    0    0    0  501  0.00000000000E+00  0.00000000000E+00 -0.13707736324E+04  0.13707736324E+04  0.25500000920E-02 0. -1.
    10030    2    1    2    0    0  0.00000000000E+00  0.00000000000E+00  0.66652397071E+03  0.34080712354E+04  0.33422590178E+04 0.  0.
        2    1    3    3  502    0 -0.49327835247E+02 -0.10076442769E+04 -0.10252226260E+04  0.14383538010E+04  0.25500000920E-02 0.  1.
       -2    1    3    3    0  502  0.49327835247E+02  0.10076442769E+04  0.16917465967E+04  0.19697174344E+04  0.25500000920E-02 0. -1.
</event>
<event>
 5   0  0.1785559E-07  0.3898507E+04  0.7818609E-02  0.8025340E-01
        2   -1    0    0  501    0  0.00000000000E+00  0.00000000000E+00  0.25424408027E+04  0.25424408027E+04  0.25500000920E-02 0.  1.
       -2   -1    0    0    0  501  0.00000000000E+00  0.00000000000E+00 -0.14944652451E+04  0.14944652451E+04  0.25500000920E-02 0. -1.
    10030    2    1    2    0    0  0.00000000000E+00  0.00000000000E+00  0.10479755576E+04  0.40369060477E+04  0.38985071077E+04 0.  0.
        2    1    3    3  502    0 -0.16759581734E+03  0.70883972350E+03 -0.13482496116E+04  0.15324226332E+04  0.25500000920E-02 0. -1.
       -2    1    3    3    0  502  0.16759581734E+03 -0.70883972350E+03  0.23962251693E+04  0.25044834145E+04  0.25500000920E-02 0.  1.
</event>
<event>
 5   0  0.1821433E-07  0.3972502E+04  0.7818609E-02  0.8010117E-01
        2   -1    0    0  501    0  0.00000000000E+00  0.00000000000E+00  0.16680424265E+04  0.16680424265E+04  0.25500000920E-02 0.  1.
       -2   -1    0    0    0  501  0.00000000000E+00  0.00000000000E+00 -0.23651632119E+04  0.23651632119E+04  0.25500000920E-02 0. -1.
    10030    2    1    2    0    0  0.00000000000E+00  0.00000000000E+00 -0.69712078536E+03  0.40332056384E+04  0.39725017725E+04 0.  0.
        5    1    3    3  502    0 -0.10396277817E+04  0.27519773940E+03  0.13468709847E+04  0.17235554124E+04  0.46999998093E+01 0.  1.
       -5    1    3    3    0  502  0.10396277817E+04 -0.27519773940E+03 -0.20439917701E+04  0.23096502260E+04  0.46999998093E+01 0. -1.
</event>
<event>
 5   0  0.1776653E-07  0.4024421E+04  0.7818609E-02  0.7999638E-01
        2   -1    0    0  501    0  0.00000000000E+00  0.00000000000E+00  0.19505289352E+04  0.19505289352E+04  0.25500000920E-02 0. -1.
       -2   -1    0    0    0  501  0.00000000000E+00  0.00000000000E+00 -0.20758422580E+04  0.20758422580E+04  0.25500000920E-02 0.  1.
    10030    2    1    2    0    0  0.00000000000E+00  0.00000000000E+00 -0.12531332278E+03  0.40263711932E+04  0.40244206485E+04 0.  0.
        4    1    3    3  502    0 -0.40401739282E+03  0.14146704771E+04  0.13107672796E+04  0.19704403281E+04  0.12699999809E+01 0. -1.
       -4    1    3    3    0  502  0.40401739282E+03 -0.14146704771E+04 -0.14360806024E+04  0.20559308651E+04  0.12699999809E+01 0.  1.
</event>
<event>
 5   0  0.5515000E-08  0.4054210E+04  0.7818609E-02  0.7993699E-01
       -1   -1    0    0    0  501  0.00000000000E+00  0.00000000000E+00  0.16634981306E+04  0.16634981306E+04  0.50400001928E-02 0.  1.
        1   -1    0    0  501    0  0.00000000000E+00  0.00000000000E+00 -0.24701894693E+04  0.24701894693E+04  0.50400001928E-02 0. -1.
    10030    2    1    2    0    0  0.00000000000E+00  0.00000000000E+00 -0.80669133875E+03  0.41336875999E+04  0.40542104358E+04 0.  0.
        3    1    3    3  502    0 -0.93369015033E+03 -0.15035329919E+04 -0.14110353464E+04  0.22634949776E+04  0.10100000352E+00 0. -1.
       -3    1    3    3    0  502  0.93369015033E+03  0.15035329919E+04  0.60434400765E+03  0.18701926223E+04  0.10100000352E+00 0.  1.
</event>
<event>
 5   0  0.1776653E-07  0.3997492E+04  0.7818609E-02  0.8005053E-01
       -2   -1    0    0    0  501  0.00000000000E+00  0.00000000000E+00  0.14147760498E+04  0.14147760498E+04  0.25500000920E-02 0.  1.
        2   -1    0    0  501    0  0.00000000000E+00  0.00000000000E+00 -0.28237588798E+04  0.28237588798E+04  0.25500000920E-02 0. -1.
    10030    2    1    2    0    0  0.00000000000E+00  0.00000000000E+00 -0.14089828300E+04  0.42385349295E+04  0.39974924307E+04 0.  0.
        4    1    3    3  502    0  0.13149743614E+04 -0.10337337141E+04 -0.18646448628E+04  0.25049281507E+04  0.12699999809E+01 0.  1.
       -4    1    3    3    0  502 -0.13149743614E+04  0.10337337141E+04  0.45566203283E+03  0.17336067789E+04  0.12699999809E+01 0. -1.
</event>
<event>
 5   0  0.5515000E-08  0.3656985E+04  0.7818609E-02  0.8077562E-01
        1   -1    0    0  501    0  0.00000000000E+00  0.00000000000E+00  0.22147427882E+04  0.22147427882E+04  0.50400001928E-02 0.  1.
       -1   -1    0    0    0  501  0.00000000000E+00  0.00000000000E+00 -0.15096037558E+04  0.15096037558E+04  0.50400001928E-02 0. -1.
    10030    2    1    2    0    0  0.00000000000E+00  0.00000000000E+00  0.70513903241E+03  0.37243465441E+04  0.36569845673E+04 0.  0.
        4    1    3    3  502    0  0.95950101522E+03  0.11978079804E+04  0.13648587263E+04  0.20538322988E+04  0.12699999809E+01 0.  1.
       -4    1    3    3    0  502 -0.95950101522E+03 -0.11978079804E+04 -0.65971969386E+03  0.16705142452E+04  0.12699999809E+01 0. -1.
</event>
<event>
 5   0  0.1819906E-07  0.3661851E+04  0.7818609E-02  0.8076469E-01
       -2   -1    0    0    0  501  0.00000000000E+00  0.00000000000E+00  0.16447693175E+04  0.16447693175E+04  0.25500000920E-02 0. -1.
        2   -1    0    0  501    0  0.00000000000E+00  0.00000000000E+00 -0.20381508726E+04  0.20381508726E+04  0.25500000920E-02 0.  1.
    10030    2    1    2    0    0  0.00000000000E+00  0.00000000000E+00 -0.39338155507E+03  0.36829201900E+04  0.36618509088E+04 0.  0.
        1    1    3    3  502    0 -0.43966752437E+03 -0.68719067115E+03 -0.18452525893E+04  0.20175469434E+04  0.50400001928E-02 0.  1.
       -1    1    3    3    0  502  0.43966752437E+03  0.68719067115E+03  0.14518710342E+04  0.16653732466E+04  0.50400001928E-02 0. -1.
</event>
<event>
 5   0  0.5515000E-08  0.3995213E+04  0.7818609E-02  0.8005513E-01
        1   -1    0    0  501    0  0.00000000000E+00  0.00000000000E+00  0.21138004684E+04  0.21138004684E+04  0.50400001928E-02 0.  1.
       -1   -1    0    0    0  501  0.00000000000E+00  0.00000000000E+00 -0.18877997907E+04  0.18877997907E+04  0.50400001928E-02 0. -1.
    10030    2    1    2    0    0  0.00000000000E+00  0.00000000000E+00  0.22600067777E+03  0.40016002591E+04  0.39952131767E+04 0.  0.
        5    1    3    3  502    0  0.15652111536E+04  0.10761213667E+04 -0.50644358059E+03  0.19658154393E+04  0.46999998093E+01 0.  1.
       -5    1    3    3    0  502 -0.15652111536E+04 -0.10761213667E+04  0.73244425836E+03  0.20357848198E+04  0.46999998093E+01 0. -1.
</event>
<event>
 5   0  0.1773903E-07  0.3749627E+04  0.7818609E-02  0.8057052E-01
       -2   -1    0    0    0  501  0.00000000000E+00  0.00000000000E+00  0.24014097995E+04  0.24014097995E+04  0.25500000920E-02 0.  1.
        2   -1    0    0  501    0  0.00000000000E+00  0.00000000000E+00 -0.14636924970E+04  0.14636924970E+04  0.25500000920E-02 0. -1.
    10030    2    1    2    0    0  0.00000000000E+00  0.00000000000E+00  0.93771730250E+03  0.38651022966E+04  0.37496269179E+04 0.  0.
        3    1    3    3  502    0 -0.11110374332E+04 -0.21373559981E+03  0.20098350886E+04  0.23064093691E+04  0.10100000352E+00 0.  1.
       -3    1    3    3    0  502  0.11110374332E+04  0.21373559981E+03 -0.10721177861E+04  0.15586929274E+04  0.10100000352E+00 0. -1.
</event>
<event>
 5   0  0.5515000E-08  0.4049540E+04  0.7818609E-02  0.7994627E-01
        1   -1    0    0  501    0  0.00000000000E+00  0.00000000000E+00  0.27475467812E+04  0.27475467812E+04  0.50400001928E-02 0. -1.
       -1   -1    0    0    0  501  0.00000000000E+00  0.00000000000E+00 -0.14921288984E+04  0.14921288984E+04  0.50400001928E-02 0.  1.
    10030    2    1    2    0    0  0.00000000000E+00  0.00000000000E+00  0.12554178829E+04  0.42396756796E+04  0.40495401971E+04 0.  0.
        5    1    3    3  502    0 -0.16506693150E+04  0.10185222076E+04  0.12360010468E+04  0.22999602937E+04  0.46999998093E+01 0.  1.
       -5    1    3    3    0  502  0.16506693150E+04 -0.10185222076E+04  0.19416836052E+02  0.19397153859E+04  0.46999998093E+01 0. -1.
</event>
<event>
 5   0  0.1819906E-07  0.4002931E+04  0.7818609E-02  0.8003955E-01
        2   -1    0    0  501    0  0.00000000000E+00  0.00000000000E+00  0.19393052223E+04  0.19393052223E+04  0.25500000920E-02 0.  1.
       -2   -1    0    0    0  501  0.00000000000E+00  0.00000000000E+00 -0.20656186433E+04  0.20656186433E+04  0.25500000920E-02 0. -1.
    10030    2    1    2    0    0  0.00000000000E+00  0.00000000000E+00 -0.12631342103E+03  0.40049238656E+04  0.40029314370E+04 0.  0.
        1    1    3    3  502    0  0.53821363813E+03 -0.15711631307E+04 -0.11806896326E+04  0.20377083972E+04  0.50400001928E-02 0. -1.
       -1    1    3    3    0  502 -0.53821363813E+03  0.15711631307E+04  0.10543762116E+04  0.19672154684E+04  0.50400001928E-02 0.  1.
</event>
<event>
 5   0  0.1773903E-07  0.3952046E+04  0.7818609E-02  0.8014291E-01
       -2   -1    0    0    0  501  0.00000000000E+00  0.00000000000E+00  0.23833265193E+04  0.23833265193E+04  0.25500000920E-02 0. -1.
        2   -1    0    0  501    0  0.00000000000E+00  0.00000000000E+00 -0.16383263239E+04  0.16383263239E+04  0.25500000920E-02 0.  1.
    10030    2    1    2    0    0  0.00000000000E+00  0.00000000000E+00  0.74500019546E+03  0.40216528432E+04  0.39520458373E+04 0.  0.
        3    1    3    3  502    0 -0.48026057553E+03 -0.18112298682E+04 -0.26581393862E+03  0.18925804913E+04  0.10100000352E+00 0.  1.
       -3    1    3    3    0  502  0.48026057553E+03  0.18112298682E+04  0.10108141341E+04  0.21290723519E+04  0.10100000352E+00 0. -1.
</event>
<event>
 5   0  0.5515000E-08  0.3974965E+04  0.7818609E-02  0.8009616E-01
        1   -1    0    0  501    0  0.00000000000E+00  0.00000000000E+00  0.27039847284E+04  0.27039847284E+04  0.50400001928E-02 0.  1.
       -1   -1    0    0    0  501  0.00000000000E+00  0.00000000000E+00 -0.14608392081E+04  0.14608392081E+04  0.50400001928E-02 0. -1.
    10030    2    1    2    0    0  0.00000000000E+00  0.00000000000E+00  0.12431455203E+04  0.41648239365E+04  0.39749651114E+04 0.  0.
        4    1    3    3  502    0 -0.54802083733E+03 -0.10314202782E+04  0.23064635797E+04  0.25853298602E+04  0.12699999809E+01 0.  1.
       -4    1    3    3    0  502  0.54802083733E+03  0.10314202782E+04 -0.10633180594E+04  0.15794940762E+04  0.12699999809E+01 0. -1.
</event>
<event>
 5   0  0.5515000E-08  0.3987331E+04  0.7818609E-02  0.8007107E-01
       -1   -1    0    0    0  501  0.00000000000E+00  0.00000000000E+00  0.20023678884E+04  0.20023678884E+04  0.50400001928E-02 0. -1.
        1   -1    0    0  501    0  0.00000000000E+00  0.00000000000E+00 -0.19850011221E+04  0.19850011221E+04  0.50400001928E-02 0.  1.
    10030    2    1    2    0    0  0.00000000000E+00  0.00000000000E+00  0.17366766339E+02  0.39873690105E+04  0.39873311903E+04 0.  0.
        4    1    3    3  502    0 -0.14737688073E+04 -0.38548429165E+02 -0.13334248775E+04  0.19878390266E+04  0.12699999809E+01 0.  1.
       -4    1    3    3    0  502  0.14737688073E+04  0.38548429165E+02  0.13507916438E+04  0.19995299839E+04  0.12699999809E+01 0. -1.
</event>
<event>
 5   0  0.1776653E-07  0.3989875E+04  0.7818609E-02  0.8006592E-01
       -2   -1    0    0    0  501  0.00000000000E+00  0.00000000000E+00  0.19793498014E+04  0.19793498014E+04  0.25500000920E-02 0. -1.
        2   -1    0    0  501    0  0.00000000000E+00  0.00000000000E+00 -0.20106480846E+04  0.20106480846E+04  0.25500000920E-02 0.  1.
    10030    2    1    2    0    0  0.00000000000E+00  0.00000000000E+00 -0.31298283147E+02  0.39899978860E+04  0.39898751294E+04 0.  0.
        4    1    3    3  502    0 -0.15026266213E+04 -0.11207678071E+04 -0.69814140869E+03  0.20003525389E+04  0.12699999809E+01 0.  1.
       -4    1    3    3    0  502  0.15026266213E+04  0.11207678071E+04  0.66684312554E+03  0.19896453471E+04  0.12699999809E+01 0. -1.
</event>
<event>
 5   0  0.1819906E-07  0.3985059E+04  0.7818609E-02  0.8007567E-01
       -2   -1    0    0    0  501  0.00000000000E+00  0.00000000000E+00  0.19640535110E+04  0.19640535110E+04  0.25500000920E-02 0.  1.
        2   -1    0    0  501    0  0.00000000000E+00  0.00000000000E+00 -0.20214182213E+04  0.20214182213E+04  0.25500000920E-02 0. -1.
    10030    2    1    2    0    0  0.00000000000E+00  0.00000000000E+00 -0.57364710341E+02  0.39854717323E+04  0.39850588728E+04 0.  0.
        1    1    3    3  502    0 -0.42168211881E+02  0.19531441574E+04  0.36330633120E+03  0.19870937944E+04  0.50400001928E-02 0. -1.
       -1    1    3    3    0  502  0.42168211881E+02 -0.19531441574E+04 -0.42067104154E+03  0.19983779379E+04  0.50400001928E-02 0.  1.
</event>
<event>
 5   0  0.5515000E-08  0.3967286E+04  0.7818609E-02  0.8011179E-01
       -1   -1    0    0    0  501  0.00000000000E+00  0.00000000000E+00  0.30219138286E+04  0.30219138286E+04  0.50400001928E-02 0.  1.
        1   -1    0    0  501    0  0.00000000000E+00  0.00000000000E+00 -0.13021017664E+04  0.13021017664E+04  0.50400001928E-02 0. -1.
    10030    2    1    2    0    0  0.00000000000E+00  0.00000000000E+00  0.17198120622E+04  0.43240155950E+04  0.39672858905E+04 0.  0.
        1    1    3    3  502    0  0.19479944837E+04  0.22996946753E+03  0.11818856675E+04  0.22900703473E+04  0.50400001928E-02 0.  1.
       -1    1    3    3    0  502 -0.19479944837E+04 -0.22996946753E+03  0.53792639464E+03  0.20339452477E+04  0.50400001928E-02 0. -1.
</event>
<event>
 5   0  0.1821433E-07  0.4023493E+04  0.7818609E-02  0.7999824E-01
       -2   -1    0    0    0  501  0.00000000000E+00  0.00000000000E+00  0.16176949253E+04  0.16176949253E+04  0.25500000920E-02 0.  1.
        2   -1    0    0  501    0  0.00000000000E+00  0.00000000000E+00 -0.25017844978E+04  0.25017844978E+04  0.25500000920E-02 0. -1.
    10030    2    1    2    0    0  0.00000000000E+00  0.00000000000E+00 -0.88408957247E+03  0.41194794230E+04  0.40234930527E+04 0.  0.
        5    1    3    3  502    0  0.18207916290E+04 -0.84921793879E+03 -0.33639027710E+03  0.20370649897E+04  0.46999998093E+01 0. -1.
       -5    1    3    3    0  502 -0.18207916290E+04  0.84921793879E+03 -0.54769929537E+03  0.20824144333E+04  0.46999998093E+01 0.  1.
</event>
<event>
 5   0  0.5515000E-08  0.3888088E+04  0.7818609E-02  0.8027511E-01
        1   -1    0    0  501    0  0.00000000000E+00  0.00000000000E+00  0.22654865202E+04  0.22654865202E+04  0.50400001928E-02 0. -1.
       -1   -1    0    0    0  501  0.00000000000E+00  0.00000000000E+00 -0.16682096902E+04  0.16682096902E+04  0.50400001928E-02 0.  1.
    10030    2    1    2    0    0  0.00000000000E+00  0.00000000000E+00  0.59727683001E+03  0.39336962104E+04  0.38880877387E+04 0.  0.
        4    1    3    3  502    0 -0.87632329238E+03  0.10220368100E+04  0.17175169339E+04  0.21822849917E+04  0.12699999809E+01 0. -1.
       -4    1    3    3    0  502  0.87632329238E+03 -0.10220368100E+04 -0.11202401039E+04  0.17514112187E+04  0.12699999809E+01 0.  1.
</event>
<event>
 5   0  0.5515000E-08  0.3962025E+04  0.7818609E-02  0.8012251E-01
       -1   -1    0    0    0  501  0.00000000000E+00  0.00000000000E+00  0.24515817322E+04  0.24515817322E+04  0.50400001928E-02 0. -1.
        1   -1    0    0  501    0  0.00000000000E+00  0.00000000000E+00 -0.16007669330E+04  0.16007669330E+04  0.50400001928E-02 0.  1.
    10030    2    1    2    0    0  0.00000000000E+00  0.00000000000E+00  0.85081479925E+03  0.40523486652E+04  0.39620252248E+04 0.  0.
        5    1    3    3  502    0  0.17040944277E+04  0.62075778763E+03  0.12405138472E+04  0.21973107983E+04  0.46999998093E+01 0.  1.
       -5    1    3    3    0  502 -0.17040944277E+04 -0.62075778763E+03 -0.38969904792E+03  0.18550378668E+04  0.46999998093E+01 0. -1.
</event>
<event>
 5   0  0.5515000E-08  0.3911620E+04  0.7818609E-02  0.8022617E-01
       -1   -1    0    0    0  501  0.00000000000E+00  0.00000000000E+00  0.14546754521E+04  0.14546754521E+04  0.50400001928E-02 0. -1.
        1   -1    0    0  501    0  0.00000000000E+00  0.00000000000E+00 -0.26295849593E+04  0.26295849594E+04  0.50400001928E-02 0.  1.
    10030    2    1    2    0    0  0.00000000000E+00  0.00000000000E+00 -0.11749095072E+04  0.40842604115E+04  0.39116199660E+04 0.  0.
        2    1    3    3  502    0  0.19237709962E+04  0.33322146197E+03 -0.46721451262E+03  0.20075409808E+04  0.25500000920E-02 0. -1.
       -2    1    3    3    0  502 -0.19237709962E+04 -0.33322146197E+03 -0.70769499459E+03  0.20767194307E+04  0.25500000920E-02 0.  1.
</event>
<event>
 5   0  0.1776653E-07  0.4000808E+04  0.7818609E-02  0.8004384E-01
        2   -1    0    0  501    0  0.00000000000E+00  0.00000000000E+00  0.13219644913E+04  0.13219644913E+04  0.25500000920E-02 0. -1.
       -2   -1    0    0    0  501  0.00000000000E+00  0.00000000000E+00 -0.30270229764E+04  0.30270229764E+04  0.25500000920E-02 0.  1.
    10030    2    1    2    0    0  0.00000000000E+00  0.00000000000E+00 -0.17050584851E+04  0.43489874678E+04  0.40008083630E+04 0.  0.
        4    1    3    3  502    0 -0.52562832057E+03 -0.15848125053E+04  0.34502718930E+03  0.17049812852E+04  0.12699999809E+01 0. -1.
       -4    1    3    3    0  502  0.52562832057E+03  0.15848125053E+04 -0.20500856744E+04  0.26440061826E+04  0.12699999809E+01 0.  1.
</event>
<event>
 5   0  0.5515000E-08  0.3614946E+04  0.7818609E-02  0.8087077E-01
       -1   -1    0    0    0  501  0.00000000000E+00  0.00000000000E+00  0.25901927299E+04  0.25901927299E+04  0.50400001928E-02 0. -1.
        1   -1    0    0  501    0  0.00000000000E+00  0.00000000000E+00 -0.12612802124E+04  0.12612802124E+04  0.50400001928E-02 0.  1.
    10030    2    1    2    0    0  0.00000000000E+00  0.00000000000E+00  0.13289125175E+04  0.38514729423E+04  0.36149461056E+04 0.  0.
        1    1    3    3  502    0  0.22487860104E+03  0.17470834744E+04  0.10960380870E+04  0.20746494980E+04  0.50400001928E-02 0. -1.
       -1    1    3    3    0  502 -0.22487860104E+03 -0.17470834744E+04  0.23287443057E+03  0.17768234443E+04  0.50400001928E-02 0.  1.
</event>
<event>
 5   0  0.5515000E-08  0.4017086E+04  0.7818609E-02  0.8001109E-01
        1   -1    0    0  501    0  0.00000000000E+00  0.00000000000E+00  0.20896364637E+04  0.20896364637E+04  0.50400001928E-02 0. -1.
       -1   -1    0    0    0  501  0.00000000000E+00  0.00000000000E+00 -0.19305963127E+04  0.19305963127E+04  0.50400001928E-02 0.  1.
    10030    2    1    2    0    0  0.00000000000E+00  0.00000000000E+00  0.15904015094E+03  0.40202327764E+04  0.40170857356E+04 0.  0.
        5    1    3    3  502    0  0.12644076919E+04 -0.39744766183E+03  0.15898514309E+04  0.20698649998E+04  0.46999998093E+01 0. -1.
       -5    1    3    3    0  502 -0.12644076919E+04  0.39744766183E+03 -0.14308112799E+04  0.19503677766E+04  0.46999998093E+01 0.  1.
</event>
<event>
 5   0  0.1785559E-07  0.3972465E+04  0.7818609E-02  0.8010124E-01
        2   -1    0    0  501    0  0.00000000000E+00  0.00000000000E+00  0.23251966295E+04  0.23251966295E+04  0.25500000920E-02 0.  1.
       -2   -1    0    0    0  501  0.00000000000E+00  0.00000000000E+00 -0.16966825180E+04  0.16966825180E+04  0.25500000920E-02 0. -1.
    10030    2    1    2    0    0  0.00000000000E+00  0.00000000000E+00  0.62851411151E+03  0.40218791475E+04  0.39724654673E+04 0.  0.
        2    1    3    3  502    0  0.85273802412E+02  0.75439544126E+03 -0.15439854865E+04  0.17205450548E+04  0.25500000920E-02 0. -1.
       -2    1    3    3    0  502 -0.85273802412E+02 -0.75439544126E+03  0.21724995980E+04  0.23013340927E+04  0.25500000920E-02 0.  1.
</event>
<event>
 5   0  0.1776653E-07  0.4054722E+04  0.7818609E-02  0.7993597E-01
        2   -1    0    0  501    0  0.00000000000E+00  0.00000000000E+00  0.20433410986E+04  0.20433410986E+04  0.25500000920E-02 0.  1.
       -2   -1    0    0    0  501  0.00000000000E+00  0.00000000000E+00 -0.20115059942E+04  0.20115059942E+04  0.25500000920E-02 0. -1.
    10030    2    1    2    0    0  0.00000000000E+00  0.00000000000E+00  0.31835104391E+02  0.40548470928E+04  0.40547221202E+04 0.  0.
        4    1    3    3  502    0  0.34981106794E+03  0.27649293184E+03 -0.19618630835E+04  0.20118957468E+04  0.12699999809E+01 0. -1.
       -4    1    3    3    0  502 -0.34981106794E+03 -0.27649293184E+03  0.19936981879E+04  0.20429513460E+04  0.12699999809E+01 0.  1.
</event>
<event>
 5   0  0.5515000E-08  0.4015553E+04  0.7818609E-02  0.8001416E-01
        1   -1    0    0  501    0  0.00000000000E+00  0.00000000000E+00  0.26320022161E+04  0.26320022161E+04  0.50400001928E-02 0. -1.
       -1   -1    0    0    0  501  0.00000000000E+00  0.00000000000E+00 -0.15315966049E+04  0.15315966049E+04  0.50400001928E-02 0.  1.
    10030    2    1    2    0    0  0.00000000000E+00  0.00000000000E+00  0.11004056112E+04  0.41635988210E+04  0.40155525937E+04 0.  0.
        5    1    3    3  502    0 -0.12890308334E+04 -0.67848827971E+02 -0.10443304692E+04  0.16603771174E+04  0.46999998093E+01 0.  1.
       -5    1    3    3    0  502  0.12890308334E+04  0.67848827971E+02  0.21447360804E+04  0.25032217036E+04  0.46999998093E+01 0. -1.
</event>
<event>
 5   0  0.1776653E-07  0.4113835E+04  0.7818609E-02  0.7981968E-01
        2   -1    0    0  501    0  0.00000000000E+00  0.00000000000E+00  0.14261154255E+04  0.14261154255E+04  0.25500000920E-02 0.  1.
       -2   -1    0    0    0  501  0.00000000000E+00  0.00000000000E+00 -0.29667372639E+04  0.29667372639E+04  0.25500000920E-02 0. -1.
    10030    2    1    2    0    0  0.00000000000E+00  0.00000000000E+00 -0.15406218384E+04  0.43928526894E+04  0.41138350844E+04 0.  0.
        4    1    3    3  502    0  0.87954199913E+03  0.45089431863E+03  0.11559232988E+04  0.15208747813E+04  0.12699999809E+01 0.  1.
       -4    1    3    3    0  502 -0.87954199913E+03 -0.45089431863E+03 -0.26965451372E+04  0.28719779081E+04  0.12699999809E+01 0. -1.
</event>
<event>
 5   0  0.5515000E-08  0.3239845E+04  0.7818609E-02  0.8178373E-01
        1   -1    0    0  501    0  0.00000000000E+00  0.00000000000E+00  0.82214295420E+03  0.82214295421E+03  0.50400001928E-02 0. -1.
       -1   -1    0    0    0  501  0.00000000000E+00  0.00000000000E+00 -0.31918408048E+04  0.31918408048E+04  0.50400001928E-02 0.  1.
    10030    2    1    2    0    0  0.00000000000E+00  0.00000000000E+00 -0.23696978506E+04  0.40139837590E+04  0.32398453226E+04 0.  0.
        2    1    3    3  502    0 -0.24891332267E+03  0.68828252125E+03 -0.29753075361E+04  0.30640080949E+04  0.25500000920E-02 0.  1.
       -2    1    3    3    0  502  0.24891332267E+03 -0.68828252125E+03  0.60560968549E+03  0.94997566412E+03  0.25500000920E-02 0. -1.
</event>
<event>
 5   0  0.1821433E-07  0.4510245E+04  0.7818609E-02  0.7908846E-01
       -2   -1    0    0    0  501  0.00000000000E+00  0.00000000000E+00  0.26423609522E+04  0.26423609522E+04  0.25500000920E-02 0.  1.
        2   -1    0    0  501    0  0.00000000000E+00  0.00000000000E+00 -0.19246342030E+04  0.19246342030E+04  0.25500000920E-02 0. -1.
    10030    2    1    2    0    0  0.00000000000E+00  0.00000000000E+00  0.71772674921E+03  0.45669951551E+04  0.45102453437E+04 0.  0.
        5    1    3    3  502    0 -0.21265031090E+04  0.60980454044E+03 -0.84457103921E+02  0.22138274870E+04  0.46999998093E+01 0. -1.
       -5    1    3    3    0  502  0.21265031090E+04 -0.60980454044E+03  0.80218385313E+03  0.23531676681E+04  0.46999998093E+01 0.  1.
</event>
<event>
 5   0  0.5515000E-08  0.3967709E+04  0.7818609E-02  0.8011093E-01
       -1   -1    0    0    0  501  0.00000000000E+00  0.00000000000E+00  0.15093899980E+04  0.15093899980E+04  0.50400001928E-02 0.  1.
        1   -1    0    0  501    0  0.00000000000E+00  0.00000000000E+00 -0.26074629375E+04  0.26074629375E+04  0.50400001928E-02 0. -1.
    10030    2    1    2    0    0  0.00000000000E+00  0.00000000000E+00 -0.10980729395E+04  0.41168529354E+04  0.39677088996E+04 0.  0.
        4    1    3    3  502    0 -0.13347786002E+04 -0.67505393671E+03 -0.19012289843E+04  0.24190917702E+04  0.12699999809E+01 0. -1.
       -4    1    3    3    0  502  0.13347786002E+04  0.67505393671E+03  0.80315604482E+03  0.16977611652E+04  0.12699999809E+01 0.  1.
</event>
<event>
 5   0  0.1773903E-07  0.3823119E+04  0.7818609E-02  0.8041212E-01
       -2   -1    0    0    0  501  0.00000000000E+00  0.00000000000E+00  0.14791610263E+04  0.14791610263E+04  0.25500000920E-02 0.  1.
        2   -1    0    0  501    0  0.00000000000E+00  0.00000000000E+00 -0.24703591979E+04  0.24703591979E+04  0.25500000920E-02 0. -1.
    10030    2    1    2    0    0  0.00000000000E+00  0.00000000000E+00 -0.99119817166E+03  0.39495202242E+04  0.38231186466E+04 0.  0.
        3    1    3    3  502    0 -0.17023345439E+03 -0.21311800661E+02  0.14711915485E+04  0.14811611000E+04  0.10100000352E+00 0.  1.
       -3    1    3    3    0  502  0.17023345439E+03  0.21311800661E+02 -0.24623897201E+04  0.24683591242E+04  0.10100000352E+00 0. -1.
</event>
<event>
 5   0  0.5515000E-08  0.3877803E+04  0.7818609E-02  0.8029662E-01
       -1   -1    0    0    0  501  0.00000000000E+00  0.00000000000E+00  0.14289095732E+04  0.14289095732E+04  0.50400001928E-02 0. -1.
        1   -1    0    0  501    0  0.00000000000E+00  0.00000000000E+00 -0.26309151558E+04  0.26309151558E+04  0.50400001928E-02 0.  1.
    10030    2    1    2    0    0  0.00000000000E+00  0.00000000000E+00 -0.12020055826E+04  0.40598247290E+04  0.38778034258E+04 0.  0.
        2    1    3    3  502    0  0.14244259427E+04 -0.40092460340E+03 -0.19126510282E+04  0.24182563469E+04  0.25500000920E-02 0.  1.
       -2    1    3    3    0  502 -0.14244259427E+04  0.40092460340E+03  0.71064544555E+03  0.16415683821E+04  0.25500000920E-02 0. -1.
</event>
<event>
 5   0  0.1785559E-07  0.4006347E+04  0.7818609E-02  0.8003267E-01
       -2   -1    0    0    0  501  0.00000000000E+00  0.00000000000E+00  0.16937397498E+04  0.16937397498E+04  0.25500000920E-02 0.  1.
        2   -1    0    0  501    0  0.00000000000E+00  0.00000000000E+00 -0.23691381475E+04  0.23691381475E+04  0.25500000920E-02 0. -1.
    10030    2    1    2    0    0  0.00000000000E+00  0.00000000000E+00 -0.67539839774E+03  0.40628778973E+04  0.40063466915E+04 0.  0.
        2    1    3    3  502    0 -0.11006053778E+04  0.15958491301E+04  0.17403664103E+03  0.19463697994E+04  0.25500000920E-02 0.  1.
       -2    1    3    3    0  502  0.11006053778E+04 -0.15958491301E+04 -0.84943503878E+03  0.21165080979E+04  0.25500000920E-02 0. -1.
</event>
<event>
 5   0  0.1776653E-07  0.4060718E+04  0.7818609E-02  0.7992409E-01
        2   -1    0    0  501    0  0.00000000000E+00  0.00000000000E+00  0.25254376325E+04  0.25254376325E+04  0.25500000920E-02 0. -1.
       -2   -1    0    0    0  501  0.00000000000E+00  0.00000000000E+00 -0.16323339184E+04  0.16323339184E+04  0.25500000920E-02 0.  1.
    10030    2    1    2    0    0  0.00000000000E+00  0.00000000000E+00  0.89310371411E+03  0.41577715509E+04  0.40607179199E+04 0.  0.
        4    1    3    3  502    0 -0.11483484221E+04 -0.13623483309E+04  0.14432962604E+04  0.22929899218E+04  0.12699999809E+01 0. -1.
       -4    1    3    3    0  502  0.11483484221E+04  0.13623483309E+04 -0.55019254632E+03  0.18647816291E+04  0.12699999809E+01 0.  1.
</event>
<event>
 5   0  0.1821433E-07  0.4007151E+04  0.7818609E-02  0.8003106E-01
        2   -1    0    0  501    0  0.00000000000E+00  0.00000000000E+00  0.24337823776E+04  0.24337823776E+04  0.25500000920E-02 0. -1.
       -2   -1    0    0    0  501  0.00000000000E+00  0.00000000000E+00 -0.16494139115E+04  0.16494139115E+04  0.25500000920E-02 0.  1.
    10030    2    1    2    0    0  0.00000000000E+00  0.00000000000E+00  0.78436846614E+03  0.40831962891E+04  0.40071508637E+04 0.  0.
        5    1    3    3  502    0  0.24911743907E+03 -0.18270649655E+04  0.11906793774E+04  0.21949864137E+04  0.46999998093E+01 0. -1.
       -5    1    3    3    0  502 -0.24911743907E+03  0.18270649655E+04 -0.40631091125E+03  0.18882098753E+04  0.46999998093E+01 0.  1.
</event>
<event>
 5   0  0.5515000E-08  0.3983942E+04  0.7818609E-02  0.8007794E-01
        1   -1    0    0  501    0  0.00000000000E+00  0.00000000000E+00  0.28162592241E+04  0.28162592241E+04  0.50400001928E-02 0. -1.
       -1   -1    0    0    0  501  0.00000000000E+00  0.00000000000E+00 -0.14089429238E+04  0.14089429238E+04  0.50400001928E-02 0.  1.
    10030    2    1    2    0    0  0.00000000000E+00  0.00000000000E+00  0.14073163003E+04  0.42252021479E+04  0.39839420204E+04 0.  0.
        1    1    3    3  502    0 -0.65069515752E+03 -0.16325432500E+04 -0.29086429651E+03  0.17813488401E+04  0.50400001928E-02 0.  1.
       -1    1    3    3    0  502  0.65069515752E+03  0.16325432500E+04  0.16981805968E+04  0.24438533079E+04  0.50400001928E-02 0. -1.
</event>
<event>
 5   0  0.5515000E-08  0.3942609E+04  0.7818609E-02  0.8016225E-01
        1   -1    0    0  501    0  0.00000000000E+00  0.00000000000E+00  0.22819224488E+04  0.22819224488E+04  0.50400001928E-02 0.  1.
       -1   -1    0    0    0  501  0.00000000000E+00  0.00000000000E+00 -0.17029679176E+04  0.17029679176E+04  0.50400001928E-02 0. -1.
    10030    2    1    2    0    0  0.00000000000E+00  0.00000000000E+00  0.57895453118E+03  0.39848903664E+04  0.39426086393E+04 0.  0.
        2    1    3    3  502    0  0.10097114534E+03 -0.13438292862E+04 -0.11646906753E+04  0.17811728416E+04  0.25500000920E-02 0. -1.
       -2    1    3    3    0  502 -0.10097114534E+03  0.13438292862E+04  0.17436452065E+04  0.22037175247E+04  0.25500000920E-02 0.  1.
</event>
<event>
 5   0  0.1821433E-07  0.4175395E+04  0.7818609E-02  0.7970069E-01
       -2   -1    0    0    0  501  0.00000000000E+00  0.00000000000E+00  0.21437335779E+04  0.21437335779E+04  0.25500000920E-02 0. -1.
        2   -1    0    0  501    0  0.00000000000E+00  0.00000000000E+00 -0.20331265141E+04  0.20331265141E+04  0.25500000920E-02 0.  1.
    10030    2    1    2    0    0  0.00000000000E+00  0.00000000000E+00  0.11060706379E+03  0.41768600921E+04  0.41753953473E+04 0.  0.
        5    1    3    3  502    0 -0.58156540805E+03 -0.65310331953E+03  0.19516734918E+04  0.21386476517E+04  0.46999998093E+01 0. -1.
       -5    1    3    3    0  502  0.58156540805E+03  0.65310331953E+03 -0.18410664280E+04  0.20382124403E+04  0.46999998093E+01 0.  1.
</event>
<event>
 5   0  0.5515000E-08  0.4000539E+04  0.7818609E-02  0.8004438E-01
        1   -1    0    0  501    0  0.00000000000E+00  0.00000000000E+00  0.19752624666E+04  0.19752624666E+04  0.50400001928E-02 0.  1.
       -1   -1    0    0    0  501  0.00000000000E+00  0.00000000000E+00 -0.20255928474E+04  0.20255928474E+04  0.50400001928E-02 0. -1.
    10030    2    1    2    0    0  0.00000000000E+00  0.00000000000E+00 -0.50330380783E+02  0.40008553141E+04  0.40005387258E+04 0.  0.
        3    1    3    3  502    0 -0.66574482818E+03  0.13353114862E+04  0.13071581513E+04  0.19836671556E+04  0.10100000352E+00 0.  1.
       -3    1    3    3    0  502  0.66574482818E+03 -0.13353114862E+04 -0.13574885321E+04  0.20171881584E+04  0.10100000352E+00 0. -1.
</event>
<event>
 5   0  0.1819906E-07  0.4021029E+04  0.7818609E-02  0.8000318E-01
        2   -1    0    0  501    0  0.00000000000E+00  0.00000000000E+00  0.23231504578E+04  0.23231504578E+04  0.25500000920E-02 0. -1.
       -2   -1    0    0    0  501  0.00000000000E+00  0.00000000000E+00 -0.17399513227E+04  0.17399513227E+04  0.25500000920E-02 0.  1.
    10030    2    1    2    0    0  0.00000000000E+00  0.00000000000E+00  0.58319913505E+03  0.40631017805E+04  0.40210290782E+04 0.  0.
        1    1    3    3  502    0 -0.97178937299E+03 -0.13764698402E+02 -0.14868169455E+04  0.17762850790E+04  0.50400001928E-02 0.  1.
       -1    1    3    3    0  502  0.97178937299E+03  0.13764698402E+02  0.20700160806E+04  0.22868167015E+04  0.50400001928E-02 0. -1.
</event>
<event>
 5   0  0.5515000E-08  0.3511741E+04  0.7818609E-02  0.8111013E-01
       -1   -1    0    0    0  501  0.00000000000E+00  0.00000000000E+00  0.17705443099E+04  0.17705443099E+04  0.50400001928E-02 0.  1.
        1   -1    0    0  501    0  0.00000000000E+00  0.00000000000E+00 -0.17413182265E+04  0.17413182265E+04  0.50400001928E-02 0. -1.
    10030    2    1    2    0    0  0.00000000000E+00  0.00000000000E+00  0.29226083412E+02  0.35118625364E+04  0.35117409231E+04 0.  0.
        1    1    3    3  502    0  0.12566905863E+04  0.78687948011E+03 -0.92596752538E+03  0.17481036594E+04  0.50400001928E-02 0. -1.
       -1    1    3    3    0  502 -0.12566905863E+04 -0.78687948011E+03  0.95519360879E+03  0.17637588770E+04  0.50400001928E-02 0.  1.
</event>
<event>
 5   0  0.1819906E-07  0.3998206E+04  0.7818609E-02  0.8004909E-01
       -2   -1    0    0    0  501  0.00000000000E+00  0.00000000000E+00  0.19788532382E+04  0.19788532382E+04  0.25500000920E-02 0. -1.
        2   -1    0    0  501    0  0.00000000000E+00  0.00000000000E+00 -0.20195598512E+04  0.20195598512E+04  0.25500000920E-02 0.  1.
    10030    2    1    2    0    0  0.00000000000E+00  0.00000000000E+00 -0.40706613009E+02  0.39984130895E+04  0.39982058734E+04 0.  0.
        1    1    3    3  502    0 -0.17261589643E+04  0.96472244701E+03  0.27308715824E+03  0.19962191177E+04  0.50400001928E-02 0. -1.
       -1    1    3    3    0  502  0.17261589643E+04 -0.96472244701E+03 -0.31379377125E+03  0.20021939718E+04  0.50400001928E-02 0.  1.
</event>
<event>
 5   0  0.1819906E-07  0.3958637E+04  0.7818609E-02  0.8012943E-01
        2   -1    0    0  501    0  0.00000000000E+00  0.00000000000E+00  0.20163696963E+04  0.20163696963E+04  0.25500000920E-02 0. -1.
       -2   -1    0    0    0  501  0.00000000000E+00  0.00000000000E+00 -0.19429483679E+04  0.19429483679E+04  0.25500000920E-02 0.  1.
    10030    2    1    2    0    0  0.00000000000E+00  0.00000000000E+00  0.73421328400E+02  0.39593180642E+04  0.39586372456E+04 0.  0.
        1    1    3    3  502    0  0.55557994291E+03 -0.19637899440E+03  0.19266039559E+04  0.20147050864E+04  0.50400001928E-02 0. -1.
       -1    1    3    3    0  502 -0.55557994291E+03  0.19637899440E+03 -0.18531826275E+04  0.19446129778E+04  0.50400001928E-02 0.  1.
</event>
<event>
 5   0  0.1821433E-07  0.3633303E+04  0.7818609E-02  0.8082905E-01
        2   -1    0    0  501    0  0.00000000000E+00  0.00000000000E+00  0.17193263611E+04  0.17193263611E+04  0.25500000920E-02 0.  1.
       -2   -1    0    0    0  501  0.00000000000E+00  0.00000000000E+00 -0.19194862273E+04  0.19194862273E+04  0.25500000920E-02 0. -1.
    10030    2    1    2    0    0  0.00000000000E+00  0.00000000000E+00 -0.20015986619E+03  0.36388125884E+04  0.36333033291E+04 0.  0.
        5    1    3    3  502    0  0.12233207227E+04  0.13409268682E+04 -0.25115088857E+02  0.18152827091E+04  0.46999998093E+01 0.  1.
       -5    1    3    3    0  502 -0.12233207227E+04 -0.13409268682E+04 -0.17504477734E+03  0.18235298792E+04  0.46999998093E+01 0. -1.
</event>
<event>
 5   0  0.1773903E-07  0.4012320E+04  0.7818609E-02  0.8002066E-01
       -2   -1    0    0    0  501  0.00000000000E+00  0.00000000000E+00  0.23312798773E+04  0.23312798773E+04  0.25500000920E-02 0.  1.
        2   -1    0    0  501    0  0.00000000000E+00  0.00000000000E+00 -0.17263812362E+04  0.17263812362E+04  0.25500000920E-02 0. -1.
    10030    2    1    2    0    0  0.00000000000E+00  0.00000000000E+00  0.60489864115E+03  0.40576611135E+04  0.40123199456E+04 0.  0.
        3    1    3    3  502    0 -0.26516026423E+02  0.31405644993E+03 -0.17011876529E+04  0.17301369871E+04  0.10100000352E+00 0. -1.
       -3    1    3    3    0  502  0.26516026423E+02 -0.31405644993E+03  0.23060862941E+04  0.23275241265E+04  0.10100000352E+00 0.  1.
</event>
<event>
 5   0  0.5515000E-08  0.3835085E+04  0.7818609E-02  0.8038667E-01
       -1   -1    0    0    0  501  0.00000000000E+00  0.00000000000E+00  0.23689714274E+04  0.23689714274E+04  0.50400001928E-02 0.  1.
        1   -1    0    0  501    0  0.00000000000E+00  0.00000000000E+00 -0.15521372139E+04  0.15521372139E+04  0.50400001928E-02 0. -1.
    10030    2    1    2    0    0  0.00000000000E+00  0.00000000000E+00  0.81683421351E+03  0.39211086413E+04  0.38350847245E+04 0.  0.
        4    1    3    3  502    0 -0.48098310079E+03  0.17307848606E+04  0.10942891851E+04  0.21034332437E+04  0.12699999809E+01 0.  1.
       -4    1    3    3    0  502  0.48098310079E+03 -0.17307848606E+04 -0.27745497162E+03  0.18176753976E+04  0.12699999809E+01 0. -1.
</event>
<event>
 5   0  0.5515000E-08  0.3710465E+04  0.7818609E-02  0.8065647E-01
        1   -1    0    0  501    0  0.00000000000E+00  0.00000000000E+00  0.10355373890E+04  0.10355373890E+04  0.50400001928E-02 0.  1.
       -1   -1    0    0    0  501  0.00000000000E+00  0.00000000000E+00 -0.33237686608E+04  0.33237686608E+04  0.50400001928E-02 0. -1.
    10030    2    1    2    0    0  0.00000000000E+00  0.00000000000E+00 -0.22882312718E+04  0.43593060498E+04  0.37104645103E+04 0.  0.
        3    1    3    3  502    0 -0.15821815470E+04 -0.78366480781E+03 -0.47489682200E+03  0.18283752297E+04  0.10100000352E+00 0.  1.
       -3    1    3    3    0  502  0.15821815470E+04  0.78366480781E+03 -0.18133344498E+04  0.25309308201E+04  0.10100000352E+00 0. -1.
</event>
<event>
 5   0  0.5515000E-08  0.3890383E+04  0.7818609E-02  0.8027032E-01
       -1   -1    0    0    0  501  0.00000000000E+00  0.00000000000E+00  0.24220025857E+04  0.24220025857E+04  0.50400001928E-02 0.  1.
        1   -1    0    0  501    0  0.00000000000E+00  0.00000000000E+00 -0.15622486986E+04  0.15622486986E+04  0.50400001928E-02 0. -1.
    10030    2    1    2    0    0  0.00000000000E+00  0.00000000000E+00  0.85975388708E+03  0.39842512843E+04  0.38903832138E+04 0.  0.
        2    1    3    3  502    0 -0.67371802110E+03 -0.16759370298E+04 -0.30941986053E+03  0.18325942131E+04  0.25500000920E-02 0.  1.
       -2    1    3    3    0  502  0.67371802110E+03  0.16759370298E+04  0.11691737476E+04  0.21516570712E+04  0.25500000920E-02 0. -1.
</event>
<event>
 5   0  0.5515000E-08  0.3898263E+04  0.7818609E-02  0.8025391E-01
       -1   -1    0    0    0  501  0.00000000000E+00  0.00000000000E+00  0.27093316901E+04  0.27093316901E+04  0.50400001928E-02 0.  1.
        1   -1    0    0  501    0  0.00000000000E+00  0.00000000000E+00 -0.14022328726E+04  0.14022328726E+04  0.50400001928E-02 0. -1.
    10030    2    1    2    0    0  0.00000000000E+00  0.00000000000E+00  0.13070988176E+04  0.41115645627E+04  0.38982631818E+04 0.  0.
        3    1    3    3  502    0 -0.13174980176E+04  0.56329436738E+03  0.20472183358E+04  0.24988406303E+04  0.10100000352E+00 0.  1.
       -3    1    3    3    0  502  0.13174980176E+04 -0.56329436738E+03 -0.74011951828E+03  0.16127239324E+04  0.10100000352E+00 0. -1.
</event>
<event>
 5   0  0.1819906E-07  0.3986986E+04  0.7818609E-02  0.8007177E-01
        2   -1    0    0  501    0  0.00000000000E+00  0.00000000000E+00  0.15292761296E+04  0.15292761296E+04  0.25500000920E-02 0. -1.
       -2   -1    0    0    0  501  0.00000000000E+00  0.00000000000E+00 -0.25986240715E+04  0.25986240715E+04  0.25500000920E-02 0.  1.
    10030    2    1    2    0    0  0.00000000000E+00  0.00000000000E+00 -0.10693479419E+04  0.41279002010E+04  0.39869857096E+04 0.  0.
        1    1    3    3  502    0  0.49722725699E+03  0.19098464792E+04 -0.24318246277E+03  0.19884381382E+04  0.50400001928E-02 0. -1.
       -1    1    3    3    0  502 -0.49722725699E+03 -0.19098464792E+04 -0.82616547914E+03  0.21394620628E+04  0.50400001928E-02 0.  1.
</event>
<event>
 5   0  0.5515000E-08  0.3975070E+04  0.7818609E-02  0.8009595E-01
        1   -1    0    0  501    0  0.00000000000E+00  0.00000000000E+00  0.18388388552E+04  0.18388388552E+04  0.50400001928E-02 0. -1.
       -1   -1    0    0    0  501  0.00000000000E+00  0.00000000000E+00 -0.21482549857E+04  0.21482549857E+04  0.50400001928E-02 0.  1.
    10030    2    1    2    0    0  0.00000000000E+00  0.00000000000E+00 -0.30941613056E+03  0.39870938409E+04  0.39750696792E+04 0.  0.
        3    1    3    3  502    0 -0.13975755977E+04 -0.12098082031E+04 -0.88728801034E+03  0.20503983669E+04  0.10100000352E+00 0.  1.
       -3    1    3    3    0  502  0.13975755977E+04  0.12098082031E+04  0.57787187978E+03  0.19366954740E+04  0.10100000352E+00 0. -1.
</event>
<event>
 5   0  0.1785559E-07  0.4051267E+04  0.7818609E-02  0.7994284E-01
        2   -1    0    0  501    0  0.00000000000E+00  0.00000000000E+00  0.12191992065E+04  0.12191992065E+04  0.25500000920E-02 0. -1.
       -2   -1    0    0    0  501  0.00000000000E+00  0.00000000000E+00 -0.33654802837E+04  0.33654802837E+04  0.25500000920E-02 0.  1.
    10030    2    1    2    0    0  0.00000000000E+00  0.00000000000E+00 -0.21462810773E+04  0.45846794902E+04  0.40512669087E+04 0.  0.
        2    1    3    3  502    0  0.30449863085E+03 -0.19979033881E+04 -0.91775362969E+03  0.22195966051E+04  0.25500000920E-02 0.  1.
       -2    1    3    3    0  502 -0.30449863085E+03  0.19979033881E+04 -0.12285274476E+04  0.23650828852E+04  0.25500000920E-02 0. -1.
</event>
<event>
 5   0  0.5515000E-08  0.3426404E+04  0.7818609E-02  0.8131456E-01
       -3   -1    0    0    0  501  0.00000000000E+00  0.00000000000E+00  0.18543780798E+04  0.18543780826E+04  0.10100000352E+00 0.  1.
        3   -1    0    0  501    0  0.00000000000E+00  0.00000000000E+00 -0.15827735252E+04  0.15827735284E+04  0.10100000352E+00 0. -1.
    10030    2    1    2    0    0  0.00000000000E+00  0.00000000000E+00  0.27160455464E+03  0.34371516109E+04  0.34264036777E+04 0.  0.
        2    1    3    3  502    0  0.12908976568E+04 -0.71666978811E+03 -0.73584694377E+03  0.16496978724E+04  0.25500000920E-02 0. -1.
       -2    1    3    3    0  502 -0.12908976568E+04  0.71666978811E+03  0.10074514984E+04  0.17874537385E+04  0.25500000920E-02 0.  1.
</event>
<event>
 5   0  0.1776653E-07  0.3749841E+04  0.7818609E-02  0.8057005E-01
       -2   -1    0    0    0  501  0.00000000000E+00  0.00000000000E+00  0.18224743502E+04  0.18224743502E+04  0.25500000920E-02 0.  1.
        2   -1    0    0  501    0  0.00000000000E+00  0.00000000000E+00 -0.19288759372E+04  0.19288759372E+04  0.25500000920E-02 0. -1.
    10030    2    1    2    0    0  0.00000000000E+00  0.00000000000E+00 -0.10640158701E+03  0.37513502874E+04  0.37498410207E+04 0.  0.
        4    1    3    3  502    0  0.21393323040E+03 -0.64755701093E+03 -0.18003938719E+04  0.19252317305E+04  0.12699999809E+01 0. -1.
       -4    1    3    3    0  502 -0.21393323040E+03  0.64755701093E+03  0.16939922849E+04  0.18261185568E+04  0.12699999809E+01 0.  1.
</event>
<event>
 5   0  0.1819906E-07  0.4179153E+04  0.7818609E-02  0.7969350E-01
       -2   -1    0    0    0  501  0.00000000000E+00  0.00000000000E+00  0.22900772717E+04  0.22900772717E+04  0.25500000920E-02 0. -1.
        2   -1    0    0  501    0  0.00000000000E+00  0.00000000000E+00 -0.19066297574E+04  0.19066297574E+04  0.25500000920E-02 0.  1.
    10030    2    1    2    0    0  0.00000000000E+00  0.00000000000E+00  0.38344751430E+03  0.41967070290E+04  0.41791527720E+04 0.  0.
        1    1    3    3  502    0  0.20207219375E+04 -0.39491711233E+03 -0.16621812918E+03  0.20656488426E+04  0.50400001928E-02 0.  1.
       -1    1    3    3    0  502 -0.20207219375E+04  0.39491711233E+03  0.54966564348E+03  0.21310581865E+04  0.50400001928E-02 0. -1.
</event>
<event>
 5   0  0.1819906E-07  0.3963693E+04  0.7818609E-02  0.8011911E-01
       -2   -1    0    0    0  501  0.00000000000E+00  0.00000000000E+00  0.30656147923E+04  0.30656147923E+04  0.25500000920E-02 0. -1.
        2   -1    0    0  501    0  0.00000000000E+00  0.00000000000E+00 -0.12812161869E+04  0.12812161869E+04  0.25500000920E-02 0.  1.
    10030    2    1    2    0    0  0.00000000000E+00  0.00000000000E+00  0.17843986054E+04  0.43468309792E+04  0.39636928714E+04 0.  0.
        1    1    3    3  502    0 -0.82513621350E+03  0.10554557890E+04 -0.70940721131E+03  0.15159469927E+04  0.50400001928E-02 0.  1.
       -1    1    3    3    0  502  0.82513621350E+03 -0.10554557890E+04  0.24938058167E+04  0.28308839864E+04  0.50400001928E-02 0. -1.
</event>
<event>
 5   0  0.5515000E-08  0.3799731E+04  0.7818609E-02  0.8046213E-01
        1   -1    0    0  501    0  0.00000000000E+00  0.00000000000E+00  0.12590436823E+04  0.12590436823E+04  0.50400001928E-02 0.  1.
       -1   -1    0    0    0  501  0.00000000000E+00  0.00000000000E+00 -0.28668498499E+04  0.28668498499E+04  0.50400001928E-02 0. -1.
    10030    2    1    2    0    0  0.00000000000E+00  0.00000000000E+00 -0.16078061676E+04  0.41258935322E+04  0.37997311440E+04 0.  0.
        4    1    3    3  502    0 -0.12885412497E+04 -0.69449476667E+03 -0.21189899935E+04  0.25754187501E+04  0.12699999809E+01 0. -1.
       -4    1    3    3    0  502  0.12885412497E+04  0.69449476667E+03  0.51118382588E+03  0.15504747821E+04  0.12699999809E+01 0.  1.
</event>
<event>
 5   0  0.1776653E-07  0.3995426E+04  0.7818609E-02  0.8005470E-01
       -2   -1    0    0    0  501  0.00000000000E+00  0.00000000000E+00  0.16269437332E+04  0.16269437332E+04  0.25500000920E-02 0.  1.
        2   -1    0    0  501    0  0.00000000000E+00  0.00000000000E+00 -0.24529775735E+04  0.24529775735E+04  0.25500000920E-02 0. -1.
    10030    2    1    2    0    0  0.00000000000E+00  0.00000000000E+00 -0.82603384036E+03  0.40799213067E+04  0.39954256298E+04 0.  0.
        4    1    3    3  502    0 -0.16938622790E+04  0.86571607878E+03 -0.10360186410E+04  0.21660955627E+04  0.12699999809E+01 0. -1.
       -4    1    3    3    0  502  0.16938622790E+04 -0.86571607878E+03  0.20998480066E+03  0.19138257440E+04  0.12699999809E+01 0.  1.
</event>
<event>
 5   0  0.1776653E-07  0.3998047E+04  0.7818609E-02  0.8004941E-01
        2   -1    0    0  501    0  0.00000000000E+00  0.00000000000E+00  0.30205466474E+04  0.30205466475E+04  0.25500000920E-02 0. -1.
       -2   -1    0    0    0  501  0.00000000000E+00  0.00000000000E+00 -0.13229710692E+04  0.13229710692E+04  0.25500000920E-02 0.  1.
    10030    2    1    2    0    0  0.00000000000E+00  0.00000000000E+00  0.16975755783E+04  0.43435177166E+04  0.39980474372E+04 0.  0.
        4    1    3    3  502    0 -0.42655110702E+03  0.13367800263E+04 -0.69802756760E+03  0.15672175291E+04  0.12699999809E+01 0.  1.
       -4    1    3    3    0  502  0.42655110702E+03 -0.13367800263E+04  0.23956031459E+04  0.27763001875E+04  0.12699999809E+01 0. -1.
</event>
<event>
 5   0  0.5515000E-08  0.3866243E+04  0.7818609E-02  0.8032087E-01
       -1   -1    0    0    0  501  0.00000000000E+00  0.00000000000E+00  0.29979853812E+04  0.29979853812E+04  0.50400001928E-02 0. -1.
        1   -1    0    0  501    0  0.00000000000E+00  0.00000000000E+00 -0.12464899680E+04  0.12464899680E+04  0.50400001928E-02 0.  1.
    10030    2    1    2    0    0  0.00000000000E+00  0.00000000000E+00  0.17514954132E+04  0.42444753492E+04  0.38662429835E+04 0.  0.
        2    1    3    3  502    0  0.95682233269E+03 -0.11578398026E+04  0.22117013559E+04  0.26735229329E+04  0.25500000920E-02 0. -1.
       -2    1    3    3    0  502 -0.95682233269E+03  0.11578398026E+04 -0.46020594272E+03  0.15709524163E+04  0.25500000920E-02 0.  1.
</event>
<event>
 5   0  0.1819906E-07  0.4003218E+04  0.7818609E-02  0.8003898E-01
       -2   -1    0    0    0  501  0.00000000000E+00  0.00000000000E+00  0.26832343932E+04  0.26832343932E+04  0.25500000920E-02 0.  1.
        2   -1    0    0  501    0  0.00000000000E+00  0.00000000000E+00 -0.14931376335E+04  0.14931376335E+04  0.25500000920E-02 0. -1.
    10030    2    1    2    0    0  0.00000000000E+00  0.00000000000E+00  0.11900967598E+04  0.41763720267E+04  0.40032178317E+04 0.  0.
        1    1    3    3  502    0  0.67022842734E+03 -0.98560932953E+02 -0.13699049978E+04  0.15282539401E+04  0.50400001928E-02 0. -1.
       -1    1    3    3    0  502 -0.67022842734E+03  0.98560932953E+02  0.25600017575E+04  0.26481180867E+04  0.50400001928E-02 0.  1.
</event>
<event>
 5   0  0.5515000E-08  0.4008729E+04  0.7818609E-02  0.8002788E-01
        1   -1    0    0  501    0  0.00000000000E+00  0.00000000000E+00  0.13350974887E+04  0.13350974887E+04  0.50400001928E-02 0.  1.
       -1   -1    0    0    0  501  0.00000000000E+00  0.00000000000E+00 -0.30091267477E+04  0.30091267477E+04  0.50400001928E-02 0. -1.
    10030    2    1    2    0    0  0.00000000000E+00  0.00000000000E+00 -0.16740292590E+04  0.43442242364E+04  0.40087292570E+04 0.  0.
        5    1    3    3  502    0  0.14350783351E+04  0.13621571587E+04 -0.49000746262E+03  0.20383943083E+04  0.46999998093E+01 0. -1.
       -5    1    3    3    0  502 -0.14350783351E+04 -0.13621571587E+04 -0.11840217964E+04  0.23058299281E+04  0.46999998093E+01 0.  1.
</event>
<event>
 5   0  0.5515000E-08  0.4198570E+04  0.7818609E-02  0.7965644E-01
       -1   -1    0    0    0  501  0.00000000000E+00  0.00000000000E+00  0.30215782069E+04  0.30215782069E+04  0.50400001928E-02 0.  1.
        1   -1    0    0  501    0  0.00000000000E+00  0.00000000000E+00 -0.14585088277E+04  0.14585088277E+04  0.50400001928E-02 0. -1.
    10030    2    1    2    0    0  0.00000000000E+00  0.00000000000E+00  0.15630693791E+04  0.44800870346E+04  0.41985704655E+04 0.  0.
        5    1    3    3  502    0 -0.26709432396E+02 -0.17804475483E+04  0.19679632365E+04  0.26539797016E+04  0.46999998093E+01 0.  1.
       -5    1    3    3    0  502  0.26709432396E+02  0.17804475483E+04 -0.40489385738E+03  0.18261073330E+04  0.46999998093E+01 0. -1.
</event>
<event>
 5   0  0.5515000E-08  0.3996331E+04  0.7818609E-02  0.8005287E-01
        1   -1    0    0  501    0  0.00000000000E+00  0.00000000000E+00  0.27348862079E+04  0.27348862079E+04  0.50400001928E-02 0. -1.
       -1   -1    0    0    0  501  0.00000000000E+00  0.00000000000E+00 -0.14599015886E+04  0.14599015887E+04  0.50400001928E-02 0.  1.
    10030    2    1    2    0    0  0.00000000000E+00  0.00000000000E+00  0.12749846193E+04  0.41947877966E+04  0.39963306769E+04 0.  0.
        5    1    3    3  502    0 -0.12967944983E+04 -0.15025724533E+04  0.39528985552E+03  0.20237776825E+04  0.46999998093E+01 0.  1.
       -5    1    3    3    0  502  0.12967944983E+04  0.15025724533E+04  0.87969476374E+03  0.21710101141E+04  0.46999998093E+01 0. -1.
</event>
<event>
 5   0  0.5515000E-08  0.3980963E+04  0.7818609E-02  0.8008398E-01
       -1   -1    0    0    0  501  0.00000000000E+00  0.00000000000E+00  0.17030067484E+04  0.17030067484E+04  0.50400001928E-02 0. -1.
        1   -1    0    0  501    0  0.00000000000E+00  0.00000000000E+00 -0.23264830090E+04  0.23264830090E+04  0.50400001928E-02 0.  1.
    10030    2    1    2    0    0  0.00000000000E+00  0.00000000000E+00 -0.62347626058E+03  0.40294897573E+04  0.39809628304E+04 0.  0.
        2    1    3    3  502    0  0.12473056303E+04 -0.99672524327E+03 -0.15148327209E+04  0.22008977074E+04  0.25500000920E-02 0.  1.
       -2    1    3    3    0  502 -0.12473056303E+04  0.99672524327E+03  0.89135646033E+03  0.18285920500E+04  0.25500000920E-02 0. -1.
</event>
<event>
 5   0  0.1773903E-07  0.3973252E+04  0.7818609E-02  0.8009964E-01
       -2   -1    0    0    0  501  0.00000000000E+00  0.00000000000E+00  0.17814429235E+04  0.17814429235E+04  0.25500000920E-02 0. -1.
        2   -1    0    0  501    0  0.00000000000E+00  0.00000000000E+00 -0.22154414842E+04  0.22154414842E+04  0.25500000920E-02 0.  1.
    10030    2    1    2    0    0  0.00000000000E+00  0.00000000000E+00 -0.43399856060E+03  0.39968844077E+04  0.39732518443E+04 0.  0.
        3    1    3    3  502    0  0.17335138583E+04  0.11857916665E+03 -0.11858222953E+04  0.21036410916E+04  0.10100000352E+00 0.  1.
       -3    1    3    3    0  502 -0.17335138583E+04 -0.11857916665E+03  0.75182373473E+03  0.18932433161E+04  0.10100000352E+00 0. -1.
</event>
<event>
 5   0  0.1821433E-07  0.3907386E+04  0.7818609E-02  0.8023495E-01
       -2   -1    0    0    0  501  0.00000000000E+00  0.00000000000E+00  0.13652796229E+04  0.13652796229E+04  0.25500000920E-02 0. -1.
        2   -1    0    0  501    0  0.00000000000E+00  0.00000000000E+00 -0.27957029842E+04  0.27957029842E+04  0.25500000920E-02 0.  1.
    10030    2    1    2    0    0  0.00000000000E+00  0.00000000000E+00 -0.14304233613E+04  0.41609826072E+04  0.39073859887E+04 0.  0.
        5    1    3    3  502    0  0.19000344092E+03  0.73863851297E+02 -0.27843401234E+04  0.27917967671E+04  0.46999998093E+01 0.  1.
       -5    1    3    3    0  502 -0.19000344092E+03 -0.73863851297E+02  0.13539167621E+04  0.13691858401E+04  0.46999998093E+01 0. -1.
</event>
<event>
 5   0  0.1785559E-07  0.3458684E+04  0.7818609E-02  0.8123652E-01
        2   -1    0    0  501    0  0.00000000000E+00  0.00000000000E+00  0.15434870796E+04  0.15434870796E+04  0.25500000920E-02 0. -1.
       -2   -1    0    0    0  501  0.00000000000E+00  0.00000000000E+00 -0.19375765741E+04  0.19375765741E+04  0.25500000920E-02 0.  1.
    10030    2    1    2    0    0  0.00000000000E+00  0.00000000000E+00 -0.39408949449E+03  0.34810636537E+04  0.34586843787E+04 0.  0.
        2    1    3    3  502    0  0.14756497255E+03 -0.15516952350E+04 -0.95095150965E+03  0.18258812386E+04  0.25500000920E-02 0.  1.
       -2    1    3    3    0  502 -0.14756497255E+03  0.15516952350E+04  0.55686201516E+03  0.16551824152E+04  0.25500000920E-02 0. -1.
</event>
<event>
 5   0  0.5515000E-08  0.4016569E+04  0.7818609E-02  0.8001212E-01
       -1   -1    0    0    0  501  0.00000000000E+00  0.00000000000E+00  0.18308257971E+04  0.18308257971E+04  0.50400001928E-02 0. -1.
        1   -1    0    0  501    0  0.00000000000E+00  0.00000000000E+00 -0.22029437688E+04  0.22029437689E+04  0.50400001928E-02 0.  1.
    10030    2    1    2    0    0  0.00000000000E+00  0.00000000000E+00 -0.37211797175E+03  0.40337695660E+04  0.40165688251E+04 0.  0.
        4    1    3    3  502    0 -0.11604567674E+04 -0.57268833082E+03  0.13562824205E+04  0.18746027447E+04  0.12699999809E+01 0. -1.
       -4    1    3    3    0  502  0.11604567674E+04  0.57268833082E+03 -0.17284003922E+04  0.21591668213E+04  0.12699999809E+01 0.  1.
</event>
<event>
 5   0  0.1819906E-07  0.4030070E+04  0.7818609E-02  0.7998508E-01
       -2   -1    0    0    0  501  0.00000000000E+00  0.00000000000E+00  0.32591626929E+04  0.32591626929E+04  0.25500000920E-02 0. -1.
        2   -1    0    0  501    0  0.00000000000E+00  0.00000000000E+00 -0.12458309176E+04  0.12458309176E+04  0.25500000920E-02 0.  1.
    10030    2    1    2    0    0  0.00000000000E+00  0.00000000000E+00  0.20133317753E+04  0.45049936105E+04  0.40300698000E+04 0.  0.
        1    1    3    3  502    0  0.64957797947E+03  0.31248438207E+03 -0.10967750548E+04  0.13124456413E+04  0.50400001928E-02 0.  1.
       -1    1    3    3    0  502 -0.64957797947E+03 -0.31248438207E+03  0.31101068301E+04  0.31925479691E+04  0.50400001928E-02 0. -1.
</event>
<event>
 5   0  0.5515000E-08  0.4011157E+04  0.7818609E-02  0.8002300E-01
       -1   -1    0    0    0  501  0.00000000000E+00  0.00000000000E+00  0.23093881280E+04  0.23093881280E+04  0.50400001928E-02 0.  1.
        1   -1    0    0  501    0  0.00000000000E+00  0.00000000000E+00 -0.17417361362E+04  0.17417361362E+04  0.50400001928E-02 0. -1.
    10030    2    1    2    0    0  0.00000000000E+00  0.00000000000E+00  0.56765199180E+03  0.40511242641E+04  0.40111568181E+04 0.  0.
        2    1    3    3  502    0  0.48561564609E+03  0.18892946437E+04 -0.18674351045E+03  0.19596249502E+04  0.25500000920E-02 0. -1.
       -2    1    3    3    0  502 -0.48561564609E+03 -0.18892946437E+04  0.75439550225E+03  0.20914993140E+04  0.25500000920E-02 0.  1.
</event>
<event>
 5   0  0.5515000E-08  0.4052979E+04  0.7818609E-02  0.7993944E-01
       -1   -1    0    0    0  501  0.00000000000E+00  0.00000000000E+00  0.21154604112E+04  0.21154604112E+04  0.50400001928E-02 0. -1.
        1   -1    0    0  501    0  0.00000000000E+00  0.00000000000E+00 -0.19412602805E+04  0.19412602805E+04  0.50400001928E-02 0.  1.
    10030    2    1    2    0    0  0.00000000000E+00  0.00000000000E+00  0.17420013070E+03  0.40567206917E+04  0.40529787916E+04 0.  0.
        3    1    3    3  502    0  0.10523629298E+04  0.99628876709E+03  0.15049530559E+04  0.20892445415E+04  0.10100000352E+00 0. -1.
       -3    1    3    3    0  502 -0.10523629298E+04 -0.99628876709E+03 -0.13307529252E+04  0.19674761502E+04  0.10100000352E+00 0.  1.
</event>
<event>
 5   0  0.5515000E-08  0.3994465E+04  0.7818609E-02  0.8005664E-01
        1   -1    0    0  501    0  0.00000000000E+00  0.00000000000E+00  0.23036109093E+04  0.23036109094E+04  0.50400001928E-02 0.  1.
       -1   -1    0    0    0  501  0.00000000000E+00  0.00000000000E+00 -0.17316023195E+04  0.17316023195E+04  0.50400001928E-02 0. -1.
    10030    2    1    2    0    0  0.00000000000E+00  0.00000000000E+00  0.57200858988E+03  0.40352132288E+04  0.39944651676E+04 0.  0.
        3    1    3    3  502    0 -0.15188193990E+04  0.12857561806E+04  0.45790675441E+03  0.20419745171E+04  0.10100000352E+00 0.  1.
       -3    1    3    3    0  502  0.15188193990E+04 -0.12857561806E+04  0.11410183547E+03  0.19932387117E+04  0.10100000352E+00 0. -1.
</event>
<event>
 5   0  0.5515000E-08  0.3971299E+04  0.7818609E-02  0.8010362E-01
       -1   -1    0    0    0  501  0.00000000000E+00  0.00000000000E+00  0.20779377915E+04  0.20779377915E+04  0.50400001928E-02 0. -1.
        1   -1    0    0  501    0  0.00000000000E+00  0.00000000000E+00 -0.18974603126E+04  0.18974603126E+04  0.50400001928E-02 0.  1.
    10030    2    1    2    0    0  0.00000000000E+00  0.00000000000E+00  0.18047747890E+03  0.39753981042E+04  0.39712992794E+04 0.  0.
        2    1    3    3  502    0  0.15061135139E+04 -0.51990637324E+03 -0.10959416260E+04  0.19338481329E+04  0.25500000920E-02 0.  1.
       -2    1    3    3    0  502 -0.15061135139E+04  0.51990637324E+03  0.12764191049E+04  0.20415499712E+04  0.25500000920E-02 0. -1.
</event>
<event>
 5   0  0.5515000E-08  0.3989005E+04  0.7818609E-02  0.8006768E-01
        1   -1    0    0  501    0  0.00000000000E+00  0.00000000000E+00  0.14008287764E+04  0.14008287764E+04  0.50400001928E-02 0. -1.
       -1   -1    0    0    0  501  0.00000000000E+00  0.00000000000E+00 -0.28397767228E+04  0.28397767228E+04  0.50400001928E-02 0.  1.
    10030    2    1    2    0    0  0.00000000000E+00  0.00000000000E+00 -0.14389479464E+04  0.42406054991E+04  0.39890053656E+04 0.  0.
        3    1    3    3  502    0  0.33453383104E+03 -0.17892517716E+04 -0.15861925437E+04  0.24144029453E+04  0.10100000352E+00 0. -1.
       -3    1    3    3    0  502 -0.33453383104E+03  0.17892517716E+04  0.14724459732E+03  0.18262025539E+04  0.10100000352E+00 0.  1.
</event>
<event>
 5   0  0.5515000E-08  0.4044616E+04  0.7818609E-02  0.7995606E-01
        1   -1    0    0  501    0  0.00000000000E+00  0.00000000000E+00  0.12881819105E+04  0.12881819105E+04  0.50400001928E-02 0.  1.
       -1   -1    0    0    0  501  0.00000000000E+00  0.00000000000E+00 -0.31748073089E+04  0.31748073089E+04  0.50400001928E-02 0. -1.
    10030    2    1    2    0    0  0.00000000000E+00  0.00000000000E+00 -0.18866253984E+04  0.44629892194E+04  0.40446158506E+04 0.  0.
        1    1    3    3  502    0 -0.19711438437E+04  0.35577104877E+03 -0.12509888810E+04  0.23615575945E+04  0.50400001928E-02 0. -1.
       -1    1    3    3    0  502  0.19711438437E+04 -0.35577104877E+03 -0.63563651739E+03  0.21014316249E+04  0.50400001928E-02 0.  1.
</event>
<event>
 5   0  0.5515000E-08  0.3960013E+04  0.7818609E-02  0.8012662E-01
       -1   -1    0    0    0  501  0.00000000000E+00  0.00000000000E+00  0.21585932334E+04  0.21585932334E+04  0.50400001928E-02 0.  1.
        1   -1    0    0  501    0  0.00000000000E+00  0.00000000000E+00 -0.18161951240E+04  0.18161951240E+04  0.50400001928E-02 0. -1.
    10030    2    1    2    0    0  0.00000000000E+00  0.00000000000E+00  0.34239810934E+03  0.39747883574E+04  0.39600133865E+04 0.  0.
        2    1    3    3  502    0  0.15458965605E+03  0.11059783961E+04  0.18123347067E+04  0.21287656667E+04  0.25500000920E-02 0.  1.
       -2    1    3    3    0  502 -0.15458965605E+03 -0.11059783961E+04 -0.14699365974E+04  0.18460226907E+04  0.25500000920E-02 0. -1.
</event>
<event>
 5   0  0.1785559E-07  0.3454999E+04  0.7818609E-02  0.8124538E-01
       -2   -1    0    0    0  501  0.00000000000E+00  0.00000000000E+00  0.15107432919E+04  0.15107432919E+04  0.25500000920E-02 0. -1.
        2   -1    0    0  501    0  0.00000000000E+00  0.00000000000E+00 -0.19753550681E+04  0.19753550681E+04  0.25500000920E-02 0.  1.
    10030    2    1    2    0    0  0.00000000000E+00  0.00000000000E+00 -0.46461177629E+03  0.34860983600E+04  0.34549989396E+04 0.  0.
        2    1    3    3  502    0  0.31477473855E+03  0.81869469030E+03 -0.17339595799E+04  0.19431829448E+04  0.25500000920E-02 0.  1.
       -2    1    3    3    0  502 -0.31477473855E+03 -0.81869469030E+03  0.12693478037E+04  0.15429154152E+04  0.25500000920E-02 0. -1.
</event>
<event>
 5   0  0.5515000E-08  0.3999217E+04  0.7818609E-02  0.8004704E-01
       -1   -1    0    0    0  501  0.00000000000E+00  0.00000000000E+00  0.22100155035E+04  0.22100155035E+04  0.50400001928E-02 0. -1.
        1   -1    0    0  501    0  0.00000000000E+00  0.00000000000E+00 -0.18092337946E+04  0.18092337946E+04  0.50400001928E-02 0.  1.
    10030    2    1    2    0    0  0.00000000000E+00  0.00000000000E+00  0.40078170892E+03  0.40192492982E+04  0.39992172912E+04 0.  0.
        2    1    3    3  502    0  0.66866071389E+03 -0.11412787114E+04  0.17075057846E+04  0.21599074637E+04  0.25500000920E-02 0. -1.
       -2    1    3    3    0  502 -0.66866071389E+03  0.11412787114E+04 -0.13067240757E+04  0.18593418345E+04  0.25500000920E-02 0.  1.
</event>
<event>
 5   0  0.5515000E-08  0.3915288E+04  0.7818609E-02  0.8021857E-01
       -1   -1    0    0    0  501  0.00000000000E+00  0.00000000000E+00  0.19640903193E+04  0.19640903193E+04  0.50400001928E-02 0.  1.
        1   -1    0    0  501    0  0.00000000000E+00  0.00000000000E+00 -0.19512191529E+04  0.19512191529E+04  0.50400001928E-02 0. -1.
    10030    2    1    2    0    0  0.00000000000E+00  0.00000000000E+00  0.12871166399E+02  0.39153094722E+04  0.39152883158E+04 0.  0.
        5    1    3    3  502    0  0.16072149299E+04  0.84458401723E+03 -0.72561110749E+03  0.19552482099E+04  0.46999998093E+01 0. -1.
       -5    1    3    3    0  502 -0.16072149299E+04 -0.84458401723E+03  0.73848227388E+03  0.19600612623E+04  0.46999998093E+01 0.  1.
</event>
<event>
 5   0  0.1773903E-07  0.4006710E+04  0.7818609E-02  0.8003194E-01
       -2   -1    0    0    0  501  0.00000000000E+00  0.00000000000E+00  0.16602549118E+04  0.16602549118E+04  0.25500000920E-02 0.  1.
        2   -1    0    0  501    0  0.00000000000E+00  0.00000000000E+00 -0.24173579136E+04  0.24173579136E+04  0.25500000920E-02 0. -1.
    10030    2    1    2    0    0  0.00000000000E+00  0.00000000000E+00 -0.75710300182E+03  0.40776128253E+04  0.40067095475E+04 0.  0.
        3    1    3    3  502    0  0.15911445912E+04  0.11394424049E+04  0.57231920397E+02  0.19578931552E+04  0.10100000352E+00 0. -1.
       -3    1    3    3    0  502 -0.15911445912E+04 -0.11394424049E+04 -0.81433492222E+03  0.21197196701E+04  0.10100000352E+00 0.  1.
</event>
<event>
 5   0  0.1773903E-07  0.3972735E+04  0.7818609E-02  0.8010069E-01
       -2   -1    0    0    0  501  0.00000000000E+00  0.00000000000E+00  0.14842078770E+04  0.14842078770E+04  0.25500000920E-02 0. -1.
        2   -1    0    0  501    0  0.00000000000E+00  0.00000000000E+00 -0.26584255920E+04  0.26584255920E+04  0.25500000920E-02 0.  1.
    10030    2    1    2    0    0  0.00000000000E+00  0.00000000000E+00 -0.11742177149E+04  0.41426334690E+04  0.39727351808E+04 0.  0.
        3    1    3    3  502    0 -0.29405927063E+03 -0.11303816753E+03  0.14579911563E+04  0.14916389322E+04  0.10100000352E+00 0. -1.
       -3    1    3    3    0  502  0.29405927063E+03  0.11303816753E+03 -0.26322088713E+04  0.26509945368E+04  0.10100000352E+00 0.  1.
</event>
<event>
 5   0  0.1776653E-07  0.3989668E+04  0.7818609E-02  0.8006634E-01
        2   -1    0    0  501    0  0.00000000000E+00  0.00000000000E+00  0.23008930412E+04  0.23008930412E+04  0.25500000920E-02 0. -1.
       -2   -1    0    0    0  501  0.00000000000E+00  0.00000000000E+00 -0.17294858535E+04  0.17294858535E+04  0.25500000920E-02 0.  1.
    10030    2    1    2    0    0  0.00000000000E+00  0.00000000000E+00  0.57140718769E+03  0.40303788946E+04  0.39896676378E+04 0.  0.
        4    1    3    3  502    0 -0.11297082789E+04  0.87222630957E+03  0.16936038139E+04  0.22147945778E+04  0.12699999809E+01 0. -1.
       -4    1    3    3    0  502  0.11297082789E+04 -0.87222630957E+03 -0.11221966262E+04  0.18155843168E+04  0.12699999809E+01 0.  1.
</event>
<event>
 5   0  0.1773903E-07  0.4003335E+04  0.7818609E-02  0.8003874E-01
       -2   -1    0    0    0  501  0.00000000000E+00  0.00000000000E+00  0.23619203450E+04  0.23619203450E+04  0.25500000920E-02 0.  1.
        2   -1    0    0  501    0  0.00000000000E+00  0.00000000000E+00 -0.16963627586E+04  0.16963627586E+04  0.25500000920E-02 0. -1.
    10030    2    1    2    0    0  0.00000000000E+00  0.00000000000E+00  0.66555758638E+03  0.40582831036E+04  0.40033354654E+04 0.  0.
        3    1    3    3  502    0  0.11737005604E+03 -0.69195359648E+03  0.22331012570E+04  0.23407940413E+04  0.10100000352E+00 0.  1.
       -3    1    3    3    0  502 -0.11737005604E+03  0.69195359648E+03 -0.15675436706E+04  0.17174890623E+04  0.10100000352E+00 0. -1.
</event>
<event>
 5   0  0.1819906E-07  0.3988873E+04  0.7818609E-02  0.8006795E-01
        2   -1    0    0  501    0  0.00000000000E+00  0.00000000000E+00  0.27429756527E+04  0.27429756527E+04  0.25500000920E-02 0.  1.
       -2   -1    0    0    0  501  0.00000000000E+00  0.00000000000E+00 -0.14501685934E+04  0.14501685934E+04  0.25500000920E-02 0. -1.
    10030    2    1    2    0    0  0.00000000000E+00  0.00000000000E+00  0.12928070593E+04  0.41931442461E+04  0.39888730960E+04 0.  0.
        1    1    3    3  502    0  0.48120744996E+03  0.76551262614E+03  0.25151369178E+04  0.26727296732E+04  0.50400001928E-02 0.  1.
       -1    1    3    3    0  502 -0.48120744996E+03 -0.76551262614E+03 -0.12223298585E+04  0.15204145729E+04  0.50400001928E-02 0. -1.
</event>
<event>
 5   0  0.1821433E-07  0.3929463E+04  0.7818609E-02  0.8018929E-01
       -2   -1    0    0    0  501  0.00000000000E+00  0.00000000000E+00  0.19262589977E+04  0.19262589977E+04  0.25500000920E-02 0.  1.
        2   -1    0    0  501    0  0.00000000000E+00  0.00000000000E+00 -0.20039725524E+04  0.20039725524E+04  0.25500000920E-02 0. -1.
    10030    2    1    2    0    0  0.00000000000E+00  0.00000000000E+00 -0.77713554665E+02  0.39302315500E+04  0.39294631491E+04 0.  0.
        5    1    3    3  502    0 -0.55289490662E+03 -0.65062316279E+03 -0.18087069105E+04  0.20001115109E+04  0.46999998093E+01 0. -1.
       -5    1    3    3    0  502  0.55289490662E+03  0.65062316279E+03  0.17309933558E+04  0.19301200392E+04  0.46999998093E+01 0.  1.
</event>
<event>
 5   0  0.1821433E-07  0.3854793E+04  0.7818609E-02  0.8034498E-01
        2   -1    0    0  501    0  0.00000000000E+00  0.00000000000E+00  0.15587704447E+04  0.15587704447E+04  0.25500000920E-02 0.  1.
       -2   -1    0    0    0  501  0.00000000000E+00  0.00000000000E+00 -0.23831975838E+04  0.23831975838E+04  0.25500000920E-02 0. -1.
    10030    2    1    2    0    0  0.00000000000E+00  0.00000000000E+00 -0.82442713908E+03  0.39419680285E+04  0.38547933576E+04 0.  0.
        5    1    3    3  502    0 -0.10299214365E+04  0.15455272759E+04 -0.93907662957E+03  0.20811726820E+04  0.46999998093E+01 0. -1.
       -5    1    3    3    0  502  0.10299214365E+04 -0.15455272759E+04  0.11464949049E+03  0.18607953465E+04  0.46999998093E+01 0.  1.
</event>
<event>
 5   0  0.5515000E-08  0.3534423E+04  0.7818609E-02  0.8105680E-01
        1   -1    0    0  501    0  0.00000000000E+00  0.00000000000E+00  0.17211520470E+04  0.17211520471E+04  0.50400001928E-02 0.  1.
       -1   -1    0    0    0  501  0.00000000000E+00  0.00000000000E+00 -0.18145036810E+04  0.18145036810E+04  0.50400001928E-02 0. -1.
    10030    2    1    2    0    0  0.00000000000E+00  0.00000000000E+00 -0.93351633995E+02  0.35356557281E+04  0.35344231354E+04 0.  0.
        5    1    3    3  502    0  0.95300035297E+03  0.17203440035E+02 -0.15353174281E+04  0.18071323489E+04  0.46999998093E+01 0. -1.
       -5    1    3    3    0  502 -0.95300035297E+03 -0.17203440035E+02  0.14419657941E+04  0.17285233792E+04  0.46999998093E+01 0.  1.
</event>
<event>
 5   0  0.5515000E-08  0.4016457E+04  0.7818609E-02  0.8001235E-01
       -1   -1    0    0    0  501  0.00000000000E+00  0.00000000000E+00  0.18214222278E+04  0.18214222278E+04  0.50400001928E-02 0. -1.
        1   -1    0    0  501    0  0.00000000000E+00  0.00000000000E+00 -0.22141933113E+04  0.22141933113E+04  0.50400001928E-02 0.  1.
    10030    2    1    2    0    0  0.00000000000E+00  0.00000000000E+00 -0.39277108346E+03  0.40356155392E+04  0.40164566045E+04 0.  0.
        1    1    3    3  502    0  0.10445471633E+04  0.13625156119E+04  0.85043512304E+03  0.19159247030E+04  0.50400001928E-02 0.  1.
       -1    1    3    3    0  502 -0.10445471633E+04 -0.13625156119E+04 -0.12432062065E+04  0.21196908362E+04  0.50400001928E-02 0. -1.
</event>
<event>
 5   0  0.5515000E-08  0.3962266E+04  0.7818609E-02  0.8012202E-01
       -1   -1    0    0    0  501  0.00000000000E+00  0.00000000000E+00  0.13798992564E+04  0.13798992565E+04  0.50400001928E-02 0. -1.
        1   -1    0    0  501    0  0.00000000000E+00  0.00000000000E+00 -0.28443288240E+04  0.28443288240E+04  0.50400001928E-02 0.  1.
    10030    2    1    2    0    0  0.00000000000E+00  0.00000000000E+00 -0.14644295675E+04  0.42242280804E+04  0.39622656293E+04 0.  0.
        3    1    3    3  502    0  0.64322127255E+02  0.14969312122E+04 -0.21140349937E+04  0.25911550233E+04  0.10100000352E+00 0.  1.
       -3    1    3    3    0  502 -0.64322127255E+02 -0.14969312122E+04  0.64960542615E+03  0.16330730571E+04  0.10100000352E+00 0. -1.
</event>
<event>
 5   0  0.5515000E-08  0.4086326E+04  0.7818609E-02  0.7987355E-01
        1   -1    0    0  501    0  0.00000000000E+00  0.00000000000E+00  0.30819178654E+04  0.30819178654E+04  0.50400001928E-02 0.  1.
       -1   -1    0    0    0  501  0.00000000000E+00  0.00000000000E+00 -0.13545187655E+04  0.13545187655E+04  0.50400001928E-02 0. -1.
    10030    2    1    2    0    0  0.00000000000E+00  0.00000000000E+00  0.17273990999E+04  0.44364366310E+04  0.40863262633E+04 0.  0.
        1    1    3    3  502    0 -0.71714686452E+03  0.58749409367E+03  0.28404296510E+04  0.29878904829E+04  0.50400001928E-02 0.  1.
       -1    1    3    3    0  502  0.71714686452E+03 -0.58749409367E+03 -0.11130305511E+04  0.14485461481E+04  0.50400001928E-02 0. -1.
</event>
<event>
 5   0  0.5515000E-08  0.3995370E+04  0.7818609E-02  0.8005481E-01
        1   -1    0    0  501    0  0.00000000000E+00  0.00000000000E+00  0.18535098781E+04  0.18535098781E+04  0.50400001928E-02 0. -1.
       -1   -1    0    0    0  501  0.00000000000E+00  0.00000000000E+00 -0.21530749533E+04  0.21530749533E+04  0.50400001928E-02 0.  1.
    10030    2    1    2    0    0  0.00000000000E+00  0.00000000000E+00 -0.29956507525E+03  0.40065848314E+04  0.39953701677E+04 0.  0.
        4    1    3    3  502    0 -0.10461557596E+04 -0.13441591897E+04  0.89695685077E+03  0.19250296116E+04  0.12699999809E+01 0. -1.
       -4    1    3    3    0  502  0.10461557596E+04  0.13441591897E+04 -0.11965219260E+04  0.20815552198E+04  0.12699999809E+01 0.  1.
</event>
<event>
 5   0  0.1776653E-07  0.3966961E+04  0.7818609E-02  0.8011245E-01
       -2   -1    0    0    0  501  0.00000000000E+00  0.00000000000E+00  0.21080972252E+04  0.21080972252E+04  0.25500000920E-02 0.  1.
        2   -1    0    0  501    0  0.00000000000E+00  0.00000000000E+00 -0.18662303108E+04  0.18662303108E+04  0.25500000920E-02 0. -1.
    10030    2    1    2    0    0  0.00000000000E+00  0.00000000000E+00  0.24186691445E+03  0.39743275360E+04  0.39669610232E+04 0.  0.
        4    1    3    3  502    0  0.14662795681E+04  0.87887300604E+03  0.11286839421E+04  0.20484927597E+04  0.12699999809E+01 0. -1.
       -4    1    3    3    0  502 -0.14662795681E+04 -0.87887300604E+03 -0.88681702760E+03  0.19258347764E+04  0.12699999809E+01 0.  1.
</event>
<event>
 5   0  0.1821433E-07  0.4007454E+04  0.7818609E-02  0.8003045E-01
        2   -1    0    0  501    0  0.00000000000E+00  0.00000000000E+00  0.21684692603E+04  0.21684692603E+04  0.25500000920E-02 0.  1.
       -2   -1    0    0    0  501  0.00000000000E+00  0.00000000000E+00 -0.18515000531E+04  0.18515000531E+04  0.25500000920E-02 0. -1.
    10030    2    1    2    0    0  0.00000000000E+00  0.00000000000E+00  0.31696920726E+03  0.40199693134E+04  0.40074535309E+04 0.  0.
        5    1    3    3  502    0 -0.30988856052E+03  0.80698471462E+03 -0.16548234257E+04  0.18670077423E+04  0.46999998093E+01 0. -1.
       -5    1    3    3    0  502  0.30988856052E+03 -0.80698471462E+03  0.19717926329E+04  0.21529615711E+04  0.46999998093E+01 0.  1.
</event>
<event>
 5   0  0.5515000E-08  0.4008196E+04  0.7818609E-02  0.8002895E-01
        1   -1    0    0  501    0  0.00000000000E+00  0.00000000000E+00  0.17733358331E+04  0.17733358331E+04  0.50400001928E-02 0. -1.
       -1   -1    0    0    0  501  0.00000000000E+00  0.00000000000E+00 -0.22648887724E+04  0.22648887724E+04  0.50400001928E-02 0.  1.
    10030    2    1    2    0    0  0.00000000000E+00  0.00000000000E+00 -0.49155293925E+03  0.40382246055E+04  0.40081958127E+04 0.  0.
        1    1    3    3  502    0  0.19007880083E+04 -0.60468409888E+03 -0.49974099965E+02  0.19952782569E+04  0.50400001928E-02 0. -1.
       -1    1    3    3    0  502 -0.19007880083E+04  0.60468409888E+03 -0.44157883929E+03  0.20429463486E+04  0.50400001928E-02 0.  1.
</event>
<event>
 5   0  0.1773903E-07  0.3994779E+04  0.7818609E-02  0.8005601E-01
       -2   -1    0    0    0  501  0.00000000000E+00  0.00000000000E+00  0.16679220326E+04  0.16679220326E+04  0.25500000920E-02 0.  1.
        2   -1    0    0  501    0  0.00000000000E+00  0.00000000000E+00 -0.23919372676E+04  0.23919372676E+04  0.25500000920E-02 0. -1.
    10030    2    1    2    0    0  0.00000000000E+00  0.00000000000E+00 -0.72401523500E+03  0.40598593001E+04  0.39947790272E+04 0.  0.
        3    1    3    3  502    0  0.54986143198E+03 -0.18958558616E+04 -0.67184785558E+03  0.20851850262E+04  0.10100000352E+00 0.  1.
       -3    1    3    3    0  502 -0.54986143198E+03  0.18958558616E+04 -0.52167379420E+02  0.19746742739E+04  0.10100000352E+00 0. -1.
</event>
<event>
 5   0  0.1819906E-07  0.3939204E+04  0.7818609E-02  0.8016925E-01
        2   -1    0    0  501    0  0.00000000000E+00  0.00000000000E+00  0.21935389878E+04  0.21935389878E+04  0.25500000920E-02 0. -1.
       -2   -1    0    0    0  501  0.00000000000E+00  0.00000000000E+00 -0.17685262913E+04  0.17685262913E+04  0.25500000920E-02 0.  1.
    10030    2    1    2    0    0  0.00000000000E+00  0.00000000000E+00  0.42501269643E+03  0.39620652791E+04  0.39392036611E+04 0.  0.
        1    1    3    3  502    0 -0.57939812442E+03  0.17016604074E+04  0.10221507958E+04  0.20678835987E+04  0.50400001928E-02 0. -1.
       -1    1    3    3    0  502  0.57939812442E+03 -0.17016604074E+04 -0.59713809933E+03  0.18941816804E+04  0.50400001928E-02 0.  1.
</event>
<event>
 5   0  0.1785559E-07  0.3984488E+04  0.7818609E-02  0.8007683E-01
       -2   -1    0    0    0  501  0.00000000000E+00  0.00000000000E+00  0.17556082419E+04  0.17556082419E+04  0.25500000920E-02 0. -1.
        2   -1    0    0  501    0  0.00000000000E+00  0.00000000000E+00 -0.22607756019E+04  0.22607756019E+04  0.25500000920E-02 0.  1.
    10030    2    1    2    0    0  0.00000000000E+00  0.00000000000E+00 -0.50516735999E+03  0.40163838438E+04  0.39844880623E+04 0.  0.
        2    1    3    3  502    0  0.52604015559E+03 -0.68519355208E+03  0.15570106803E+04  0.17805871806E+04  0.25500000920E-02 0. -1.
       -2    1    3    3    0  502 -0.52604015559E+03  0.68519355208E+03 -0.20621780403E+04  0.22357966632E+04  0.25500000920E-02 0.  1.
</event>
<event>
 5   0  0.5515000E-08  0.4007126E+04  0.7818609E-02  0.8003111E-01
        1   -1    0    0  501    0  0.00000000000E+00  0.00000000000E+00  0.19227841654E+04  0.19227841654E+04  0.50400001928E-02 0. -1.
       -1   -1    0    0    0  501  0.00000000000E+00  0.00000000000E+00 -0.20877352194E+04  0.20877352194E+04  0.50400001928E-02 0.  1.
    10030    2    1    2    0    0  0.00000000000E+00  0.00000000000E+00 -0.16495105397E+03  0.40105193848E+04  0.40071257637E+04 0.  0.
        2    1    3    3  502    0  0.15875180847E+04  0.10793134044E+04 -0.65666264535E+03  0.20288757783E+04  0.25500000920E-02 0.  1.
       -2    1    3    3    0  502 -0.15875180847E+04 -0.10793134044E+04  0.49171159138E+03  0.19816436065E+04  0.25500000920E-02 0. -1.
</event>
<event>
 5   0  0.5515000E-08  0.4089949E+04  0.7818609E-02  0.7986643E-01
       -1   -1    0    0    0  501  0.00000000000E+00  0.00000000000E+00  0.12160720251E+04  0.12160720252E+04  0.50400001928E-02 0. -1.
        1   -1    0    0  501    0  0.00000000000E+00  0.00000000000E+00 -0.34388759263E+04  0.34388759263E+04  0.50400001928E-02 0.  1.
    10030    2    1    2    0    0  0.00000000000E+00  0.00000000000E+00 -0.22228039011E+04  0.46549479514E+04  0.40899490520E+04 0.  0.
        4    1    3    3  502    0  0.11505177715E+04  0.51914275083E+03  0.71981321004E+03  0.14530426727E+04  0.12699999809E+01 0. -1.
       -4    1    3    3    0  502 -0.11505177715E+04 -0.51914275083E+03 -0.29426171112E+04  0.32019052788E+04  0.12699999809E+01 0.  1.
</event>
<event>
 5   0  0.1821433E-07  0.3987833E+04  0.7818609E-02  0.8007006E-01
       -2   -1    0    0    0  501  0.00000000000E+00  0.00000000000E+00  0.12783746669E+04  0.12783746669E+04  0.25500000920E-02 0.  1.
        2   -1    0    0  501    0  0.00000000000E+00  0.00000000000E+00 -0.31099670468E+04  0.31099670468E+04  0.25500000920E-02 0. -1.
    10030    2    1    2    0    0  0.00000000000E+00  0.00000000000E+00 -0.18315923799E+04  0.43883417137E+04  0.39878330394E+04 0.  0.
        5    1    3    3  502    0 -0.19733712000E+04  0.36259682356E+02 -0.12273806219E+04  0.23242189954E+04  0.46999998093E+01 0.  1.
       -5    1    3    3    0  502  0.19733712000E+04 -0.36259682356E+02 -0.60421175803E+03  0.20641227183E+04  0.46999998093E+01 0. -1.
</event>
<event>
 5   0  0.5515000E-08  0.3334018E+04  0.7818609E-02  0.8154293E-01
       -1   -1    0    0    0  501  0.00000000000E+00  0.00000000000E+00  0.16998729333E+04  0.16998729333E+04  0.50400001928E-02 0.  1.
        1   -1    0    0  501    0  0.00000000000E+00  0.00000000000E+00 -0.16347799496E+04  0.16347799497E+04  0.50400001928E-02 0. -1.
    10030    2    1    2    0    0  0.00000000000E+00  0.00000000000E+00  0.65092983633E+02  0.33346528829E+04  0.33340175094E+04 0.  0.
        2    1    3    3  502    0 -0.91093157578E+03 -0.34165409791E+03  0.13864640691E+04  0.16937551397E+04  0.25500000920E-02 0.  1.
       -2    1    3    3    0  502  0.91093157578E+03  0.34165409791E+03 -0.13213710854E+04  0.16408977433E+04  0.25500000920E-02 0. -1.
</event>
<event>
 5   0  0.5515000E-08  0.3788456E+04  0.7818609E-02  0.8048637E-01
        1   -1    0    0  501    0  0.00000000000E+00  0.00000000000E+00  0.14837882546E+04  0.14837882546E+04  0.50400001928E-02 0.  1.
       -1   -1    0    0    0  501  0.00000000000E+00  0.00000000000E+00 -0.24182016397E+04  0.24182016397E+04  0.50400001928E-02 0. -1.
    10030    2    1    2    0    0  0.00000000000E+00  0.00000000000E+00 -0.93441338511E+03  0.39019898942E+04  0.37884557224E+04 0.  0.
        5    1    3    3  502    0  0.11434051816E+04  0.15971445840E+03  0.10795278346E+04  0.15805968978E+04  0.46999998093E+01 0.  1.
       -5    1    3    3    0  502 -0.11434051816E+04 -0.15971445840E+03 -0.20139412197E+04  0.23213929965E+04  0.46999998093E+01 0. -1.
</event>
<event>
 5   0  0.5515000E-08  0.4085703E+04  0.7818609E-02  0.7987477E-01
        1   -1    0    0  501    0  0.00000000000E+00  0.00000000000E+00  0.16760371149E+04  0.16760371149E+04  0.50400001928E-02 0. -1.
       -1   -1    0    0    0  501  0.00000000000E+00  0.00000000000E+00 -0.24899465457E+04  0.24899465457E+04  0.50400001928E-02 0.  1.
    10030    2    1    2    0    0  0.00000000000E+00  0.00000000000E+00 -0.81390943075E+03  0.41659836606E+04  0.40857032808E+04 0.  0.
        4    1    3    3  502    0 -0.84803541112E+03  0.95664337372E+03  0.12177500118E+04  0.17655727986E+04  0.12699999809E+01 0. -1.
       -4    1    3    3    0  502  0.84803541112E+03 -0.95664337372E+03 -0.20316594426E+04  0.24004108620E+04  0.12699999809E+01 0.  1.
</event>
<event>
 5   0  0.5515000E-08  0.3987450E+04  0.7818609E-02  0.8007083E-01
        1   -1    0    0  501    0  0.00000000000E+00  0.00000000000E+00  0.19032401096E+04  0.19032401096E+04  0.50400001928E-02 0. -1.
       -1   -1    0    0    0  501  0.00000000000E+00  0.00000000000E+00 -0.20885117764E+04  0.20885117764E+04  0.50400001928E-02 0.  1.
    10030    2    1    2    0    0  0.00000000000E+00  0.00000000000E+00 -0.18527166676E+03  0.39917518860E+04  0.39874500034E+04 0.  0.
        3    1    3    3  502    0 -0.19246844426E+04 -0.13828231564E+03 -0.59458197238E+03  0.20191730818E+04  0.10100000352E+00 0.  1.
       -3    1    3    3    0  502  0.19246844426E+04  0.13828231564E+03  0.40931030561E+03  0.19725788042E+04  0.10100000352E+00 0. -1.
</event>
<event>
 5   0  0.5515000E-08  0.4001669E+04  0.7818609E-02  0.8004210E-01
       -1   -1    0    0    0  501  0.00000000000E+00  0.00000000000E+00  0.15462977519E+04  0.15462977519E+04  0.50400001928E-02 0.  1.
        1   -1    0    0  501    0  0.00000000000E+00  0.00000000000E+00 -0.25889827101E+04  0.25889827101E+04  0.50400001928E-02 0. -1.
    10030    2    1    2    0    0  0.00000000000E+00  0.00000000000E+00 -0.10426849581E+04  0.41352804620E+04  0.40016687241E+04 0.  0.
        5    1    3    3  502    0  0.12947908852E+04 -0.14772667436E+04 -0.12849752344E+03  0.19685868464E+04  0.46999998093E+01 0. -1.
       -5    1    3    3    0  502 -0.12947908852E+04  0.14772667436E+04 -0.91418743469E+03  0.21666936156E+04  0.46999998093E+01 0.  1.
</event>
<event>
 5   0  0.5515000E-08  0.4021324E+04  0.7818609E-02  0.8000259E-01
        1   -1    0    0  501    0  0.00000000000E+00  0.00000000000E+00  0.15991641822E+04  0.15991641822E+04  0.50400001928E-02 0.  1.
       -1   -1    0    0    0  501  0.00000000000E+00  0.00000000000E+00 -0.25280460506E+04  0.25280460506E+04  0.50400001928E-02 0. -1.
    10030    2    1    2    0    0  0.00000000000E+00  0.00000000000E+00 -0.92888186843E+03  0.41272102328E+04  0.40213235110E+04 0.  0.
        1    1    3    3  502    0  0.11507883852E+04 -0.10341168298E+04 -0.17824074637E+04  0.23602304743E+04  0.50400001928E-02 0. -1.
       -1    1    3    3    0  502 -0.11507883852E+04  0.10341168298E+04  0.85352559526E+03  0.17669797585E+04  0.50400001928E-02 0.  1.
</event>
<event>
 5   0  0.1819906E-07  0.3993132E+04  0.7818609E-02  0.8005933E-01
        2   -1    0    0  501    0  0.00000000000E+00  0.00000000000E+00  0.21980707903E+04  0.21980707903E+04  0.25500000920E-02 0.  1.
       -2   -1    0    0    0  501  0.00000000000E+00  0.00000000000E+00 -0.18135339796E+04  0.18135339796E+04  0.25500000920E-02 0. -1.
    10030    2    1    2    0    0  0.00000000000E+00  0.00000000000E+00  0.38453681061E+03  0.40116047699E+04  0.39931321380E+04 0.  0.
        1    1    3    3  502    0  0.16511230413E+04  0.86592727161E+03  0.90988284342E+03  0.20745901103E+04  0.50400001928E-02 0.  1.
       -1    1    3    3    0  502 -0.16511230413E+04 -0.86592727161E+03 -0.52534603280E+03  0.19370146596E+04  0.50400001928E-02 0. -1.
</event>
<event>
 5   0  0.5515000E-08  0.4015232E+04  0.7818609E-02  0.8001481E-01
        1   -1    0    0  501    0  0.00000000000E+00  0.00000000000E+00  0.23602282112E+04  0.23602282112E+04  0.50400001928E-02 0.  1.
       -1   -1    0    0    0  501  0.00000000000E+00  0.00000000000E+00 -0.17076830819E+04  0.17076830819E+04  0.50400001928E-02 0. -1.
    10030    2    1    2    0    0  0.00000000000E+00  0.00000000000E+00  0.65254512928E+03  0.40679112931E+04  0.40152318915E+04 0.  0.
        1    1    3    3  502    0 -0.89311820494E+03  0.16122174946E+04  0.11327162568E+04  0.21633195548E+04  0.50400001928E-02 0.  1.
       -1    1    3    3    0  502  0.89311820494E+03 -0.16122174946E+04 -0.48017112748E+03  0.19045917383E+04  0.50400001928E-02 0. -1.
</event>
<event>
 5   0  0.1776653E-07  0.3898343E+04  0.7818609E-02  0.8025374E-01
        2   -1    0    0  501    0  0.00000000000E+00  0.00000000000E+00  0.26747302141E+04  0.26747302141E+04  0.25500000920E-02 0.  1.
       -2   -1    0    0    0  501  0.00000000000E+00  0.00000000000E+00 -0.14204307050E+04  0.14204307050E+04  0.25500000920E-02 0. -1.
    10030    2    1    2    0    0  0.00000000000E+00  0.00000000000E+00  0.12542995091E+04  0.40951609192E+04  0.38983426857E+04 0.  0.
        4    1    3    3  502    0 -0.57862194348E+03  0.42356738920E+03 -0.12768296944E+04  0.14644140016E+04  0.12699999809E+01 0. -1.
       -4    1    3    3    0  502  0.57862194348E+03 -0.42356738920E+03  0.25311292035E+04  0.26307469176E+04  0.12699999809E+01 0.  1.
</event>
<event>
 5   0  0.1821433E-07  0.3997152E+04  0.7818609E-02  0.8005121E-01
        2   -1    0    0  501    0  0.00000000000E+00  0.00000000000E+00  0.22869376138E+04  0.22869376138E+04  0.25500000920E-02 0. -1.
       -2   -1    0    0    0  501  0.00000000000E+00  0.00000000000E+00 -0.17465744092E+04  0.17465744092E+04  0.25500000920E-02 0.  1.
    10030    2    1    2    0    0  0.00000000000E+00  0.00000000000E+00  0.54036320464E+03  0.40335120230E+04  0.39971523422E+04 0.  0.
        5    1    3    3  502    0  0.76312962902E+02 -0.15384026291E+04 -0.10148931709E+04  0.18445965835E+04  0.46999998093E+01 0.  1.
       -5    1    3    3    0  502 -0.76312962902E+02  0.15384026291E+04  0.15552563755E+04  0.21889154395E+04  0.46999998093E+01 0. -1.
</event>
<event>
 5   0  0.5515000E-08  0.3405874E+04  0.7818609E-02  0.8136466E-01
        1   -1    0    0  501    0  0.00000000000E+00  0.00000000000E+00  0.19595509556E+04  0.19595509556E+04  0.50400001928E-02 0.  1.
       -1   -1    0    0    0  501  0.00000000000E+00  0.00000000000E+00 -0.14799283508E+04  0.14799283508E+04  0.50400001928E-02 0. -1.
    10030    2    1    2    0    0  0.00000000000E+00  0.00000000000E+00  0.47962260487E+03  0.34394793064E+04  0.34058743453E+04 0.  0.
        2    1    3    3  502    0  0.15686259866E+04  0.45627204385E+02  0.90764229957E+03  0.18128662035E+04  0.25500000920E-02 0.  1.
       -2    1    3    3    0  502 -0.15686259866E+04 -0.45627204385E+02 -0.42801969470E+03  0.16266131030E+04  0.25500000920E-02 0. -1.
</event>
<event>
 5   0  0.5515000E-08  0.3870155E+04  0.7818609E-02  0.8031265E-01
       -1   -1    0    0    0  501  0.00000000000E+00  0.00000000000E+00  0.16119595221E+04  0.16119595221E+04  0.50400001928E-02 0.  1.
        1   -1    0    0  501    0  0.00000000000E+00  0.00000000000E+00 -0.23229641196E+04  0.23229641196E+04  0.50400001928E-02 0. -1.
    10030    2    1    2    0    0  0.00000000000E+00  0.00000000000E+00 -0.71100459756E+03  0.39349236417E+04  0.38701545871E+04 0.  0.
        1    1    3    3  502    0 -0.45609976591E+03 -0.91881131875E+03 -0.20237799915E+04  0.22689042928E+04  0.50400001928E-02 0. -1.
       -1    1    3    3    0  502  0.45609976591E+03  0.91881131875E+03  0.13127753939E+04  0.16660193489E+04  0.50400001928E-02 0.  1.
</event>
<event>
 5   0  0.1785559E-07  0.4011777E+04  0.7818609E-02  0.8002175E-01
        2   -1    0    0  501    0  0.00000000000E+00  0.00000000000E+00  0.23108725982E+04  0.23108725982E+04  0.25500000920E-02 0.  1.
       -2   -1    0    0    0  501  0.00000000000E+00  0.00000000000E+00 -0.17411553864E+04  0.17411553864E+04  0.25500000920E-02 0. -1.
    10030    2    1    2    0    0  0.00000000000E+00  0.00000000000E+00  0.56971721185E+03  0.40520279846E+04  0.40117767992E+04 0.  0.
        2    1    3    3  502    0  0.18497788476E+04 -0.65229445766E+03  0.70909473019E+03  0.20856618089E+04  0.25500000920E-02 0. -1.
       -2    1    3    3    0  502 -0.18497788476E+04  0.65229445766E+03 -0.13937751834E+03  0.19663661758E+04  0.25500000920E-02 0.  1.
</event>
<event>
 5   0  0.5515000E-08  0.3999404E+04  0.7818609E-02  0.8004667E-01
        1   -1    0    0  501    0  0.00000000000E+00  0.00000000000E+00  0.16685702288E+04  0.16685702288E+04  0.50400001928E-02 0.  1.
       -1   -1    0    0    0  501  0.00000000000E+00  0.00000000000E+00 -0.23965479186E+04  0.23965479186E+04  0.50400001928E-02 0. -1.
    10030    2    1    2    0    0  0.00000000000E+00  0.00000000000E+00 -0.72797768989E+03  0.40651181474E+04  0.39994042101E+04 0.  0.
        3    1    3    3  502    0 -0.80586982658E+03  0.11337514565E+04 -0.18242538000E+04  0.22940620043E+04  0.10100000352E+00 0. -1.
       -3    1    3    3    0  502  0.80586982658E+03 -0.11337514565E+04  0.10962761101E+04  0.17710561432E+04  0.10100000352E+00 0.  1.
</event>
<event>
 5   0  0.5515000E-08  0.4005542E+04  0.7818609E-02  0.8003429E-01
       -1   -1    0    0    0  501  0.00000000000E+00  0.00000000000E+00  0.16637218359E+04  0.16637218359E+04  0.50400001928E-02 0.  1.
        1   -1    0    0  501    0  0.00000000000E+00  0.00000000000E+00 -0.24109151070E+04  0.24109151070E+04  0.50400001928E-02 0. -1.
    10030    2    1    2    0    0  0.00000000000E+00  0.00000000000E+00 -0.74719327112E+03  0.40746369429E+04  0.40055422145E+04 0.  0.
        5    1    3    3  502    0  0.19364400598E+04 -0.28946658692E+03  0.54952971785E+02  0.19587324803E+04  0.46999998093E+01 0. -1.
       -5    1    3    3    0  502 -0.19364400598E+04  0.28946658692E+03 -0.80214624291E+03  0.21159044627E+04  0.46999998093E+01 0.  1.
</event>
<event>
 5   0  0.1785559E-07  0.3849420E+04  0.7818609E-02  0.8035632E-01
       -2   -1    0    0    0  501  0.00000000000E+00  0.00000000000E+00  0.12125473994E+04  0.12125473995E+04  0.25500000920E-02 0. -1.
        2   -1    0    0  501    0  0.00000000000E+00  0.00000000000E+00 -0.30551446793E+04  0.30551446793E+04  0.25500000920E-02 0.  1.
    10030    2    1    2    0    0  0.00000000000E+00  0.00000000000E+00 -0.18425972798E+04  0.42676920787E+04  0.38494195593E+04 0.  0.
        2    1    3    3  502    0 -0.16168832333E+04 -0.54507372862E+03  0.66024537876E+02  0.17075643470E+04  0.25500000920E-02 0. -1.
       -2    1    3    3    0  502  0.16168832333E+04  0.54507372862E+03 -0.19086218177E+04  0.25601277317E+04  0.25500000920E-02 0.  1.
</event>
<event>
 5   0  0.5515000E-08  0.4004411E+04  0.7818609E-02  0.8003657E-01
        1   -1    0    0  501    0  0.00000000000E+00  0.00000000000E+00  0.23081009565E+04  0.23081009565E+04  0.50400001928E-02 0. -1.
       -1   -1    0    0    0  501  0.00000000000E+00  0.00000000000E+00 -0.17368511467E+04  0.17368511467E+04  0.50400001928E-02 0.  1.
    10030    2    1    2    0    0  0.00000000000E+00  0.00000000000E+00  0.57124980980E+03  0.40449521031E+04  0.40044114638E+04 0.  0.
        5    1    3    3  502    0 -0.19232753618E+04  0.37945348497E+03  0.69697319157E+03  0.20805688607E+04  0.46999998093E+01 0.  1.
       -5    1    3    3    0  502  0.19232753618E+04 -0.37945348497E+03 -0.12572338177E+03  0.19643832424E+04  0.46999998093E+01 0. -1.
</event>
<event>
 5   0  0.1773903E-07  0.3803314E+04  0.7818609E-02  0.8045444E-01
       -2   -1    0    0    0  501  0.00000000000E+00  0.00000000000E+00  0.15929757248E+04  0.15929757248E+04  0.25500000920E-02 0. -1.
        2   -1    0    0  501    0  0.00000000000E+00  0.00000000000E+00 -0.22701530515E+04  0.22701530515E+04  0.25500000920E-02 0.  1.
    10030    2    1    2    0    0  0.00000000000E+00  0.00000000000E+00 -0.67717732672E+03  0.38631287763E+04  0.38033136619E+04 0.  0.
        3    1    3    3  502    0 -0.43186267305E+02 -0.57398900284E+03 -0.21795419274E+04  0.22542696051E+04  0.10100000352E+00 0.  1.
       -3    1    3    3    0  502  0.43186267305E+02  0.57398900284E+03  0.15023646007E+04  0.16088591712E+04  0.10100000352E+00 0. -1.
</event>
<event>
 5   0  0.1773903E-07  0.4014143E+04  0.7818609E-02  0.8001700E-01
       -2   -1    0    0    0  501  0.00000000000E+00  0.00000000000E+00  0.16512584305E+04  0.16512584305E+04  0.25500000920E-02 0.  1.
        2   -1    0    0  501    0  0.00000000000E+00  0.00000000000E+00 -0.24395550824E+04  0.24395550824E+04  0.25500000920E-02 0. -1.
    10030    2    1    2    0    0  0.00000000000E+00  0.00000000000E+00 -0.78829665189E+03  0.40908135130E+04  0.40141429454E+04 0.  0.
        3    1    3    3  502    0  0.99956573026E+02  0.20033491869E+04 -0.32254535541E+03  0.20316089185E+04  0.10100000352E+00 0. -1.
       -3    1    3    3    0  502 -0.99956573026E+02 -0.20033491869E+04 -0.46575129648E+03  0.20592045944E+04  0.10100000352E+00 0.  1.
</event>
<event>
 5   0  0.1785559E-07  0.4004257E+04  0.7818609E-02  0.8003688E-01
       -2   -1    0    0    0  501  0.00000000000E+00  0.00000000000E+00  0.17784344762E+04  0.17784344762E+04  0.25500000920E-02 0.  1.
        2   -1    0    0  501    0  0.00000000000E+00  0.00000000000E+00 -0.22539594673E+04  0.22539594673E+04  0.25500000920E-02 0. -1.
    10030    2    1    2    0    0  0.00000000000E+00  0.00000000000E+00 -0.47552499110E+03  0.40323939436E+04  0.40042573468E+04 0.  0.
        2    1    3    3  502    0  0.75646072464E+03  0.10396845491E+04 -0.17832589071E+04  0.21984515277E+04  0.25500000920E-02 0. -1.
       -2    1    3    3    0  502 -0.75646072464E+03 -0.10396845491E+04  0.13077339160E+04  0.18339424159E+04  0.25500000920E-02 0.  1.
</event>
<event>
 5   0  0.5515000E-08  0.3987127E+04  0.7818609E-02  0.8007149E-01
       -1   -1    0    0    0  501  0.00000000000E+00  0.00000000000E+00  0.20742386203E+04  0.20742386203E+04  0.50400001928E-02 0.  1.
        1   -1    0    0  501    0  0.00000000000E+00  0.00000000000E+00 -0.19160258495E+04  0.19160258495E+04  0.50400001928E-02 0. -1.
    10030    2    1    2    0    0  0.00000000000E+00  0.00000000000E+00  0.15821277085E+03  0.39902644698E+04  0.39871266920E+04 0.  0.
        4    1    3    3  502    0 -0.51759285653E+03 -0.18119432101E+04 -0.57198430141E+03  0.19693166875E+04  0.12699999809E+01 0.  1.
       -4    1    3    3    0  502  0.51759285653E+03  0.18119432101E+04  0.73019707226E+03  0.20209477823E+04  0.12699999809E+01 0. -1.
</event>
<event>
 5   0  0.1819906E-07  0.3990406E+04  0.7818609E-02  0.8006485E-01
       -2   -1    0    0    0  501  0.00000000000E+00  0.00000000000E+00  0.27774451155E+04  0.27774451155E+04  0.25500000920E-02 0.  1.
        2   -1    0    0  501    0  0.00000000000E+00  0.00000000000E+00 -0.14332725005E+04  0.14332725005E+04  0.25500000920E-02 0. -1.
    10030    2    1    2    0    0  0.00000000000E+00  0.00000000000E+00  0.13441726150E+04  0.42107176160E+04  0.39904063481E+04 0.  0.
        1    1    3    3  502    0 -0.12039344129E+04  0.10811173041E+04 -0.55964872036E+03  0.17121563555E+04  0.50400001928E-02 0. -1.
       -1    1    3    3    0  502  0.12039344129E+04 -0.10811173041E+04  0.19038213353E+04  0.24985612605E+04  0.50400001928E-02 0.  1.
</event>
<event>
 5   0  0.1785559E-07  0.3994827E+04  0.7818609E-02  0.8005591E-01
       -2   -1    0    0    0  501  0.00000000000E+00  0.00000000000E+00  0.14859335972E+04  0.14859335972E+04  0.25500000920E-02 0.  1.
        2   -1    0    0  501    0  0.00000000000E+00  0.00000000000E+00 -0.26849523313E+04  0.26849523313E+04  0.25500000920E-02 0. -1.
    10030    2    1    2    0    0  0.00000000000E+00  0.00000000000E+00 -0.11990187341E+04  0.41708859286E+04  0.39948270932E+04 0.  0.
        2    1    3    3  502    0  0.17932063317E+04 -0.64271540548E+03  0.27793411043E+02  0.19051101056E+04  0.25500000920E-02 0.  1.
       -2    1    3    3    0  502 -0.17932063317E+04  0.64271540548E+03 -0.12268121451E+04  0.22657758230E+04  0.25500000920E-02 0. -1.
</event>
<event>
 5   0  0.1819906E-07  0.4027944E+04  0.7818609E-02  0.7998933E-01
        2   -1    0    0  501    0  0.00000000000E+00  0.00000000000E+00  0.18342250021E+04  0.18342250021E+04  0.25500000920E-02 0.  1.
       -2   -1    0    0    0  501  0.00000000000E+00  0.00000000000E+00 -0.22113336865E+04  0.22113336865E+04  0.25500000920E-02 0. -1.
    10030    2    1    2    0    0  0.00000000000E+00  0.00000000000E+00 -0.37710868437E+03  0.40455586886E+04  0.40279441584E+04 0.  0.
        1    1    3    3  502    0 -0.70741861407E+03  0.10453495784E+04 -0.17647759668E+04  0.21697075955E+04  0.50400001928E-02 0. -1.
       -1    1    3    3    0  502  0.70741861407E+03 -0.10453495784E+04  0.13876672825E+04  0.18758510931E+04  0.50400001928E-02 0.  1.
</event>
<event>
 5   0  0.1773903E-07  0.3971868E+04  0.7818609E-02  0.8010246E-01
        2   -1    0    0  501    0  0.00000000000E+00  0.00000000000E+00  0.14293161121E+04  0.14293161121E+04  0.25500000920E-02 0.  1.
       -2   -1    0    0    0  501  0.00000000000E+00  0.00000000000E+00 -0.27593154862E+04  0.27593154862E+04  0.25500000920E-02 0. -1.
    10030    2    1    2    0    0  0.00000000000E+00  0.00000000000E+00 -0.13299993741E+04  0.41886315983E+04  0.39718681161E+04 0.  0.
        3    1    3    3  502    0 -0.50446487180E+03 -0.16158508337E+04 -0.17601720017E+04  0.24420614671E+04  0.10100000352E+00 0. -1.
       -3    1    3    3    0  502  0.50446487180E+03  0.16158508337E+04  0.43017262760E+03  0.17465701312E+04  0.10100000352E+00 0.  1.
</event>
<event>
 5   0  0.5515000E-08  0.3999179E+04  0.7818609E-02  0.8004712E-01
        1   -1    0    0  501    0  0.00000000000E+00  0.00000000000E+00  0.20693589712E+04  0.20693589712E+04  0.50400001928E-02 0. -1.
       -1   -1    0    0    0  501  0.00000000000E+00  0.00000000000E+00 -0.19321721482E+04  0.19321721483E+04  0.50400001928E-02 0.  1.
    10030    2    1    2    0    0  0.00000000000E+00  0.00000000000E+00  0.13718682293E+03  0.40015311194E+04  0.39991788001E+04 0.  0.
        2    1    3    3  502    0 -0.41137944056E+03 -0.45710310786E+03  0.19723900161E+04  0.20660345280E+04  0.25500000920E-02 0. -1.
       -2    1    3    3    0  502  0.41137944056E+03  0.45710310786E+03 -0.18352031932E+04  0.19354965914E+04  0.25500000920E-02 0.  1.
</event>
<event>
 5   0  0.1773903E-07  0.3999019E+04  0.7818609E-02  0.8004745E-01
        2   -1    0    0  501    0  0.00000000000E+00  0.00000000000E+00  0.23876160409E+04  0.23876160409E+04  0.25500000920E-02 0.  1.
       -2   -1    0    0    0  501  0.00000000000E+00  0.00000000000E+00 -0.16744892683E+04  0.16744892683E+04  0.25500000920E-02 0. -1.
    10030    2    1    2    0    0  0.00000000000E+00  0.00000000000E+00  0.71312677257E+03  0.40621053092E+04  0.39990185983E+04 0.  0.
        3    1    3    3  502    0 -0.16845922165E+04 -0.10765255921E+04  0.39289267618E+03  0.20374304777E+04  0.10100000352E+00 0.  1.
       -3    1    3    3    0  502  0.16845922165E+04  0.10765255921E+04  0.32023409639E+03  0.20246748315E+04  0.10100000352E+00 0. -1.
</event>
<event>
 5   0  0.1776653E-07  0.3979989E+04  0.7818609E-02  0.8008596E-01
        2   -1    0    0  501    0  0.00000000000E+00  0.00000000000E+00  0.17764186374E+04  0.17764186374E+04  0.25500000920E-02 0.  1.
       -2   -1    0    0    0  501  0.00000000000E+00  0.00000000000E+00 -0.22292479986E+04  0.22292479986E+04  0.25500000920E-02 0. -1.
    10030    2    1    2    0    0  0.00000000000E+00  0.00000000000E+00 -0.45282936128E+03  0.40056666360E+04  0.39799887900E+04 0.  0.
        4    1    3    3  502    0  0.17917031779E+04  0.68989483297E+03 -0.75316590768E+03  0.20623810646E+04  0.12699999809E+01 0. -1.
       -4    1    3    3    0  502 -0.17917031779E+04 -0.68989483297E+03  0.30033654640E+03  0.19432855714E+04  0.12699999809E+01 0.  1.
</event>
<event>
 5   0  0.5515000E-08  0.4037500E+04  0.7818609E-02  0.7997024E-01
        1   -1    0    0  501    0  0.00000000000E+00  0.00000000000E+00  0.17927135101E+04  0.17927135101E+04  0.50400001928E-02 0.  1.
       -1   -1    0    0    0  501  0.00000000000E+00  0.00000000000E+00 -0.22732862290E+04  0.22732862290E+04  0.50400001928E-02 0. -1.
    10030    2    1    2    0    0  0.00000000000E+00  0.00000000000E+00 -0.48057271891E+03  0.40659997390E+04  0.40374996891E+04 0.  0.
        1    1    3    3  502    0  0.14199588264E+04  0.80697804378E+03  0.95461952767E+03  0.18917703545E+04  0.50400001928E-02 0.  1.
       -1    1    3    3    0  502 -0.14199588264E+04 -0.80697804378E+03 -0.14351922466E+04  0.21742293845E+04  0.50400001928E-02 0. -1.
</event>
<event>
 5   0  0.5515000E-08  0.3994961E+04  0.7818609E-02  0.8005564E-01
        1   -1    0    0  501    0  0.00000000000E+00  0.00000000000E+00  0.24276934161E+04  0.24276934161E+04  0.50400001928E-02 0. -1.
       -1   -1    0    0    0  501  0.00000000000E+00  0.00000000000E+00 -0.16435058913E+04  0.16435058913E+04  0.50400001928E-02 0.  1.
    10030    2    1    2    0    0  0.00000000000E+00  0.00000000000E+00  0.78418752476E+03  0.40711993074E+04  0.39949610419E+04 0.  0.
        2    1    3    3  502    0  0.14739959886E+04  0.12647650362E+04 -0.83321203189E+02  0.19440260271E+04  0.25500000920E-02 0. -1.
       -2    1    3    3    0  502 -0.14739959886E+04 -0.12647650362E+04  0.86750872795E+03  0.21271732803E+04  0.25500000920E-02 0.  1.
</event>
<event>
 5   0  0.5515000E-08  0.3998032E+04  0.7818609E-02  0.8004944E-01
        1   -1    0    0  501    0  0.00000000000E+00  0.00000000000E+00  0.12821952579E+04  0.12821952579E+04  0.50400001928E-02 0. -1.
       -1   -1    0    0    0  501  0.00000000000E+00  0.00000000000E+00 -0.31165800328E+04  0.31165800328E+04  0.50400001928E-02 0.  1.
    10030    2    1    2    0    0  0.00000000000E+00  0.00000000000E+00 -0.18343847750E+04  0.43987752907E+04  0.39980315851E+04 0.  0.
        5    1    3    3  502    0 -0.46476895967E+01 -0.28831837198E+02 -0.31163392341E+04  0.31164796145E+04  0.46999998093E+01 0.  1.
       -5    1    3    3    0  502  0.46476895967E+01  0.28831837198E+02  0.12819544591E+04  0.12822956762E+04  0.46999998093E+01 0. -1.
</event>
<event>
 5   0  0.5515000E-08  0.4302502E+04  0.7818609E-02  0.7946156E-01
        1   -1    0    0  501    0  0.00000000000E+00  0.00000000000E+00  0.14442818164E+04  0.14442818164E+04  0.50400001928E-02 0.  1.
       -1   -1    0    0    0  501  0.00000000000E+00  0.00000000000E+00 -0.32042784007E+04  0.32042784007E+04  0.50400001928E-02 0. -1.
    10030    2    1    2    0    0  0.00000000000E+00  0.00000000000E+00 -0.17599965843E+04  0.46485602170E+04  0.43025020761E+04 0.  0.
        3    1    3    3  502    0  0.46067205171E+03 -0.45211822741E+03  0.13371919374E+04  0.14848272352E+04  0.10100000352E+00 0.  1.
       -3    1    3    3    0  502 -0.46067205171E+03  0.45211822741E+03 -0.30971885217E+04  0.31637329818E+04  0.10100000352E+00 0. -1.
</event>
<event>
 5   0  0.1776653E-07  0.4082132E+04  0.7818609E-02  0.7988180E-01
       -2   -1    0    0    0  501  0.00000000000E+00  0.00000000000E+00  0.22818964563E+04  0.22818964563E+04  0.25500000920E-02 0. -1.
        2   -1    0    0  501    0  0.00000000000E+00  0.00000000000E+00 -0.18256531121E+04  0.18256531121E+04  0.25500000920E-02 0.  1.
    10030    2    1    2    0    0  0.00000000000E+00  0.00000000000E+00  0.45624334417E+03  0.41075495684E+04  0.40821324657E+04 0.  0.
        4    1    3    3  502    0 -0.66811377524E+03 -0.19750374934E+03 -0.17023037350E+04  0.18393540624E+04  0.12699999809E+01 0.  1.
       -4    1    3    3    0  502  0.66811377524E+03  0.19750374934E+03  0.21585470792E+04  0.22681955060E+04  0.12699999809E+01 0. -1.
</event>
<event>
 5   0  0.5515000E-08  0.4101452E+04  0.7818609E-02  0.7984387E-01
       -1   -1    0    0    0  501  0.00000000000E+00  0.00000000000E+00  0.23748988873E+04  0.23748988873E+04  0.50400001928E-02 0. -1.
        1   -1    0    0  501    0  0.00000000000E+00  0.00000000000E+00 -0.17708026849E+04  0.17708026849E+04  0.50400001928E-02 0.  1.
    10030    2    1    2    0    0  0.00000000000E+00  0.00000000000E+00  0.60409620247E+03  0.41457015722E+04  0.41014520970E+04 0.  0.
        1    1    3    3  502    0 -0.99056677357E+02 -0.75448804244E+03  0.22269075259E+04  0.23533341370E+04  0.50400001928E-02 0. -1.
       -1    1    3    3    0  502  0.99056677357E+02  0.75448804244E+03 -0.16228113234E+04  0.17923674352E+04  0.50400001928E-02 0.  1.
</event>
<event>
 5   0  0.1821433E-07  0.3236182E+04  0.7818609E-02  0.8179326E-01
        2   -1    0    0  501    0  0.00000000000E+00  0.00000000000E+00  0.18183087949E+04  0.18183087949E+04  0.25500000920E-02 0. -1.
       -2   -1    0    0    0  501  0.00000000000E+00  0.00000000000E+00 -0.14399196282E+04  0.14399196282E+04  0.25500000920E-02 0.  1.
    10030    2    1    2    0    0  0.00000000000E+00  0.00000000000E+00  0.37838916670E+03  0.32582284231E+04  0.32361820245E+04 0.  0.
        5    1    3    3  502    0 -0.97332250079E+03  0.12466848081E+04  0.53301290909E+03  0.16690430050E+04  0.46999998093E+01 0. -1.
       -5    1    3    3    0  502  0.97332250079E+03 -0.12466848081E+04 -0.15462374238E+03  0.15891854181E+04  0.46999998093E+01 0.  1.
</event>
<event>
 5   0  0.1821433E-07  0.4085638E+04  0.7818609E-02  0.7987490E-01
        2   -1    0    0  501    0  0.00000000000E+00  0.00000000000E+00  0.15715339754E+04  0.15715339754E+04  0.25500000920E-02 0.  1.
       -2   -1    0    0    0  501  0.00000000000E+00  0.00000000000E+00 -0.26554376054E+04  0.26554376054E+04  0.25500000920E-02 0. -1.
    10030    2    1    2    0    0  0.00000000000E+00  0.00000000000E+00 -0.10839036300E+04  0.42269715808E+04  0.40856384649E+04 0.  0.
        5    1    3    3  502    0  0.11028574570E+04  0.17195205749E+04 -0.54871621906E+03  0.21152203566E+04  0.46999998093E+01 0. -1.
       -5    1    3    3    0  502 -0.11028574570E+04 -0.17195205749E+04 -0.53518741093E+03  0.21117512242E+04  0.46999998093E+01 0.  1.
</event>
<event>
 5   0  0.1821433E-07  0.4011089E+04  0.7818609E-02  0.8002313E-01
       -2   -1    0    0    0  501  0.00000000000E+00  0.00000000000E+00  0.15309254127E+04  0.15309254127E+04  0.25500000920E-02 0.  1.
        2   -1    0    0  501    0  0.00000000000E+00  0.00000000000E+00 -0.26273054057E+04  0.26273054057E+04  0.25500000920E-02 0. -1.
    10030    2    1    2    0    0  0.00000000000E+00  0.00000000000E+00 -0.10963799930E+04  0.41582308183E+04  0.40110889356E+04 0.  0.
        5    1    3    3  502    0 -0.10418803474E+04 -0.11668704328E+04 -0.18492530209E+04  0.24221602116E+04  0.46999998093E+01 0. -1.
       -5    1    3    3    0  502  0.10418803474E+04  0.11668704328E+04  0.75287302796E+03  0.17360706067E+04  0.46999998093E+01 0.  1.
</event>
<event>
 5   0  0.1785559E-07  0.3852646E+04  0.7818609E-02  0.8034951E-01
       -2   -1    0    0    0  501  0.00000000000E+00  0.00000000000E+00  0.17775673573E+04  0.17775673573E+04  0.25500000920E-02 0. -1.
        2   -1    0    0  501    0  0.00000000000E+00  0.00000000000E+00 -0.20875272786E+04  0.20875272786E+04  0.25500000920E-02 0.  1.
    10030    2    1    2    0    0  0.00000000000E+00  0.00000000000E+00 -0.30995992133E+03  0.38650946358E+04  0.38526460246E+04 0.  0.
        2    1    3    3  502    0 -0.33850859538E+03 -0.13033208469E+04 -0.15369239255E+04  0.20433718340E+04  0.25500000920E-02 0.  1.
       -2    1    3    3    0  502  0.33850859538E+03  0.13033208469E+04  0.12269640042E+04  0.18217228018E+04  0.25500000920E-02 0. -1.
</event>
<event>
 5   0  0.5515000E-08  0.4063883E+04  0.7818609E-02  0.7991782E-01
        1   -1    0    0  501    0  0.00000000000E+00  0.00000000000E+00  0.15966980936E+04  0.15966980936E+04  0.50400001928E-02 0. -1.
       -1   -1    0    0    0  501  0.00000000000E+00  0.00000000000E+00 -0.25858282097E+04  0.25858282097E+04  0.50400001928E-02 0.  1.
    10030    2    1    2    0    0  0.00000000000E+00  0.00000000000E+00 -0.98913011605E+03  0.41825263033E+04  0.40638833511E+04 0.  0.
        4    1    3    3  502    0 -0.59324017169E+03 -0.19434457565E+03  0.14955579536E+04  0.16206168335E+04  0.12699999809E+01 0. -1.
       -4    1    3    3    0  502  0.59324017169E+03  0.19434457565E+03 -0.24846880697E+04  0.25619094699E+04  0.12699999809E+01 0.  1.
</event>
<event>
 5   0  0.1819906E-07  0.3992213E+04  0.7818609E-02  0.8006119E-01
       -2   -1    0    0    0  501  0.00000000000E+00  0.00000000000E+00  0.13014719477E+04  0.13014719477E+04  0.25500000920E-02 0.  1.
        2   -1    0    0  501    0  0.00000000000E+00  0.00000000000E+00 -0.30614877689E+04  0.30614877689E+04  0.25500000920E-02 0. -1.
    10030    2    1    2    0    0  0.00000000000E+00  0.00000000000E+00 -0.17600158212E+04  0.43629597167E+04  0.39922126444E+04 0.  0.
        1    1    3    3  502    0  0.15337773805E+04  0.78901723004E+03  0.21799456538E+03  0.17385461952E+04  0.50400001928E-02 0.  1.
       -1    1    3    3    0  502 -0.15337773805E+04 -0.78901723004E+03 -0.19780103866E+04  0.26244135215E+04  0.50400001928E-02 0. -1.
</event>
<event>
 5   0  0.1821433E-07  0.3972741E+04  0.7818609E-02  0.8010068E-01
        2   -1    0    0  501    0  0.00000000000E+00  0.00000000000E+00  0.18503970732E+04  0.18503970732E+04  0.25500000920E-02 0. -1.
       -2   -1    0    0    0  501  0.00000000000E+00  0.00000000000E+00 -0.21323360631E+04  0.21323360631E+04  0.25500000920E-02 0.  1.
    10030    2    1    2    0    0  0.00000000000E+00  0.00000000000E+00 -0.28193898986E+03  0.39827331363E+04  0.39727413257E+04 0.  0.
        5    1    3    3  502    0  0.47734665126E+02 -0.14272910173E+04  0.12431579233E+04  0.18933837326E+04  0.46999998093E+01 0. -1.
       -5    1    3    3    0  502 -0.47734665126E+02  0.14272910173E+04 -0.15250969132E+04  0.20893494038E+04  0.46999998093E+01 0.  1.
</event>
<event>
 5   0  0.1776653E-07  0.3955506E+04  0.7818609E-02  0.8013583E-01
       -2   -1    0    0    0  501  0.00000000000E+00  0.00000000000E+00  0.14529097347E+04  0.14529097347E+04  0.25500000920E-02 0.  1.
        2   -1    0    0  501    0  0.00000000000E+00  0.00000000000E+00 -0.26921889188E+04  0.26921889188E+04  0.25500000920E-02 0. -1.
    10030    2    1    2    0    0  0.00000000000E+00  0.00000000000E+00 -0.12392791841E+04  0.41450986535E+04  0.39555062825E+04 0.  0.
        4    1    3    3  502    0 -0.12348187310E+03 -0.14558060671E+04  0.77725190169E+03  0.16549142605E+04  0.12699999809E+01 0. -1.
       -4    1    3    3    0  502  0.12348187310E+03  0.14558060671E+04 -0.20165310858E+04  0.24901843930E+04  0.12699999809E+01 0.  1.
</event>
<event>
 5   0  0.1821433E-07  0.4031009E+04  0.7818609E-02  0.7998320E-01
        2   -1    0    0  501    0  0.00000000000E+00  0.00000000000E+00  0.25812304097E+04  0.25812304097E+04  0.25500000920E-02 0.  1.
       -2   -1    0    0    0  501  0.00000000000E+00  0.00000000000E+00 -0.15737679572E+04  0.15737679572E+04  0.25500000920E-02 0. -1.
    10030    2    1    2    0    0  0.00000000000E+00  0.00000000000E+00  0.10074624525E+04  0.41549983668E+04  0.40310086622E+04 0.  0.
        5    1    3    3  502    0 -0.13114815147E+04 -0.14297157768E+04  0.10665715504E+04  0.22139710766E+04  0.46999998093E+01 0.  1.
       -5    1    3    3    0  502  0.13114815147E+04  0.14297157768E+04 -0.59109097844E+02  0.19410272902E+04  0.46999998093E+01 0. -1.
</event>
<event>
 5   0  0.1821433E-07  0.3963911E+04  0.7818609E-02  0.8011867E-01
       -2   -1    0    0    0  501  0.00000000000E+00  0.00000000000E+00  0.23215305954E+04  0.23215305954E+04  0.25500000920E-02 0. -1.
        2   -1    0    0  501    0  0.00000000000E+00  0.00000000000E+00 -0.16920509916E+04  0.16920509916E+04  0.25500000920E-02 0.  1.
    10030    2    1    2    0    0  0.00000000000E+00  0.00000000000E+00  0.62947960385E+03  0.40135815870E+04  0.39639112735E+04 0.  0.
        5    1    3    3  502    0  0.12497569719E+04  0.14199259793E+04 -0.28431886212E+03  0.19128360047E+04  0.46999998093E+01 0. -1.
       -5    1    3    3    0  502 -0.12497569719E+04 -0.14199259793E+04  0.91379846597E+03  0.21007455824E+04  0.46999998093E+01 0.  1.
</event>
<event>
 5   0  0.5515000E-08  0.3911883E+04  0.7818609E-02  0.8022562E-01
       -1   -1    0    0    0  501  0.00000000000E+00  0.00000000000E+00  0.25923813918E+04  0.25923813918E+04  0.50400001928E-02 0.  1.
        1   -1    0    0  501    0  0.00000000000E+00  0.00000000000E+00 -0.14757502045E+04  0.14757502045E+04  0.50400001928E-02 0. -1.
    10030    2    1    2    0    0  0.00000000000E+00  0.00000000000E+00  0.11166311873E+04  0.40681315963E+04  0.39118831113E+04 0.  0.
        4    1    3    3  502    0  0.76625335721E+03 -0.15312513898E+04  0.15415040357E+04  0.23039338817E+04  0.12699999809E+01 0. -1.
       -4    1    3    3    0  502 -0.76625335721E+03  0.15312513898E+04 -0.42487284836E+03  0.17641977146E+04  0.12699999809E+01 0.  1.
</event>
<event>
 5   0  0.5515000E-08  0.4023065E+04  0.7818609E-02  0.7999910E-01
       -1   -1    0    0    0  501  0.00000000000E+00  0.00000000000E+00  0.18395417436E+04  0.18395417436E+04  0.50400001928E-02 0. -1.
        1   -1    0    0  501    0  0.00000000000E+00  0.00000000000E+00 -0.21996038104E+04  0.21996038104E+04  0.50400001928E-02 0.  1.
    10030    2    1    2    0    0  0.00000000000E+00  0.00000000000E+00 -0.36006206682E+03  0.40391455540E+04  0.40230650149E+04 0.  0.
        5    1    3    3  502    0 -0.16740049367E+04 -0.91185653328E+03  0.46477125270E+03  0.19620930846E+04  0.46999998093E+01 0. -1.
       -5    1    3    3    0  502  0.16740049367E+04  0.91185653328E+03 -0.82483331953E+03  0.20770524693E+04  0.46999998093E+01 0.  1.
</event>
<event>
 5   0  0.5515000E-08  0.4070365E+04  0.7818609E-02  0.7990500E-01
        3   -1    0    0  501    0  0.00000000000E+00  0.00000000000E+00  0.23525229068E+04  0.23525229090E+04  0.10100000352E+00 0. -1.
       -3   -1    0    0    0  501  0.00000000000E+00  0.00000000000E+00 -0.17606496608E+04  0.17606496637E+04  0.10100000352E+00 0.  1.
    10030    2    1    2    0    0  0.00000000000E+00  0.00000000000E+00  0.59187324603E+03  0.41131725727E+04  0.40703654226E+04 0.  0.
        5    1    3    3  502    0 -0.14497736914E+03 -0.12091151752E+04 -0.13518468323E+04  0.18194751695E+04  0.46999998093E+01 0.  1.
       -5    1    3    3    0  502  0.14497736914E+03  0.12091151752E+04  0.19437200783E+04  0.22936974032E+04  0.46999998093E+01 0. -1.
</event>
<event>
 5   0  0.1819906E-07  0.3977006E+04  0.7818609E-02  0.8009201E-01
       -2   -1    0    0    0  501  0.00000000000E+00  0.00000000000E+00  0.22865071425E+04  0.22865071425E+04  0.25500000920E-02 0. -1.
        2   -1    0    0  501    0  0.00000000000E+00  0.00000000000E+00 -0.17293386383E+04  0.17293386383E+04  0.25500000920E-02 0.  1.
    10030    2    1    2    0    0  0.00000000000E+00  0.00000000000E+00  0.55716850423E+03  0.40158457808E+04  0.39770064865E+04 0.  0.
        1    1    3    3  502    0 -0.17442743535E+03 -0.86464091373E+03  0.20781550037E+04  0.22575998448E+04  0.50400001928E-02 0. -1.
       -1    1    3    3    0  502  0.17442743535E+03  0.86464091373E+03 -0.15209864995E+04  0.17582459360E+04  0.50400001928E-02 0.  1.
</event>
<event>
 5   0  0.1821433E-07  0.3982228E+04  0.7818609E-02  0.8008141E-01
       -2   -1    0    0    0  501  0.00000000000E+00  0.00000000000E+00  0.14186038772E+04  0.14186038772E+04  0.25500000920E-02 0.  1.
        2   -1    0    0  501    0  0.00000000000E+00  0.00000000000E+00 -0.27946743498E+04  0.27946743498E+04  0.25500000920E-02 0. -1.
    10030    2    1    2    0    0  0.00000000000E+00  0.00000000000E+00 -0.13760704727E+04  0.42132782270E+04  0.39822284555E+04 0.  0.
        5    1    3    3  502    0  0.13954767975E+04  0.11057185494E+04 -0.16311252710E+04  0.24146554086E+04  0.46999998093E+01 0. -1.
       -5    1    3    3    0  502 -0.13954767975E+04 -0.11057185494E+04  0.25505479829E+03  0.17986228184E+04  0.46999998093E+01 0.  1.
</event>
<event>
 5   0  0.5515000E-08  0.3975296E+04  0.7818609E-02  0.8009549E-01
        3   -1    0    0  501    0  0.00000000000E+00  0.00000000000E+00  0.14463103127E+04  0.14463103162E+04  0.10100000352E+00 0. -1.
       -3   -1    0    0    0  501  0.00000000000E+00  0.00000000000E+00 -0.27316017668E+04  0.27316017687E+04  0.10100000352E+00 0.  1.
    10030    2    1    2    0    0  0.00000000000E+00  0.00000000000E+00 -0.12852914541E+04  0.41779120849E+04  0.39752956201E+04 0.  0.
        5    1    3    3  502    0 -0.18629879065E+04 -0.29932325321E+02  0.84805343814E+02  0.18651632422E+04  0.46999998093E+01 0. -1.
       -5    1    3    3    0  502  0.18629879065E+04  0.29932325321E+02 -0.13700967979E+04  0.23127488427E+04  0.46999998093E+01 0.  1.
</event>
<event>
 5   0  0.5515000E-08  0.4001996E+04  0.7818609E-02  0.8004144E-01
       -1   -1    0    0    0  501  0.00000000000E+00  0.00000000000E+00  0.32239537722E+04  0.32239537722E+04  0.50400001928E-02 0. -1.
        1   -1    0    0  501    0  0.00000000000E+00  0.00000000000E+00 -0.12419512647E+04  0.12419512647E+04  0.50400001928E-02 0.  1.
    10030    2    1    2    0    0  0.00000000000E+00  0.00000000000E+00  0.19820025075E+04  0.44659050370E+04  0.40019962343E+04 0.  0.
        1    1    3    3  502    0 -0.19053101998E+04 -0.58864419424E+03  0.11753291080E+04  0.23147586174E+04  0.50400001928E-02 0. -1.
       -1    1    3    3    0  502  0.19053101998E+04  0.58864419424E+03  0.80667339959E+03  0.21511464196E+04  0.50400001928E-02 0.  1.
</event>
<event>
 5   0  0.1776653E-07  0.4064033E+04  0.7818609E-02  0.7991752E-01
        2   -1    0    0  501    0  0.00000000000E+00  0.00000000000E+00  0.18739037784E+04  0.18739037784E+04  0.25500000920E-02 0.  1.
       -2   -1    0    0    0  501  0.00000000000E+00  0.00000000000E+00 -0.22034706179E+04  0.22034706179E+04  0.25500000920E-02 0. -1.
    10030    2    1    2    0    0  0.00000000000E+00  0.00000000000E+00 -0.32956683959E+03  0.40773743963E+04  0.40640334233E+04 0.  0.
        4    1    3    3  502    0 -0.16127863553E+04  0.11525634011E+04  0.28345840888E+03  0.20024566173E+04  0.12699999809E+01 0.  1.
       -4    1    3    3    0  502  0.16127863553E+04 -0.11525634011E+04 -0.61302524847E+03  0.20749177790E+04  0.12699999809E+01 0. -1.
</event>
<event>
 5   0  0.5515000E-08  0.4029679E+04  0.7818609E-02  0.7998586E-01
        1   -1    0    0  501    0  0.00000000000E+00  0.00000000000E+00  0.22086799581E+04  0.22086799581E+04  0.50400001928E-02 0.  1.
       -1   -1    0    0    0  501  0.00000000000E+00  0.00000000000E+00 -0.18380107386E+04  0.18380107386E+04  0.50400001928E-02 0. -1.
    10030    2    1    2    0    0  0.00000000000E+00  0.00000000000E+00  0.37066921953E+03  0.40466906967E+04  0.40296786379E+04 0.  0.
        1    1    3    3  502    0 -0.12911219323E+04  0.21980680340E+03  0.17228982432E+04  0.21641832712E+04  0.50400001928E-02 0.  1.
       -1    1    3    3    0  502  0.12911219323E+04 -0.21980680340E+03 -0.13522290237E+04  0.18825074256E+04  0.50400001928E-02 0. -1.
</event>
<event>
 5   0  0.1776653E-07  0.3986260E+04  0.7818609E-02  0.8007324E-01
       -2   -1    0    0    0  501  0.00000000000E+00  0.00000000000E+00  0.15132261885E+04  0.15132261885E+04  0.25500000920E-02 0. -1.
        2   -1    0    0  501    0  0.00000000000E+00  0.00000000000E+00 -0.26252309114E+04  0.26252309114E+04  0.25500000920E-02 0.  1.
    10030    2    1    2    0    0  0.00000000000E+00  0.00000000000E+00 -0.11120047229E+04  0.41384570999E+04  0.39862604863E+04 0.  0.
        4    1    3    3  502    0 -0.93244527013E+03  0.17138436948E+04 -0.13320394638E+03  0.19556224830E+04  0.12699999809E+01 0. -1.
       -4    1    3    3    0  502  0.93244527013E+03 -0.17138436948E+04 -0.97880077647E+03  0.21828346169E+04  0.12699999809E+01 0.  1.
</event>
<event>
 5   0  0.1819906E-07  0.3400184E+04  0.7818609E-02  0.8137861E-01
        2   -1    0    0  501    0  0.00000000000E+00  0.00000000000E+00  0.24508586590E+04  0.24508586590E+04  0.25500000920E-02 0.  1.
       -2   -1    0    0    0  501  0.00000000000E+00  0.00000000000E+00 -0.11793063230E+04  0.11793063230E+04  0.25500000920E-02 0. -1.
    10030    2    1    2    0    0  0.00000000000E+00  0.00000000000E+00  0.12715523361E+04  0.36301649820E+04  0.34001841794E+04 0.  0.
        1    1    3    3  502    0  0.61101536008E+02 -0.12088387289E+04 -0.63882799645E+03  0.13686218175E+04  0.50400001928E-02 0. -1.
       -1    1    3    3    0  502 -0.61101536008E+02  0.12088387289E+04  0.19103803325E+04  0.22615431645E+04  0.50400001928E-02 0.  1.
</event>
<event>
 5   0  0.5515000E-08  0.3994014E+04  0.7818609E-02  0.8005755E-01
       -1   -1    0    0    0  501  0.00000000000E+00  0.00000000000E+00  0.14129577251E+04  0.14129577251E+04  0.50400001928E-02 0.  1.
        1   -1    0    0  501    0  0.00000000000E+00  0.00000000000E+00 -0.28224736877E+04  0.28224736877E+04  0.50400001928E-02 0. -1.
    10030    2    1    2    0    0  0.00000000000E+00  0.00000000000E+00 -0.14095159626E+04  0.42354314128E+04  0.39940135207E+04 0.  0.
        2    1    3    3  502    0  0.16132453565E+04 -0.33296630960E+03 -0.19019852186E+04  0.25161428646E+04  0.25500000920E-02 0. -1.
       -2    1    3    3    0  502 -0.16132453565E+04  0.33296630960E+03  0.49246925595E+03  0.17192885481E+04  0.25500000920E-02 0.  1.
</event>
<event>
 5   0  0.5515000E-08  0.4002863E+04  0.7818609E-02  0.8003969E-01
       -1   -1    0    0    0  501  0.00000000000E+00  0.00000000000E+00  0.21060856874E+04  0.21060856874E+04  0.50400001928E-02 0.  1.
        1   -1    0    0  501    0  0.00000000000E+00  0.00000000000E+00 -0.19019775929E+04  0.19019775929E+04  0.50400001928E-02 0. -1.
    10030    2    1    2    0    0  0.00000000000E+00  0.00000000000E+00  0.20410809455E+03  0.40080632803E+04  0.40028628686E+04 0.  0.
        3    1    3    3  502    0  0.26075886450E+02  0.19984892140E+04 -0.33855875745E+01  0.19986621932E+04  0.10100000352E+00 0. -1.
       -3    1    3    3    0  502 -0.26075886450E+02 -0.19984892140E+04  0.20749368213E+03  0.20094010871E+04  0.10100000352E+00 0.  1.
</event>
<event>
 5   0  0.1776653E-07  0.4005013E+04  0.7818609E-02  0.8003536E-01
        2   -1    0    0  501    0  0.00000000000E+00  0.00000000000E+00  0.27993693666E+04  0.27993693666E+04  0.25500000920E-02 0. -1.
       -2   -1    0    0    0  501  0.00000000000E+00  0.00000000000E+00 -0.14324767919E+04  0.14324767919E+04  0.25500000920E-02 0.  1.
    10030    2    1    2    0    0  0.00000000000E+00  0.00000000000E+00  0.13668925747E+04  0.42318461585E+04  0.40050126839E+04 0.  0.
        4    1    3    3  502    0  0.17999199524E+03  0.10578292003E+04  0.24699543144E+04  0.26929678170E+04  0.12699999809E+01 0. -1.
       -4    1    3    3    0  502 -0.17999199524E+03 -0.10578292003E+04 -0.11030617397E+04  0.15388783415E+04  0.12699999809E+01 0.  1.
</event>
<event>
 5   0  0.5515000E-08  0.4008623E+04  0.7818609E-02  0.8002809E-01
        1   -1    0    0  501    0  0.00000000000E+00  0.00000000000E+00  0.18055234848E+04  0.18055234848E+04  0.50400001928E-02 0. -1.
       -1   -1    0    0    0  501  0.00000000000E+00  0.00000000000E+00 -0.22249860916E+04  0.22249860916E+04  0.50400001928E-02 0.  1.
    10030    2    1    2    0    0  0.00000000000E+00  0.00000000000E+00 -0.41946260680E+03  0.40305095765E+04  0.40086230264E+04 0.  0.
        4    1    3    3  502    0 -0.71807617221E+03 -0.13732292934E+04  0.10683782378E+04  0.18822395578E+04  0.12699999809E+01 0. -1.
       -4    1    3    3    0  502  0.71807617221E+03  0.13732292934E+04 -0.14878408446E+04  0.21482700186E+04  0.12699999809E+01 0.  1.
</event>
<event>
 5   0  0.1776653E-07  0.4021166E+04  0.7818609E-02  0.8000290E-01
       -2   -1    0    0    0  501  0.00000000000E+00  0.00000000000E+00  0.27983296351E+04  0.27983296351E+04  0.25500000920E-02 0.  1.
        2   -1    0    0  501    0  0.00000000000E+00  0.00000000000E+00 -0.14445914946E+04  0.14445914946E+04  0.25500000920E-02 0. -1.
    10030    2    1    2    0    0  0.00000000000E+00  0.00000000000E+00  0.13537381405E+04  0.42429211297E+04  0.40211655972E+04 0.  0.
        4    1    3    3  502    0 -0.19255252299E+04 -0.13508771184E+03  0.12705198688E+04  0.23108696308E+04  0.12699999809E+01 0.  1.
       -4    1    3    3    0  502  0.19255252299E+04  0.13508771184E+03  0.83218271707E+02  0.19320514989E+04  0.12699999809E+01 0. -1.
</event>
<event>
 5   0  0.5515000E-08  0.4005830E+04  0.7818609E-02  0.8003371E-01
        1   -1    0    0  501    0  0.00000000000E+00  0.00000000000E+00  0.13997454506E+04  0.13997454506E+04  0.50400001928E-02 0.  1.
       -1   -1    0    0    0  501  0.00000000000E+00  0.00000000000E+00 -0.28659992778E+04  0.28659992778E+04  0.50400001928E-02 0. -1.
    10030    2    1    2    0    0  0.00000000000E+00  0.00000000000E+00 -0.14662538273E+04  0.42657447284E+04  0.40058304759E+04 0.  0.
        2    1    3    3  502    0  0.11833334102E+04  0.14973684054E+04 -0.86014386132E+02  0.19104419844E+04  0.25500000920E-02 0.  1.
       -2    1    3    3    0  502 -0.11833334102E+04 -0.14973684054E+04 -0.13802394411E+04  0.23553027440E+04  0.25500000920E-02 0. -1.
</event>
<event>
 5   0  0.1819906E-07  0.4020449E+04  0.7818609E-02  0.8000434E-01
        2   -1    0    0  501    0  0.00000000000E+00  0.00000000000E+00  0.19047607318E+04  0.19047607318E+04  0.25500000920E-02 0. -1.
       -2   -1    0    0    0  501  0.00000000000E+00  0.00000000000E+00 -0.21215275593E+04  0.21215275593E+04  0.25500000920E-02 0.  1.
    10030    2    1    2    0    0  0.00000000000E+00  0.00000000000E+00 -0.21676682752E+03  0.40262882912E+04  0.40204489235E+04 0.  0.
        1    1    3    3  502    0 -0.14330535053E+04 -0.16978021688E+02 -0.15200661291E+04  0.20891461508E+04  0.50400001928E-02 0.  1.
       -1    1    3    3    0  502  0.14330535053E+04  0.16978021688E+02  0.13032993016E+04  0.19371421404E+04  0.50400001928E-02 0. -1.
</event>
<event>
 5   0  0.5515000E-08  0.4019645E+04  0.7818609E-02  0.8000595E-01
       -1   -1    0    0    0  501  0.00000000000E+00  0.00000000000E+00  0.17669101708E+04  0.17669101708E+04  0.50400001928E-02 0. -1.
        1   -1    0    0  501    0  0.00000000000E+00  0.00000000000E+00 -0.22861304384E+04  0.22861304384E+04  0.50400001928E-02 0.  1.
    10030    2    1    2    0    0  0.00000000000E+00  0.00000000000E+00 -0.51922026766E+03  0.40530406092E+04  0.40196453193E+04 0.  0.
        3    1    3    3  502    0  0.12060727995E+04  0.57055653253E+03 -0.17751748237E+04  0.22206737760E+04  0.10100000352E+00 0.  1.
       -3    1    3    3    0  502 -0.12060727995E+04 -0.57055653253E+03  0.12559545560E+04  0.18323668332E+04  0.10100000352E+00 0. -1.
</event>
<event>
 5   0  0.5515000E-08  0.4067215E+04  0.7818609E-02  0.7991123E-01
       -1   -1    0    0    0  501  0.00000000000E+00  0.00000000000E+00  0.20819854469E+04  0.20819854469E+04  0.50400001928E-02 0.  1.
        1   -1    0    0  501    0  0.00000000000E+00  0.00000000000E+00 -0.19863536103E+04  0.19863536103E+04  0.50400001928E-02 0. -1.
    10030    2    1    2    0    0  0.00000000000E+00  0.00000000000E+00  0.95631836663E+02  0.40683390572E+04  0.40672149238E+04 0.  0.
        1    1    3    3  502    0  0.12662910332E+04 -0.15881812592E+04  0.14656815781E+03  0.20364908342E+04  0.50400001928E-02 0. -1.
       -1    1    3    3    0  502 -0.12662910332E+04  0.15881812592E+04 -0.50936321144E+02  0.20318482231E+04  0.50400001928E-02 0.  1.
</event>
<event>
 5   0  0.5515000E-08  0.3963086E+04  0.7818609E-02  0.8012035E-01
        1   -1    0    0  501    0  0.00000000000E+00  0.00000000000E+00  0.22333066197E+04  0.22333066197E+04  0.50400001928E-02 0. -1.
       -1   -1    0    0    0  501  0.00000000000E+00  0.00000000000E+00 -0.17581610199E+04  0.17581610199E+04  0.50400001928E-02 0.  1.
    10030    2    1    2    0    0  0.00000000000E+00  0.00000000000E+00  0.47514559982E+03  0.39914676397E+04  0.39630859917E+04 0.  0.
        3    1    3    3  502    0 -0.75091452876E+03 -0.28294823263E+03 -0.15871915867E+04  0.17785132766E+04  0.10100000352E+00 0.  1.
       -3    1    3    3    0  502  0.75091452876E+03  0.28294823263E+03  0.20623371865E+04  0.22129543631E+04  0.10100000352E+00 0. -1.
</event>
<event>
 5   0  0.1773903E-07  0.3859260E+04  0.7818609E-02  0.8033556E-01
        2   -1    0    0  501    0  0.00000000000E+00  0.00000000000E+00  0.16679345434E+04  0.16679345434E+04  0.25500000920E-02 0.  1.
       -2   -1    0    0    0  501  0.00000000000E+00  0.00000000000E+00 -0.22323852501E+04  0.22323852501E+04  0.25500000920E-02 0. -1.
    10030    2    1    2    0    0  0.00000000000E+00  0.00000000000E+00 -0.56445070674E+03  0.39003197934E+04  0.38592602777E+04 0.  0.
        3    1    3    3  502    0  0.97151195199E+03  0.57834819462E+03  0.12981088234E+04  0.17214553827E+04  0.10100000352E+00 0.  1.
       -3    1    3    3    0  502 -0.97151195199E+03 -0.57834819462E+03 -0.18625595301E+04  0.21788644108E+04  0.10100000352E+00 0. -1.
</event>
<event>
 5   0  0.1785559E-07  0.3934834E+04  0.7818609E-02  0.8017823E-01
       -2   -1    0    0    0  501  0.00000000000E+00  0.00000000000E+00  0.15528446625E+04  0.15528446625E+04  0.25500000920E-02 0.  1.
        2   -1    0    0  501    0  0.00000000000E+00  0.00000000000E+00 -0.24926707117E+04  0.24926707117E+04  0.25500000920E-02 0. -1.
    10030    2    1    2    0    0  0.00000000000E+00  0.00000000000E+00 -0.93982604918E+03  0.40455153743E+04  0.39348343854E+04 0.  0.
        2    1    3    3  502    0 -0.50493356552E+03 -0.17943545554E+04 -0.11169516560E+04  0.21730732105E+04  0.25500000920E-02 0. -1.
       -2    1    3    3    0  502  0.50493356552E+03  0.17943545554E+04  0.17712560682E+03  0.18724421638E+04  0.25500000920E-02 0.  1.
</event>
<event>
 5   0  0.5515000E-08  0.3757338E+04  0.7818609E-02  0.8055373E-01
        1   -1    0    0  501    0  0.00000000000E+00  0.00000000000E+00  0.14505143627E+04  0.14505143627E+04  0.50400001928E-02 0. -1.
       -1   -1    0    0    0  501  0.00000000000E+00  0.00000000000E+00 -0.24332036684E+04  0.24332036684E+04  0.50400001928E-02 0.  1.
    10030    2    1    2    0    0  0.00000000000E+00  0.00000000000E+00 -0.98268930568E+03  0.38837180311E+04  0.37573378174E+04 0.  0.
        4    1    3    3  502    0  0.63429577198E+03  0.15480270049E+03 -0.23121576765E+04  0.24025756463E+04  0.12699999809E+01 0.  1.
       -4    1    3    3    0  502 -0.63429577198E+03 -0.15480270049E+03  0.13294683708E+04  0.14811423849E+04  0.12699999809E+01 0. -1.
</event>
<event>
 5   0  0.1819906E-07  0.3950936E+04  0.7818609E-02  0.8014518E-01
        2   -1    0    0  501    0  0.00000000000E+00  0.00000000000E+00  0.17277787845E+04  0.17277787845E+04  0.25500000920E-02 0.  1.
       -2   -1    0    0    0  501  0.00000000000E+00  0.00000000000E+00 -0.22586650581E+04  0.22586650581E+04  0.25500000920E-02 0. -1.
    10030    2    1    2    0    0  0.00000000000E+00  0.00000000000E+00 -0.53088627357E+03  0.39864438426E+04  0.39509358732E+04 0.  0.
        1    1    3    3  502    0  0.10703631493E+04  0.14575745727E+04 -0.10677451314E+04  0.21000668018E+04  0.50400001928E-02 0. -1.
       -1    1    3    3    0  502 -0.10703631493E+04 -0.14575745727E+04  0.53685885784E+03  0.18863770407E+04  0.50400001928E-02 0.  1.
</event>
<event>
 5   0  0.5515000E-08  0.3952631E+04  0.7818609E-02  0.8014171E-01
       -4   -1    0    0    0  501  0.00000000000E+00  0.00000000000E+00  0.28051718878E+04  0.28051721753E+04  0.12699999809E+01 0.  1.
        4   -1    0    0  501    0  0.00000000000E+00  0.00000000000E+00 -0.13923641528E+04  0.13923647320E+04  0.12699999809E+01 0. -1.
    10030    2    1    2    0    0  0.00000000000E+00  0.00000000000E+00  0.14128077350E+04  0.41975369072E+04  0.39526308190E+04 0.  0.
        1    1    3    3  502    0 -0.14678712366E+04 -0.11434944729E+04  0.14137021141E+04  0.23368310260E+04  0.50400001928E-02 0.  1.
       -1    1    3    3    0  502  0.14678712366E+04  0.11434944729E+04 -0.89437904590E+00  0.18607058813E+04  0.50400001928E-02 0. -1.
</event>
<event>
 5   0  0.5515000E-08  0.3998583E+04  0.7818609E-02  0.8004832E-01
       -1   -1    0    0    0  501  0.00000000000E+00  0.00000000000E+00  0.16993072062E+04  0.16993072062E+04  0.50400001928E-02 0.  1.
        1   -1    0    0  501    0  0.00000000000E+00  0.00000000000E+00 -0.23522331009E+04  0.23522331009E+04  0.50400001928E-02 0. -1.
    10030    2    1    2    0    0  0.00000000000E+00  0.00000000000E+00 -0.65292589470E+03  0.40515403071E+04  0.39985830786E+04 0.  0.
        4    1    3    3  502    0 -0.19958113546E+04  0.11681774002E+03 -0.31026058949E+03  0.20231590629E+04  0.12699999809E+01 0. -1.
       -4    1    3    3    0  502  0.19958113546E+04 -0.11681774002E+03 -0.34266530521E+03  0.20283812442E+04  0.12699999809E+01 0.  1.
</event>
<event>
 5   0  0.1819906E-07  0.3916388E+04  0.7818609E-02  0.8021629E-01
        2   -1    0    0  501    0  0.00000000000E+00  0.00000000000E+00  0.20413689128E+04  0.20413689128E+04  0.25500000920E-02 0. -1.
       -2   -1    0    0    0  501  0.00000000000E+00  0.00000000000E+00 -0.18784084775E+04  0.18784084775E+04  0.25500000920E-02 0.  1.
    10030    2    1    2    0    0  0.00000000000E+00  0.00000000000E+00  0.16296043527E+03  0.39197773904E+04  0.39163884749E+04 0.  0.
        1    1    3    3  502    0  0.10612624281E+04  0.16393729965E+04  0.22548977723E+03  0.19658757343E+04  0.50400001928E-02 0.  1.
       -1    1    3    3    0  502 -0.10612624281E+04 -0.16393729965E+04 -0.62529341959E+02  0.19539016561E+04  0.50400001928E-02 0. -1.
</event>
<event>
 5   0  0.5515000E-08  0.3716949E+04  0.7818609E-02  0.8064216E-01
       -1   -1    0    0    0  501  0.00000000000E+00  0.00000000000E+00  0.16121907136E+04  0.16121907136E+04  0.50400001928E-02 0.  1.
        1   -1    0    0  501    0  0.00000000000E+00  0.00000000000E+00 -0.21423816424E+04  0.21423816424E+04  0.50400001928E-02 0. -1.
    10030    2    1    2    0    0  0.00000000000E+00  0.00000000000E+00 -0.53019092875E+03  0.37545723560E+04  0.37169491731E+04 0.  0.
        1    1    3    3  502    0 -0.11029414006E+03 -0.52161825952E+03  0.15332842134E+04  0.16233332637E+04  0.50400001928E-02 0.  1.
       -1    1    3    3    0  502  0.11029414006E+03  0.52161825952E+03 -0.20634751422E+04  0.21312390923E+04  0.50400001928E-02 0. -1.
</event>
<event>
 5   0  0.1819906E-07  0.3979046E+04  0.7818609E-02  0.8008787E-01
       -2   -1    0    0    0  501  0.00000000000E+00  0.00000000000E+00  0.18298711385E+04  0.18298711385E+04  0.25500000920E-02 0.  1.
        2   -1    0    0  501    0  0.00000000000E+00  0.00000000000E+00 -0.21631045798E+04  0.21631045798E+04  0.25500000920E-02 0. -1.
    10030    2    1    2    0    0  0.00000000000E+00  0.00000000000E+00 -0.33323344128E+03  0.39929757183E+04  0.39790464386E+04 0.  0.
        1    1    3    3  502    0 -0.68616465911E+03  0.70262143008E+03 -0.19029059760E+04  0.21413897279E+04  0.50400001928E-02 0. -1.
       -1    1    3    3    0  502  0.68616465911E+03 -0.70262143008E+03  0.15696725347E+04  0.18515859903E+04  0.50400001928E-02 0.  1.
</event>
<event>
 5   0  0.5515000E-08  0.3988271E+04  0.7818609E-02  0.8006917E-01
       -1   -1    0    0    0  501  0.00000000000E+00  0.00000000000E+00  0.13975462952E+04  0.13975462952E+04  0.50400001928E-02 0.  1.
        1   -1    0    0  501    0  0.00000000000E+00  0.00000000000E+00 -0.28453987390E+04  0.28453987390E+04  0.50400001928E-02 0. -1.
    10030    2    1    2    0    0  0.00000000000E+00  0.00000000000E+00 -0.14478524438E+04  0.42429450343E+04  0.39882710370E+04 0.  0.
        4    1    3    3  502    0  0.54168142615E+03  0.79736197931E+03  0.11332167198E+04  0.14877454891E+04  0.12699999809E+01 0.  1.
       -4    1    3    3    0  502 -0.54168142615E+03 -0.79736197931E+03 -0.25810691636E+04  0.27551995452E+04  0.12699999809E+01 0. -1.
</event>
<event>
 5   0  0.1785559E-07  0.4037812E+04  0.7818609E-02  0.7996962E-01
        2   -1    0    0  501    0  0.00000000000E+00  0.00000000000E+00  0.25200887683E+04  0.25200887683E+04  0.25500000920E-02 0.  1.
       -2   -1    0    0    0  501  0.00000000000E+00  0.00000000000E+00 -0.16173957543E+04  0.16173957543E+04  0.25500000920E-02 0. -1.
    10030    2    1    2    0    0  0.00000000000E+00  0.00000000000E+00  0.90269301406E+03  0.41374845226E+04  0.40378117213E+04 0.  0.
        2    1    3    3  502    0 -0.16556384903E+04 -0.52189528134E+03  0.15075512664E+04  0.22991790527E+04  0.25500000920E-02 0.  1.
       -2    1    3    3    0  502  0.16556384903E+04  0.52189528134E+03 -0.60485825237E+03  0.18383054699E+04  0.25500000920E-02 0. -1.
</event>
<event>
 5   0  0.1785559E-07  0.3997889E+04  0.7818609E-02  0.8004973E-01
       -2   -1    0    0    0  501  0.00000000000E+00  0.00000000000E+00  0.20196197180E+04  0.20196197180E+04  0.25500000920E-02 0. -1.
        2   -1    0    0  501    0  0.00000000000E+00  0.00000000000E+00 -0.19784809552E+04  0.19784809552E+04  0.25500000920E-02 0.  1.
    10030    2    1    2    0    0  0.00000000000E+00  0.00000000000E+00  0.41138762869E+02  0.39981006732E+04  0.39978890174E+04 0.  0.
        2    1    3    3  502    0  0.14474995813E+04  0.96898810509E+02  0.13958275307E+04  0.20132011606E+04  0.25500000920E-02 0.  1.
       -2    1    3    3    0  502 -0.14474995813E+04 -0.96898810509E+02 -0.13546887679E+04  0.19848995126E+04  0.25500000920E-02 0. -1.
</event>
<event>
 5   0  0.5515000E-08  0.4031766E+04  0.7818609E-02  0.7998169E-01
       -1   -1    0    0    0  501  0.00000000000E+00  0.00000000000E+00  0.17232905031E+04  0.17232905031E+04  0.50400001928E-02 0.  1.
        1   -1    0    0  501    0  0.00000000000E+00  0.00000000000E+00 -0.23581534345E+04  0.23581534345E+04  0.50400001928E-02 0. -1.
    10030    2    1    2    0    0  0.00000000000E+00  0.00000000000E+00 -0.63486293142E+03  0.40814439376E+04  0.40317655778E+04 0.  0.
        1    1    3    3  502    0 -0.17376799447E+04  0.93999709450E+03  0.88328114205E+02  0.19776066302E+04  0.50400001928E-02 0. -1.
       -1    1    3    3    0  502  0.17376799447E+04 -0.93999709450E+03 -0.72319104562E+03  0.21038373075E+04  0.50400001928E-02 0.  1.
</event>
<event>
 5   0  0.5515000E-08  0.4033123E+04  0.7818609E-02  0.7997898E-01
       -3   -1    0    0    0  501  0.00000000000E+00  0.00000000000E+00  0.21316358752E+04  0.21316358776E+04  0.10100000352E+00 0. -1.
        3   -1    0    0  501    0  0.00000000000E+00  0.00000000000E+00 -0.19076995173E+04  0.19076995200E+04  0.10100000352E+00 0.  1.
    10030    2    1    2    0    0  0.00000000000E+00  0.00000000000E+00  0.22393635793E+03  0.40393353976E+04  0.40331232267E+04 0.  0.
        2    1    3    3  502    0 -0.16112759311E+04  0.40859441203E+03 -0.10314387547E+04  0.19562784629E+04  0.25500000920E-02 0.  1.
       -2    1    3    3    0  502  0.16112759311E+04 -0.40859441203E+03  0.12553751127E+04  0.20830569347E+04  0.25500000920E-02 0. -1.
</event>
<event>
 5   0  0.5515000E-08  0.4126236E+04  0.7818609E-02  0.7979554E-01
        1   -1    0    0  501    0  0.00000000000E+00  0.00000000000E+00  0.20645365501E+04  0.20645365501E+04  0.50400001928E-02 0.  1.
       -1   -1    0    0    0  501  0.00000000000E+00  0.00000000000E+00 -0.20617001475E+04  0.20617001476E+04  0.50400001928E-02 0. -1.
    10030    2    1    2    0    0  0.00000000000E+00  0.00000000000E+00  0.28364025241E+01  0.41262366976E+04  0.41262357228E+04 0.  0.
        2    1    3    3  502    0  0.65042214858E+03 -0.19497660788E+04 -0.17695946414E+03  0.20629957308E+04  0.25500000920E-02 0. -1.
       -2    1    3    3    0  502 -0.65042214858E+03  0.19497660788E+04  0.17979586666E+03  0.20632409668E+04  0.25500000920E-02 0.  1.
</event>
<event>
 5   0  0.1773903E-07  0.4019733E+04  0.7818609E-02  0.8000578E-01
        2   -1    0    0  501    0  0.00000000000E+00  0.00000000000E+00  0.22374797099E+04  0.22374797099E+04  0.25500000920E-02 0.  1.
       -2   -1    0    0    0  501  0.00000000000E+00  0.00000000000E+00 -0.18054074985E+04  0.18054074985E+04  0.25500000920E-02 0. -1.
    10030    2    1    2    0    0  0.00000000000E+00  0.00000000000E+00  0.43207221140E+03  0.40428872084E+04  0.40197326508E+04 0.  0.
        3    1    3    3  502    0  0.14654699192E+04 -0.12903983510E+04 -0.26297682445E+03  0.19702504431E+04  0.10100000352E+00 0. -1.
       -3    1    3    3    0  502 -0.14654699192E+04  0.12903983510E+04  0.69504903584E+03  0.20726367653E+04  0.10100000352E+00 0.  1.
</event>
<event>
 5   0  0.5515000E-08  0.3954039E+04  0.7818609E-02  0.8013883E-01
       -1   -1    0    0    0  501  0.00000000000E+00  0.00000000000E+00  0.14644540721E+04  0.14644540721E+04  0.50400001928E-02 0.  1.
        1   -1    0    0  501    0  0.00000000000E+00  0.00000000000E+00 -0.26689854591E+04  0.26689854591E+04  0.50400001928E-02 0. -1.
    10030    2    1    2    0    0  0.00000000000E+00  0.00000000000E+00 -0.12045313870E+04  0.41334395312E+04  0.39540392633E+04 0.  0.
        2    1    3    3  502    0 -0.97141697236E+03  0.16285123233E+03 -0.23942271640E+04  0.25889177606E+04  0.25500000920E-02 0. -1.
       -2    1    3    3    0  502  0.97141697236E+03 -0.16285123233E+03  0.11896957770E+04  0.15445217706E+04  0.25500000920E-02 0.  1.
</event>
<event>
 5   0  0.5515000E-08  0.4029904E+04  0.7818609E-02  0.7998541E-01
       -1   -1    0    0    0  501  0.00000000000E+00  0.00000000000E+00  0.18007068531E+04  0.18007068531E+04  0.50400001928E-02 0. -1.
        1   -1    0    0  501    0  0.00000000000E+00  0.00000000000E+00 -0.22546877446E+04  0.22546877446E+04  0.50400001928E-02 0.  1.
    10030    2    1    2    0    0  0.00000000000E+00  0.00000000000E+00 -0.45398089150E+03  0.40553945977E+04  0.40299040551E+04 0.  0.
        1    1    3    3  502    0 -0.95424310825E+03 -0.56589765960E+03 -0.19196558855E+04  0.22171826243E+04  0.50400001928E-02 0.  1.
       -1    1    3    3    0  502  0.95424310825E+03  0.56589765960E+03  0.14656749940E+04  0.18382119733E+04  0.50400001928E-02 0. -1.
</event>
<event>
 5   0  0.1819906E-07  0.3885156E+04  0.7818609E-02  0.8028124E-01
       -2   -1    0    0    0  501  0.00000000000E+00  0.00000000000E+00  0.25608199149E+04  0.25608199149E+04  0.25500000920E-02 0. -1.
        2   -1    0    0  501    0  0.00000000000E+00  0.00000000000E+00 -0.14735939003E+04  0.14735939003E+04  0.25500000920E-02 0.  1.
    10030    2    1    2    0    0  0.00000000000E+00  0.00000000000E+00  0.10872260146E+04  0.40344138152E+04  0.38851556501E+04 0.  0.
        1    1    3    3  502    0  0.12273150495E+03  0.10212858182E+03 -0.14667685572E+04  0.14754332482E+04  0.50400001928E-02 0.  1.
       -1    1    3    3    0  502 -0.12273150495E+03 -0.10212858182E+03  0.25539945718E+04  0.25589805670E+04  0.50400001928E-02 0. -1.
</event>
<event>
 5   0  0.5515000E-08  0.3507201E+04  0.7818609E-02  0.8112086E-01
        1   -1    0    0  501    0  0.00000000000E+00  0.00000000000E+00  0.19024543136E+04  0.19024543136E+04  0.50400001928E-02 0. -1.
       -1   -1    0    0    0  501  0.00000000000E+00  0.00000000000E+00 -0.16163932214E+04  0.16163932214E+04  0.50400001928E-02 0.  1.
    10030    2    1    2    0    0  0.00000000000E+00  0.00000000000E+00  0.28606109215E+03  0.35188475350E+04  0.35072007393E+04 0.  0.
        5    1    3    3  502    0  0.60838181313E+03  0.15529594081E+04  0.68638302352E+03  0.18035950484E+04  0.46999998093E+01 0. -1.
       -5    1    3    3    0  502 -0.60838181313E+03 -0.15529594081E+04 -0.40032193136E+03  0.17152524865E+04  0.46999998093E+01 0.  1.
</event>
<event>
 5   0  0.1785559E-07  0.4004411E+04  0.7818609E-02  0.8003657E-01
        2   -1    0    0  501    0  0.00000000000E+00  0.00000000000E+00  0.17592391911E+04  0.17592391911E+04  0.25500000920E-02 0. -1.
       -2   -1    0    0    0  501  0.00000000000E+00  0.00000000000E+00 -0.22787273505E+04  0.22787273505E+04  0.25500000920E-02 0.  1.
    10030    2    1    2    0    0  0.00000000000E+00  0.00000000000E+00 -0.51948815946E+03  0.40379665416E+04  0.40044107985E+04 0.  0.
        2    1    3    3  502    0  0.31262633636E+03  0.12355101086E+04  0.12974129438E+04  0.18186535683E+04  0.25500000920E-02 0. -1.
       -2    1    3    3    0  502 -0.31262633636E+03 -0.12355101086E+04 -0.18169011033E+04  0.22193129733E+04  0.25500000920E-02 0.  1.
</event>
<event>
 5   0  0.1785559E-07  0.3842491E+04  0.7818609E-02  0.8037097E-01
        2   -1    0    0  501    0  0.00000000000E+00  0.00000000000E+00  0.28876124673E+04  0.28876124673E+04  0.25500000920E-02 0. -1.
       -2   -1    0    0    0  501  0.00000000000E+00  0.00000000000E+00 -0.12782826711E+04  0.12782826711E+04  0.25500000920E-02 0.  1.
    10030    2    1    2    0    0  0.00000000000E+00  0.00000000000E+00  0.16093297963E+04  0.41658951384E+04  0.38424913677E+04 0.  0.
        2    1    3    3  502    0  0.34788365168E+03 -0.12345949623E+04 -0.74608437106E+03  0.14838765598E+04  0.25500000920E-02 0.  1.
       -2    1    3    3    0  502 -0.34788365168E+03  0.12345949623E+04  0.23554141673E+04  0.26820185786E+04  0.25500000920E-02 0. -1.
</event>
<event>
 5   0  0.5515000E-08  0.3922871E+04  0.7818609E-02  0.8020289E-01
       -1   -1    0    0    0  501  0.00000000000E+00  0.00000000000E+00  0.14958779808E+04  0.14958779808E+04  0.50400001928E-02 0.  1.
        1   -1    0    0  501    0  0.00000000000E+00  0.00000000000E+00 -0.25718872463E+04  0.25718872463E+04  0.50400001928E-02 0. -1.
    10030    2    1    2    0    0  0.00000000000E+00  0.00000000000E+00 -0.10760092655E+04  0.40677652271E+04  0.39228711429E+04 0.  0.
        3    1    3    3  502    0  0.18516954457E+04  0.33808827530E+03  0.33863101639E+02  0.18826115970E+04  0.10100000352E+00 0.  1.
       -3    1    3    3    0  502 -0.18516954457E+04 -0.33808827530E+03 -0.11098723672E+04  0.21851536301E+04  0.10100000352E+00 0. -1.
</event>
<event>
 5   0  0.1821433E-07  0.4039558E+04  0.7818609E-02  0.7996614E-01
        2   -1    0    0  501    0  0.00000000000E+00  0.00000000000E+00  0.13202948167E+04  0.13202948167E+04  0.25500000920E-02 0. -1.
       -2   -1    0    0    0  501  0.00000000000E+00  0.00000000000E+00 -0.30898456266E+04  0.30898456266E+04  0.25500000920E-02 0.  1.
    10030    2    1    2    0    0  0.00000000000E+00  0.00000000000E+00 -0.17695508100E+04  0.44101404433E+04  0.40395579784E+04 0.  0.
        5    1    3    3  502    0  0.18644997254E+04  0.16346173294E+03 -0.55912196751E+02  0.18724922504E+04  0.46999998093E+01 0. -1.
       -5    1    3    3    0  502 -0.18644997254E+04 -0.16346173294E+03 -0.17136386132E+04  0.25376481929E+04  0.46999998093E+01 0.  1.
</event>
<event>
 5   0  0.5515000E-08  0.4008694E+04  0.7818609E-02  0.8002795E-01
        1   -1    0    0  501    0  0.00000000000E+00  0.00000000000E+00  0.18364400678E+04  0.18364400678E+04  0.50400001928E-02 0. -1.
       -1   -1    0    0    0  501  0.00000000000E+00  0.00000000000E+00 -0.21876062834E+04  0.21876062834E+04  0.50400001928E-02 0.  1.
    10030    2    1    2    0    0  0.00000000000E+00  0.00000000000E+00 -0.35116621554E+03  0.40240463512E+04  0.40086944665E+04 0.  0.
        4    1    3    3  502    0 -0.15082799721E+04 -0.46868376868E+03  0.10631741046E+04  0.19039206230E+04  0.12699999809E+01 0. -1.
       -4    1    3    3    0  502  0.15082799721E+04  0.46868376868E+03 -0.14143403201E+04  0.21201257282E+04  0.12699999809E+01 0.  1.
</event>
<event>
 5   0  0.1785559E-07  0.3943875E+04  0.7818609E-02  0.8015965E-01
       -2   -1    0    0    0  501  0.00000000000E+00  0.00000000000E+00  0.24388581976E+04  0.24388581976E+04  0.25500000920E-02 0. -1.
        2   -1    0    0  501    0  0.00000000000E+00  0.00000000000E+00 -0.15944088885E+04  0.15944088885E+04  0.25500000920E-02 0.  1.
    10030    2    1    2    0    0  0.00000000000E+00  0.00000000000E+00  0.84444930914E+03  0.40332670861E+04  0.39438748398E+04 0.  0.
        2    1    3    3  502    0 -0.16504123436E+04  0.71261588883E+03  0.12510605921E+04  0.21901677821E+04  0.25500000920E-02 0. -1.
       -2    1    3    3    0  502  0.16504123436E+04 -0.71261588883E+03 -0.40661128291E+03  0.18430993039E+04  0.25500000920E-02 0.  1.
</event>
<event>
 5   0  0.5515000E-08  0.4010549E+04  0.7818609E-02  0.8002422E-01
        1   -1    0    0  501    0  0.00000000000E+00  0.00000000000E+00  0.18209432709E+04  0.18209432709E+04  0.50400001928E-02 0. -1.
       -1   -1    0    0    0  501  0.00000000000E+00  0.00000000000E+00 -0.22082653303E+04  0.22082653303E+04  0.50400001928E-02 0.  1.
    10030    2    1    2    0    0  0.00000000000E+00  0.00000000000E+00 -0.38732205942E+03  0.40292086012E+04  0.40105490366E+04 0.  0.
        5    1    3    3  502    0  0.47617768825E+03 -0.16851644541E+04  0.78791048134E+03  0.19202472353E+04  0.46999998093E+01 0. -1.
       -5    1    3    3    0  502 -0.47617768825E+03  0.16851644541E+04 -0.11752325408E+04  0.21089613659E+04  0.46999998093E+01 0.  1.
</event>
<event>
 5   0  0.5515000E-08  0.4001023E+04  0.7818609E-02  0.8004340E-01
       -1   -1    0    0    0  501  0.00000000000E+00  0.00000000000E+00  0.20488614378E+04  0.20488614378E+04  0.50400001928E-02 0. -1.
        1   -1    0    0  501    0  0.00000000000E+00  0.00000000000E+00 -0.19533025730E+04  0.19533025730E+04  0.50400001928E-02 0.  1.
    10030    2    1    2    0    0  0.00000000000E+00  0.00000000000E+00  0.95558864795E+02  0.40021640108E+04  0.40010230282E+04 0.  0.
        2    1    3    3  502    0 -0.11893299814E+04  0.94973365876E+02  0.16540146052E+04  0.20394337594E+04  0.25500000920E-02 0. -1.
       -2    1    3    3    0  502  0.11893299814E+04 -0.94973365876E+02 -0.15584557404E+04  0.19627302514E+04  0.25500000920E-02 0.  1.
</event>
<event>
 5   0  0.5515000E-08  0.4023903E+04  0.7818609E-02  0.7999742E-01
        1   -1    0    0  501    0  0.00000000000E+00  0.00000000000E+00  0.21770289871E+04  0.21770289871E+04  0.50400001928E-02 0. -1.
       -1   -1    0    0    0  501  0.00000000000E+00  0.00000000000E+00 -0.18593909091E+04  0.18593909091E+04  0.50400001928E-02 0.  1.
    10030    2    1    2    0    0  0.00000000000E+00  0.00000000000E+00  0.31763807801E+03  0.40364198963E+04  0.40239025374E+04 0.  0.
        5    1    3    3  502    0  0.18233873558E+04 -0.83454589713E+03 -0.51443580894E+01  0.20053071730E+04  0.46999998093E+01 0. -1.
       -5    1    3    3    0  502 -0.18233873558E+04  0.83454589713E+03  0.32278243609E+03  0.20311127233E+04  0.46999998093E+01 0.  1.
</event>
<event>
 5   0  0.1785559E-07  0.3980233E+04  0.7818609E-02  0.8008546E-01
        2   -1    0    0  501    0  0.00000000000E+00  0.00000000000E+00  0.23535325545E+04  0.23535325545E+04  0.25500000920E-02 0. -1.
       -2   -1    0    0    0  501  0.00000000000E+00  0.00000000000E+00 -0.16828168332E+04  0.16828168332E+04  0.25500000920E-02 0.  1.
    10030    2    1    2    0    0  0.00000000000E+00  0.00000000000E+00  0.67071572138E+03  0.40363493877E+04  0.39802332596E+04 0.  0.
        2    1    3    3  502    0 -0.11956780675E+04 -0.13466031977E+04 -0.52368489764E+03  0.18754285071E+04  0.25500000920E-02 0.  1.
       -2    1    3    3    0  502  0.11956780675E+04  0.13466031977E+04  0.11944006190E+04  0.21609208806E+04  0.25500000920E-02 0. -1.
</event>
<event>
 5   0  0.1785559E-07  0.3998609E+04  0.7818609E-02  0.8004827E-01
        2   -1    0    0  501    0  0.00000000000E+00  0.00000000000E+00  0.20693867465E+04  0.20693867465E+04  0.25500000920E-02 0. -1.
       -2   -1    0    0    0  501  0.00000000000E+00  0.00000000000E+00 -0.19315961473E+04  0.19315961473E+04  0.25500000920E-02 0.  1.
    10030    2    1    2    0    0  0.00000000000E+00  0.00000000000E+00  0.13779059913E+03  0.40009828938E+04  0.39986094917E+04 0.  0.
        2    1    3    3  502    0  0.15360692894E+04  0.11926108234E+04  0.53327208306E+03  0.20164842059E+04  0.25500000920E-02 0.  1.
       -2    1    3    3    0  502 -0.15360692894E+04 -0.11926108234E+04 -0.39548148393E+03  0.19844986879E+04  0.25500000920E-02 0. -1.
</event>
<event>
 5   0  0.5515000E-08  0.3978545E+04  0.7818609E-02  0.8008889E-01
        1   -1    0    0  501    0  0.00000000000E+00  0.00000000000E+00  0.21074493524E+04  0.21074493524E+04  0.50400001928E-02 0.  1.
       -1   -1    0    0    0  501  0.00000000000E+00  0.00000000000E+00 -0.18777229604E+04  0.18777229604E+04  0.50400001928E-02 0. -1.
    10030    2    1    2    0    0  0.00000000000E+00  0.00000000000E+00  0.22972639205E+03  0.39851723128E+04  0.39785454814E+04 0.  0.
        4    1    3    3  502    0  0.13785780226E+04  0.86717499956E+03  0.12590155636E+04  0.20585411452E+04  0.12699999809E+01 0.  1.
       -4    1    3    3    0  502 -0.13785780226E+04 -0.86717499956E+03 -0.10292891716E+04  0.19266311676E+04  0.12699999809E+01 0. -1.
</event>
<event>
 5   0  0.1776653E-07  0.4001700E+04  0.7818609E-02  0.8004204E-01
       -2   -1    0    0    0  501  0.00000000000E+00  0.00000000000E+00  0.27801135293E+04  0.27801135293E+04  0.25500000920E-02 0. -1.
        2   -1    0    0  501    0  0.00000000000E+00  0.00000000000E+00 -0.14400134526E+04  0.14400134526E+04  0.25500000920E-02 0.  1.
    10030    2    1    2    0    0  0.00000000000E+00  0.00000000000E+00  0.13401000767E+04  0.42201269819E+04  0.40017000797E+04 0.  0.
        4    1    3    3  502    0 -0.59587297612E+03  0.84569865478E+03  0.24761697158E+04  0.26835962611E+04  0.12699999809E+01 0. -1.
       -4    1    3    3    0  502  0.59587297612E+03 -0.84569865478E+03 -0.11360696390E+04  0.15365307208E+04  0.12699999809E+01 0.  1.
</event>
<event>
 5   0  0.5515000E-08  0.3657808E+04  0.7818609E-02  0.8077377E-01
        1   -1    0    0  501    0  0.00000000000E+00  0.00000000000E+00  0.18987197989E+04  0.18987197989E+04  0.50400001928E-02 0. -1.
       -1   -1    0    0    0  501  0.00000000000E+00  0.00000000000E+00 -0.17616556588E+04  0.17616556588E+04  0.50400001928E-02 0.  1.
    10030    2    1    2    0    0  0.00000000000E+00  0.00000000000E+00  0.13706414010E+03  0.36603754577E+04  0.36578083483E+04 0.  0.
        5    1    3    3  502    0 -0.18634860940E+03  0.32218843165E+03  0.18604135664E+04  0.18972854076E+04  0.46999998093E+01 0. -1.
       -5    1    3    3    0  502  0.18634860940E+03 -0.32218843165E+03 -0.17233494263E+04  0.17630900501E+04  0.46999998093E+01 0.  1.
</event>
<event>
 5   0  0.1785559E-07  0.3953413E+04  0.7818609E-02  0.8014011E-01
        2   -1    0    0  501    0  0.00000000000E+00  0.00000000000E+00  0.27851134599E+04  0.27851134599E+04  0.25500000920E-02 0.  1.
       -2   -1    0    0    0  501  0.00000000000E+00  0.00000000000E+00 -0.14029477232E+04  0.14029477232E+04  0.25500000920E-02 0. -1.
    10030    2    1    2    0    0  0.00000000000E+00  0.00000000000E+00  0.13821657366E+04  0.41880611831E+04  0.39534130001E+04 0.  0.
        2    1    3    3  502    0  0.19645680475E+04 -0.12809143489E+03  0.87890103820E+03  0.21560153209E+04  0.25500000920E-02 0. -1.
       -2    1    3    3    0  502 -0.19645680475E+04  0.12809143489E+03  0.50326469845E+03  0.20320458621E+04  0.25500000920E-02 0.  1.
</event>
<event>
 5   0  0.5515000E-08  0.3997558E+04  0.7818609E-02  0.8005039E-01
        1   -1    0    0  501    0  0.00000000000E+00  0.00000000000E+00  0.23708582692E+04  0.23708582692E+04  0.50400001928E-02 0.  1.
       -1   -1    0    0    0  501  0.00000000000E+00  0.00000000000E+00 -0.16850935375E+04  0.16850935375E+04  0.50400001928E-02 0. -1.
    10030    2    1    2    0    0  0.00000000000E+00  0.00000000000E+00  0.68576473170E+03  0.40559518067E+04  0.39975582286E+04 0.  0.
        1    1    3    3  502    0 -0.72572694663E+03 -0.67064383326E+03  0.21056951065E+04  0.23260255015E+04  0.50400001928E-02 0.  1.
       -1    1    3    3    0  502  0.72572694663E+03  0.67064383326E+03 -0.14199303748E+04  0.17299263052E+04  0.50400001928E-02 0. -1.
</event>
<event>
 5   0  0.1785559E-07  0.3982662E+04  0.7818609E-02  0.8008053E-01
        2   -1    0    0  501    0  0.00000000000E+00  0.00000000000E+00  0.14813853668E+04  0.14813853668E+04  0.25500000920E-02 0. -1.
       -2   -1    0    0    0  501  0.00000000000E+00  0.00000000000E+00 -0.26768174258E+04  0.26768174258E+04  0.25500000920E-02 0.  1.
    10030    2    1    2    0    0  0.00000000000E+00  0.00000000000E+00 -0.11954320590E+04  0.41582027926E+04  0.39826615041E+04 0.  0.
        2    1    3    3  502    0  0.50738238157E+03  0.22368994633E+03  0.13991531496E+04  0.15050261158E+04  0.25500000920E-02 0. -1.
       -2    1    3    3    0  502 -0.50738238157E+03 -0.22368994633E+03 -0.25945852086E+04  0.26531766768E+04  0.25500000920E-02 0.  1.
</event>
<event>
 5   0  0.1785559E-07  0.4004120E+04  0.7818609E-02  0.8003716E-01
       -2   -1    0    0    0  501  0.00000000000E+00  0.00000000000E+00  0.14074868349E+04  0.14074868349E+04  0.25500000920E-02 0. -1.
        2   -1    0    0  501    0  0.00000000000E+00  0.00000000000E+00 -0.28478020581E+04  0.28478020581E+04  0.25500000920E-02 0.  1.
    10030    2    1    2    0    0  0.00000000000E+00  0.00000000000E+00 -0.14403152232E+04  0.42552888930E+04  0.40041198310E+04 0.  0.
        2    1    3    3  502    0  0.90194804701E+03  0.93704137827E+03 -0.23377000067E+04  0.26751445092E+04  0.25500000920E-02 0.  1.
       -2    1    3    3    0  502 -0.90194804701E+03 -0.93704137827E+03  0.89738478343E+03  0.15801443838E+04  0.25500000920E-02 0. -1.
</event>
<event>
 5   0  0.5515000E-08  0.4151724E+04  0.7818609E-02  0.7974619E-01
       -1   -1    0    0    0  501  0.00000000000E+00  0.00000000000E+00  0.27779936274E+04  0.27779936274E+04  0.50400001928E-02 0.  1.
        1   -1    0    0  501    0  0.00000000000E+00  0.00000000000E+00 -0.15511924561E+04  0.15511924561E+04  0.50400001928E-02 0. -1.
    10030    2    1    2    0    0  0.00000000000E+00  0.00000000000E+00  0.12268011713E+04  0.43291860835E+04  0.41517238627E+04 0.  0.
        5    1    3    3  502    0 -0.51043263571E+03 -0.16725414886E+04 -0.55300294461E+03  0.18340585742E+04  0.46999998093E+01 0. -1.
       -5    1    3    3    0  502  0.51043263571E+03  0.16725414886E+04  0.17798041159E+04  0.24951275093E+04  0.46999998093E+01 0.  1.
</event>
<event>
 5   0  0.5515000E-08  0.3979960E+04  0.7818609E-02  0.8008602E-01
        1   -1    0    0  501    0  0.00000000000E+00  0.00000000000E+00  0.22727358399E+04  0.22727358399E+04  0.50400001928E-02 0. -1.
       -1   -1    0    0    0  501  0.00000000000E+00  0.00000000000E+00 -0.17424021361E+04  0.17424021361E+04  0.50400001928E-02 0.  1.
    10030    2    1    2    0    0  0.00000000000E+00  0.00000000000E+00  0.53033370376E+03  0.40151379760E+04  0.39799596894E+04 0.  0.
        1    1    3    3  502    0  0.19761801341E+03 -0.32837826004E+03  0.22351516264E+04  0.22677715833E+04  0.50400001928E-02 0. -1.
       -1    1    3    3    0  502 -0.19761801341E+03  0.32837826004E+03 -0.17048179227E+04  0.17473663927E+04  0.50400001928E-02 0.  1.
</event>
<event>
 5   0  0.5515000E-08  0.4000352E+04  0.7818609E-02  0.8004476E-01
       -1   -1    0    0    0  501  0.00000000000E+00  0.00000000000E+00  0.19236679502E+04  0.19236679502E+04  0.50400001928E-02 0.  1.
        1   -1    0    0  501    0  0.00000000000E+00  0.00000000000E+00 -0.20797270289E+04  0.20797270289E+04  0.50400001928E-02 0. -1.
    10030    2    1    2    0    0  0.00000000000E+00  0.00000000000E+00 -0.15605907871E+03  0.40033949791E+04  0.40003520999E+04 0.  0.
        5    1    3    3  502    0 -0.13982787171E+03 -0.27144460797E+03 -0.20562597625E+04  0.20788122354E+04  0.46999998093E+01 0. -1.
       -5    1    3    3    0  502  0.13982787171E+03  0.27144460797E+03  0.19002006838E+04  0.19245827438E+04  0.46999998093E+01 0.  1.
</event>
<event>
 5   0  0.5515000E-08  0.3999456E+04  0.7818609E-02  0.8004656E-01
       -1   -1    0    0    0  501  0.00000000000E+00  0.00000000000E+00  0.21465367710E+04  0.21465367710E+04  0.50400001928E-02 0. -1.
        1   -1    0    0  501    0  0.00000000000E+00  0.00000000000E+00 -0.18629599795E+04  0.18629599795E+04  0.50400001928E-02 0.  1.
    10030    2    1    2    0    0  0.00000000000E+00  0.00000000000E+00  0.28357679152E+03  0.40094967506E+04  0.39994560125E+04 0.  0.
        4    1    3    3  502    0 -0.62832908727E+03  0.12366897969E+03  0.20409622408E+04  0.21390698772E+04  0.12699999809E+01 0. -1.
       -4    1    3    3    0  502  0.62832908727E+03 -0.12366897969E+03 -0.17573854493E+04  0.18704268734E+04  0.12699999809E+01 0.  1.
</event>
<event>
 5   0  0.5515000E-08  0.3998841E+04  0.7818609E-02  0.8004780E-01
       -1   -1    0    0    0  501  0.00000000000E+00  0.00000000000E+00  0.18388300075E+04  0.18388300076E+04  0.50400001928E-02 0.  1.
        1   -1    0    0  501    0  0.00000000000E+00  0.00000000000E+00 -0.21740353225E+04  0.21740353225E+04  0.50400001928E-02 0. -1.
    10030    2    1    2    0    0  0.00000000000E+00  0.00000000000E+00 -0.33520531497E+03  0.40128653301E+04  0.39988405262E+04 0.  0.
        4    1    3    3  502    0 -0.33843757840E+03 -0.25117231481E+02 -0.21449216176E+04  0.21716033773E+04  0.12699999809E+01 0. -1.
       -4    1    3    3    0  502  0.33843757840E+03  0.25117231481E+02  0.18097163026E+04  0.18412619528E+04  0.12699999809E+01 0.  1.
</event>
<event>
 5   0  0.1819906E-07  0.4009751E+04  0.7818609E-02  0.8002582E-01
        2   -1    0    0  501    0  0.00000000000E+00  0.00000000000E+00  0.18541578539E+04  0.18541578539E+04  0.25500000920E-02 0.  1.
       -2   -1    0    0    0  501  0.00000000000E+00  0.00000000000E+00 -0.21678445413E+04  0.21678445413E+04  0.25500000920E-02 0. -1.
    10030    2    1    2    0    0  0.00000000000E+00  0.00000000000E+00 -0.31368668743E+03  0.40220023952E+04  0.40097511057E+04 0.  0.
        1    1    3    3  502    0 -0.87306054177E+03  0.11212765630E+04 -0.15753885469E+04  0.21216373191E+04  0.50400001928E-02 0. -1.
       -1    1    3    3    0  502  0.87306054177E+03 -0.11212765630E+04  0.12617018595E+04  0.19003650761E+04  0.50400001928E-02 0.  1.
</event>
<event>
 5   0  0.1773903E-07  0.4185531E+04  0.7818609E-02  0.7968130E-01
        2   -1    0    0  501    0  0.00000000000E+00  0.00000000000E+00  0.23548839270E+04  0.23548839270E+04  0.25500000920E-02 0.  1.
       -2   -1    0    0    0  501  0.00000000000E+00  0.00000000000E+00 -0.18598227312E+04  0.18598227312E+04  0.25500000920E-02 0. -1.
    10030    2    1    2    0    0  0.00000000000E+00  0.00000000000E+00  0.49506119581E+03  0.42147066583E+04  0.41855306268E+04 0.  0.
        3    1    3    3  502    0  0.18649530966E+04 -0.82483027782E+03  0.72120473678E+03  0.21629912904E+04  0.10100000352E+00 0. -1.
       -3    1    3    3    0  502 -0.18649530966E+04  0.82483027782E+03 -0.22614354096E+03  0.20517153679E+04  0.10100000352E+00 0.  1.
</event>
<event>
 5   0  0.1785559E-07  0.4076205E+04  0.7818609E-02  0.7989348E-01
       -2   -1    0    0    0  501  0.00000000000E+00  0.00000000000E+00  0.12335551467E+04  0.12335551467E+04  0.25500000920E-02 0. -1.
        2   -1    0    0  501    0  0.00000000000E+00  0.00000000000E+00 -0.33673909167E+04  0.33673909167E+04  0.25500000920E-02 0.  1.
    10030    2    1    2    0    0  0.00000000000E+00  0.00000000000E+00 -0.21338357700E+04  0.46009460635E+04  0.40762052924E+04 0.  0.
        2    1    3    3  502    0 -0.12469636663E+04  0.10743723456E+04  0.28975495681E+03  0.16712726460E+04  0.25500000920E-02 0. -1.
       -2    1    3    3    0  502  0.12469636663E+04 -0.10743723456E+04 -0.24235907268E+04  0.29296734175E+04  0.25500000920E-02 0.  1.
</event>
<event>
 5   0  0.1776653E-07  0.4027996E+04  0.7818609E-02  0.7998923E-01
        2   -1    0    0  501    0  0.00000000000E+00  0.00000000000E+00  0.19620415044E+04  0.19620415044E+04  0.25500000920E-02 0.  1.
       -2   -1    0    0    0  501  0.00000000000E+00  0.00000000000E+00 -0.20673304847E+04  0.20673304847E+04  0.25500000920E-02 0. -1.
    10030    2    1    2    0    0  0.00000000000E+00  0.00000000000E+00 -0.10528898039E+03  0.40293719891E+04  0.40279961342E+04 0.  0.
        4    1    3    3  502    0  0.13735780183E+04  0.13808333001E+04 -0.56542998818E+03  0.20280852693E+04  0.12699999809E+01 0. -1.
       -4    1    3    3    0  502 -0.13735780183E+04 -0.13808333001E+04  0.46014100779E+03  0.20012867198E+04  0.12699999809E+01 0.  1.
</event>
<event>
 5   0  0.5515000E-08  0.3895861E+04  0.7818609E-02  0.8025891E-01
        1   -1    0    0  501    0  0.00000000000E+00  0.00000000000E+00  0.12949399334E+04  0.12949399334E+04  0.50400001928E-02 0. -1.
       -1   -1    0    0    0  501  0.00000000000E+00  0.00000000000E+00 -0.29302001627E+04  0.29302001627E+04  0.50400001928E-02 0.  1.
    10030    2    1    2    0    0  0.00000000000E+00  0.00000000000E+00 -0.16352602293E+04  0.42251400962E+04  0.38958609851E+04 0.  0.
        4    1    3    3  502    0 -0.41890093387E+03 -0.97629199916E+03 -0.25883589408E+04  0.27978970101E+04  0.12699999809E+01 0.  1.
       -4    1    3    3    0  502  0.41890093387E+03  0.97629199916E+03  0.95309871148E+03  0.14272430861E+04  0.12699999809E+01 0. -1.
</event>
<event>
 5   0  0.1821433E-07  0.4011044E+04  0.7818609E-02  0.8002322E-01
        2   -1    0    0  501    0  0.00000000000E+00  0.00000000000E+00  0.30082430395E+04  0.30082430395E+04  0.25500000920E-02 0. -1.
       -2   -1    0    0    0  501  0.00000000000E+00  0.00000000000E+00 -0.13370323426E+04  0.13370323426E+04  0.25500000920E-02 0.  1.
    10030    2    1    2    0    0  0.00000000000E+00  0.00000000000E+00  0.16712106969E+04  0.43452753821E+04  0.40110438732E+04 0.  0.
        5    1    3    3  502    0  0.68054570381E+02  0.15581919147E+04 -0.53020539659E+03  0.16473412883E+04  0.46999998093E+01 0.  1.
       -5    1    3    3    0  502 -0.68054570381E+02 -0.15581919147E+04  0.22014160935E+04  0.26979340938E+04  0.46999998093E+01 0. -1.
</event>
<event>
 5   0  0.1773903E-07  0.3410591E+04  0.7818609E-02  0.8135312E-01
        2   -1    0    0  501    0  0.00000000000E+00  0.00000000000E+00  0.18135288019E+04  0.18135288019E+04  0.25500000920E-02 0.  1.
       -2   -1    0    0    0  501  0.00000000000E+00  0.00000000000E+00 -0.16035220267E+04  0.16035220267E+04  0.25500000920E-02 0. -1.
    10030    2    1    2    0    0  0.00000000000E+00  0.00000000000E+00  0.21000677512E+03  0.34170508286E+04  0.34105913739E+04 0.  0.
        3    1    3    3  502    0  0.10468263388E+04  0.51712924959E+03 -0.11402364494E+04  0.16319948575E+04  0.10100000352E+00 0. -1.
       -3    1    3    3    0  502 -0.10468263388E+04 -0.51712924959E+03  0.13502432245E+04  0.17850559711E+04  0.10100000352E+00 0.  1.
</event>
<event>
 5   0  0.5515000E-08  0.4000016E+04  0.7818609E-02  0.8004543E-01
        1   -1    0    0  501    0  0.00000000000E+00  0.00000000000E+00  0.29320572463E+04  0.29320572463E+04  0.50400001928E-02 0. -1.
       -1   -1    0    0    0  501  0.00000000000E+00  0.00000000000E+00 -0.13642409137E+04  0.13642409137E+04  0.50400001928E-02 0.  1.
    10030    2    1    2    0    0  0.00000000000E+00  0.00000000000E+00  0.15678163326E+04  0.42962981601E+04  0.40000162284E+04 0.  0.
        4    1    3    3  502    0  0.14189407571E+04 -0.41620210113E+03 -0.66246753206E+03  0.16203338869E+04  0.12699999809E+01 0.  1.
       -4    1    3    3    0  502 -0.14189407571E+04  0.41620210113E+03  0.22302838646E+04  0.26759642731E+04  0.12699999809E+01 0. -1.
</event>
<event>
 5   0  0.5515000E-08  0.3975594E+04  0.7818609E-02  0.8009488E-01
        1   -1    0    0  501    0  0.00000000000E+00  0.00000000000E+00  0.16066797804E+04  0.16066797804E+04  0.50400001928E-02 0. -1.
       -1   -1    0    0    0  501  0.00000000000E+00  0.00000000000E+00 -0.24593178772E+04  0.24593178772E+04  0.50400001928E-02 0.  1.
    10030    2    1    2    0    0  0.00000000000E+00  0.00000000000E+00 -0.85263809681E+03  0.40659976577E+04  0.39755936951E+04 0.  0.
        3    1    3    3  502    0  0.17802623291E+04  0.60020003832E+03  0.23788112384E+03  0.18937163161E+04  0.10100000352E+00 0. -1.
       -3    1    3    3    0  502 -0.17802623291E+04 -0.60020003832E+03 -0.10905192206E+04  0.21722813416E+04  0.10100000352E+00 0.  1.
</event>
<event>
 5   0  0.1776653E-07  0.4076260E+04  0.7818609E-02  0.7989337E-01
        2   -1    0    0  501    0  0.00000000000E+00  0.00000000000E+00  0.21971942846E+04  0.21971942846E+04  0.25500000920E-02 0.  1.
       -2   -1    0    0    0  501  0.00000000000E+00  0.00000000000E+00 -0.18905814423E+04  0.18905814423E+04  0.25500000920E-02 0. -1.
    10030    2    1    2    0    0  0.00000000000E+00  0.00000000000E+00  0.30661284221E+03  0.40877757269E+04  0.40762604135E+04 0.  0.
        4    1    3    3  502    0  0.12873898489E+04 -0.55504062891E+03  0.16368538369E+04  0.21551646849E+04  0.12699999809E+01 0.  1.
       -4    1    3    3    0  502 -0.12873898489E+04  0.55504062891E+03 -0.13302409947E+04  0.19326110420E+04  0.12699999809E+01 0. -1.
</event>
<event>
 5   0  0.1773903E-07  0.3981236E+04  0.7818609E-02  0.8008343E-01
       -2   -1    0    0    0  501  0.00000000000E+00  0.00000000000E+00  0.22632475964E+04  0.22632475964E+04  0.25500000920E-02 0. -1.
        2   -1    0    0  501    0  0.00000000000E+00  0.00000000000E+00 -0.17508290191E+04  0.17508290191E+04  0.25500000920E-02 0.  1.
    10030    2    1    2    0    0  0.00000000000E+00  0.00000000000E+00  0.51241857729E+03  0.40140766155E+04  0.39812357725E+04 0.  0.
        3    1    3    3  502    0 -0.95901060432E+02  0.19873077128E+04  0.31974177458E+03  0.20151485730E+04  0.10100000352E+00 0.  1.
       -3    1    3    3    0  502  0.95901060432E+02 -0.19873077128E+04  0.19267680272E+03  0.19989280425E+04  0.10100000352E+00 0. -1.
</event>
<event>
 5   0  0.1785559E-07  0.3971384E+04  0.7818609E-02  0.8010344E-01
       -2   -1    0    0    0  501  0.00000000000E+00  0.00000000000E+00  0.13984887552E+04  0.13984887552E+04  0.25500000920E-02 0.  1.
        2   -1    0    0  501    0  0.00000000000E+00  0.00000000000E+00 -0.28194520105E+04  0.28194520105E+04  0.25500000920E-02 0. -1.
    10030    2    1    2    0    0  0.00000000000E+00  0.00000000000E+00 -0.14209632552E+04  0.42179407657E+04  0.39713836040E+04 0.  0.
        2    1    3    3  502    0 -0.53283957364E+03  0.18005289512E+04 -0.13964505785E+04  0.23400634037E+04  0.25500000920E-02 0. -1.
       -2    1    3    3    0  502  0.53283957364E+03 -0.18005289512E+04 -0.24512676701E+02  0.18778773619E+04  0.25500000920E-02 0.  1.
</event>
<event>
 5   0  0.1785559E-07  0.4014390E+04  0.7818609E-02  0.8001650E-01
       -2   -1    0    0    0  501  0.00000000000E+00  0.00000000000E+00  0.28609538108E+04  0.28609538108E+04  0.25500000920E-02 0.  1.
        2   -1    0    0  501    0  0.00000000000E+00  0.00000000000E+00 -0.14082131203E+04  0.14082131204E+04  0.25500000920E-02 0. -1.
    10030    2    1    2    0    0  0.00000000000E+00  0.00000000000E+00  0.14527406904E+04  0.42691669311E+04  0.40143904609E+04 0.  0.
        2    1    3    3  502    0  0.12349911841E+04  0.72756015395E+03  0.22206384402E+04  0.26430630118E+04  0.25500000920E-02 0.  1.
       -2    1    3    3    0  502 -0.12349911841E+04 -0.72756015395E+03 -0.76789774975E+03  0.16261039193E+04  0.25500000920E-02 0. -1.
</event>
<event>
 5   0  0.1776653E-07  0.3240423E+04  0.7818609E-02  0.8178222E-01
        2   -1    0    0  501    0  0.00000000000E+00  0.00000000000E+00  0.16027146638E+04  0.16027146638E+04  0.25500000920E-02 0. -1.
       -2   -1    0    0    0  501  0.00000000000E+00  0.00000000000E+00 -0.16378990778E+04  0.16378990778E+04  0.25500000920E-02 0.  1.
    10030    2    1    2    0    0  0.00000000000E+00  0.00000000000E+00 -0.35184413978E+02  0.32406137415E+04  0.32404227315E+04 0.  0.
        4    1    3    3  502    0  0.35726605591E+03  0.12675101874E+04  0.92631836907E+03  0.16100585218E+04  0.12699999809E+01 0. -1.
       -4    1    3    3    0  502 -0.35726605591E+03 -0.12675101874E+04 -0.96150278305E+03  0.16305552197E+04  0.12699999809E+01 0.  1.
</event>
<event>
 5   0  0.1821433E-07  0.3982370E+04  0.7818609E-02  0.8008113E-01
        2   -1    0    0  501    0  0.00000000000E+00  0.00000000000E+00  0.19760799676E+04  0.19760799676E+04  0.25500000920E-02 0. -1.
       -2   -1    0    0    0  501  0.00000000000E+00  0.00000000000E+00 -0.20064052864E+04  0.20064052864E+04  0.25500000920E-02 0.  1.
    10030    2    1    2    0    0  0.00000000000E+00  0.00000000000E+00 -0.30325318874E+02  0.39824852540E+04  0.39823697937E+04 0.  0.
        5    1    3    3  502    0 -0.78397390572E+03  0.52120329993E+03  0.17394614462E+04  0.19778817400E+04  0.46999998093E+01 0. -1.
       -5    1    3    3    0  502  0.78397390572E+03 -0.52120329993E+03 -0.17697867650E+04  0.20046035140E+04  0.46999998093E+01 0.  1.
</event>
<event>
 5   0  0.1821433E-07  0.3951313E+04  0.7818609E-02  0.8014441E-01
       -2   -1    0    0    0  501  0.00000000000E+00  0.00000000000E+00  0.16850199714E+04  0.16850199714E+04  0.25500000920E-02 0.  1.
        2   -1    0    0  501    0  0.00000000000E+00  0.00000000000E+00 -0.23164222216E+04  0.23164222216E+04  0.25500000920E-02 0. -1.
    10030    2    1    2    0    0  0.00000000000E+00  0.00000000000E+00 -0.63140225018E+03  0.40014421931E+04  0.39513125443E+04 0.  0.
        5    1    3    3  502    0  0.13129547623E+04 -0.12502220282E+04  0.47930015131E+03  0.18752749272E+04  0.46999998093E+01 0.  1.
       -5    1    3    3    0  502 -0.13129547623E+04  0.12502220282E+04 -0.11107024015E+04  0.21261672658E+04  0.46999998093E+01 0. -1.
</event>
<event>
 5   0  0.1773903E-07  0.4101637E+04  0.7818609E-02  0.7984351E-01
       -2   -1    0    0    0  501  0.00000000000E+00  0.00000000000E+00  0.19122512762E+04  0.19122512762E+04  0.25500000920E-02 0.  1.
        2   -1    0    0  501    0  0.00000000000E+00  0.00000000000E+00 -0.21994271311E+04  0.21994271311E+04  0.25500000920E-02 0. -1.
    10030    2    1    2    0    0  0.00000000000E+00  0.00000000000E+00 -0.28717585484E+03  0.41116784073E+04  0.41016373990E+04 0.  0.
        3    1    3    3  502    0  0.12974556441E+04 -0.10460522384E+04 -0.13416038956E+04  0.21395133692E+04  0.10100000352E+00 0. -1.
       -3    1    3    3    0  502 -0.12974556441E+04  0.10460522384E+04  0.10544280408E+04  0.19721650381E+04  0.10100000352E+00 0.  1.
</event>
<event>
 5   0  0.5515000E-08  0.3958085E+04  0.7818609E-02  0.8013056E-01
        1   -1    0    0  501    0  0.00000000000E+00  0.00000000000E+00  0.30271804782E+04  0.30271804782E+04  0.50400001928E-02 0.  1.
       -1   -1    0    0    0  501  0.00000000000E+00  0.00000000000E+00 -0.12938139721E+04  0.12938139721E+04  0.50400001928E-02 0. -1.
    10030    2    1    2    0    0  0.00000000000E+00  0.00000000000E+00  0.17333665061E+04  0.43209944502E+04  0.39580845866E+04 0.  0.
        1    1    3    3  502    0 -0.17774124183E+04 -0.78852140516E+02  0.18128664315E+04  0.25400585157E+04  0.50400001928E-02 0.  1.
       -1    1    3    3    0  502  0.17774124183E+04  0.78852140516E+02 -0.79499925382E+02  0.17809359345E+04  0.50400001928E-02 0. -1.
</event>
<event>
 5   0  0.5515000E-08  0.3691734E+04  0.7818609E-02  0.8069796E-01
       -1   -1    0    0    0  501  0.00000000000E+00  0.00000000000E+00  0.17731510874E+04  0.17731510875E+04  0.50400001928E-02 0.  1.
        1   -1    0    0  501    0  0.00000000000E+00  0.00000000000E+00 -0.19215645959E+04  0.19215645959E+04  0.50400001928E-02 0. -1.
    10030    2    1    2    0    0  0.00000000000E+00  0.00000000000E+00 -0.14841350849E+03  0.36947156834E+04  0.36917336594E+04 0.  0.
        1    1    3    3  502    0 -0.85664368097E+03  0.30075238781E+03  0.15342423154E+04  0.17827478446E+04  0.50400001928E-02 0.  1.
       -1    1    3    3    0  502  0.85664368097E+03 -0.30075238781E+03 -0.16826558239E+04  0.19119678388E+04  0.50400001928E-02 0. -1.
</event>
<event>
 5   0  0.1785559E-07  0.3543374E+04  0.7818609E-02  0.8103587E-01
        2   -1    0    0  501    0  0.00000000000E+00  0.00000000000E+00  0.17098152189E+04  0.17098152189E+04  0.25500000920E-02 0. -1.
       -2   -1    0    0    0  501  0.00000000000E+00  0.00000000000E+00 -0.18357981491E+04  0.18357981491E+04  0.25500000920E-02 0.  1.
    10030    2    1    2    0    0  0.00000000000E+00  0.00000000000E+00 -0.12598293025E+03  0.35456133680E+04  0.35433744449E+04 0.  0.
        2    1    3    3  502    0  0.83784604452E+03  0.15607956534E+04 -0.91409201829E+02  0.17738164246E+04  0.25500000920E-02 0. -1.
       -2    1    3    3    0  502 -0.83784604452E+03 -0.15607956534E+04 -0.34573728422E+02  0.17717969434E+04  0.25500000920E-02 0.  1.
</event>
<event>
 5   0  0.1776653E-07  0.3925533E+04  0.7818609E-02  0.8019740E-01
        2   -1    0    0  501    0  0.00000000000E+00  0.00000000000E+00  0.26399054422E+04  0.26399054422E+04  0.25500000920E-02 0. -1.
       -2   -1    0    0    0  501  0.00000000000E+00  0.00000000000E+00 -0.14593143562E+04  0.14593143562E+04  0.25500000920E-02 0.  1.
    10030    2    1    2    0    0  0.00000000000E+00  0.00000000000E+00  0.11805910860E+04  0.40992197984E+04  0.39255327846E+04 0.  0.
        4    1    3    3  502    0  0.28173484429E+02 -0.19515035146E+04  0.80756532264E+03  0.21121844323E+04  0.12699999809E+01 0. -1.
       -4    1    3    3    0  502 -0.28173484429E+02  0.19515035146E+04  0.37302576335E+03  0.19870353661E+04  0.12699999809E+01 0.  1.
</event>
<event>
 5   0  0.5515000E-08  0.4009682E+04  0.7818609E-02  0.8002596E-01
        1   -1    0    0  501    0  0.00000000000E+00  0.00000000000E+00  0.25072439715E+04  0.25072439716E+04  0.50400001928E-02 0.  1.
       -1   -1    0    0    0  501  0.00000000000E+00  0.00000000000E+00 -0.16031096821E+04  0.16031096821E+04  0.50400001928E-02 0. -1.
    10030    2    1    2    0    0  0.00000000000E+00  0.00000000000E+00  0.90413428944E+03  0.41103536537E+04  0.40096818259E+04 0.  0.
        5    1    3    3  502    0  0.55541141180E+03 -0.11808353863E+04  0.20122893578E+04  0.23983712380E+04  0.46999998093E+01 0.  1.
       -5    1    3    3    0  502 -0.55541141180E+03  0.11808353863E+04 -0.11081550684E+04  0.17119824156E+04  0.46999998093E+01 0. -1.
</event>
<event>
 5   0  0.1819906E-07  0.3971491E+04  0.7818609E-02  0.8010323E-01
       -2   -1    0    0    0  501  0.00000000000E+00  0.00000000000E+00  0.15760518875E+04  0.15760518875E+04  0.25500000920E-02 0.  1.
        2   -1    0    0  501    0  0.00000000000E+00  0.00000000000E+00 -0.25019385008E+04  0.25019385008E+04  0.25500000920E-02 0. -1.
    10030    2    1    2    0    0  0.00000000000E+00  0.00000000000E+00 -0.92588661327E+03  0.40779903883E+04  0.39714908519E+04 0.  0.
        1    1    3    3  502    0  0.61360188703E+03 -0.18205650924E+04  0.52739564809E+02  0.19219120669E+04  0.50400001928E-02 0. -1.
       -1    1    3    3    0  502 -0.61360188703E+03  0.18205650924E+04 -0.97862617808E+03  0.21560783213E+04  0.50400001928E-02 0.  1.
</event>
<event>
 5   0  0.5515000E-08  0.3677458E+04  0.7818609E-02  0.8072976E-01
       -1   -1    0    0    0  501  0.00000000000E+00  0.00000000000E+00  0.17383850024E+04  0.17383850024E+04  0.50400001928E-02 0. -1.
        1   -1    0    0  501    0  0.00000000000E+00  0.00000000000E+00 -0.19448646853E+04  0.19448646853E+04  0.50400001928E-02 0.  1.
    10030    2    1    2    0    0  0.00000000000E+00  0.00000000000E+00 -0.20647968291E+03  0.36832496877E+04  0.36774576004E+04 0.  0.
        5    1    3    3  502    0 -0.10294618902E+03 -0.66605695425E+03 -0.18166861197E+04  0.19376791096E+04  0.46999998093E+01 0.  1.
       -5    1    3    3    0  502  0.10294618902E+03  0.66605695425E+03  0.16102064368E+04  0.17455705781E+04  0.46999998093E+01 0. -1.
</event>
<event>
 5   0  0.5515000E-08  0.4019710E+04  0.7818609E-02  0.8000582E-01
       -1   -1    0    0    0  501  0.00000000000E+00  0.00000000000E+00  0.27435775866E+04  0.27435775866E+04  0.50400001928E-02 0. -1.
        1   -1    0    0  501    0  0.00000000000E+00  0.00000000000E+00 -0.14723535962E+04  0.14723535962E+04  0.50400001928E-02 0.  1.
    10030    2    1    2    0    0  0.00000000000E+00  0.00000000000E+00  0.12712239904E+04  0.42159311828E+04  0.40197096045E+04 0.  0.
        4    1    3    3  502    0 -0.55209075769E+01 -0.13293238955E+04  0.22166398605E+04  0.25846907714E+04  0.12699999809E+01 0. -1.
       -4    1    3    3    0  502  0.55209075769E+01  0.13293238955E+04 -0.94541587014E+03  0.16312404114E+04  0.12699999809E+01 0.  1.
</event>
<event>
 5   0  0.5515000E-08  0.3949070E+04  0.7818609E-02  0.8014900E-01
        1   -1    0    0  501    0  0.00000000000E+00  0.00000000000E+00  0.11255862413E+04  0.11255862414E+04  0.50400001928E-02 0.  1.
       -1   -1    0    0    0  501  0.00000000000E+00  0.00000000000E+00 -0.34637853737E+04  0.34637853737E+04  0.50400001928E-02 0. -1.
    10030    2    1    2    0    0  0.00000000000E+00  0.00000000000E+00 -0.23381991324E+04  0.45893716151E+04  0.39490703512E+04 0.  0.
        1    1    3    3  502    0 -0.18151427560E+04  0.54862819463E+03 -0.52933869202E+03  0.19687395895E+04  0.50400001928E-02 0.  1.
       -1    1    3    3    0  502  0.18151427560E+04 -0.54862819463E+03 -0.18088604404E+04  0.26206320255E+04  0.50400001928E-02 0. -1.
</event>
<event>
 5   0  0.5515000E-08  0.4043366E+04  0.7818609E-02  0.7995855E-01
        1   -1    0    0  501    0  0.00000000000E+00  0.00000000000E+00  0.20545618612E+04  0.20545618612E+04  0.50400001928E-02 0. -1.
       -1   -1    0    0    0  501  0.00000000000E+00  0.00000000000E+00 -0.19893302918E+04  0.19893302918E+04  0.50400001928E-02 0.  1.
    10030    2    1    2    0    0  0.00000000000E+00  0.00000000000E+00  0.65231569387E+02  0.40438921529E+04  0.40433659972E+04 0.  0.
        1    1    3    3  502    0 -0.11528381193E+04  0.54068672358E+03 -0.15378828853E+04  0.19966125391E+04  0.50400001928E-02 0.  1.
       -1    1    3    3    0  502  0.11528381193E+04 -0.54068672358E+03  0.16031144547E+04  0.20472796138E+04  0.50400001928E-02 0. -1.
</event>
<event>
 5   0  0.5515000E-08  0.3961230E+04  0.7818609E-02  0.8012414E-01
        1   -1    0    0  501    0  0.00000000000E+00  0.00000000000E+00  0.23360927296E+04  0.23360927296E+04  0.50400001928E-02 0.  1.
       -1   -1    0    0    0  501  0.00000000000E+00  0.00000000000E+00 -0.16792297466E+04  0.16792297466E+04  0.50400001928E-02 0. -1.
    10030    2    1    2    0    0  0.00000000000E+00  0.00000000000E+00  0.65686298304E+03  0.40153224762E+04  0.39612303151E+04 0.  0.
        3    1    3    3  502    0 -0.67227900679E+03 -0.82964375552E+02 -0.15581645396E+04  0.16990346946E+04  0.10100000352E+00 0. -1.
       -3    1    3    3    0  502  0.67227900679E+03  0.82964375552E+02  0.22150275227E+04  0.23162877816E+04  0.10100000352E+00 0.  1.
</event>
<event>
 5   0  0.5515000E-08  0.4020725E+04  0.7818609E-02  0.8000379E-01
        1   -1    0    0  501    0  0.00000000000E+00  0.00000000000E+00  0.15143242064E+04  0.15143242065E+04  0.50400001928E-02 0. -1.
       -1   -1    0    0    0  501  0.00000000000E+00  0.00000000000E+00 -0.26688854233E+04  0.26688854233E+04  0.50400001928E-02 0.  1.
    10030    2    1    2    0    0  0.00000000000E+00  0.00000000000E+00 -0.11545612168E+04  0.41832096297E+04  0.40207252086E+04 0.  0.
        2    1    3    3  502    0  0.76767216245E+03  0.30256124766E+03  0.13300225036E+04  0.15651912720E+04  0.25500000920E-02 0. -1.
       -2    1    3    3    0  502 -0.76767216245E+03 -0.30256124766E+03 -0.24845837205E+04  0.26180183578E+04  0.25500000920E-02 0.  1.
</event>
<event>
 5   0  0.5515000E-08  0.4011799E+04  0.7818609E-02  0.8002171E-01
       -1   -1    0    0    0  501  0.00000000000E+00  0.00000000000E+00  0.18090448711E+04  0.18090448711E+04  0.50400001928E-02 0. -1.
        1   -1    0    0  501    0  0.00000000000E+00  0.00000000000E+00 -0.22241749057E+04  0.22241749057E+04  0.50400001928E-02 0.  1.
    10030    2    1    2    0    0  0.00000000000E+00  0.00000000000E+00 -0.41513003461E+03  0.40332197768E+04  0.40117987016E+04 0.  0.
        5    1    3    3  502    0 -0.11166795521E+04 -0.16371310422E+04 -0.51976922567E+03  0.20487443494E+04  0.46999998093E+01 0.  1.
       -5    1    3    3    0  502  0.11166795521E+04  0.16371310422E+04  0.10463919106E+03  0.19844754273E+04  0.46999998093E+01 0. -1.
</event>
<event>
 5   0  0.1773903E-07  0.3813777E+04  0.7818609E-02  0.8043205E-01
       -2   -1    0    0    0  501  0.00000000000E+00  0.00000000000E+00  0.14142426440E+04  0.14142426440E+04  0.25500000920E-02 0. -1.
        2   -1    0    0  501    0  0.00000000000E+00  0.00000000000E+00 -0.25711459001E+04  0.25711459001E+04  0.25500000920E-02 0.  1.
    10030    2    1    2    0    0  0.00000000000E+00  0.00000000000E+00 -0.11569032561E+04  0.39853885441E+04  0.38137772226E+04 0.  0.
        3    1    3    3  502    0  0.51302903536E+03 -0.14509995425E+04  0.59809966531E+03  0.16511576798E+04  0.10100000352E+00 0. -1.
       -3    1    3    3    0  502 -0.51302903536E+03  0.14509995425E+04 -0.17550029214E+04  0.23342308643E+04  0.10100000352E+00 0.  1.
</event>
<event>
 5   0  0.5515000E-08  0.4033442E+04  0.7818609E-02  0.7997834E-01
        1   -1    0    0  501    0  0.00000000000E+00  0.00000000000E+00  0.26891252299E+04  0.26891252299E+04  0.50400001928E-02 0.  1.
       -1   -1    0    0    0  501  0.00000000000E+00  0.00000000000E+00 -0.15124484906E+04  0.15124484906E+04  0.50400001928E-02 0. -1.
    10030    2    1    2    0    0  0.00000000000E+00  0.00000000000E+00  0.11766767393E+04  0.42015737205E+04  0.40334419024E+04 0.  0.
        3    1    3    3  502    0  0.39706944834E+03 -0.61280142403E+03  0.25465870203E+04  0.26492065216E+04  0.10100000352E+00 0.  1.
       -3    1    3    3    0  502 -0.39706944834E+03  0.61280142403E+03 -0.13699102810E+04  0.15523671989E+04  0.10100000352E+00 0. -1.
</event>
<event>
 5   0  0.5515000E-08  0.3930713E+04  0.7818609E-02  0.8018672E-01
       -1   -1    0    0    0  501  0.00000000000E+00  0.00000000000E+00  0.13113321146E+04  0.13113321147E+04  0.50400001928E-02 0.  1.
        1   -1    0    0  501    0  0.00000000000E+00  0.00000000000E+00 -0.29455742807E+04  0.29455742807E+04  0.50400001928E-02 0. -1.
    10030    2    1    2    0    0  0.00000000000E+00  0.00000000000E+00 -0.16342421660E+04  0.42569063953E+04  0.39307129889E+04 0.  0.
        2    1    3    3  502    0  0.14614251272E+04 -0.13130647482E+04 -0.76060089472E+03  0.21067548876E+04  0.25500000920E-02 0.  1.
       -2    1    3    3    0  502 -0.14614251272E+04  0.13130647482E+04 -0.87364127130E+03  0.21501515077E+04  0.25500000920E-02 0. -1.
</event>
<event>
 5   0  0.1821433E-07  0.3845503E+04  0.7818609E-02  0.8036460E-01
        2   -1    0    0  501    0  0.00000000000E+00  0.00000000000E+00  0.25989284366E+04  0.25989284366E+04  0.25500000920E-02 0.  1.
       -2   -1    0    0    0  501  0.00000000000E+00  0.00000000000E+00 -0.14224993295E+04  0.14224993295E+04  0.25500000920E-02 0. -1.
    10030    2    1    2    0    0  0.00000000000E+00  0.00000000000E+00  0.11764291070E+04  0.40214277661E+04  0.38455033265E+04 0.  0.
        5    1    3    3  502    0  0.11879897411E+04 -0.12281165966E+04 -0.33380195630E+03  0.17409870292E+04  0.46999998093E+01 0. -1.
       -5    1    3    3    0  502 -0.11879897411E+04  0.12281165966E+04  0.15102310633E+04  0.22804407369E+04  0.46999998093E+01 0.  1.
</event>
<event>
 5   0  0.1773903E-07  0.3465462E+04  0.7818609E-02  0.8122024E-01
        2   -1    0    0  501    0  0.00000000000E+00  0.00000000000E+00  0.17512006328E+04  0.17512006328E+04  0.25500000920E-02 0. -1.
       -2   -1    0    0    0  501  0.00000000000E+00  0.00000000000E+00 -0.17144559109E+04  0.17144559109E+04  0.25500000920E-02 0.  1.
    10030    2    1    2    0    0  0.00000000000E+00  0.00000000000E+00  0.36744721836E+02  0.34656565437E+04  0.34654617448E+04 0.  0.
        3    1    3    3  502    0  0.15931800722E+04 -0.54384303648E+03  0.42872246032E+03  0.17371790204E+04  0.10100000352E+00 0. -1.
       -3    1    3    3    0  502 -0.15931800722E+04  0.54384303648E+03 -0.39197773849E+03  0.17284775233E+04  0.10100000352E+00 0.  1.
</event>
<event>
 5   0  0.5515000E-08  0.4011656E+04  0.7818609E-02  0.8002199E-01
        1   -1    0    0  501    0  0.00000000000E+00  0.00000000000E+00  0.14262252380E+04  0.14262252380E+04  0.50400001928E-02 0.  1.
       -1   -1    0    0    0  501  0.00000000000E+00  0.00000000000E+00 -0.28209756725E+04  0.28209756725E+04  0.50400001928E-02 0. -1.
    10030    2    1    2    0    0  0.00000000000E+00  0.00000000000E+00 -0.13947504345E+04  0.42472009105E+04  0.40116563661E+04 0.  0.
        1    1    3    3  502    0 -0.59491786026E+03 -0.18042991890E+04 -0.16230614433E+02  0.18999174342E+04  0.50400001928E-02 0.  1.
       -1    1    3    3    0  502  0.59491786026E+03  0.18042991890E+04 -0.13785198201E+04  0.23472834763E+04  0.50400001928E-02 0. -1.
</event>
<event>
 5   0  0.1776653E-07  0.3988753E+04  0.7818609E-02  0.8006819E-01
        2   -1    0    0  501    0  0.00000000000E+00  0.00000000000E+00  0.17127010012E+04  0.17127010012E+04  0.25500000920E-02 0.  1.
       -2   -1    0    0    0  501  0.00000000000E+00  0.00000000000E+00 -0.23223774299E+04  0.23223774299E+04  0.25500000920E-02 0. -1.
    10030    2    1    2    0    0  0.00000000000E+00  0.00000000000E+00 -0.60967642869E+03  0.40350784311E+04  0.39887532636E+04 0.  0.
        4    1    3    3  502    0 -0.17023695582E+04  0.20594317585E+03  0.72535131990E+03  0.18618836845E+04  0.12699999809E+01 0.  1.
       -4    1    3    3    0  502  0.17023695582E+04 -0.20594317585E+03 -0.13350277486E+04  0.21731947466E+04  0.12699999809E+01 0. -1.
</event>
<event>
 5   0  0.1819906E-07  0.4001960E+04  0.7818609E-02  0.8004151E-01
       -2   -1    0    0    0  501  0.00000000000E+00  0.00000000000E+00  0.17681813586E+04  0.17681813586E+04  0.25500000920E-02 0.  1.
        2   -1    0    0  501    0  0.00000000000E+00  0.00000000000E+00 -0.22644288431E+04  0.22644288431E+04  0.25500000920E-02 0. -1.
    10030    2    1    2    0    0  0.00000000000E+00  0.00000000000E+00 -0.49624748454E+03  0.40326102017E+04  0.40019599539E+04 0.  0.
        1    1    3    3  502    0 -0.67254282385E+03  0.72598409118E-01  0.16508806026E+04  0.17826162288E+04  0.50400001928E-02 0.  1.
       -1    1    3    3    0  502  0.67254282385E+03 -0.72598409118E-01 -0.21471280872E+04  0.22499939729E+04  0.50400001928E-02 0. -1.
</event>
<event>
 5   0  0.1773903E-07  0.3953262E+04  0.7818609E-02  0.8014042E-01
        2   -1    0    0  501    0  0.00000000000E+00  0.00000000000E+00  0.13235012957E+04  0.13235012957E+04  0.25500000920E-02 0. -1.
       -2   -1    0    0    0  501  0.00000000000E+00  0.00000000000E+00 -0.29520706655E+04  0.29520706655E+04  0.25500000920E-02 0.  1.
    10030    2    1    2    0    0  0.00000000000E+00  0.00000000000E+00 -0.16285693698E+04  0.42755719611E+04  0.39532616158E+04 0.  0.
        3    1    3    3  502    0 -0.12981278404E+04  0.14635868689E+04 -0.50867453748E+03  0.20213787888E+04  0.10100000352E+00 0. -1.
       -3    1    3    3    0  502  0.12981278404E+04 -0.14635868689E+04 -0.11198948323E+04  0.22541931723E+04  0.10100000352E+00 0.  1.
</event>
<event>
 5   0  0.5515000E-08  0.3994960E+04  0.7818609E-02  0.8005564E-01
       -3   -1    0    0    0  501  0.00000000000E+00  0.00000000000E+00  0.17395992220E+04  0.17395992249E+04  0.10100000352E+00 0.  1.
        3   -1    0    0  501    0  0.00000000000E+00  0.00000000000E+00 -0.22935895733E+04  0.22935895755E+04  0.10100000352E+00 0. -1.
    10030    2    1    2    0    0  0.00000000000E+00  0.00000000000E+00 -0.55399035134E+03  0.40331888004E+04  0.39949601488E+04 0.  0.
        3    1    3    3  502    0  0.17484254165E+04  0.95001347483E+03 -0.10094298259E+03  0.19924122403E+04  0.10100000352E+00 0. -1.
       -3    1    3    3    0  502 -0.17484254165E+04 -0.95001347483E+03 -0.45304736875E+03  0.20407765601E+04  0.10100000352E+00 0.  1.
</event>
<event>
 5   0  0.5515000E-08  0.3933794E+04  0.7818609E-02  0.8018037E-01
        1   -1    0    0  501    0  0.00000000000E+00  0.00000000000E+00  0.11116527733E+04  0.11116527734E+04  0.50400001928E-02 0. -1.
       -1   -1    0    0    0  501  0.00000000000E+00  0.00000000000E+00 -0.34801184809E+04  0.34801184809E+04  0.50400001928E-02 0.  1.
    10030    2    1    2    0    0  0.00000000000E+00  0.00000000000E+00 -0.23684657075E+04  0.45917712542E+04  0.39337937724E+04 0.  0.
        2    1    3    3  502    0  0.17797904646E+03  0.22364487790E+03 -0.34557484524E+04  0.34675482605E+04  0.25500000920E-02 0.  1.
       -2    1    3    3    0  502 -0.17797904646E+03 -0.22364487790E+03  0.10872827449E+04  0.11242229938E+04  0.25500000920E-02 0. -1.
</event>
<event>
 5   0  0.5515000E-08  0.3954633E+04  0.7818609E-02  0.8013762E-01
        1   -1    0    0  501    0  0.00000000000E+00  0.00000000000E+00  0.22589782393E+04  0.22589782393E+04  0.50400001928E-02 0.  1.
       -1   -1    0    0    0  501  0.00000000000E+00  0.00000000000E+00 -0.17307735183E+04  0.17307735183E+04  0.50400001928E-02 0. -1.
    10030    2    1    2    0    0  0.00000000000E+00  0.00000000000E+00  0.52820472102E+03  0.39897517576E+04  0.39546325822E+04 0.  0.
        3    1    3    3  502    0 -0.56056957882E+03 -0.10503683704E+03  0.21741955445E+04  0.22477538268E+04  0.10100000352E+00 0.  1.
       -3    1    3    3    0  502  0.56056957882E+03  0.10503683704E+03 -0.16459908235E+04  0.17419979308E+04  0.10100000352E+00 0. -1.
</event>
<event>
 5   0  0.1785559E-07  0.3898741E+04  0.7818609E-02  0.8025291E-01
       -2   -1    0    0    0  501  0.00000000000E+00  0.00000000000E+00  0.26972366903E+04  0.26972366903E+04  0.25500000920E-02 0.  1.
        2   -1    0    0  501    0  0.00000000000E+00  0.00000000000E+00 -0.14088661107E+04  0.14088661107E+04  0.25500000920E-02 0. -1.
    10030    2    1    2    0    0  0.00000000000E+00  0.00000000000E+00  0.12883705796E+04  0.41061028010E+04  0.38987410099E+04 0.  0.
        2    1    3    3  502    0  0.13655960443E+04  0.12844470874E+03 -0.81465711062E+03  0.15953108811E+04  0.25500000920E-02 0. -1.
       -2    1    3    3    0  502 -0.13655960443E+04 -0.12844470874E+03  0.21030276903E+04  0.25107919200E+04  0.25500000920E-02 0.  1.
</event>
<event>
 5   0  0.1776653E-07  0.3994820E+04  0.7818609E-02  0.8005592E-01
       -2   -1    0    0    0  501  0.00000000000E+00  0.00000000000E+00  0.20791936409E+04  0.20791936409E+04  0.25500000920E-02 0. -1.
        2   -1    0    0  501    0  0.00000000000E+00  0.00000000000E+00 -0.19188429209E+04  0.19188429209E+04  0.25500000920E-02 0.  1.
    10030    2    1    2    0    0  0.00000000000E+00  0.00000000000E+00  0.16035071994E+03  0.39980365618E+04  0.39948196450E+04 0.  0.
        4    1    3    3  502    0  0.14391065532E+04  0.33710014804E+03 -0.12644020368E+04  0.19450908217E+04  0.12699999809E+01 0.  1.
       -4    1    3    3    0  502 -0.14391065532E+04 -0.33710014804E+03  0.14247527567E+04  0.20529457401E+04  0.12699999809E+01 0. -1.
</event>
<event>
 5   0  0.5515000E-08  0.3988349E+04  0.7818609E-02  0.8006901E-01
        1   -1    0    0  501    0  0.00000000000E+00  0.00000000000E+00  0.25779232486E+04  0.25779232486E+04  0.50400001928E-02 0. -1.
       -1   -1    0    0    0  501  0.00000000000E+00  0.00000000000E+00 -0.15426110443E+04  0.15426110443E+04  0.50400001928E-02 0.  1.
    10030    2    1    2    0    0  0.00000000000E+00  0.00000000000E+00  0.10353122043E+04  0.41205342929E+04  0.39883494705E+04 0.  0.
        2    1    3    3  502    0  0.70173557879E+02 -0.75910452264E+02 -0.15398408909E+04  0.15433070641E+04  0.25500000920E-02 0.  1.
       -2    1    3    3    0  502 -0.70173557879E+02  0.75910452264E+02  0.25751530952E+04  0.25772272288E+04  0.25500000920E-02 0. -1.
</event>
<event>
 5   0  0.5515000E-08  0.3933479E+04  0.7818609E-02  0.8018102E-01
        1   -1    0    0  501    0  0.00000000000E+00  0.00000000000E+00  0.11636702858E+04  0.11636702858E+04  0.50400001928E-02 0.  1.
       -1   -1    0    0    0  501  0.00000000000E+00  0.00000000000E+00 -0.33240214276E+04  0.33240214276E+04  0.50400001928E-02 0. -1.
    10030    2    1    2    0    0  0.00000000000E+00  0.00000000000E+00 -0.21603511418E+04  0.44876917135E+04  0.39334793579E+04 0.  0.
        5    1    3    3  502    0 -0.57922716262E+02 -0.43384137383E+03  0.11073927373E+04  0.11907620011E+04  0.46999998093E+01 0.  1.
       -5    1    3    3    0  502  0.57922716262E+02  0.43384137383E+03 -0.32677438791E+04  0.32969297123E+04  0.46999998093E+01 0. -1.
</event>
<event>
 5   0  0.5515000E-08  0.3974747E+04  0.7818609E-02  0.8009660E-01
       -1   -1    0    0    0  501  0.00000000000E+00  0.00000000000E+00  0.13284902185E+04  0.13284902185E+04  0.50400001928E-02 0.  1.
        1   -1    0    0  501    0  0.00000000000E+00  0.00000000000E+00 -0.29730398475E+04  0.29730398475E+04  0.50400001928E-02 0. -1.
    10030    2    1    2    0    0  0.00000000000E+00  0.00000000000E+00 -0.16445496290E+04  0.43015300660E+04  0.39747474670E+04 0.  0.
        2    1    3    3  502    0 -0.98151695253E+03  0.55292247583E+02 -0.26914765633E+04  0.28653933154E+04  0.25500000920E-02 0. -1.
       -2    1    3    3    0  502  0.98151695253E+03 -0.55292247583E+02  0.10469269343E+04  0.14361367506E+04  0.25500000920E-02 0.  1.
</event>
<event>
 5   0  0.1785559E-07  0.3997987E+04  0.7818609E-02  0.8004953E-01
        2   -1    0    0  501    0  0.00000000000E+00  0.00000000000E+00  0.17979993130E+04  0.17979993130E+04  0.25500000920E-02 0. -1.
       -2   -1    0    0    0  501  0.00000000000E+00  0.00000000000E+00 -0.22224561508E+04  0.22224561508E+04  0.25500000920E-02 0.  1.
    10030    2    1    2    0    0  0.00000000000E+00  0.00000000000E+00 -0.42445683776E+03  0.40204554638E+04  0.39979868096E+04 0.  0.
        2    1    3    3  502    0 -0.18787226312E+02 -0.19976427939E+04 -0.14080149965E+03  0.20026868837E+04  0.25500000920E-02 0. -1.
       -2    1    3    3    0  502  0.18787226312E+02  0.19976427939E+04 -0.28365533811E+03  0.20177685801E+04  0.25500000920E-02 0.  1.
</event>
<event>
 5   0  0.1773903E-07  0.4017966E+04  0.7818609E-02  0.8000932E-01
       -2   -1    0    0    0  501  0.00000000000E+00  0.00000000000E+00  0.23720341703E+04  0.23720341703E+04  0.25500000920E-02 0.  1.
        2   -1    0    0  501    0  0.00000000000E+00  0.00000000000E+00 -0.17014985249E+04  0.17014985249E+04  0.25500000920E-02 0. -1.
    10030    2    1    2    0    0  0.00000000000E+00  0.00000000000E+00  0.67053564539E+03  0.40735326953E+04  0.40179659739E+04 0.  0.
        3    1    3    3  502    0 -0.11065278235E+04 -0.10066044413E+04 -0.10243060903E+04  0.18129697467E+04  0.10100000352E+00 0. -1.
       -3    1    3    3    0  502  0.11065278235E+04  0.10066044413E+04  0.16948417357E+04  0.22605629486E+04  0.10100000352E+00 0.  1.
</event>
<event>
 5   0  0.1785559E-07  0.4011856E+04  0.7818609E-02  0.8002159E-01
        2   -1    0    0  501    0  0.00000000000E+00  0.00000000000E+00  0.24678078367E+04  0.24678078367E+04  0.25500000920E-02 0. -1.
       -2   -1    0    0    0  501  0.00000000000E+00  0.00000000000E+00 -0.16304947271E+04  0.16304947271E+04  0.25500000920E-02 0.  1.
    10030    2    1    2    0    0  0.00000000000E+00  0.00000000000E+00  0.83731310953E+03  0.40983025638E+04  0.40118562612E+04 0.  0.
        2    1    3    3  502    0 -0.15072824519E+04  0.50440376072E+03 -0.83140404098E+03  0.17937547834E+04  0.25500000920E-02 0.  1.
       -2    1    3    3    0  502  0.15072824519E+04 -0.50440376072E+03  0.16687171505E+04  0.23045477804E+04  0.25500000920E-02 0. -1.
</event>
<event>
 5   0  0.5515000E-08  0.3959091E+04  0.7818609E-02  0.8012850E-01
       -1   -1    0    0    0  501  0.00000000000E+00  0.00000000000E+00  0.16933191103E+04  0.16933191103E+04  0.50400001928E-02 0.  1.
        1   -1    0    0  501    0  0.00000000000E+00  0.00000000000E+00 -0.23141537651E+04  0.23141537651E+04  0.50400001928E-02 0. -1.
    10030    2    1    2    0    0  0.00000000000E+00  0.00000000000E+00 -0.62083465487E+03  0.40074728754E+04  0.39590912061E+04 0.  0.
        3    1    3    3  502    0  0.44697302247E+03 -0.27660559513E+02 -0.22622057793E+04  0.23061060226E+04  0.10100000352E+00 0. -1.
       -3    1    3    3    0  502 -0.44697302247E+03  0.27660559513E+02  0.16413711245E+04  0.17013668528E+04  0.10100000352E+00 0.  1.
</event>
<event>
 5   0  0.5515000E-08  0.4009784E+04  0.7818609E-02  0.8002576E-01
        1   -1    0    0  501    0  0.00000000000E+00  0.00000000000E+00  0.20357393041E+04  0.20357393041E+04  0.50400001928E-02 0.  1.
       -1   -1    0    0    0  501  0.00000000000E+00  0.00000000000E+00 -0.19745117052E+04  0.19745117053E+04  0.50400001928E-02 0. -1.
    10030    2    1    2    0    0  0.00000000000E+00  0.00000000000E+00  0.61227598845E+02  0.40102510094E+04  0.40097835776E+04 0.  0.
        5    1    3    3  502    0  0.16162069420E+04 -0.11576525561E+04  0.29003693416E+03  0.20090863180E+04  0.46999998093E+01 0.  1.
       -5    1    3    3    0  502 -0.16162069420E+04  0.11576525561E+04 -0.22880933532E+03  0.20011646914E+04  0.46999998093E+01 0. -1.
</event>
<event>
 5   0  0.1821433E-07  0.3900066E+04  0.7818609E-02  0.8025016E-01
       -2   -1    0    0    0  501  0.00000000000E+00  0.00000000000E+00  0.19891930562E+04  0.19891930562E+04  0.25500000920E-02 0. -1.
        2   -1    0    0  501    0  0.00000000000E+00  0.00000000000E+00 -0.19116435960E+04  0.19116435960E+04  0.25500000920E-02 0.  1.
    10030    2    1    2    0    0  0.00000000000E+00  0.00000000000E+00  0.77549460234E+02  0.39008366522E+04  0.39000657261E+04 0.  0.
        5    1    3    3  502    0 -0.14568871467E+04  0.12026437939E+04  0.52233055648E+03  0.19600315185E+04  0.46999998093E+01 0. -1.
       -5    1    3    3    0  502  0.14568871467E+04 -0.12026437939E+04 -0.44478109624E+03  0.19408051337E+04  0.46999998093E+01 0.  1.
</event>
<event>
 5   0  0.5515000E-08  0.4043369E+04  0.7818609E-02  0.7995854E-01
       -1   -1    0    0    0  501  0.00000000000E+00  0.00000000000E+00  0.27885660053E+04  0.27885660053E+04  0.50400001928E-02 0.  1.
        1   -1    0    0  501    0  0.00000000000E+00  0.00000000000E+00 -0.14657025470E+04  0.14657025470E+04  0.50400001928E-02 0. -1.
    10030    2    1    2    0    0  0.00000000000E+00  0.00000000000E+00  0.13228634583E+04  0.42542685522E+04  0.40433690389E+04 0.  0.
        5    1    3    3  502    0 -0.10694075923E+04  0.56511002691E+03 -0.10430028586E+04  0.15971408811E+04  0.46999998093E+01 0. -1.
       -5    1    3    3    0  502  0.10694075923E+04 -0.56511002691E+03  0.23658663169E+04  0.26571276711E+04  0.46999998093E+01 0.  1.
</event>
<event>
 5   0  0.5515000E-08  0.3479453E+04  0.7818609E-02  0.8118677E-01
        1   -1    0    0  501    0  0.00000000000E+00  0.00000000000E+00  0.20285095950E+04  0.20285095951E+04  0.50400001928E-02 0.  1.
       -1   -1    0    0    0  501  0.00000000000E+00  0.00000000000E+00 -0.14920548594E+04  0.14920548594E+04  0.50400001928E-02 0. -1.
    10030    2    1    2    0    0  0.00000000000E+00  0.00000000000E+00  0.53645473563E+03  0.35205644545E+04  0.34794525999E+04 0.  0.
        2    1    3    3  502    0  0.82875066787E+03 -0.53908102631E+02  0.18149866328E+04  0.19959735044E+04  0.25500000920E-02 0.  1.
       -2    1    3    3    0  502 -0.82875066787E+03  0.53908102631E+02 -0.12785318972E+04  0.15245909501E+04  0.25500000920E-02 0. -1.
</event>
<event>
 5   0  0.1821433E-07  0.4114636E+04  0.7818609E-02  0.7981812E-01
        2   -1    0    0  501    0  0.00000000000E+00  0.00000000000E+00  0.25370018419E+04  0.25370018419E+04  0.25500000920E-02 0.  1.
       -2   -1    0    0    0  501  0.00000000000E+00  0.00000000000E+00 -0.16683302541E+04  0.16683302541E+04  0.25500000920E-02 0. -1.
    10030    2    1    2    0    0  0.00000000000E+00  0.00000000000E+00  0.86867158784E+03  0.42053320960E+04  0.41146357931E+04 0.  0.
        5    1    3    3  502    0 -0.73108513409E+03 -0.43535416338E+03 -0.14800551715E+04  0.17072211695E+04  0.46999998093E+01 0. -1.
       -5    1    3    3    0  502  0.73108513409E+03  0.43535416338E+03  0.23487267594E+04  0.24981109265E+04  0.46999998093E+01 0.  1.
</event>
<event>
 5   0  0.5515000E-08  0.4221346E+04  0.7818609E-02  0.7961324E-01
       -1   -1    0    0    0  501  0.00000000000E+00  0.00000000000E+00  0.29609653000E+04  0.29609653000E+04  0.50400001928E-02 0.  1.
        1   -1    0    0  501    0  0.00000000000E+00  0.00000000000E+00 -0.15045570374E+04  0.15045570374E+04  0.50400001928E-02 0. -1.
    10030    2    1    2    0    0  0.00000000000E+00  0.00000000000E+00  0.14564082627E+04  0.44655223374E+04  0.42213463159E+04 0.  0.
        1    1    3    3  502    0  0.91384289535E+03 -0.12695254339E+04  0.22272606527E+04  0.27216711190E+04  0.50400001928E-02 0.  1.
       -1    1    3    3    0  502 -0.91384289535E+03  0.12695254339E+04 -0.77085239004E+03  0.17438512184E+04  0.50400001928E-02 0. -1.
</event>
<event>
 5   0  0.1773903E-07  0.3324093E+04  0.7818609E-02  0.8156792E-01
       -2   -1    0    0    0  501  0.00000000000E+00  0.00000000000E+00  0.15746565487E+04  0.15746565487E+04  0.25500000920E-02 0. -1.
        2   -1    0    0  501    0  0.00000000000E+00  0.00000000000E+00 -0.17542863194E+04  0.17542863194E+04  0.25500000920E-02 0.  1.
    10030    2    1    2    0    0  0.00000000000E+00  0.00000000000E+00 -0.17962977073E+03  0.33289428682E+04  0.33240929236E+04 0.  0.
        3    1    3    3  502    0 -0.11754806422E+04 -0.42515420036E+02  0.10861368934E+04  0.16010170713E+04  0.10100000352E+00 0. -1.
       -3    1    3    3    0  502  0.11754806422E+04  0.42515420036E+02 -0.12657666641E+04  0.17279257969E+04  0.10100000352E+00 0.  1.
</event>
<event>
 5   0  0.1819906E-07  0.3960800E+04  0.7818609E-02  0.8012502E-01
        2   -1    0    0  501    0  0.00000000000E+00  0.00000000000E+00  0.19407009478E+04  0.19407009478E+04  0.25500000920E-02 0.  1.
       -2   -1    0    0    0  501  0.00000000000E+00  0.00000000000E+00 -0.20209106586E+04  0.20209106586E+04  0.25500000920E-02 0. -1.
    10030    2    1    2    0    0  0.00000000000E+00  0.00000000000E+00 -0.80209710783E+02  0.39616116065E+04  0.39607995307E+04 0.  0.
        1    1    3    3  502    0 -0.17799475901E+04 -0.60337593587E+03  0.58428853460E+03  0.19681638741E+04  0.50400001928E-02 0.  1.
       -1    1    3    3    0  502  0.17799475901E+04  0.60337593587E+03 -0.66449824538E+03  0.19934477324E+04  0.50400001928E-02 0. -1.
</event>
<event>
 5   0  0.1773903E-07  0.4045424E+04  0.7818609E-02  0.7995445E-01
        2   -1    0    0  501    0  0.00000000000E+00  0.00000000000E+00  0.16206114364E+04  0.16206114364E+04  0.25500000920E-02 0.  1.
       -2   -1    0    0    0  501  0.00000000000E+00  0.00000000000E+00 -0.25245809470E+04  0.25245809470E+04  0.25500000920E-02 0. -1.
    10030    2    1    2    0    0  0.00000000000E+00  0.00000000000E+00 -0.90396951064E+03  0.41451923834E+04  0.40454244548E+04 0.  0.
        3    1    3    3  502    0 -0.11034747285E+04  0.13431101584E+04 -0.15117860790E+04  0.23037140737E+04  0.10100000352E+00 0. -1.
       -3    1    3    3    0  502  0.11034747285E+04 -0.13431101584E+04  0.60781656839E+03  0.18414783097E+04  0.10100000352E+00 0.  1.
</event>
<event>
 5   0  0.5515000E-08  0.3921428E+04  0.7818609E-02  0.8020587E-01
       -1   -1    0    0    0  501  0.00000000000E+00  0.00000000000E+00  0.12465681226E+04  0.12465681226E+04  0.50400001928E-02 0. -1.
        1   -1    0    0  501    0  0.00000000000E+00  0.00000000000E+00 -0.30839866366E+04  0.30839866366E+04  0.50400001928E-02 0.  1.
    10030    2    1    2    0    0  0.00000000000E+00  0.00000000000E+00 -0.18374185140E+04  0.43305547592E+04  0.39214280213E+04 0.  0.
        2    1    3    3  502    0  0.22368702080E+03 -0.26676251072E+03  0.12121636430E+04  0.12611656583E+04  0.25500000920E-02 0. -1.
       -2    1    3    3    0  502 -0.22368702080E+03  0.26676251072E+03 -0.30495821570E+04  0.30693891009E+04  0.25500000920E-02 0.  1.
</event>
<event>
 5   0  0.1776653E-07  0.3964758E+04  0.7818609E-02  0.8011694E-01
       -2   -1    0    0    0  501  0.00000000000E+00  0.00000000000E+00  0.21829050773E+04  0.21829050773E+04  0.25500000920E-02 0. -1.
        2   -1    0    0  501    0  0.00000000000E+00  0.00000000000E+00 -0.18002740510E+04  0.18002740510E+04  0.25500000920E-02 0.  1.
    10030    2    1    2    0    0  0.00000000000E+00  0.00000000000E+00  0.38263102635E+03  0.39831791283E+04  0.39647584372E+04 0.  0.
        4    1    3    3  502    0 -0.39186882485E+03  0.33629351116E+03  0.21141491763E+04  0.21763002674E+04  0.12699999809E+01 0. -1.
       -4    1    3    3    0  502  0.39186882485E+03 -0.33629351116E+03 -0.17315181499E+04  0.18068788609E+04  0.12699999809E+01 0.  1.
</event>
<event>
 5   0  0.5515000E-08  0.4033758E+04  0.7818609E-02  0.7997771E-01
        1   -1    0    0  501    0  0.00000000000E+00  0.00000000000E+00  0.12486958278E+04  0.12486958278E+04  0.50400001928E-02 0. -1.
       -1   -1    0    0    0  501  0.00000000000E+00  0.00000000000E+00 -0.32576402977E+04  0.32576402977E+04  0.50400001928E-02 0.  1.
    10030    2    1    2    0    0  0.00000000000E+00  0.00000000000E+00 -0.20089444699E+04  0.45063361254E+04  0.40337584697E+04 0.  0.
        5    1    3    3  502    0  0.18031312162E+04  0.59976923347E+03 -0.24944157112E+03  0.19165720711E+04  0.46999998093E+01 0. -1.
       -5    1    3    3    0  502 -0.18031312162E+04 -0.59976923347E+03 -0.17595028988E+04  0.25897640543E+04  0.46999998093E+01 0.  1.
</event>
<event>
 5   0  0.5515000E-08  0.3982270E+04  0.7818609E-02  0.8008133E-01
        1   -1    0    0  501    0  0.00000000000E+00  0.00000000000E+00  0.27446820118E+04  0.27446820118E+04  0.50400001928E-02 0. -1.
       -1   -1    0    0    0  501  0.00000000000E+00  0.00000000000E+00 -0.14444731691E+04  0.14444731691E+04  0.50400001928E-02 0.  1.
    10030    2    1    2    0    0  0.00000000000E+00  0.00000000000E+00  0.13002088427E+04  0.41891551809E+04  0.39822704699E+04 0.  0.
        2    1    3    3  502    0 -0.89210420944E+03 -0.17793534322E+04  0.70447074068E+03  0.21114515343E+04  0.25500000920E-02 0.  1.
       -2    1    3    3    0  502  0.89210420944E+03  0.17793534322E+04  0.59573810201E+03  0.20777036467E+04  0.25500000920E-02 0. -1.
</event>
<event>
 5   0  0.5515000E-08  0.4031463E+04  0.7818609E-02  0.7998229E-01
       -1   -1    0    0    0  501  0.00000000000E+00  0.00000000000E+00  0.18691506746E+04  0.18691506746E+04  0.50400001928E-02 0.  1.
        1   -1    0    0  501    0  0.00000000000E+00  0.00000000000E+00 -0.21738070003E+04  0.21738070003E+04  0.50400001928E-02 0. -1.
    10030    2    1    2    0    0  0.00000000000E+00  0.00000000000E+00 -0.30465632570E+03  0.40429576748E+04  0.40314626730E+04 0.  0.
        2    1    3    3  502    0  0.87873901989E+03  0.12672668519E+04 -0.14541146598E+04  0.21195747174E+04  0.25500000920E-02 0. -1.
       -2    1    3    3    0  502 -0.87873901989E+03 -0.12672668519E+04  0.11494583341E+04  0.19233829574E+04  0.25500000920E-02 0.  1.
</event>
<event>
 5   0  0.5515000E-08  0.3996827E+04  0.7818609E-02  0.8005187E-01
        1   -1    0    0  501    0  0.00000000000E+00  0.00000000000E+00  0.21135734662E+04  0.21135734662E+04  0.50400001928E-02 0.  1.
       -1   -1    0    0    0  501  0.00000000000E+00  0.00000000000E+00 -0.18895285842E+04  0.18895285842E+04  0.50400001928E-02 0. -1.
    10030    2    1    2    0    0  0.00000000000E+00  0.00000000000E+00  0.22404488200E+03  0.40031020504E+04  0.39968274815E+04 0.  0.
        3    1    3    3  502    0 -0.19716078009E+04  0.24310216265E+03  0.32989897059E+03  0.20137450989E+04  0.10100000352E+00 0. -1.
       -3    1    3    3    0  502  0.19716078009E+04 -0.24310216265E+03 -0.10585408859E+03  0.19893569515E+04  0.10100000352E+00 0.  1.
</event>
<event>
 5   0  0.5515000E-08  0.3961786E+04  0.7818609E-02  0.8012300E-01
       -1   -1    0    0    0  501  0.00000000000E+00  0.00000000000E+00  0.21888127655E+04  0.21888127655E+04  0.50400001928E-02 0.  1.
        1   -1    0    0  501    0  0.00000000000E+00  0.00000000000E+00 -0.17927239536E+04  0.17927239536E+04  0.50400001928E-02 0. -1.
    10030    2    1    2    0    0  0.00000000000E+00  0.00000000000E+00  0.39608881192E+03  0.39815367191E+04  0.39617859986E+04 0.  0.
        5    1    3    3  502    0 -0.13145404514E+04 -0.25631529450E+03 -0.12687525159E+04  0.18448493612E+04  0.46999998093E+01 0. -1.
       -5    1    3    3    0  502  0.13145404514E+04  0.25631529450E+03  0.16648413278E+04  0.21366873579E+04  0.46999998093E+01 0.  1.
</event>
<event>
 5   0  0.1821433E-07  0.4022412E+04  0.7818609E-02  0.8000041E-01
        2   -1    0    0  501    0  0.00000000000E+00  0.00000000000E+00  0.27541818339E+04  0.27541818340E+04  0.25500000920E-02 0. -1.
       -2   -1    0    0    0  501  0.00000000000E+00  0.00000000000E+00 -0.14686575587E+04  0.14686575587E+04  0.25500000920E-02 0.  1.
    10030    2    1    2    0    0  0.00000000000E+00  0.00000000000E+00  0.12855242752E+04  0.42228393927E+04  0.40224121960E+04 0.  0.
        5    1    3    3  502    0  0.27810404609E+03 -0.11335941573E+04 -0.10766972749E+04  0.15879788052E+04  0.46999998093E+01 0.  1.
       -5    1    3    3    0  502 -0.27810404609E+03  0.11335941573E+04  0.23622215501E+04  0.26348605875E+04  0.46999998093E+01 0. -1.
</event>
<event>
 5   0  0.5515000E-08  0.4013202E+04  0.7818609E-02  0.8001889E-01
       -1   -1    0    0    0  501  0.00000000000E+00  0.00000000000E+00  0.22069290482E+04  0.22069290482E+04  0.50400001928E-02 0. -1.
        1   -1    0    0  501    0  0.00000000000E+00  0.00000000000E+00 -0.18244570173E+04  0.18244570173E+04  0.50400001928E-02 0.  1.
    10030    2    1    2    0    0  0.00000000000E+00  0.00000000000E+00  0.38247203083E+03  0.40313860655E+04  0.40132018084E+04 0.  0.
        3    1    3    3  502    0  0.86707012247E+03  0.15426324863E+03 -0.16199420524E+04  0.18438600843E+04  0.10100000352E+00 0.  1.
       -3    1    3    3    0  502 -0.86707012247E+03 -0.15426324863E+03  0.20024140833E+04  0.21875259812E+04  0.10100000352E+00 0. -1.
</event>
<event>
 5   0  0.5515000E-08  0.4324883E+04  0.7818609E-02  0.7942033E-01
        1   -1    0    0  501    0  0.00000000000E+00  0.00000000000E+00  0.34539519867E+04  0.34539519867E+04  0.50400001928E-02 0.  1.
       -1   -1    0    0    0  501  0.00000000000E+00  0.00000000000E+00 -0.13538559809E+04  0.13538559809E+04  0.50400001928E-02 0. -1.
    10030    2    1    2    0    0  0.00000000000E+00  0.00000000000E+00  0.21000960058E+04  0.48078079677E+04  0.43248831453E+04 0.  0.
        5    1    3    3  502    0  0.38978755806E+03  0.73488222944E+03 -0.11688652078E+04  0.14346617008E+04  0.46999998093E+01 0. -1.
       -5    1    3    3    0  502 -0.38978755806E+03 -0.73488222944E+03  0.32689612137E+04  0.33731462669E+04  0.46999998093E+01 0.  1.
</event>
<event>
 5   0  0.5515000E-08  0.3988898E+04  0.7818609E-02  0.8006790E-01
       -1   -1    0    0    0  501  0.00000000000E+00  0.00000000000E+00  0.22748183628E+04  0.22748183628E+04  0.50400001928E-02 0.  1.
        1   -1    0    0  501    0  0.00000000000E+00  0.00000000000E+00 -0.17486352299E+04  0.17486352299E+04  0.50400001928E-02 0. -1.
    10030    2    1    2    0    0  0.00000000000E+00  0.00000000000E+00  0.52618313292E+03  0.40234535928E+04  0.39888983597E+04 0.  0.
        4    1    3    3  502    0 -0.18105508075E+04 -0.83223940509E+03  0.17804469315E+03  0.20006044535E+04  0.12699999809E+01 0. -1.
       -4    1    3    3    0  502  0.18105508075E+04  0.83223940509E+03  0.34813843977E+03  0.20228491392E+04  0.12699999809E+01 0.  1.
</event>
<event>
 5   0  0.5515000E-08  0.3941317E+04  0.7818609E-02  0.8016491E-01
       -1   -1    0    0    0  501  0.00000000000E+00  0.00000000000E+00  0.16505591669E+04  0.16505591669E+04  0.50400001928E-02 0. -1.
        1   -1    0    0  501    0  0.00000000000E+00  0.00000000000E+00 -0.23528355900E+04  0.23528355900E+04  0.50400001928E-02 0.  1.
    10030    2    1    2    0    0  0.00000000000E+00  0.00000000000E+00 -0.70227642314E+03  0.40033947570E+04  0.39413167096E+04 0.  0.
        2    1    3    3  502    0  0.19519357811E+04  0.11179791491E+03 -0.10038503437E+03  0.19577101988E+04  0.25500000920E-02 0. -1.
       -2    1    3    3    0  502 -0.19519357811E+04 -0.11179791491E+03 -0.60189138877E+03  0.20456845581E+04  0.25500000920E-02 0.  1.
</event>
<event>
 5   0  0.1785559E-07  0.4050347E+04  0.7818609E-02  0.7994466E-01
       -2   -1    0    0    0  501  0.00000000000E+00  0.00000000000E+00  0.24528040555E+04  0.24528040555E+04  0.25500000920E-02 0. -1.
        2   -1    0    0  501    0  0.00000000000E+00  0.00000000000E+00 -0.16720975156E+04  0.16720975156E+04  0.25500000920E-02 0.  1.
    10030    2    1    2    0    0  0.00000000000E+00  0.00000000000E+00  0.78070653998E+03  0.41249015711E+04  0.40503469320E+04 0.  0.
        2    1    3    3  502    0  0.11939710774E+04 -0.15598513215E+04  0.89198925373E+03  0.21573937767E+04  0.25500000920E-02 0. -1.
       -2    1    3    3    0  502 -0.11939710774E+04  0.15598513215E+04 -0.11128271375E+03  0.19675077944E+04  0.25500000920E-02 0.  1.
</event>
<event>
 5   0  0.1773903E-07  0.4151833E+04  0.7818609E-02  0.7974598E-01
       -2   -1    0    0    0  501  0.00000000000E+00  0.00000000000E+00  0.17197635421E+04  0.17197635421E+04  0.25500000920E-02 0. -1.
        2   -1    0    0  501    0  0.00000000000E+00  0.00000000000E+00 -0.25058270671E+04  0.25058270671E+04  0.25500000920E-02 0.  1.
    10030    2    1    2    0    0  0.00000000000E+00  0.00000000000E+00 -0.78606352505E+03  0.42255906092E+04  0.41518333458E+04 0.  0.
        3    1    3    3  502    0  0.12840484304E+03 -0.20525934749E+04 -0.10552036716E+03  0.20593111312E+04  0.10100000352E+00 0. -1.
       -3    1    3    3    0  502 -0.12840484304E+03  0.20525934749E+04 -0.68054315789E+03  0.21662794780E+04  0.10100000352E+00 0.  1.
</event>
<event>
 5   0  0.1776653E-07  0.3994662E+04  0.7818609E-02  0.8005624E-01
       -2   -1    0    0    0  501  0.00000000000E+00  0.00000000000E+00  0.16602831679E+04  0.16602831679E+04  0.25500000920E-02 0.  1.
        2   -1    0    0  501    0  0.00000000000E+00  0.00000000000E+00 -0.24028018867E+04  0.24028018867E+04  0.25500000920E-02 0. -1.
    10030    2    1    2    0    0  0.00000000000E+00  0.00000000000E+00 -0.74251871872E+03  0.40630850546E+04  0.39946622027E+04 0.  0.
        4    1    3    3  502    0 -0.16890660429E+04  0.25617673472E+03 -0.14237585746E+04  0.22238841491E+04  0.12699999809E+01 0. -1.
       -4    1    3    3    0  502  0.16890660429E+04 -0.25617673472E+03  0.68123985589E+03  0.18392009055E+04  0.12699999809E+01 0.  1.
</event>
<event>
 5   0  0.5515000E-08  0.3987282E+04  0.7818609E-02  0.8007117E-01
       -1   -1    0    0    0  501  0.00000000000E+00  0.00000000000E+00  0.15567291097E+04  0.15567291097E+04  0.50400001928E-02 0. -1.
        1   -1    0    0  501    0  0.00000000000E+00  0.00000000000E+00 -0.25531761861E+04  0.25531761861E+04  0.50400001928E-02 0.  1.
    10030    2    1    2    0    0  0.00000000000E+00  0.00000000000E+00 -0.99644707640E+03  0.41099052959E+04  0.39872816260E+04 0.  0.
        5    1    3    3  502    0  0.14399463631E+03 -0.16868110821E+04 -0.15834635364E+04  0.23180692274E+04  0.46999998093E+01 0.  1.
       -5    1    3    3    0  502 -0.14399463631E+03  0.16868110821E+04  0.58701646000E+03  0.17918360685E+04  0.46999998093E+01 0. -1.
</event>
<event>
 5   0  0.1819906E-07  0.4019663E+04  0.7818609E-02  0.8000592E-01
       -2   -1    0    0    0  501  0.00000000000E+00  0.00000000000E+00  0.20346135769E+04  0.20346135769E+04  0.25500000920E-02 0.  1.
        2   -1    0    0  501    0  0.00000000000E+00  0.00000000000E+00 -0.19853509738E+04  0.19853509738E+04  0.25500000920E-02 0. -1.
    10030    2    1    2    0    0  0.00000000000E+00  0.00000000000E+00  0.49262603075E+02  0.40199645508E+04  0.40196626955E+04 0.  0.
        1    1    3    3  502    0  0.56156765752E+03  0.17369255442E+04  0.86561862442E+03  0.20202881435E+04  0.50400001928E-02 0.  1.
       -1    1    3    3    0  502 -0.56156765752E+03 -0.17369255442E+04 -0.81635602135E+03  0.19996764072E+04  0.50400001928E-02 0. -1.
</event>
<event>
 5   0  0.1821433E-07  0.4073208E+04  0.7818609E-02  0.7989939E-01
       -2   -1    0    0    0  501  0.00000000000E+00  0.00000000000E+00  0.18794073499E+04  0.18794073499E+04  0.25500000920E-02 0.  1.
        2   -1    0    0  501    0  0.00000000000E+00  0.00000000000E+00 -0.22069484516E+04  0.22069484516E+04  0.25500000920E-02 0. -1.
    10030    2    1    2    0    0  0.00000000000E+00  0.00000000000E+00 -0.32754110169E+03  0.40863558015E+04  0.40732076504E+04 0.  0.
        5    1    3    3  502    0 -0.14052264159E+04 -0.12419027917E+04 -0.96053140922E+03  0.21070421216E+04  0.46999998093E+01 0. -1.
       -5    1    3    3    0  502  0.14052264159E+04  0.12419027917E+04  0.63299030752E+03  0.19793136799E+04  0.46999998093E+01 0.  1.
</event>
<event>
 5   0  0.5515000E-08  0.4061148E+04  0.7818609E-02  0.7992324E-01
        1   -1    0    0  501    0  0.00000000000E+00  0.00000000000E+00  0.18310643832E+04  0.18310643832E+04  0.50400001928E-02 0.  1.
       -1   -1    0    0    0  501  0.00000000000E+00  0.00000000000E+00 -0.22518213722E+04  0.22518213722E+04  0.50400001928E-02 0. -1.
    10030    2    1    2    0    0  0.00000000000E+00  0.00000000000E+00 -0.42075698902E+03  0.40828857554E+04  0.40611475777E+04 0.  0.
        4    1    3    3  502    0  0.40542862737E+03 -0.14161780603E+04  0.11947060137E+04  0.18966435465E+04  0.12699999809E+01 0.  1.
       -4    1    3    3    0  502 -0.40542862737E+03  0.14161780603E+04 -0.16154630027E+04  0.21862422090E+04  0.12699999809E+01 0. -1.
</event>
<event>
 5   0  0.5515000E-08  0.3980912E+04  0.7818609E-02  0.8008408E-01
       -1   -1    0    0    0  501  0.00000000000E+00  0.00000000000E+00  0.16486181392E+04  0.16486181392E+04  0.50400001928E-02 0.  1.
        1   -1    0    0  501    0  0.00000000000E+00  0.00000000000E+00 -0.24031731186E+04  0.24031731186E+04  0.50400001928E-02 0. -1.
    10030    2    1    2    0    0  0.00000000000E+00  0.00000000000E+00 -0.75455497944E+03  0.40517912578E+04  0.39809118528E+04 0.  0.
        2    1    3    3  502    0 -0.19474510694E+04 -0.25465639758E+03 -0.70629656789E+03  0.20871680312E+04  0.25500000920E-02 0. -1.
       -2    1    3    3    0  502  0.19474510694E+04  0.25465639758E+03 -0.48258411547E+02  0.19646232267E+04  0.25500000920E-02 0.  1.
</event>
<event>
 5   0  0.5515000E-08  0.3984228E+04  0.7818609E-02  0.8007736E-01
       -1   -1    0    0    0  501  0.00000000000E+00  0.00000000000E+00  0.13803976703E+04  0.13803976703E+04  0.50400001928E-02 0.  1.
        1   -1    0    0  501    0  0.00000000000E+00  0.00000000000E+00 -0.28749095959E+04  0.28749095959E+04  0.50400001928E-02 0. -1.
    10030    2    1    2    0    0  0.00000000000E+00  0.00000000000E+00 -0.14945119256E+04  0.42553072662E+04  0.39842281603E+04 0.  0.
        2    1    3    3  502    0 -0.94916162329E+03  0.10604040393E+04 -0.22360695861E+04  0.26505417763E+04  0.25500000920E-02 0. -1.
       -2    1    3    3    0  502  0.94916162329E+03 -0.10604040393E+04  0.74155766053E+03  0.16047654899E+04  0.25500000920E-02 0.  1.
</event>
<event>
 5   0  0.5515000E-08  0.4046405E+04  0.7818609E-02  0.7995250E-01
        1   -1    0    0  501    0  0.00000000000E+00  0.00000000000E+00  0.21660777383E+04  0.21660777383E+04  0.50400001928E-02 0. -1.
       -1   -1    0    0    0  501  0.00000000000E+00  0.00000000000E+00 -0.18897514771E+04  0.18897514771E+04  0.50400001928E-02 0.  1.
    10030    2    1    2    0    0  0.00000000000E+00  0.00000000000E+00  0.27632626125E+03  0.40558292154E+04  0.40464051233E+04 0.  0.
        5    1    3    3  502    0  0.87448670744E+03  0.17810076231E+04 -0.25850008517E+03  0.20008896869E+04  0.46999998093E+01 0.  1.
       -5    1    3    3    0  502 -0.87448670744E+03 -0.17810076231E+04  0.53482634642E+03  0.20549395285E+04  0.46999998093E+01 0. -1.
</event>
<event>
 5   0  0.5515000E-08  0.3226578E+04  0.7818609E-02  0.8181833E-01
       -1   -1    0    0    0  501  0.00000000000E+00  0.00000000000E+00  0.12958736189E+04  0.12958736189E+04  0.50400001928E-02 0.  1.
        1   -1    0    0  501    0  0.00000000000E+00  0.00000000000E+00 -0.20084529036E+04  0.20084529036E+04  0.50400001928E-02 0. -1.
    10030    2    1    2    0    0  0.00000000000E+00  0.00000000000E+00 -0.71257928470E+03  0.33043265224E+04  0.32265778357E+04 0.  0.
        4    1    3    3  502    0  0.13105324666E+04  0.19951571337E+03  0.58532093668E+03  0.14491045779E+04  0.12699999809E+01 0.  1.
       -4    1    3    3    0  502 -0.13105324666E+04 -0.19951571337E+03 -0.12979002214E+04  0.18552219445E+04  0.12699999809E+01 0. -1.
</event>
<event>
 5   0  0.1785559E-07  0.3977194E+04  0.7818609E-02  0.8009163E-01
        2   -1    0    0  501    0  0.00000000000E+00  0.00000000000E+00  0.21605488299E+04  0.21605488299E+04  0.25500000920E-02 0.  1.
       -2   -1    0    0    0  501  0.00000000000E+00  0.00000000000E+00 -0.18303307338E+04  0.18303307338E+04  0.25500000920E-02 0. -1.
    10030    2    1    2    0    0  0.00000000000E+00  0.00000000000E+00  0.33021809613E+03  0.39908795638E+04  0.39771944511E+04 0.  0.
        2    1    3    3  502    0  0.11313256371E+04  0.11782098096E+04  0.13032264130E+04  0.20896112404E+04  0.25500000920E-02 0.  1.
       -2    1    3    3    0  502 -0.11313256371E+04 -0.11782098096E+04 -0.97300831689E+03  0.19012683233E+04  0.25500000920E-02 0. -1.
</event>
<event>
 5   0  0.1785559E-07  0.3674695E+04  0.7818609E-02  0.8073593E-01
        2   -1    0    0  501    0  0.00000000000E+00  0.00000000000E+00  0.18641975192E+04  0.18641975192E+04  0.25500000920E-02 0. -1.
       -2   -1    0    0    0  501  0.00000000000E+00  0.00000000000E+00 -0.18108846050E+04  0.18108846050E+04  0.25500000920E-02 0.  1.
    10030    2    1    2    0    0  0.00000000000E+00  0.00000000000E+00  0.53312914249E+02  0.36750821242E+04  0.36746954095E+04 0.  0.
        2    1    3    3  502    0  0.16737326796E+04  0.27820061550E+03 -0.67844959801E+03  0.18273123768E+04  0.25500000920E-02 0. -1.
       -2    1    3    3    0  502 -0.16737326796E+04 -0.27820061550E+03  0.73176251226E+03  0.18477697474E+04  0.25500000920E-02 0.  1.
</event>
<event>
 5   0  0.1773903E-07  0.3959023E+04  0.7818609E-02  0.8012864E-01
        2   -1    0    0  501    0  0.00000000000E+00  0.00000000000E+00  0.18537081154E+04  0.18537081154E+04  0.25500000920E-02 0. -1.
       -2   -1    0    0    0  501  0.00000000000E+00  0.00000000000E+00 -0.21138525486E+04  0.21138525486E+04  0.25500000920E-02 0.  1.
    10030    2    1    2    0    0  0.00000000000E+00  0.00000000000E+00 -0.26014443328E+03  0.39675606640E+04  0.39590229219E+04 0.  0.
        3    1    3    3  502    0 -0.11720043448E+04 -0.10305039605E+04 -0.13504557160E+04  0.20637982575E+04  0.10100000352E+00 0.  1.
       -3    1    3    3    0  502  0.11720043448E+04  0.10305039605E+04  0.10903112827E+04  0.19037624064E+04  0.10100000352E+00 0. -1.
</event>
<event>
 5   0  0.5515000E-08  0.4014098E+04  0.7818609E-02  0.8001709E-01
        1   -1    0    0  501    0  0.00000000000E+00  0.00000000000E+00  0.25086110625E+04  0.25086110625E+04  0.50400001928E-02 0.  1.
       -1   -1    0    0    0  501  0.00000000000E+00  0.00000000000E+00 -0.16057675282E+04  0.16057675282E+04  0.50400001928E-02 0. -1.
    10030    2    1    2    0    0  0.00000000000E+00  0.00000000000E+00  0.90284353433E+03  0.41143785907E+04  0.40140982475E+04 0.  0.
        1    1    3    3  502    0 -0.19368967051E+04  0.52492391549E+03  0.48591088096E+03  0.20647574549E+04  0.50400001928E-02 0.  1.
       -1    1    3    3    0  502  0.19368967051E+04 -0.52492391549E+03  0.41693265337E+03  0.20496211359E+04  0.50400001928E-02 0. -1.
</event>
<event>
 5   0  0.5515000E-08  0.4005970E+04  0.7818609E-02  0.8003343E-01
       -1   -1    0    0    0  501  0.00000000000E+00  0.00000000000E+00  0.12621553804E+04  0.12621553804E+04  0.50400001928E-02 0.  1.
        1   -1    0    0  501    0  0.00000000000E+00  0.00000000000E+00 -0.31786487151E+04  0.31786487152E+04  0.50400001928E-02 0. -1.
    10030    2    1    2    0    0  0.00000000000E+00  0.00000000000E+00 -0.19164933347E+04  0.44408040956E+04  0.40059698343E+04 0.  0.
        2    1    3    3  502    0 -0.71894740114E+03  0.18604857062E+04 -0.75487701078E+03  0.21326349266E+04  0.25500000920E-02 0.  1.
       -2    1    3    3    0  502  0.71894740114E+03 -0.18604857062E+04 -0.11616163239E+04  0.23081691690E+04  0.25500000920E-02 0. -1.
</event>
<event>
 5   0  0.5515000E-08  0.3569677E+04  0.7818609E-02  0.8097473E-01
       -1   -1    0    0    0  501  0.00000000000E+00  0.00000000000E+00  0.14413405494E+04  0.14413405494E+04  0.50400001928E-02 0. -1.
        1   -1    0    0  501    0  0.00000000000E+00  0.00000000000E+00 -0.22101988562E+04  0.22101988562E+04  0.50400001928E-02 0.  1.
    10030    2    1    2    0    0  0.00000000000E+00  0.00000000000E+00 -0.76885830684E+03  0.36515394056E+04  0.35696774272E+04 0.  0.
        2    1    3    3  502    0 -0.14662392499E+04  0.51058641584E+03  0.51615434324E+03  0.16361452662E+04  0.25500000920E-02 0. -1.
       -2    1    3    3    0  502  0.14662392499E+04 -0.51058641584E+03 -0.12850126501E+04  0.20153941394E+04  0.25500000920E-02 0.  1.
</event>
<event>
 5   0  0.1773903E-07  0.3987999E+04  0.7818609E-02  0.8006972E-01
       -2   -1    0    0    0  501  0.00000000000E+00  0.00000000000E+00  0.23918982319E+04  0.23918982319E+04  0.25500000920E-02 0.  1.
        2   -1    0    0  501    0  0.00000000000E+00  0.00000000000E+00 -0.16622920724E+04  0.16622920724E+04  0.25500000920E-02 0. -1.
    10030    2    1    2    0    0  0.00000000000E+00  0.00000000000E+00  0.72960615951E+03  0.40541903044E+04  0.39879987307E+04 0.  0.
        3    1    3    3  502    0 -0.97534343311E+03 -0.51534512951E+02  0.21320706239E+04  0.23451387537E+04  0.10100000352E+00 0.  1.
       -3    1    3    3    0  502  0.97534343311E+03  0.51534512951E+02 -0.14024644644E+04  0.17090515506E+04  0.10100000352E+00 0. -1.
</event>
<event>
 5   0  0.1785559E-07  0.3999916E+04  0.7818609E-02  0.8004564E-01
       -2   -1    0    0    0  501  0.00000000000E+00  0.00000000000E+00  0.21016986311E+04  0.21016986311E+04  0.25500000920E-02 0.  1.
        2   -1    0    0  501    0  0.00000000000E+00  0.00000000000E+00 -0.19031422919E+04  0.19031422919E+04  0.25500000920E-02 0. -1.
    10030    2    1    2    0    0  0.00000000000E+00  0.00000000000E+00  0.19855633916E+03  0.40048409229E+04  0.39999157739E+04 0.  0.
        2    1    3    3  502    0  0.57811669262E+02  0.99720668964E+03 -0.16355029989E+04  0.19164116025E+04  0.25500000920E-02 0. -1.
       -2    1    3    3    0  502 -0.57811669262E+02 -0.99720668964E+03  0.18340593380E+04  0.20884293204E+04  0.25500000920E-02 0.  1.
</event>
<event>
 5   0  0.1785559E-07  0.4017766E+04  0.7818609E-02  0.8000972E-01
        2   -1    0    0  501    0  0.00000000000E+00  0.00000000000E+00  0.28704936550E+04  0.28704936550E+04  0.25500000920E-02 0. -1.
       -2   -1    0    0    0  501  0.00000000000E+00  0.00000000000E+00 -0.14058944405E+04  0.14058944405E+04  0.25500000920E-02 0.  1.
    10030    2    1    2    0    0  0.00000000000E+00  0.00000000000E+00  0.14645992145E+04  0.42763880955E+04  0.40177660813E+04 0.  0.
        2    1    3    3  502    0  0.18310928405E+04  0.18918709753E+03 -0.12378598831E+03  0.18449974849E+04  0.25500000920E-02 0. -1.
       -2    1    3    3    0  502 -0.18310928405E+04 -0.18918709753E+03  0.15883852028E+04  0.24313906105E+04  0.25500000920E-02 0.  1.
</event>
<event>
 5   0  0.5515000E-08  0.4000725E+04  0.7818609E-02  0.8004400E-01
        1   -1    0    0  501    0  0.00000000000E+00  0.00000000000E+00  0.23699912121E+04  0.23699912121E+04  0.50400001928E-02 0. -1.
       -1   -1    0    0    0  501  0.00000000000E+00  0.00000000000E+00 -0.16883819202E+04  0.16883819202E+04  0.50400001928E-02 0.  1.
    10030    2    1    2    0    0  0.00000000000E+00  0.00000000000E+00  0.68160929194E+03  0.40583731323E+04  0.40007250910E+04 0.  0.
        4    1    3    3  502    0 -0.15538720400E+04  0.77064136970E+03 -0.67006959564E+03  0.18594088612E+04  0.12699999809E+01 0.  1.
       -4    1    3    3    0  502  0.15538720400E+04 -0.77064136970E+03  0.13516788876E+04  0.21989642711E+04  0.12699999809E+01 0. -1.
</event>
<event>
 5   0  0.1819906E-07  0.4007643E+04  0.7818609E-02  0.8003006E-01
        2   -1    0    0  501    0  0.00000000000E+00  0.00000000000E+00  0.23318786247E+04  0.23318786247E+04  0.25500000920E-02 0. -1.
       -2   -1    0    0    0  501  0.00000000000E+00  0.00000000000E+00 -0.17219166793E+04  0.17219166793E+04  0.25500000920E-02 0.  1.
    10030    2    1    2    0    0  0.00000000000E+00  0.00000000000E+00  0.60996194539E+03  0.40537953041E+04  0.40076430471E+04 0.  0.
        1    1    3    3  502    0 -0.19857442809E+04 -0.16175972715E+03  0.88143117418E+02  0.19942707358E+04  0.50400001928E-02 0.  1.
       -1    1    3    3    0  502  0.19857442809E+04  0.16175972715E+03  0.52181882797E+03  0.20595245683E+04  0.50400001928E-02 0. -1.
</event>
<event>
 5   0  0.1773903E-07  0.4002370E+04  0.7818609E-02  0.8004069E-01
        2   -1    0    0  501    0  0.00000000000E+00  0.00000000000E+00  0.22539965038E+04  0.22539965038E+04  0.25500000920E-02 0.  1.
       -2   -1    0    0    0  501  0.00000000000E+00  0.00000000000E+00 -0.17767295915E+04  0.17767295915E+04  0.25500000920E-02 0. -1.
    10030    2    1    2    0    0  0.00000000000E+00  0.00000000000E+00  0.47726691232E+03  0.40307260954E+04  0.40023704414E+04 0.  0.
        3    1    3    3  502    0 -0.12568857873E+03 -0.19196474960E+04  0.79380862376E+03  0.20810997740E+04  0.10100000352E+00 0.  1.
       -3    1    3    3    0  502  0.12568857873E+03  0.19196474960E+04 -0.31654171145E+03  0.19496263214E+04  0.10100000352E+00 0. -1.
</event>
<event>
 5   0  0.5515000E-08  0.3892943E+04  0.7818609E-02  0.8026499E-01
       -1   -1    0    0    0  501  0.00000000000E+00  0.00000000000E+00  0.17333336610E+04  0.17333336610E+04  0.50400001928E-02 0. -1.
        1   -1    0    0  501    0  0.00000000000E+00  0.00000000000E+00 -0.21858175213E+04  0.21858175213E+04  0.50400001928E-02 0.  1.
    10030    2    1    2    0    0  0.00000000000E+00  0.00000000000E+00 -0.45248386030E+03  0.39191511824E+04  0.38929428902E+04 0.  0.
        2    1    3    3  502    0 -0.17356518324E+03 -0.11122332776E+04 -0.18248754906E+04  0.21441451194E+04  0.25500000920E-02 0.  1.
       -2    1    3    3    0  502  0.17356518324E+03  0.11122332776E+04  0.13723916303E+04  0.17750060630E+04  0.25500000920E-02 0. -1.
</event>
<event>
 5   0  0.1773903E-07  0.4009865E+04  0.7818609E-02  0.8002559E-01
        2   -1    0    0  501    0  0.00000000000E+00  0.00000000000E+00  0.23885117705E+04  0.23885117705E+04  0.25500000920E-02 0. -1.
       -2   -1    0    0    0  501  0.00000000000E+00  0.00000000000E+00 -0.16829535158E+04  0.16829535158E+04  0.25500000920E-02 0.  1.
    10030    2    1    2    0    0  0.00000000000E+00  0.00000000000E+00  0.70555825478E+03  0.40714652863E+04  0.40098649761E+04 0.  0.
        3    1    3    3  502    0 -0.70467864897E+03 -0.84632778057E+03 -0.13483424451E+04  0.17409394217E+04  0.10100000352E+00 0. -1.
       -3    1    3    3    0  502  0.70467864897E+03  0.84632778057E+03  0.20539006999E+04  0.23305258646E+04  0.10100000352E+00 0.  1.
</event>
<event>
 5   0  0.1785559E-07  0.4189576E+04  0.7818609E-02  0.7967358E-01
       -2   -1    0    0    0  501  0.00000000000E+00  0.00000000000E+00  0.18703840380E+04  0.18703840380E+04  0.25500000920E-02 0.  1.
        2   -1    0    0  501    0  0.00000000000E+00  0.00000000000E+00 -0.23461157383E+04  0.23461157383E+04  0.25500000920E-02 0. -1.
    10030    2    1    2    0    0  0.00000000000E+00  0.00000000000E+00 -0.47573170027E+03  0.42164997763E+04  0.41895763167E+04 0.  0.
        2    1    3    3  502    0  0.78331627513E+03 -0.67019523923E+03  0.15974184914E+04  0.19011817068E+04  0.25500000920E-02 0.  1.
       -2    1    3    3    0  502 -0.78331627513E+03  0.67019523923E+03 -0.20731501917E+04  0.23153180695E+04  0.25500000920E-02 0. -1.
</event>
<event>
 5   0  0.1821433E-07  0.3987294E+04  0.7818609E-02  0.8007115E-01
        2   -1    0    0  501    0  0.00000000000E+00  0.00000000000E+00  0.30626164800E+04  0.30626164800E+04  0.25500000920E-02 0. -1.
       -2   -1    0    0    0  501  0.00000000000E+00  0.00000000000E+00 -0.12977883885E+04  0.12977883885E+04  0.25500000920E-02 0.  1.
    10030    2    1    2    0    0  0.00000000000E+00  0.00000000000E+00  0.17648280915E+04  0.43604048685E+04  0.39872938724E+04 0.  0.
        5    1    3    3  502    0  0.33933943875E+03 -0.19631245203E+04  0.96422689934E+03  0.22133153278E+04  0.46999998093E+01 0. -1.
       -5    1    3    3    0  502 -0.33933943875E+03  0.19631245203E+04  0.80060119213E+03  0.21470895407E+04  0.46999998093E+01 0.  1.
</event>
<event>
 5   0  0.5515000E-08  0.3896571E+04  0.7818609E-02  0.8025743E-01
        1   -1    0    0  501    0  0.00000000000E+00  0.00000000000E+00  0.17825373390E+04  0.17825373390E+04  0.50400001928E-02 0.  1.
       -1   -1    0    0    0  501  0.00000000000E+00  0.00000000000E+00 -0.21294454161E+04  0.21294454161E+04  0.50400001928E-02 0. -1.
    10030    2    1    2    0    0  0.00000000000E+00  0.00000000000E+00 -0.34690807719E+03  0.39119827551E+04  0.38965707824E+04 0.  0.
        5    1    3    3  502    0  0.92841778416E+03 -0.73768230519E+03  0.13785124455E+04  0.18183655897E+04  0.46999998093E+01 0.  1.
       -5    1    3    3    0  502 -0.92841778416E+03  0.73768230519E+03 -0.17254205227E+04  0.20936171654E+04  0.46999998093E+01 0. -1.
</event>
<event>
 5   0  0.5515000E-08  0.3998461E+04  0.7818609E-02  0.8004857E-01
       -3   -1    0    0    0  501  0.00000000000E+00  0.00000000000E+00  0.27719607216E+04  0.27719607235E+04  0.10100000352E+00 0. -1.
        3   -1    0    0  501    0  0.00000000000E+00  0.00000000000E+00 -0.14419120165E+04  0.14419120200E+04  0.10100000352E+00 0.  1.
    10030    2    1    2    0    0  0.00000000000E+00  0.00000000000E+00  0.13300487052E+04  0.42138727435E+04  0.39984614466E+04 0.  0.
        5    1    3    3  502    0 -0.40547543994E+03  0.14870560360E+03 -0.13921567060E+04  0.14576165727E+04  0.46999998093E+01 0.  1.
       -5    1    3    3    0  502  0.40547543994E+03 -0.14870560360E+03  0.27222054111E+04  0.27562561708E+04  0.46999998093E+01 0. -1.
</event>
<event>
 5   0  0.1819906E-07  0.3915798E+04  0.7818609E-02  0.8021752E-01
        2   -1    0    0  501    0  0.00000000000E+00  0.00000000000E+00  0.26790334737E+04  0.26790334737E+04  0.25500000920E-02 0. -1.
       -2   -1    0    0    0  501  0.00000000000E+00  0.00000000000E+00 -0.14308773979E+04  0.14308773979E+04  0.25500000920E-02 0.  1.
    10030    2    1    2    0    0  0.00000000000E+00  0.00000000000E+00  0.12481560758E+04  0.41099108716E+04  0.39157979752E+04 0.  0.
        1    1    3    3  502    0 -0.26273538448E+03 -0.57836960489E+03 -0.13197070412E+04  0.14646391899E+04  0.50400001928E-02 0.  1.
       -1    1    3    3    0  502  0.26273538448E+03  0.57836960489E+03  0.25678631170E+04  0.26452716816E+04  0.50400001928E-02 0. -1.
</event>
<event>
 5   0  0.5515000E-08  0.4008004E+04  0.7818609E-02  0.8002934E-01
       -1   -1    0    0    0  501  0.00000000000E+00  0.00000000000E+00  0.18433517921E+04  0.18433517921E+04  0.50400001928E-02 0. -1.
        1   -1    0    0  501    0  0.00000000000E+00  0.00000000000E+00 -0.21786526888E+04  0.21786526888E+04  0.50400001928E-02 0.  1.
    10030    2    1    2    0    0  0.00000000000E+00  0.00000000000E+00 -0.33530089667E+03  0.40220044810E+04  0.40080036619E+04 0.  0.
        4    1    3    3  502    0 -0.20373468220E+03  0.34437514628E+03  0.18028585796E+04  0.18467275742E+04  0.12699999809E+01 0. -1.
       -4    1    3    3    0  502  0.20373468220E+03 -0.34437514628E+03 -0.21381594763E+04  0.21752769068E+04  0.12699999809E+01 0.  1.
</event>
<event>
 5   0  0.1785559E-07  0.3971343E+04  0.7818609E-02  0.8010353E-01
       -2   -1    0    0    0  501  0.00000000000E+00  0.00000000000E+00  0.14435119615E+04  0.14435119615E+04  0.25500000920E-02 0.  1.
        2   -1    0    0  501    0  0.00000000000E+00  0.00000000000E+00 -0.27314567925E+04  0.27314567925E+04  0.25500000920E-02 0. -1.
    10030    2    1    2    0    0  0.00000000000E+00  0.00000000000E+00 -0.12879448310E+04  0.41749687540E+04  0.39713426205E+04 0.  0.
        2    1    3    3  502    0 -0.12421534165E+04  0.12178018349E+03 -0.22675406189E+04  0.25883423232E+04  0.25500000920E-02 0. -1.
       -2    1    3    3    0  502  0.12421534165E+04 -0.12178018349E+03  0.97959578796E+03  0.15866264309E+04  0.25500000920E-02 0.  1.
</event>
<event>
 5   0  0.5515000E-08  0.3940016E+04  0.7818609E-02  0.8016758E-01
        1   -1    0    0  501    0  0.00000000000E+00  0.00000000000E+00  0.22935689851E+04  0.22935689851E+04  0.50400001928E-02 0.  1.
       -1   -1    0    0    0  501  0.00000000000E+00  0.00000000000E+00 -0.16920926027E+04  0.16920926027E+04  0.50400001928E-02 0. -1.
    10030    2    1    2    0    0  0.00000000000E+00  0.00000000000E+00  0.60147638233E+03  0.39856615878E+04  0.39400157936E+04 0.  0.
        1    1    3    3  502    0 -0.72543526562E+03  0.82822632797E+03  0.19532844797E+04  0.22422166340E+04  0.50400001928E-02 0.  1.
       -1    1    3    3    0  502  0.72543526562E+03 -0.82822632797E+03 -0.13518080974E+04  0.17434449538E+04  0.50400001928E-02 0. -1.
</event>
<event>
 5   0  0.1776653E-07  0.4041632E+04  0.7818609E-02  0.7996200E-01
       -2   -1    0    0    0  501  0.00000000000E+00  0.00000000000E+00  0.26777877495E+04  0.26777877495E+04  0.25500000920E-02 0.  1.
        2   -1    0    0  501    0  0.00000000000E+00  0.00000000000E+00 -0.15250263813E+04  0.15250263813E+04  0.25500000920E-02 0. -1.
    10030    2    1    2    0    0  0.00000000000E+00  0.00000000000E+00  0.11527613682E+04  0.42028141308E+04  0.40416318296E+04 0.  0.
        4    1    3    3  502    0  0.84552886561E+03  0.80900750925E+03 -0.11368309259E+04  0.16315018785E+04  0.12699999809E+01 0. -1.
       -4    1    3    3    0  502 -0.84552886561E+03 -0.80900750925E+03  0.22895922941E+04  0.25713122523E+04  0.12699999809E+01 0.  1.
</event>
<event>
 5   0  0.5515000E-08  0.3978797E+04  0.7818609E-02  0.8008838E-01
        1   -1    0    0  501    0  0.00000000000E+00  0.00000000000E+00  0.14079422707E+04  0.14079422707E+04  0.50400001928E-02 0.  1.
       -1   -1    0    0    0  501  0.00000000000E+00  0.00000000000E+00 -0.28109864620E+04  0.28109864621E+04  0.50400001928E-02 0. -1.
    10030    2    1    2    0    0  0.00000000000E+00  0.00000000000E+00 -0.14030441914E+04  0.42189287327E+04  0.39787971359E+04 0.  0.
        4    1    3    3  502    0  0.15813945443E+04  0.78923150362E+03  0.26683606293E+03  0.17874278079E+04  0.12699999809E+01 0.  1.
       -4    1    3    3    0  502 -0.15813945443E+04 -0.78923150362E+03 -0.16698802543E+04  0.24315009249E+04  0.12699999809E+01 0. -1.
</event>
<event>
 5   0  0.5515000E-08  0.3982436E+04  0.7818609E-02  0.8008099E-01
       -1   -1    0    0    0  501  0.00000000000E+00  0.00000000000E+00  0.12929241549E+04  0.12929241549E+04  0.50400001928E-02 0. -1.
        1   -1    0    0  501    0  0.00000000000E+00  0.00000000000E+00 -0.30666523658E+04  0.30666523658E+04  0.50400001928E-02 0.  1.
    10030    2    1    2    0    0  0.00000000000E+00  0.00000000000E+00 -0.17737282109E+04  0.43595765207E+04  0.39824358969E+04 0.  0.
        2    1    3    3  502    0  0.27927806769E+03  0.19161441026E+04 -0.37886568709E+03  0.19731050833E+04  0.25500000920E-02 0. -1.
       -2    1    3    3    0  502 -0.27927806769E+03 -0.19161441026E+04 -0.13948625238E+04  0.23864714374E+04  0.25500000920E-02 0.  1.
</event>
<event>
 5   0  0.5515000E-08  0.3555297E+04  0.7818609E-02  0.8100809E-01
       -1   -1    0    0    0  501  0.00000000000E+00  0.00000000000E+00  0.16202658501E+04  0.16202658501E+04  0.50400001928E-02 0. -1.
        1   -1    0    0  501    0  0.00000000000E+00  0.00000000000E+00 -0.19503181714E+04  0.19503181714E+04  0.50400001928E-02 0.  1.
    10030    2    1    2    0    0  0.00000000000E+00  0.00000000000E+00 -0.33005232130E+03  0.35705840215E+04  0.35552968539E+04 0.  0.
        4    1    3    3  502    0  0.13020086007E+04 -0.11786932666E+04 -0.44095852815E+03  0.18107982354E+04  0.12699999809E+01 0. -1.
       -4    1    3    3    0  502 -0.13020086007E+04  0.11786932666E+04  0.11090620685E+03  0.17597857860E+04  0.12699999809E+01 0.  1.
</event>
<event>
 5   0  0.5515000E-08  0.3989471E+04  0.7818609E-02  0.8006674E-01
        1   -1    0    0  501    0  0.00000000000E+00  0.00000000000E+00  0.23054835881E+04  0.23054835881E+04  0.50400001928E-02 0. -1.
       -1   -1    0    0    0  501  0.00000000000E+00  0.00000000000E+00 -0.17258724294E+04  0.17258724294E+04  0.50400001928E-02 0.  1.
    10030    2    1    2    0    0  0.00000000000E+00  0.00000000000E+00  0.57961115871E+03  0.40313560175E+04  0.39894714242E+04 0.  0.
        5    1    3    3  502    0 -0.11546711121E+04 -0.16216523588E+04  0.41733165140E+03  0.20340131630E+04  0.46999998093E+01 0. -1.
       -5    1    3    3    0  502  0.11546711121E+04  0.16216523588E+04  0.16227950731E+03  0.19973428545E+04  0.46999998093E+01 0.  1.
</event>
<event>
 5   0  0.1819906E-07  0.4025500E+04  0.7818609E-02  0.7999422E-01
        2   -1    0    0  501    0  0.00000000000E+00  0.00000000000E+00  0.21701373530E+04  0.21701373530E+04  0.25500000920E-02 0. -1.
       -2   -1    0    0    0  501  0.00000000000E+00  0.00000000000E+00 -0.18667773957E+04  0.18667773957E+04  0.25500000920E-02 0.  1.
    10030    2    1    2    0    0  0.00000000000E+00  0.00000000000E+00  0.30335995731E+03  0.40369147486E+04  0.40255003942E+04 0.  0.
        1    1    3    3  502    0  0.71762376192E+03  0.14236220474E+03  0.20320734446E+04  0.21597623354E+04  0.50400001928E-02 0. -1.
       -1    1    3    3    0  502 -0.71762376192E+03 -0.14236220474E+03 -0.17287134873E+04  0.18771524132E+04  0.50400001928E-02 0.  1.
</event>
<event>
 5   0  0.5515000E-08  0.3964532E+04  0.7818609E-02  0.8011740E-01
       -1   -1    0    0    0  501  0.00000000000E+00  0.00000000000E+00  0.24849363123E+04  0.24849363123E+04  0.50400001928E-02 0. -1.
        1   -1    0    0  501    0  0.00000000000E+00  0.00000000000E+00 -0.15812795220E+04  0.15812795220E+04  0.50400001928E-02 0.  1.
    10030    2    1    2    0    0  0.00000000000E+00  0.00000000000E+00  0.90365679028E+03  0.40662158343E+04  0.39645322065E+04 0.  0.
        5    1    3    3  502    0  0.26410773871E+03 -0.11076718801E+04  0.21159935926E+04  0.24029442077E+04  0.46999998093E+01 0. -1.
       -5    1    3    3    0  502 -0.26410773871E+03  0.11076718801E+04 -0.12123368023E+04  0.16632716266E+04  0.46999998093E+01 0.  1.
</event>
<event>
 5   0  0.1819906E-07  0.3991026E+04  0.7818609E-02  0.8006359E-01
        2   -1    0    0  501    0  0.00000000000E+00  0.00000000000E+00  0.18229271773E+04  0.18229271773E+04  0.25500000920E-02 0.  1.
       -2   -1    0    0    0  501  0.00000000000E+00  0.00000000000E+00 -0.21844387203E+04  0.21844387203E+04  0.25500000920E-02 0. -1.
    10030    2    1    2    0    0  0.00000000000E+00  0.00000000000E+00 -0.36151154308E+03  0.40073658976E+04  0.39910262892E+04 0.  0.
        1    1    3    3  502    0 -0.77650726352E+03  0.13751325981E+04 -0.14056351297E+04  0.21141814753E+04  0.50400001928E-02 0. -1.
       -1    1    3    3    0  502  0.77650726352E+03 -0.13751325981E+04  0.10441235866E+04  0.18931844223E+04  0.50400001928E-02 0.  1.
</event>
<event>
 5   0  0.5515000E-08  0.3795718E+04  0.7818609E-02  0.8047075E-01
        1   -1    0    0  501    0  0.00000000000E+00  0.00000000000E+00  0.17706193169E+04  0.17706193169E+04  0.50400001928E-02 0.  1.
       -1   -1    0    0    0  501  0.00000000000E+00  0.00000000000E+00 -0.20342418566E+04  0.20342418566E+04  0.50400001928E-02 0. -1.
    10030    2    1    2    0    0  0.00000000000E+00  0.00000000000E+00 -0.26362253974E+03  0.38048611735E+04  0.37957175483E+04 0.  0.
        3    1    3    3  502    0 -0.17463556702E+04  0.23943684567E+03  0.57328903468E+03  0.18535772056E+04  0.10100000352E+00 0.  1.
       -3    1    3    3    0  502  0.17463556702E+04 -0.23943684567E+03 -0.83691157442E+03  0.19512839679E+04  0.10100000352E+00 0. -1.
</event>
<event>
 5   0  0.5515000E-08  0.3994322E+04  0.7818609E-02  0.8005693E-01
       -1   -1    0    0    0  501  0.00000000000E+00  0.00000000000E+00  0.26714439011E+04  0.26714439011E+04  0.50400001928E-02 0. -1.
        1   -1    0    0  501    0  0.00000000000E+00  0.00000000000E+00 -0.14930699243E+04  0.14930699243E+04  0.50400001928E-02 0.  1.
    10030    2    1    2    0    0  0.00000000000E+00  0.00000000000E+00  0.11783739768E+04  0.41645138254E+04  0.39943222420E+04 0.  0.
        5    1    3    3  502    0 -0.99137182833E+03 -0.37918027033E+03 -0.11746508501E+04  0.15831684968E+04  0.46999998093E+01 0.  1.
       -5    1    3    3    0  502  0.99137182833E+03  0.37918027033E+03  0.23530248269E+04  0.25813453286E+04  0.46999998093E+01 0. -1.
</event>
<event>
 5   0  0.1776653E-07  0.3865138E+04  0.7818609E-02  0.8032319E-01
        2   -1    0    0  501    0  0.00000000000E+00  0.00000000000E+00  0.12785093794E+04  0.12785093795E+04  0.25500000920E-02 0.  1.
       -2   -1    0    0    0  501  0.00000000000E+00  0.00000000000E+00 -0.29212318832E+04  0.29212318832E+04  0.25500000920E-02 0. -1.
    10030    2    1    2    0    0  0.00000000000E+00  0.00000000000E+00 -0.16427225037E+04  0.41997412626E+04  0.38651377011E+04 0.  0.
        4    1    3    3  502    0  0.13388871907E+04 -0.13914152751E+04 -0.73604393061E+03  0.20664988889E+04  0.12699999809E+01 0.  1.
       -4    1    3    3    0  502 -0.13388871907E+04  0.13914152751E+04 -0.90667857312E+03  0.21332423737E+04  0.12699999809E+01 0. -1.
</event>
<event>
 5   0  0.1785559E-07  0.3968162E+04  0.7818609E-02  0.8011000E-01
       -2   -1    0    0    0  501  0.00000000000E+00  0.00000000000E+00  0.30505145930E+04  0.30505145930E+04  0.25500000920E-02 0. -1.
        2   -1    0    0  501    0  0.00000000000E+00  0.00000000000E+00 -0.12904633361E+04  0.12904633361E+04  0.25500000920E-02 0.  1.
    10030    2    1    2    0    0  0.00000000000E+00  0.00000000000E+00  0.17600512569E+04  0.43409779291E+04  0.39681619113E+04 0.  0.
        2    1    3    3  502    0 -0.90888549058E+03 -0.28865604477E+03 -0.10233191557E+04  0.13987770521E+04  0.25500000920E-02 0.  1.
       -2    1    3    3    0  502  0.90888549058E+03  0.28865604477E+03  0.27833704126E+04  0.29422008770E+04  0.25500000920E-02 0. -1.
</event>
<event>
 5   0  0.5515000E-08  0.3567435E+04  0.7818609E-02  0.8097992E-01
       -1   -1    0    0    0  501  0.00000000000E+00  0.00000000000E+00  0.15145906603E+04  0.15145906603E+04  0.50400001928E-02 0. -1.
        1   -1    0    0  501    0  0.00000000000E+00  0.00000000000E+00 -0.21006654206E+04  0.21006654206E+04  0.50400001928E-02 0.  1.
    10030    2    1    2    0    0  0.00000000000E+00  0.00000000000E+00 -0.58607476031E+03  0.36152560809E+04  0.35674350597E+04 0.  0.
        1    1    3    3  502    0  0.49357657691E+02 -0.11666624534E+04  0.10734107750E+04  0.15861110145E+04  0.50400001928E-02 0. -1.
       -1    1    3    3    0  502 -0.49357657691E+02  0.11666624534E+04 -0.16594855353E+04  0.20291450664E+04  0.50400001928E-02 0.  1.
</event>
<event>
 5   0  0.1821433E-07  0.4012131E+04  0.7818609E-02  0.8002104E-01
        2   -1    0    0  501    0  0.00000000000E+00  0.00000000000E+00  0.24065216423E+04  0.24065216423E+04  0.25500000920E-02 0. -1.
       -2   -1    0    0    0  501  0.00000000000E+00  0.00000000000E+00 -0.16722474597E+04  0.16722474597E+04  0.25500000920E-02 0.  1.
    10030    2    1    2    0    0  0.00000000000E+00  0.00000000000E+00  0.73427418263E+03  0.40787691020E+04  0.40121314550E+04 0.  0.
        5    1    3    3  502    0 -0.37098899544E+03  0.17312828938E+04  0.13258292336E+04  0.22119716408E+04  0.46999998093E+01 0. -1.
       -5    1    3    3    0  502  0.37098899544E+03 -0.17312828938E+04 -0.59155505093E+03  0.18667974612E+04  0.46999998093E+01 0.  1.
</event>
<event>
 5   0  0.5515000E-08  0.3988535E+04  0.7818609E-02  0.8006863E-01
       -1   -1    0    0    0  501  0.00000000000E+00  0.00000000000E+00  0.26398269877E+04  0.26398269877E+04  0.50400001928E-02 0.  1.
        1   -1    0    0  501    0  0.00000000000E+00  0.00000000000E+00 -0.15065767915E+04  0.15065767915E+04  0.50400001928E-02 0. -1.
    10030    2    1    2    0    0  0.00000000000E+00  0.00000000000E+00  0.11332501962E+04  0.41464037793E+04  0.39885346048E+04 0.  0.
        1    1    3    3  502    0  0.21580621966E+03  0.16064799142E+04  0.17743978366E+04  0.24032972604E+04  0.50400001928E-02 0. -1.
       -1    1    3    3    0  502 -0.21580621966E+03 -0.16064799142E+04 -0.64114764047E+03  0.17431065189E+04  0.50400001928E-02 0.  1.
</event>
<event>
 5   0  0.1776653E-07  0.3997277E+04  0.7818609E-02  0.8005096E-01
       -2   -1    0    0    0  501  0.00000000000E+00  0.00000000000E+00  0.11817528079E+04  0.11817528079E+04  0.25500000920E-02 0.  1.
        2   -1    0    0  501    0  0.00000000000E+00  0.00000000000E+00 -0.33801955479E+04  0.33801955479E+04  0.25500000920E-02 0. -1.
    10030    2    1    2    0    0  0.00000000000E+00  0.00000000000E+00 -0.21984427400E+04  0.45619483558E+04  0.39972768631E+04 0.  0.
        4    1    3    3  502    0 -0.40866734052E+03  0.42910442239E+03  0.10791926224E+04  0.12311774566E+04  0.12699999809E+01 0.  1.
       -4    1    3    3    0  502  0.40866734052E+03 -0.42910442239E+03 -0.32776353625E+04  0.33307708992E+04  0.12699999809E+01 0. -1.
</event>
<event>
 5   0  0.5515000E-08  0.3994168E+04  0.7818609E-02  0.8005724E-01
       -1   -1    0    0    0  501  0.00000000000E+00  0.00000000000E+00  0.15683110843E+04  0.15683110843E+04  0.50400001928E-02 0. -1.
        1   -1    0    0  501    0  0.00000000000E+00  0.00000000000E+00 -0.25430823866E+04  0.25430823866E+04  0.50400001928E-02 0.  1.
    10030    2    1    2    0    0  0.00000000000E+00  0.00000000000E+00 -0.97477130228E+03  0.41113934709E+04  0.39941678960E+04 0.  0.
        4    1    3    3  502    0  0.55102075638E+03 -0.60327684520E+03 -0.23631682672E+04  0.25004265032E+04  0.12699999809E+01 0.  1.
       -4    1    3    3    0  502 -0.55102075638E+03  0.60327684520E+03  0.13883969649E+04  0.16109669677E+04  0.12699999809E+01 0. -1.
</event>
<event>
 5   0  0.5515000E-08  0.3974801E+04  0.7818609E-02  0.8009649E-01
       -1   -1    0    0    0  501  0.00000000000E+00  0.00000000000E+00  0.14386956952E+04  0.14386956952E+04  0.50400001928E-02 0. -1.
        1   -1    0    0  501    0  0.00000000000E+00  0.00000000000E+00 -0.27453764779E+04  0.27453764779E+04  0.50400001928E-02 0.  1.
    10030    2    1    2    0    0  0.00000000000E+00  0.00000000000E+00 -0.13066807827E+04  0.41840721731E+04  0.39748012883E+04 0.  0.
        2    1    3    3  502    0  0.15975057980E+03 -0.15977482919E+04  0.57940215107E+03  0.17070520510E+04  0.25500000920E-02 0.  1.
       -2    1    3    3    0  502 -0.15975057980E+03  0.15977482919E+04 -0.18860829338E+04  0.24770201221E+04  0.25500000920E-02 0. -1.
</event>
<event>
 5   0  0.1785559E-07  0.3989601E+04  0.7818609E-02  0.8006648E-01
        2   -1    0    0  501    0  0.00000000000E+00  0.00000000000E+00  0.26243050045E+04  0.26243050045E+04  0.25500000920E-02 0. -1.
       -2   -1    0    0    0  501  0.00000000000E+00  0.00000000000E+00 -0.15162982987E+04  0.15162982987E+04  0.25500000920E-02 0.  1.
    10030    2    1    2    0    0  0.00000000000E+00  0.00000000000E+00  0.11080067057E+04  0.41406033032E+04  0.39896010896E+04 0.  0.
        2    1    3    3  502    0 -0.15290954005E+04  0.70811289396E+03  0.16619636647E+04  0.23667868170E+04  0.25500000920E-02 0. -1.
       -2    1    3    3    0  502  0.15290954005E+04 -0.70811289396E+03 -0.55395695893E+03  0.17738164862E+04  0.25500000920E-02 0.  1.
</event>
<event>
 5   0  0.5515000E-08  0.3980661E+04  0.7818609E-02  0.8008459E-01
       -1   -1    0    0    0  501  0.00000000000E+00  0.00000000000E+00  0.11750547846E+04  0.11750547846E+04  0.50400001928E-02 0.  1.
        1   -1    0    0  501    0  0.00000000000E+00  0.00000000000E+00 -0.33712598581E+04  0.33712598581E+04  0.50400001928E-02 0. -1.
    10030    2    1    2    0    0  0.00000000000E+00  0.00000000000E+00 -0.21962050735E+04  0.45463146427E+04  0.39806607625E+04 0.  0.
        1    1    3    3  502    0 -0.14555418514E+04  0.12179424433E+04 -0.41338575959E+03  0.19423886487E+04  0.50400001928E-02 0.  1.
       -1    1    3    3    0  502  0.14555418514E+04 -0.12179424433E+04 -0.17828193139E+04  0.26039259940E+04  0.50400001928E-02 0. -1.
</event>
<event>
 5   0  0.5515000E-08  0.3778477E+04  0.7818609E-02  0.8050790E-01
       -1   -1    0    0    0  501  0.00000000000E+00  0.00000000000E+00  0.13929351766E+04  0.13929351766E+04  0.50400001928E-02 0.  1.
        1   -1    0    0  501    0  0.00000000000E+00  0.00000000000E+00 -0.25623742605E+04  0.25623742605E+04  0.50400001928E-02 0. -1.
    10030    2    1    2    0    0  0.00000000000E+00  0.00000000000E+00 -0.11694390839E+04  0.39553094371E+04  0.37784765411E+04 0.  0.
        5    1    3    3  502    0  0.42950028289E+03  0.18392530035E+04 -0.53936700674E+03  0.19642456470E+04  0.46999998093E+01 0.  1.
       -5    1    3    3    0  502 -0.42950028289E+03 -0.18392530035E+04 -0.63007207712E+03  0.19910637901E+04  0.46999998093E+01 0. -1.
</event>
<event>
 5   0  0.1785559E-07  0.4090431E+04  0.7818609E-02  0.7986548E-01
       -2   -1    0    0    0  501  0.00000000000E+00  0.00000000000E+00  0.14701702322E+04  0.14701702322E+04  0.25500000920E-02 0. -1.
        2   -1    0    0  501    0  0.00000000000E+00  0.00000000000E+00 -0.28451856248E+04  0.28451856248E+04  0.25500000920E-02 0.  1.
    10030    2    1    2    0    0  0.00000000000E+00  0.00000000000E+00 -0.13750153926E+04  0.43153558570E+04  0.40904313762E+04 0.  0.
        2    1    3    3  502    0  0.15464728481E+04  0.48993071965E+03  0.62649106657E+03  0.17389943750E+04  0.25500000920E-02 0. -1.
       -2    1    3    3    0  502 -0.15464728481E+04 -0.48993071965E+03 -0.20015064591E+04  0.25763614820E+04  0.25500000920E-02 0.  1.
</event>
<event>
 5   0  0.1785559E-07  0.4013084E+04  0.7818609E-02  0.8001912E-01
       -2   -1    0    0    0  501  0.00000000000E+00  0.00000000000E+00  0.19097742899E+04  0.19097742899E+04  0.25500000920E-02 0.  1.
        2   -1    0    0  501    0  0.00000000000E+00  0.00000000000E+00 -0.21082124848E+04  0.21082124848E+04  0.25500000920E-02 0. -1.
    10030    2    1    2    0    0  0.00000000000E+00  0.00000000000E+00 -0.19843819490E+03  0.40179867748E+04  0.40130836031E+04 0.  0.
        2    1    3    3  502    0  0.23153312124E+03 -0.10698501723E+04 -0.17829464457E+04  0.20921484186E+04  0.25500000920E-02 0. -1.
       -2    1    3    3    0  502 -0.23153312124E+03  0.10698501723E+04  0.15845082508E+04  0.19258383562E+04  0.25500000920E-02 0.  1.
</event>
<event>
 5   0  0.5515000E-08  0.3953575E+04  0.7818609E-02  0.8013978E-01
       -1   -1    0    0    0  501  0.00000000000E+00  0.00000000000E+00  0.31830554747E+04  0.31830554747E+04  0.50400001928E-02 0.  1.
        1   -1    0    0  501    0  0.00000000000E+00  0.00000000000E+00 -0.12276536705E+04  0.12276536705E+04  0.50400001928E-02 0. -1.
    10030    2    1    2    0    0  0.00000000000E+00  0.00000000000E+00  0.19554018042E+04  0.44107091452E+04  0.39535754638E+04 0.  0.
        1    1    3    3  502    0 -0.48777219581E+02 -0.15271053495E+04 -0.42162413977E+03  0.15849911296E+04  0.50400001928E-02 0. -1.
       -1    1    3    3    0  502  0.48777219581E+02  0.15271053495E+04  0.23770259440E+04  0.28257180156E+04  0.50400001928E-02 0.  1.
</event>
<event>
 5   0  0.1773903E-07  0.4000649E+04  0.7818609E-02  0.8004416E-01
       -2   -1    0    0    0  501  0.00000000000E+00  0.00000000000E+00  0.26594142579E+04  0.26594142579E+04  0.25500000920E-02 0. -1.
        2   -1    0    0  501    0  0.00000000000E+00  0.00000000000E+00 -0.15045790902E+04  0.15045790902E+04  0.25500000920E-02 0.  1.
    10030    2    1    2    0    0  0.00000000000E+00  0.00000000000E+00  0.11548351677E+04  0.41639933481E+04  0.40006494895E+04 0.  0.
        3    1    3    3  502    0 -0.49154874540E+03  0.16497105058E+04 -0.48307164869E+03  0.17878823087E+04  0.10100000352E+00 0.  1.
       -3    1    3    3    0  502  0.49154874540E+03 -0.16497105058E+04  0.16379068164E+04  0.23761110393E+04  0.10100000352E+00 0. -1.
</event>
<event>
 5   0  0.1773903E-07  0.3995981E+04  0.7818609E-02  0.8005358E-01
       -2   -1    0    0    0  501  0.00000000000E+00  0.00000000000E+00  0.14235404356E+04  0.14235404356E+04  0.25500000920E-02 0. -1.
        2   -1    0    0  501    0  0.00000000000E+00  0.00000000000E+00 -0.28042518576E+04  0.28042518576E+04  0.25500000920E-02 0.  1.
    10030    2    1    2    0    0  0.00000000000E+00  0.00000000000E+00 -0.13807114220E+04  0.42277922932E+04  0.39959809364E+04 0.  0.
        3    1    3    3  502    0  0.31128323163E+03 -0.94973950491E+03 -0.25207649624E+04  0.27116707734E+04  0.10100000352E+00 0.  1.
       -3    1    3    3    0  502 -0.31128323163E+03  0.94973950491E+03  0.11400535405E+04  0.15161215198E+04  0.10100000352E+00 0. -1.
</event>
<event>
 5   0  0.1776653E-07  0.4008133E+04  0.7818609E-02  0.8002908E-01
        2   -1    0    0  501    0  0.00000000000E+00  0.00000000000E+00  0.30963740341E+04  0.30963740341E+04  0.25500000920E-02 0.  1.
       -2   -1    0    0    0  501  0.00000000000E+00  0.00000000000E+00 -0.12970918745E+04  0.12970918745E+04  0.25500000920E-02 0. -1.
    10030    2    1    2    0    0  0.00000000000E+00  0.00000000000E+00  0.17992821596E+04  0.43934659086E+04  0.40081325328E+04 0.  0.
        4    1    3    3  502    0 -0.79052606464E+03 -0.18364074994E+04  0.74872385281E+03  0.21349269270E+04  0.12699999809E+01 0. -1.
       -4    1    3    3    0  502  0.79052606464E+03  0.18364074994E+04  0.10505583067E+04  0.22585389817E+04  0.12699999809E+01 0.  1.
</event>
<event>
 5   0  0.5515000E-08  0.3892402E+04  0.7818609E-02  0.8026611E-01
        1   -1    0    0  501    0  0.00000000000E+00  0.00000000000E+00  0.13004124741E+04  0.13004124741E+04  0.50400001928E-02 0. -1.
       -1   -1    0    0    0  501  0.00000000000E+00  0.00000000000E+00 -0.29126895513E+04  0.29126895513E+04  0.50400001928E-02 0.  1.
    10030    2    1    2    0    0  0.00000000000E+00  0.00000000000E+00 -0.16122770772E+04  0.42131020255E+04  0.38924017397E+04 0.  0.
        4    1    3    3  502    0  0.20618539762E+03 -0.81531407364E+03  0.10935883579E+04  0.13795602801E+04  0.12699999809E+01 0. -1.
       -4    1    3    3    0  502 -0.20618539762E+03  0.81531407364E+03 -0.27058654351E+04  0.28335417454E+04  0.12699999809E+01 0.  1.
</event>
<event>
 5   0  0.5515000E-08  0.4042023E+04  0.7818609E-02  0.7996122E-01
       -1   -1    0    0    0  501  0.00000000000E+00  0.00000000000E+00  0.17400091266E+04  0.17400091266E+04  0.50400001928E-02 0. -1.
        1   -1    0    0  501    0  0.00000000000E+00  0.00000000000E+00 -0.23473944920E+04  0.23473944921E+04  0.50400001928E-02 0.  1.
    10030    2    1    2    0    0  0.00000000000E+00  0.00000000000E+00 -0.60738536542E+03  0.40874036187E+04  0.40420231766E+04 0.  0.
        4    1    3    3  502    0  0.35286571769E+03 -0.13758750054E+04  0.11501340782E+04  0.18276641530E+04  0.12699999809E+01 0. -1.
       -4    1    3    3    0  502 -0.35286571769E+03  0.13758750054E+04 -0.17575194437E+04  0.22597394657E+04  0.12699999809E+01 0.  1.
</event>
<event>
 5   0  0.1821433E-07  0.4147230E+04  0.7818609E-02  0.7975487E-01
        2   -1    0    0  501    0  0.00000000000E+00  0.00000000000E+00  0.18834739918E+04  0.18834739918E+04  0.25500000920E-02 0.  1.
       -2   -1    0    0    0  501  0.00000000000E+00  0.00000000000E+00 -0.22829511006E+04  0.22829511006E+04  0.25500000920E-02 0. -1.
    10030    2    1    2    0    0  0.00000000000E+00  0.00000000000E+00 -0.39947710882E+03  0.41664250925E+04  0.41472299298E+04 0.  0.
        5    1    3    3  502    0 -0.17641794542E+04  0.20995472223E+03  0.87453144081E+03  0.19802114692E+04  0.46999998093E+01 0.  1.
       -5    1    3    3    0  502  0.17641794542E+04 -0.20995472223E+03 -0.12740085496E+04  0.21862136232E+04  0.46999998093E+01 0. -1.
</event>
<event>
 5   0  0.5515000E-08  0.3995166E+04  0.7818609E-02  0.8005522E-01
       -1   -1    0    0    0  501  0.00000000000E+00  0.00000000000E+00  0.24118533978E+04  0.24118533978E+04  0.50400001928E-02 0. -1.
        1   -1    0    0  501    0  0.00000000000E+00  0.00000000000E+00 -0.16544695838E+04  0.16544695839E+04  0.50400001928E-02 0.  1.
    10030    2    1    2    0    0  0.00000000000E+00  0.00000000000E+00  0.75738381392E+03  0.40663229816E+04  0.39951661229E+04 0.  0.
        4    1    3    3  502    0 -0.63417005361E+02  0.52736590159E+03 -0.15812743802E+04  0.16681027514E+04  0.12699999809E+01 0.  1.
       -4    1    3    3    0  502  0.63417005361E+02 -0.52736590159E+03  0.23386581941E+04  0.23982202302E+04  0.12699999809E+01 0. -1.
</event>
<event>
 5   0  0.1773903E-07  0.4033495E+04  0.7818609E-02  0.7997823E-01
        2   -1    0    0  501    0  0.00000000000E+00  0.00000000000E+00  0.21016840299E+04  0.21016840299E+04  0.25500000920E-02 0.  1.
       -2   -1    0    0    0  501  0.00000000000E+00  0.00000000000E+00 -0.19352438403E+04  0.19352438403E+04  0.25500000920E-02 0. -1.
    10030    2    1    2    0    0  0.00000000000E+00  0.00000000000E+00  0.16644018963E+03  0.40369278702E+04  0.40334952947E+04 0.  0.
        3    1    3    3  502    0  0.29409323568E+03  0.15916438620E+04  0.12873441364E+04  0.20681092694E+04  0.10100000352E+00 0. -1.
       -3    1    3    3    0  502 -0.29409323568E+03 -0.15916438620E+04 -0.11209039467E+04  0.19688186007E+04  0.10100000352E+00 0.  1.
</event>
<event>
 5   0  0.1821433E-07  0.4016120E+04  0.7818609E-02  0.8001302E-01
       -2   -1    0    0    0  501  0.00000000000E+00  0.00000000000E+00  0.17884745916E+04  0.17884745916E+04  0.25500000920E-02 0. -1.
        2   -1    0    0  501    0  0.00000000000E+00  0.00000000000E+00 -0.22546060701E+04  0.22546060701E+04  0.25500000920E-02 0.  1.
    10030    2    1    2    0    0  0.00000000000E+00  0.00000000000E+00 -0.46613147850E+03  0.40430806618E+04  0.40161203521E+04 0.  0.
        5    1    3    3  502    0 -0.16953865933E+04 -0.10479348097E+04  0.13076139232E+02  0.19931623470E+04  0.46999998093E+01 0. -1.
       -5    1    3    3    0  502  0.16953865933E+04  0.10479348097E+04 -0.47920761773E+03  0.20499183147E+04  0.46999998093E+01 0.  1.
</event>
<event>
 5   0  0.5515000E-08  0.3736499E+04  0.7818609E-02  0.8059921E-01
       -1   -1    0    0    0  501  0.00000000000E+00  0.00000000000E+00  0.15929952538E+04  0.15929952538E+04  0.50400001928E-02 0.  1.
        1   -1    0    0  501    0  0.00000000000E+00  0.00000000000E+00 -0.21910653644E+04  0.21910653644E+04  0.50400001928E-02 0. -1.
    10030    2    1    2    0    0  0.00000000000E+00  0.00000000000E+00 -0.59807011062E+03  0.37840606183E+04  0.37364992848E+04 0.  0.
        4    1    3    3  502    0  0.17744730550E+03  0.12082786063E+04 -0.17308668941E+04  0.21183310777E+04  0.12699999809E+01 0. -1.
       -4    1    3    3    0  502 -0.17744730550E+03 -0.12082786063E+04  0.11327967835E+04  0.16657295406E+04  0.12699999809E+01 0.  1.
</event>
<event>
 5   0  0.5515000E-08  0.3967690E+04  0.7818609E-02  0.8011096E-01
       -1   -1    0    0    0  501  0.00000000000E+00  0.00000000000E+00  0.33726841588E+04  0.33726841588E+04  0.50400001928E-02 0. -1.
        1   -1    0    0  501    0  0.00000000000E+00  0.00000000000E+00 -0.11669165096E+04  0.11669165097E+04  0.50400001928E-02 0.  1.
    10030    2    1    2    0    0  0.00000000000E+00  0.00000000000E+00  0.22057676491E+04  0.45396006684E+04  0.39676899207E+04 0.  0.
        3    1    3    3  502    0  0.12178304986E+04 -0.13361249777E+04  0.16825234623E+03  0.18156679051E+04  0.10100000352E+00 0.  1.
       -3    1    3    3    0  502 -0.12178304986E+04  0.13361249777E+04  0.20375153029E+04  0.27239327633E+04  0.10100000352E+00 0. -1.
</event>
<event>
 5   0  0.5515000E-08  0.4000134E+04  0.7818609E-02  0.8004520E-01
        1   -1    0    0  501    0  0.00000000000E+00  0.00000000000E+00  0.23929610375E+04  0.23929610375E+04  0.50400001928E-02 0.  1.
       -1   -1    0    0    0  501  0.00000000000E+00  0.00000000000E+00 -0.16716812259E+04  0.16716812259E+04  0.50400001928E-02 0. -1.
    10030    2    1    2    0    0  0.00000000000E+00  0.00000000000E+00  0.72127981159E+03  0.40646422634E+04  0.40001340181E+04 0.  0.
        4    1    3    3  502    0  0.28943414570E+02  0.17283411225E+04  0.13829791707E+04  0.22137375085E+04  0.12699999809E+01 0.  1.
       -4    1    3    3    0  502 -0.28943414570E+02 -0.17283411225E+04 -0.66169935912E+03  0.18509047549E+04  0.12699999809E+01 0. -1.
</event>
<event>
 5   0  0.1821433E-07  0.3996139E+04  0.7818609E-02  0.8005326E-01
        2   -1    0    0  501    0  0.00000000000E+00  0.00000000000E+00  0.29467148634E+04  0.29467148634E+04  0.25500000920E-02 0. -1.
       -2   -1    0    0    0  501  0.00000000000E+00  0.00000000000E+00 -0.13548249044E+04  0.13548249044E+04  0.25500000920E-02 0.  1.
    10030    2    1    2    0    0  0.00000000000E+00  0.00000000000E+00  0.15918899590E+04  0.43015397678E+04  0.39961394787E+04 0.  0.
        5    1    3    3  502    0 -0.81673695966E+03 -0.18177497950E+04  0.95188537670E+03  0.22084794405E+04  0.46999998093E+01 0.  1.
       -5    1    3    3    0  502  0.81673695966E+03  0.18177497950E+04  0.64000458228E+03  0.20930603274E+04  0.46999998093E+01 0. -1.
</event>
<event>
 5   0  0.5515000E-08  0.4005866E+04  0.7818609E-02  0.8003364E-01
        1   -1    0    0  501    0  0.00000000000E+00  0.00000000000E+00  0.13830791626E+04  0.13830791626E+04  0.50400001928E-02 0.  1.
       -1   -1    0    0    0  501  0.00000000000E+00  0.00000000000E+00 -0.29005864577E+04  0.29005864577E+04  0.50400001928E-02 0. -1.
    10030    2    1    2    0    0  0.00000000000E+00  0.00000000000E+00 -0.15175072951E+04  0.42836656203E+04  0.40058660432E+04 0.  0.
        4    1    3    3  502    0  0.36059540730E+03 -0.17340186847E+04  0.24146667771E+03  0.17875003821E+04  0.12699999809E+01 0.  1.
       -4    1    3    3    0  502 -0.36059540730E+03  0.17340186847E+04 -0.17589739728E+04  0.24961652382E+04  0.12699999809E+01 0. -1.
</event>
<event>
 5   0  0.5515000E-08  0.3983535E+04  0.7818609E-02  0.8007876E-01
        1   -1    0    0  501    0  0.00000000000E+00  0.00000000000E+00  0.21175017926E+04  0.21175017926E+04  0.50400001928E-02 0.  1.
       -1   -1    0    0    0  501  0.00000000000E+00  0.00000000000E+00 -0.18734991512E+04  0.18734991512E+04  0.50400001928E-02 0. -1.
    10030    2    1    2    0    0  0.00000000000E+00  0.00000000000E+00  0.24400264140E+03  0.39910009438E+04  0.39835350186E+04 0.  0.
        2    1    3    3  502    0  0.18938937692E+04 -0.60903486951E+03  0.24965628358E+02  0.19895678837E+04  0.25500000920E-02 0. -1.
       -2    1    3    3    0  502 -0.18938937692E+04  0.60903486951E+03  0.21903701305E+03  0.20014330602E+04  0.25500000920E-02 0.  1.
</event>
<event>
 5   0  0.1785559E-07  0.4032441E+04  0.7818609E-02  0.7998034E-01
        2   -1    0    0  501    0  0.00000000000E+00  0.00000000000E+00  0.14432214544E+04  0.14432214544E+04  0.25500000920E-02 0. -1.
       -2   -1    0    0    0  501  0.00000000000E+00  0.00000000000E+00 -0.28167160769E+04  0.28167160769E+04  0.25500000920E-02 0.  1.
    10030    2    1    2    0    0  0.00000000000E+00  0.00000000000E+00 -0.13734946226E+04  0.42599375313E+04  0.40324409843E+04 0.  0.
        2    1    3    3  502    0  0.15134819537E+04  0.13303216524E+04 -0.75964579653E+03  0.21534727905E+04  0.25500000920E-02 0.  1.
       -2    1    3    3    0  502 -0.15134819537E+04 -0.13303216524E+04 -0.61384882603E+03  0.21064647408E+04  0.25500000920E-02 0. -1.
</event>
<event>
 5   0  0.1776653E-07  0.3346721E+04  0.7818609E-02  0.8151108E-01
        2   -1    0    0  501    0  0.00000000000E+00  0.00000000000E+00  0.11981562754E+04  0.11981562754E+04  0.25500000920E-02 0. -1.
       -2   -1    0    0    0  501  0.00000000000E+00  0.00000000000E+00 -0.23370370600E+04  0.23370370600E+04  0.25500000920E-02 0.  1.
    10030    2    1    2    0    0  0.00000000000E+00  0.00000000000E+00 -0.11388807847E+04  0.35351933354E+04  0.33467211532E+04 0.  0.
        4    1    3    3  502    0  0.59841743356E+03  0.28277056066E+03 -0.21928950031E+04  0.22906009522E+04  0.12699999809E+01 0.  1.
       -4    1    3    3    0  502 -0.59841743356E+03 -0.28277056066E+03  0.10540142184E+04  0.12445923832E+04  0.12699999809E+01 0. -1.
</event>
<event>
 5   0  0.1773903E-07  0.4004402E+04  0.7818609E-02  0.8003659E-01
       -2   -1    0    0    0  501  0.00000000000E+00  0.00000000000E+00  0.32306573902E+04  0.32306573902E+04  0.25500000920E-02 0.  1.
        2   -1    0    0  501    0  0.00000000000E+00  0.00000000000E+00 -0.12408646935E+04  0.12408646935E+04  0.25500000920E-02 0. -1.
    10030    2    1    2    0    0  0.00000000000E+00  0.00000000000E+00  0.19897926967E+04  0.44715220837E+04  0.40044019241E+04 0.  0.
        3    1    3    3  502    0 -0.23304899704E+03  0.18892747687E+04  0.16878843772E+04  0.25441353477E+04  0.10100000352E+00 0.  1.
       -3    1    3    3    0  502  0.23304899704E+03 -0.18892747687E+04  0.30190831944E+03  0.19273867360E+04  0.10100000352E+00 0. -1.
</event>
<event>
 5   0  0.5515000E-08  0.3988252E+04  0.7818609E-02  0.8006921E-01
        1   -1    0    0  501    0  0.00000000000E+00  0.00000000000E+00  0.23942916988E+04  0.23942916988E+04  0.50400001928E-02 0. -1.
       -1   -1    0    0    0  501  0.00000000000E+00  0.00000000000E+00 -0.16608414758E+04  0.16608414758E+04  0.50400001928E-02 0.  1.
    10030    2    1    2    0    0  0.00000000000E+00  0.00000000000E+00  0.73345022303E+03  0.40551331746E+04  0.39882522280E+04 0.  0.
        1    1    3    3  502    0 -0.52293025712E+03 -0.88560722440E+03  0.21038193919E+04  0.23417540955E+04  0.50400001928E-02 0. -1.
       -1    1    3    3    0  502  0.52293025712E+03  0.88560722440E+03 -0.13703691689E+04  0.17133790791E+04  0.50400001928E-02 0.  1.
</event>
<event>
 5   0  0.5515000E-08  0.3979975E+04  0.7818609E-02  0.8008598E-01
        1   -1    0    0  501    0  0.00000000000E+00  0.00000000000E+00  0.17733582300E+04  0.17733582300E+04  0.50400001928E-02 0. -1.
       -1   -1    0    0    0  501  0.00000000000E+00  0.00000000000E+00 -0.22330798004E+04  0.22330798004E+04  0.50400001928E-02 0.  1.
    10030    2    1    2    0    0  0.00000000000E+00  0.00000000000E+00 -0.45972157035E+03  0.40064380304E+04  0.39799750966E+04 0.  0.
        3    1    3    3  502    0 -0.13478158763E+04 -0.87349644202E+03  0.95287546030E+03  0.18675051067E+04  0.10100000352E+00 0. -1.
       -3    1    3    3    0  502  0.13478158763E+04  0.87349644202E+03 -0.14125970306E+04  0.21389329237E+04  0.10100000352E+00 0.  1.
</event>
<event>
 5   0  0.5515000E-08  0.3986700E+04  0.7818609E-02  0.8007235E-01
        3   -1    0    0  501    0  0.00000000000E+00  0.00000000000E+00  0.22294389651E+04  0.22294389674E+04  0.10100000352E+00 0.  1.
       -3   -1    0    0    0  501  0.00000000000E+00  0.00000000000E+00 -0.17822623188E+04  0.17822623217E+04  0.10100000352E+00 0. -1.
    10030    2    1    2    0    0  0.00000000000E+00  0.00000000000E+00  0.44717664627E+03  0.40117012891E+04  0.39867004252E+04 0.  0.
        3    1    3    3  502    0 -0.26782148474E+03  0.12828154594E+04 -0.12878633815E+04  0.18373720228E+04  0.10100000352E+00 0. -1.
       -3    1    3    3    0  502  0.26782148474E+03 -0.12828154594E+04  0.17350400277E+04  0.21743292664E+04  0.10100000352E+00 0.  1.
</event>
<event>
 5   0  0.5515000E-08  0.3445043E+04  0.7818609E-02  0.8126939E-01
        1   -1    0    0  501    0  0.00000000000E+00  0.00000000000E+00  0.23243256567E+04  0.23243256567E+04  0.50400001928E-02 0. -1.
       -1   -1    0    0    0  501  0.00000000000E+00  0.00000000000E+00 -0.12765341907E+04  0.12765341907E+04  0.50400001928E-02 0.  1.
    10030    2    1    2    0    0  0.00000000000E+00  0.00000000000E+00  0.10477914660E+04  0.36008598474E+04  0.34450434952E+04 0.  0.
        5    1    3    3  502    0 -0.12345330664E+04 -0.19266550868E+03  0.17632162986E+04  0.21610519882E+04  0.46999998093E+01 0. -1.
       -5    1    3    3    0  502  0.12345330664E+04  0.19266550868E+03 -0.71542483257E+03  0.14398078591E+04  0.46999998093E+01 0.  1.
</event>
<event>
 5   0  0.1785559E-07  0.3996791E+04  0.7818609E-02  0.8005194E-01
        2   -1    0    0  501    0  0.00000000000E+00  0.00000000000E+00  0.16388111482E+04  0.16388111482E+04  0.25500000920E-02 0.  1.
       -2   -1    0    0    0  501  0.00000000000E+00  0.00000000000E+00 -0.24368791547E+04  0.24368791547E+04  0.25500000920E-02 0. -1.
    10030    2    1    2    0    0  0.00000000000E+00  0.00000000000E+00 -0.79806800650E+03  0.40756903028E+04  0.39967910756E+04 0.  0.
        2    1    3    3  502    0 -0.16630863954E+04  0.24100204950E+03 -0.15018854557E+04  0.22537964124E+04  0.25500000920E-02 0.  1.
       -2    1    3    3    0  502  0.16630863954E+04 -0.24100204950E+03  0.70381744922E+03  0.18218938905E+04  0.25500000920E-02 0. -1.
</event>
<event>
 5   0  0.1785559E-07  0.4150515E+04  0.7818609E-02  0.7974853E-01
       -2   -1    0    0    0  501  0.00000000000E+00  0.00000000000E+00  0.20901852936E+04  0.20901852936E+04  0.25500000920E-02 0.  1.
        2   -1    0    0  501    0  0.00000000000E+00  0.00000000000E+00 -0.20604359333E+04  0.20604359333E+04  0.25500000920E-02 0. -1.
    10030    2    1    2    0    0  0.00000000000E+00  0.00000000000E+00  0.29749360325E+02  0.41506212270E+04  0.41505146121E+04 0.  0.
        2    1    3    3  502    0  0.12726727851E+04  0.57911802959E+03 -0.15186637088E+04  0.20643190574E+04  0.25500000920E-02 0. -1.
       -2    1    3    3    0  502 -0.12726727851E+04 -0.57911802959E+03  0.15484130692E+04  0.20863021696E+04  0.25500000920E-02 0.  1.
</event>
<event>
 5   0  0.5515000E-08  0.4026169E+04  0.7818609E-02  0.7999288E-01
        1   -1    0    0  501    0  0.00000000000E+00  0.00000000000E+00  0.18156187452E+04  0.18156187452E+04  0.50400001928E-02 0. -1.
       -1   -1    0    0    0  501  0.00000000000E+00  0.00000000000E+00 -0.22320264888E+04  0.22320264888E+04  0.50400001928E-02 0.  1.
    10030    2    1    2    0    0  0.00000000000E+00  0.00000000000E+00 -0.41640774360E+03  0.40476452340E+04  0.40261689646E+04 0.  0.
        3    1    3    3  502    0  0.11981318188E+04  0.92559298098E+03  0.11256237453E+04  0.18866030446E+04  0.10100000352E+00 0.  1.
       -3    1    3    3    0  502 -0.11981318188E+04 -0.92559298098E+03 -0.15420314889E+04  0.21610421894E+04  0.10100000352E+00 0. -1.
</event>
<event>
 5   0  0.5515000E-08  0.3922093E+04  0.7818609E-02  0.8020450E-01
        1   -1    0    0  501    0  0.00000000000E+00  0.00000000000E+00  0.20283716965E+04  0.20283716965E+04  0.50400001928E-02 0. -1.
       -1   -1    0    0    0  501  0.00000000000E+00  0.00000000000E+00 -0.18959562621E+04  0.18959562621E+04  0.50400001928E-02 0.  1.
    10030    2    1    2    0    0  0.00000000000E+00  0.00000000000E+00  0.13241543432E+03  0.39243279586E+04  0.39220933288E+04 0.  0.
        1    1    3    3  502    0 -0.17886100862E+04 -0.79362120797E+03 -0.63262133345E+02  0.19577953825E+04  0.50400001928E-02 0. -1.
       -1    1    3    3    0  502  0.17886100862E+04  0.79362120797E+03  0.19567756767E+03  0.19665325761E+04  0.50400001928E-02 0.  1.
</event>
<event>
 5   0  0.1773903E-07  0.4014685E+04  0.7818609E-02  0.8001591E-01
        2   -1    0    0  501    0  0.00000000000E+00  0.00000000000E+00  0.18067372273E+04  0.18067372273E+04  0.25500000920E-02 0. -1.
       -2   -1    0    0    0  501  0.00000000000E+00  0.00000000000E+00 -0.22302215692E+04  0.22302215692E+04  0.25500000920E-02 0.  1.
    10030    2    1    2    0    0  0.00000000000E+00  0.00000000000E+00 -0.42348434194E+03  0.40369587965E+04  0.40146852102E+04 0.  0.
        3    1    3    3  502    0 -0.48884058548E+03 -0.18593376362E+04 -0.79228638859E+03  0.20793795457E+04  0.10100000352E+00 0.  1.
       -3    1    3    3    0  502  0.48884058548E+03  0.18593376362E+04  0.36880204665E+03  0.19575792508E+04  0.10100000352E+00 0. -1.
</event>
<event>
 5   0  0.1821433E-07  0.4005838E+04  0.7818609E-02  0.8003370E-01
       -2   -1    0    0    0  501  0.00000000000E+00  0.00000000000E+00  0.16333544903E+04  0.16333544903E+04  0.25500000920E-02 0.  1.
        2   -1    0    0  501    0  0.00000000000E+00  0.00000000000E+00 -0.24561019206E+04  0.24561019206E+04  0.25500000920E-02 0. -1.
    10030    2    1    2    0    0  0.00000000000E+00  0.00000000000E+00 -0.82274743027E+03  0.40894564108E+04  0.40058382896E+04 0.  0.
        5    1    3    3  502    0 -0.91555392548E+03 -0.56405173352E+03  0.13136526432E+04  0.16976744993E+04  0.46999998093E+01 0.  1.
       -5    1    3    3    0  502  0.91555392548E+03  0.56405173352E+03 -0.21364000735E+04  0.23917819116E+04  0.46999998093E+01 0. -1.
</event>
<event>
 5   0  0.5515000E-08  0.3575775E+04  0.7818609E-02  0.8096063E-01
        1   -1    0    0  501    0  0.00000000000E+00  0.00000000000E+00  0.21083103058E+04  0.21083103059E+04  0.50400001928E-02 0.  1.
       -1   -1    0    0    0  501  0.00000000000E+00  0.00000000000E+00 -0.15161631495E+04  0.15161631495E+04  0.50400001928E-02 0. -1.
    10030    2    1    2    0    0  0.00000000000E+00  0.00000000000E+00  0.59214715637E+03  0.36244734553E+04  0.35757753808E+04 0.  0.
        2    1    3    3  502    0 -0.27236718174E+03 -0.88303076681E+03  0.18474785174E+04  0.20656969984E+04  0.25500000920E-02 0.  1.
       -2    1    3    3    0  502  0.27236718174E+03  0.88303076681E+03 -0.12553313610E+04  0.15587764570E+04  0.25500000920E-02 0. -1.
</event>
<event>
 5   0  0.5515000E-08  0.3998225E+04  0.7818609E-02  0.8004905E-01
        1   -1    0    0  501    0  0.00000000000E+00  0.00000000000E+00  0.18590066249E+04  0.18590066249E+04  0.50400001928E-02 0.  1.
       -1   -1    0    0    0  501  0.00000000000E+00  0.00000000000E+00 -0.21497780396E+04  0.21497780396E+04  0.50400001928E-02 0. -1.
    10030    2    1    2    0    0  0.00000000000E+00  0.00000000000E+00 -0.29077141465E+03  0.40087846645E+04  0.39982254152E+04 0.  0.
        2    1    3    3  502    0 -0.29134147295E+03  0.15177687260E+03  0.18317591500E+04  0.18609829812E+04  0.25500000920E-02 0.  1.
       -2    1    3    3    0  502  0.29134147295E+03 -0.15177687260E+03 -0.21225305646E+04  0.21478016833E+04  0.25500000920E-02 0. -1.
</event>
<event>
 5   0  0.5515000E-08  0.3982674E+04  0.7818609E-02  0.8008051E-01
        1   -1    0    0  501    0  0.00000000000E+00  0.00000000000E+00  0.23184452685E+04  0.23184452685E+04  0.50400001928E-02 0. -1.
       -1   -1    0    0    0  501  0.00000000000E+00  0.00000000000E+00 -0.17103803332E+04  0.17103803332E+04  0.50400001928E-02 0.  1.
    10030    2    1    2    0    0  0.00000000000E+00  0.00000000000E+00  0.60806493524E+03  0.40288256017E+04  0.39826740720E+04 0.  0.
        3    1    3    3  502    0  0.34388891497E+03  0.48623432617E+03 -0.16181818002E+04  0.17242957271E+04  0.10100000352E+00 0.  1.
       -3    1    3    3    0  502 -0.34388891497E+03 -0.48623432617E+03  0.22262467354E+04  0.23045298746E+04  0.10100000352E+00 0. -1.
</event>
<event>
 5   0  0.1773903E-07  0.4006117E+04  0.7818609E-02  0.8003314E-01
        2   -1    0    0  501    0  0.00000000000E+00  0.00000000000E+00  0.17252722544E+04  0.17252722544E+04  0.25500000920E-02 0.  1.
       -2   -1    0    0    0  501  0.00000000000E+00  0.00000000000E+00 -0.23255707177E+04  0.23255707177E+04  0.25500000920E-02 0. -1.
    10030    2    1    2    0    0  0.00000000000E+00  0.00000000000E+00 -0.60029846330E+03  0.40508429722E+04  0.40061166409E+04 0.  0.
        3    1    3    3  502    0  0.11176716447E+04  0.16026055230E+04 -0.74633324247E+03  0.20915419400E+04  0.10100000352E+00 0. -1.
       -3    1    3    3    0  502 -0.11176716447E+04 -0.16026055230E+04  0.14603477917E+03  0.19593010322E+04  0.10100000352E+00 0.  1.
</event>
<event>
 5   0  0.5515000E-08  0.3952498E+04  0.7818609E-02  0.8014198E-01
       -1   -1    0    0    0  501  0.00000000000E+00  0.00000000000E+00  0.18127628919E+04  0.18127628919E+04  0.50400001928E-02 0. -1.
        1   -1    0    0  501    0  0.00000000000E+00  0.00000000000E+00 -0.21544788752E+04  0.21544788752E+04  0.50400001928E-02 0.  1.
    10030    2    1    2    0    0  0.00000000000E+00  0.00000000000E+00 -0.34171598332E+03  0.39672417671E+04  0.39524976187E+04 0.  0.
        5    1    3    3  502    0  0.18157891768E+04  0.23944177401E+03 -0.91599819586E+03  0.20478030868E+04  0.46999998093E+01 0.  1.
       -5    1    3    3    0  502 -0.18157891768E+04 -0.23944177401E+03  0.57428221254E+03  0.19194386803E+04  0.46999998093E+01 0. -1.
</event>
<event>
 5   0  0.5515000E-08  0.4052137E+04  0.7818609E-02  0.7994111E-01
       -1   -1    0    0    0  501  0.00000000000E+00  0.00000000000E+00  0.22033868847E+04  0.22033868847E+04  0.50400001928E-02 0. -1.
        1   -1    0    0  501    0  0.00000000000E+00  0.00000000000E+00 -0.18630203292E+04  0.18630203292E+04  0.50400001928E-02 0.  1.
    10030    2    1    2    0    0  0.00000000000E+00  0.00000000000E+00  0.34036655547E+03  0.40664072139E+04  0.40521374899E+04 0.  0.
        4    1    3    3  502    0  0.67736909301E+03 -0.45636642806E+03 -0.16904911660E+04  0.18774613711E+04  0.12699999809E+01 0.  1.
       -4    1    3    3    0  502 -0.67736909301E+03  0.45636642806E+03  0.20308577215E+04  0.21889458428E+04  0.12699999809E+01 0. -1.
</event>
<event>
 5   0  0.1773903E-07  0.3994050E+04  0.7818609E-02  0.8005748E-01
        2   -1    0    0  501    0  0.00000000000E+00  0.00000000000E+00  0.25508362280E+04  0.25508362280E+04  0.25500000920E-02 0.  1.
       -2   -1    0    0    0  501  0.00000000000E+00  0.00000000000E+00 -0.15634512939E+04  0.15634512939E+04  0.25500000920E-02 0. -1.
    10030    2    1    2    0    0  0.00000000000E+00  0.00000000000E+00  0.98738493407E+03  0.41142875220E+04  0.39940496749E+04 0.  0.
        3    1    3    3  502    0 -0.23400925393E+03 -0.27076595940E+02  0.25364737817E+04  0.25473893948E+04  0.10100000352E+00 0.  1.
       -3    1    3    3    0  502  0.23400925393E+03  0.27076595940E+02 -0.15490888476E+04  0.15668981272E+04  0.10100000352E+00 0. -1.
</event>
<event>
 5   0  0.1821433E-07  0.3816190E+04  0.7818609E-02  0.8042689E-01
       -2   -1    0    0    0  501  0.00000000000E+00  0.00000000000E+00  0.24827106142E+04  0.24827106142E+04  0.25500000920E-02 0. -1.
        2   -1    0    0  501    0  0.00000000000E+00  0.00000000000E+00 -0.14664723612E+04  0.14664723612E+04  0.25500000920E-02 0.  1.
    10030    2    1    2    0    0  0.00000000000E+00  0.00000000000E+00  0.10162382530E+04  0.39491829754E+04  0.38161899830E+04 0.  0.
        5    1    3    3  502    0  0.26487432220E+03 -0.12328241671E+04 -0.97384579919E+03  0.15932393305E+04  0.46999998093E+01 0.  1.
       -5    1    3    3    0  502 -0.26487432220E+03  0.12328241671E+04  0.19900840522E+04  0.23559436450E+04  0.46999998093E+01 0. -1.
</event>
<event>
 5   0  0.1821433E-07  0.4031614E+04  0.7818609E-02  0.7998199E-01
       -2   -1    0    0    0  501  0.00000000000E+00  0.00000000000E+00  0.17535403943E+04  0.17535403943E+04  0.25500000920E-02 0.  1.
        2   -1    0    0  501    0  0.00000000000E+00  0.00000000000E+00 -0.23172995483E+04  0.23172995483E+04  0.25500000920E-02 0. -1.
    10030    2    1    2    0    0  0.00000000000E+00  0.00000000000E+00 -0.56375915402E+03  0.40708399426E+04  0.40316142492E+04 0.  0.
        5    1    3    3  502    0 -0.12251025715E+04 -0.15092816565E+04  0.25683629127E+03  0.19608147285E+04  0.46999998093E+01 0.  1.
       -5    1    3    3    0  502  0.12251025715E+04  0.15092816565E+04 -0.82059544529E+03  0.21100252141E+04  0.46999998093E+01 0. -1.
</event>
<event>
 5   0  0.1821433E-07  0.3833170E+04  0.7818609E-02  0.8039074E-01
       -2   -1    0    0    0  501  0.00000000000E+00  0.00000000000E+00  0.19633441041E+04  0.19633441041E+04  0.25500000920E-02 0.  1.
        2   -1    0    0  501    0  0.00000000000E+00  0.00000000000E+00 -0.18709391770E+04  0.18709391770E+04  0.25500000920E-02 0. -1.
    10030    2    1    2    0    0  0.00000000000E+00  0.00000000000E+00  0.92404927134E+02  0.38342832811E+04  0.38331696556E+04 0.  0.
        5    1    3    3  502    0  0.83396975856E+02 -0.18764867000E+04 -0.33485167172E+03  0.19079583651E+04  0.46999998093E+01 0.  1.
       -5    1    3    3    0  502 -0.83396975856E+02  0.18764867000E+04  0.42725659886E+03  0.19263249160E+04  0.46999998093E+01 0. -1.
</event>
<event>
 5   0  0.1785559E-07  0.4012706E+04  0.7818609E-02  0.8001988E-01
       -2   -1    0    0    0  501  0.00000000000E+00  0.00000000000E+00  0.19272882257E+04  0.19272882257E+04  0.25500000920E-02 0.  1.
        2   -1    0    0  501    0  0.00000000000E+00  0.00000000000E+00 -0.20886617833E+04  0.20886617833E+04  0.25500000920E-02 0. -1.
    10030    2    1    2    0    0  0.00000000000E+00  0.00000000000E+00 -0.16137355754E+03  0.40159500090E+04  0.40127064494E+04 0.  0.
        2    1    3    3  502    0  0.26445546020E+03  0.19438342887E+04  0.34039650515E+03  0.19910545480E+04  0.25500000920E-02 0. -1.
       -2    1    3    3    0  502 -0.26445546020E+03 -0.19438342887E+04 -0.50177006269E+03  0.20248954610E+04  0.25500000920E-02 0.  1.
</event>
<event>
 5   0  0.1776653E-07  0.4052894E+04  0.7818609E-02  0.7993960E-01
        2   -1    0    0  501    0  0.00000000000E+00  0.00000000000E+00  0.23376695895E+04  0.23376695895E+04  0.25500000920E-02 0. -1.
       -2   -1    0    0    0  501  0.00000000000E+00  0.00000000000E+00 -0.17566582676E+04  0.17566582677E+04  0.25500000920E-02 0.  1.
    10030    2    1    2    0    0  0.00000000000E+00  0.00000000000E+00  0.58101132181E+03  0.40943278571E+04  0.40528935892E+04 0.  0.
        4    1    3    3  502    0  0.77795198274E+03  0.16227949246E+04  0.12315938580E+04  0.21807103656E+04  0.12699999809E+01 0. -1.
       -4    1    3    3    0  502 -0.77795198274E+03 -0.16227949246E+04 -0.65058253614E+03  0.19136174915E+04  0.12699999809E+01 0.  1.
</event>
<event>
 5   0  0.1821433E-07  0.3884633E+04  0.7818609E-02  0.8028233E-01
        2   -1    0    0  501    0  0.00000000000E+00  0.00000000000E+00  0.20204495405E+04  0.20204495405E+04  0.25500000920E-02 0. -1.
       -2   -1    0    0    0  501  0.00000000000E+00  0.00000000000E+00 -0.18672051620E+04  0.18672051620E+04  0.25500000920E-02 0.  1.
    10030    2    1    2    0    0  0.00000000000E+00  0.00000000000E+00  0.15324437852E+03  0.38876547026E+04  0.38846332191E+04 0.  0.
        5    1    3    3  502    0 -0.18836920358E+04  0.33536862142E+03  0.41125320145E+03  0.19570179058E+04  0.46999998093E+01 0. -1.
       -5    1    3    3    0  502  0.18836920358E+04 -0.33536862142E+03 -0.25800882293E+03  0.19306367967E+04  0.46999998093E+01 0.  1.
</event>
<event>
 5   0  0.1821433E-07  0.4131576E+04  0.7818609E-02  0.7978517E-01
        2   -1    0    0  501    0  0.00000000000E+00  0.00000000000E+00  0.22346459791E+04  0.22346459791E+04  0.25500000920E-02 0. -1.
       -2   -1    0    0    0  501  0.00000000000E+00  0.00000000000E+00 -0.19096891078E+04  0.19096891078E+04  0.25500000920E-02 0.  1.
    10030    2    1    2    0    0  0.00000000000E+00  0.00000000000E+00  0.32495687137E+03  0.41443350869E+04  0.41315755281E+04 0.  0.
        5    1    3    3  502    0  0.99967546342E+03  0.59402072426E+03  0.18751603886E+04  0.22064587524E+04  0.46999998093E+01 0. -1.
       -5    1    3    3    0  502 -0.99967546342E+03 -0.59402072426E+03 -0.15502035172E+04  0.19378763345E+04  0.46999998093E+01 0.  1.
</event>
<event>
 5   0  0.1819906E-07  0.4030508E+04  0.7818609E-02  0.7998420E-01
        2   -1    0    0  501    0  0.00000000000E+00  0.00000000000E+00  0.14629296434E+04  0.14629296434E+04  0.25500000920E-02 0. -1.
       -2   -1    0    0    0  501  0.00000000000E+00  0.00000000000E+00 -0.27761067953E+04  0.27761067953E+04  0.25500000920E-02 0.  1.
    10030    2    1    2    0    0  0.00000000000E+00  0.00000000000E+00 -0.13131771519E+04  0.42390364387E+04  0.40305081188E+04 0.  0.
        1    1    3    3  502    0 -0.44277868542E+03 -0.10768132509E+03  0.14080341579E+04  0.14799352762E+04  0.50400001928E-02 0. -1.
       -1    1    3    3    0  502  0.44277868542E+03  0.10768132509E+03 -0.27212113098E+04  0.27591011624E+04  0.50400001928E-02 0.  1.
</event>
<event>
 5   0  0.1819906E-07  0.3971165E+04  0.7818609E-02  0.8010389E-01
       -2   -1    0    0    0  501  0.00000000000E+00  0.00000000000E+00  0.17577433348E+04  0.17577433348E+04  0.25500000920E-02 0.  1.
        2   -1    0    0  501    0  0.00000000000E+00  0.00000000000E+00 -0.22429539073E+04  0.22429539073E+04  0.25500000920E-02 0. -1.
    10030    2    1    2    0    0  0.00000000000E+00  0.00000000000E+00 -0.48521057251E+03  0.40006972420E+04  0.39711647061E+04 0.  0.
        1    1    3    3  502    0 -0.12696620406E+04  0.40871764939E+03  0.12391987146E+04  0.18206332054E+04  0.50400001928E-02 0.  1.
       -1    1    3    3    0  502  0.12696620406E+04 -0.40871764939E+03 -0.17244092871E+04  0.21800640366E+04  0.50400001928E-02 0. -1.
</event>
<event>
 5   0  0.5515000E-08  0.4004207E+04  0.7818609E-02  0.8003698E-01
       -1   -1    0    0    0  501  0.00000000000E+00  0.00000000000E+00  0.23022333680E+04  0.23022333680E+04  0.50400001928E-02 0.  1.
        1   -1    0    0  501    0  0.00000000000E+00  0.00000000000E+00 -0.17411001003E+04  0.17411001003E+04  0.50400001928E-02 0. -1.
    10030    2    1    2    0    0  0.00000000000E+00  0.00000000000E+00  0.56113326772E+03  0.40433334683E+04  0.40042071615E+04 0.  0.
        2    1    3    3  502    0  0.18717433452E+04 -0.70322305861E+03  0.38390392414E+03  0.20360078692E+04  0.25500000920E-02 0.  1.
       -2    1    3    3    0  502 -0.18717433452E+04  0.70322305861E+03  0.17722934358E+03  0.20073255991E+04  0.25500000920E-02 0. -1.
</event>
<event>
 5   0  0.1773903E-07  0.4039654E+04  0.7818609E-02  0.7996595E-01
        2   -1    0    0  501    0  0.00000000000E+00  0.00000000000E+00  0.18144436901E+04  0.18144436901E+04  0.25500000920E-02 0. -1.
       -2   -1    0    0    0  501  0.00000000000E+00  0.00000000000E+00 -0.22484579528E+04  0.22484579528E+04  0.25500000920E-02 0.  1.
    10030    2    1    2    0    0  0.00000000000E+00  0.00000000000E+00 -0.43401426274E+03  0.40629016429E+04  0.40396536212E+04 0.  0.
        3    1    3    3  502    0  0.45683611036E+03  0.19454853838E+04 -0.51210277244E+03  0.20629740352E+04  0.10100000352E+00 0.  1.
       -3    1    3    3    0  502 -0.45683611036E+03 -0.19454853838E+04  0.78088509693E+02  0.19999276077E+04  0.10100000352E+00 0. -1.
</event>
<event>
 5   0  0.5515000E-08  0.4024799E+04  0.7818609E-02  0.7999562E-01
        1   -1    0    0  501    0  0.00000000000E+00  0.00000000000E+00  0.15116218994E+04  0.15116218994E+04  0.50400001928E-02 0. -1.
       -1   -1    0    0    0  501  0.00000000000E+00  0.00000000000E+00 -0.26790770438E+04  0.26790770439E+04  0.50400001928E-02 0.  1.
    10030    2    1    2    0    0  0.00000000000E+00  0.00000000000E+00 -0.11674551444E+04  0.41906989433E+04  0.40247988918E+04 0.  0.
        4    1    3    3  502    0  0.14855339124E+04  0.44814295661E+03 -0.19179952881E+04  0.24670530299E+04  0.12699999809E+01 0. -1.
       -4    1    3    3    0  502 -0.14855339124E+04 -0.44814295661E+03  0.75054014366E+03  0.17236459134E+04  0.12699999809E+01 0.  1.
</event>
<event>
 5   0  0.5515000E-08  0.3985490E+04  0.7818609E-02  0.8007480E-01
       -1   -1    0    0    0  501  0.00000000000E+00  0.00000000000E+00  0.17046332435E+04  0.17046332435E+04  0.50400001928E-02 0. -1.
        1   -1    0    0  501    0  0.00000000000E+00  0.00000000000E+00 -0.23295528273E+04  0.23295528273E+04  0.50400001928E-02 0.  1.
    10030    2    1    2    0    0  0.00000000000E+00  0.00000000000E+00 -0.62491958379E+03  0.40341860709E+04  0.39854902795E+04 0.  0.
        3    1    3    3  502    0  0.15013468983E+04  0.79066176037E+02  0.10114734183E+04  0.18120078519E+04  0.10100000352E+00 0. -1.
       -3    1    3    3    0  502 -0.15013468983E+04 -0.79066176037E+02 -0.16363930021E+04  0.22221782189E+04  0.10100000352E+00 0.  1.
</event>
<event>
 5   0  0.1776653E-07  0.4075987E+04  0.7818609E-02  0.7989391E-01
       -2   -1    0    0    0  501  0.00000000000E+00  0.00000000000E+00  0.23845544824E+04  0.23845544824E+04  0.25500000920E-02 0. -1.
        2   -1    0    0  501    0  0.00000000000E+00  0.00000000000E+00 -0.17417999064E+04  0.17417999064E+04  0.25500000920E-02 0.  1.
    10030    2    1    2    0    0  0.00000000000E+00  0.00000000000E+00  0.64275457601E+03  0.41263543889E+04  0.40759866410E+04 0.  0.
        4    1    3    3  502    0  0.24351408158E+03 -0.11599355554E+04  0.19997743973E+04  0.23246180017E+04  0.12699999809E+01 0. -1.
       -4    1    3    3    0  502 -0.24351408158E+03  0.11599355554E+04 -0.13570198213E+04  0.18017363872E+04  0.12699999809E+01 0.  1.
</event>
<event>
 5   0  0.5515000E-08  0.3969589E+04  0.7818609E-02  0.8010710E-01
        1   -1    0    0  501    0  0.00000000000E+00  0.00000000000E+00  0.29866167860E+04  0.29866167860E+04  0.50400001928E-02 0. -1.
       -1   -1    0    0    0  501  0.00000000000E+00  0.00000000000E+00 -0.13190205329E+04  0.13190205329E+04  0.50400001928E-02 0.  1.
    10030    2    1    2    0    0  0.00000000000E+00  0.00000000000E+00  0.16675962531E+04  0.43056373188E+04  0.39695888273E+04 0.  0.
        4    1    3    3  502    0 -0.50102942301E+03 -0.83532173819E+03 -0.10419396605E+04  0.14263354297E+04  0.12699999809E+01 0.  1.
       -4    1    3    3    0  502  0.50102942301E+03  0.83532173819E+03  0.27095359136E+04  0.28793018892E+04  0.12699999809E+01 0. -1.
</event>
<event>
 5   0  0.1785559E-07  0.3993827E+04  0.7818609E-02  0.8005793E-01
       -2   -1    0    0    0  501  0.00000000000E+00  0.00000000000E+00  0.14784105447E+04  0.14784105447E+04  0.25500000920E-02 0. -1.
        2   -1    0    0  501    0  0.00000000000E+00  0.00000000000E+00 -0.26972641473E+04  0.26972641473E+04  0.25500000920E-02 0.  1.
    10030    2    1    2    0    0  0.00000000000E+00  0.00000000000E+00 -0.12188536027E+04  0.41756746920E+04  0.39938271155E+04 0.  0.
        2    1    3    3  502    0 -0.12398596440E+04  0.31400798516E+03 -0.22128146460E+04  0.25558563358E+04  0.25500000920E-02 0.  1.
       -2    1    3    3    0  502  0.12398596440E+04 -0.31400798516E+03  0.99396104333E+03  0.16198183562E+04  0.25500000920E-02 0. -1.
</event>
<event>
 5   0  0.1819906E-07  0.4040835E+04  0.7818609E-02  0.7996359E-01
        2   -1    0    0  501    0  0.00000000000E+00  0.00000000000E+00  0.27122989438E+04  0.27122989438E+04  0.25500000920E-02 0. -1.
       -2   -1    0    0    0  501  0.00000000000E+00  0.00000000000E+00 -0.15050285468E+04  0.15050285468E+04  0.25500000920E-02 0.  1.
    10030    2    1    2    0    0  0.00000000000E+00  0.00000000000E+00  0.12072703970E+04  0.42173274906E+04  0.40408352294E+04 0.  0.
        1    1    3    3  502    0 -0.10024108635E+04 -0.29238063113E+03  0.24088568375E+04  0.26254342948E+04  0.50400001928E-02 0. -1.
       -1    1    3    3    0  502  0.10024108635E+04  0.29238063113E+03 -0.12015864405E+04  0.15918931958E+04  0.50400001928E-02 0.  1.
</event>
<event>
 5   0  0.1821433E-07  0.3966984E+04  0.7818609E-02  0.8011240E-01
       -2   -1    0    0    0  501  0.00000000000E+00  0.00000000000E+00  0.21755221786E+04  0.21755221786E+04  0.25500000920E-02 0. -1.
        2   -1    0    0  501    0  0.00000000000E+00  0.00000000000E+00 -0.18084116644E+04  0.18084116644E+04  0.25500000920E-02 0.  1.
    10030    2    1    2    0    0  0.00000000000E+00  0.00000000000E+00  0.36711051425E+03  0.39839338430E+04  0.39669835815E+04 0.  0.
        5    1    3    3  502    0  0.64646658951E+03  0.11861644540E+04 -0.12749975954E+04  0.18575645673E+04  0.46999998093E+01 0.  1.
       -5    1    3    3    0  502 -0.64646658951E+03 -0.11861644540E+04  0.16421081096E+04  0.21263692758E+04  0.46999998093E+01 0. -1.
</event>
<event>
 5   0  0.5515000E-08  0.4016195E+04  0.7818609E-02  0.8001287E-01
       -1   -1    0    0    0  501  0.00000000000E+00  0.00000000000E+00  0.21376645869E+04  0.21376645869E+04  0.50400001928E-02 0.  1.
        1   -1    0    0  501    0  0.00000000000E+00  0.00000000000E+00 -0.18863838717E+04  0.18863838717E+04  0.50400001928E-02 0. -1.
    10030    2    1    2    0    0  0.00000000000E+00  0.00000000000E+00  0.25128071520E+03  0.40240484586E+04  0.40161952143E+04 0.  0.
        2    1    3    3  502    0 -0.18483444094E+04  0.64171872391E+03 -0.32721247152E+03  0.19837459459E+04  0.25500000920E-02 0. -1.
       -2    1    3    3    0  502  0.18483444094E+04 -0.64171872391E+03  0.57849318672E+03  0.20403025127E+04  0.25500000920E-02 0.  1.
</event>
<event>
 5   0  0.5515000E-08  0.3977942E+04  0.7818609E-02  0.8009011E-01
        1   -1    0    0  501    0  0.00000000000E+00  0.00000000000E+00  0.19511085706E+04  0.19511085706E+04  0.50400001928E-02 0.  1.
       -1   -1    0    0    0  501  0.00000000000E+00  0.00000000000E+00 -0.20275686232E+04  0.20275686232E+04  0.50400001928E-02 0. -1.
    10030    2    1    2    0    0  0.00000000000E+00  0.00000000000E+00 -0.76460052572E+02  0.39786771938E+04  0.39779424421E+04 0.  0.
        4    1    3    3  502    0 -0.28762261184E+03  0.14853513222E+04 -0.13295957606E+04  0.20141553606E+04  0.12699999809E+01 0. -1.
       -4    1    3    3    0  502  0.28762261184E+03 -0.14853513222E+04  0.12531357080E+04  0.19645218331E+04  0.12699999809E+01 0.  1.
</event>
<event>
 5   0  0.1776653E-07  0.4014289E+04  0.7818609E-02  0.8001670E-01
        2   -1    0    0  501    0  0.00000000000E+00  0.00000000000E+00  0.25379911990E+04  0.25379911990E+04  0.25500000920E-02 0.  1.
       -2   -1    0    0    0  501  0.00000000000E+00  0.00000000000E+00 -0.15873298468E+04  0.15873298468E+04  0.25500000920E-02 0. -1.
    10030    2    1    2    0    0  0.00000000000E+00  0.00000000000E+00  0.95066135217E+03  0.41253210458E+04  0.40142890684E+04 0.  0.
        4    1    3    3  502    0 -0.88637045548E+03  0.17627875298E+04  0.96969074920E+02  0.19754688238E+04  0.12699999809E+01 0. -1.
       -4    1    3    3    0  502  0.88637045548E+03 -0.17627875298E+04  0.85369227725E+03  0.21498522220E+04  0.12699999809E+01 0.  1.
</event>
<event>
 5   0  0.1773903E-07  0.4005528E+04  0.7818609E-02  0.8003432E-01
        2   -1    0    0  501    0  0.00000000000E+00  0.00000000000E+00  0.13418663286E+04  0.13418663286E+04  0.25500000920E-02 0. -1.
       -2   -1    0    0    0  501  0.00000000000E+00  0.00000000000E+00 -0.29891675397E+04  0.29891675397E+04  0.25500000920E-02 0.  1.
    10030    2    1    2    0    0  0.00000000000E+00  0.00000000000E+00 -0.16473012111E+04  0.43310338683E+04  0.40055278164E+04 0.  0.
        3    1    3    3  502    0 -0.15456066204E+04 -0.62473053986E+03  0.37644316674E+03  0.17090633518E+04  0.10100000352E+00 0. -1.
       -3    1    3    3    0  502  0.15456066204E+04  0.62473053986E+03 -0.20237443779E+04  0.26219705165E+04  0.10100000352E+00 0.  1.
</event>
<event>
 5   0  0.5515000E-08  0.3939202E+04  0.7818609E-02  0.8016925E-01
       -1   -1    0    0    0  501  0.00000000000E+00  0.00000000000E+00  0.26678611954E+04  0.26678611954E+04  0.50400001928E-02 0.  1.
        1   -1    0    0  501    0  0.00000000000E+00  0.00000000000E+00 -0.14540963452E+04  0.14540963453E+04  0.50400001928E-02 0. -1.
    10030    2    1    2    0    0  0.00000000000E+00  0.00000000000E+00  0.12137648501E+04  0.41219575406E+04  0.39392015505E+04 0.  0.
        1    1    3    3  502    0  0.17454337119E+04  0.40744897402E+03  0.14613282733E+04  0.23125816378E+04  0.50400001928E-02 0.  1.
       -1    1    3    3    0  502 -0.17454337119E+04 -0.40744897402E+03 -0.24756342316E+03  0.18093759028E+04  0.50400001928E-02 0. -1.
</event>
<event>
 5   0  0.5515000E-08  0.4010411E+04  0.7818609E-02  0.8002450E-01
        1   -1    0    0  501    0  0.00000000000E+00  0.00000000000E+00  0.22429715562E+04  0.22429715562E+04  0.50400001928E-02 0. -1.
       -1   -1    0    0    0  501  0.00000000000E+00  0.00000000000E+00 -0.17926434005E+04  0.17926434005E+04  0.50400001928E-02 0.  1.
    10030    2    1    2    0    0  0.00000000000E+00  0.00000000000E+00  0.45032815572E+03  0.40356149566E+04  0.40104105314E+04 0.  0.
        3    1    3    3  502    0 -0.16216090153E+04 -0.11550342465E+04  0.46568137098E+03  0.20446464385E+04  0.10100000352E+00 0. -1.
       -3    1    3    3    0  502  0.16216090153E+04  0.11550342465E+04 -0.15353215265E+02  0.19909685182E+04  0.10100000352E+00 0.  1.
</event>
<event>
 5   0  0.5515000E-08  0.4013770E+04  0.7818609E-02  0.8001774E-01
        1   -1    0    0  501    0  0.00000000000E+00  0.00000000000E+00  0.15175698580E+04  0.15175698580E+04  0.50400001928E-02 0.  1.
       -1   -1    0    0    0  501  0.00000000000E+00  0.00000000000E+00 -0.26539720951E+04  0.26539720951E+04  0.50400001928E-02 0. -1.
    10030    2    1    2    0    0  0.00000000000E+00  0.00000000000E+00 -0.11364022371E+04  0.41715419532E+04  0.40137703251E+04 0.  0.
        2    1    3    3  502    0  0.10102538877E+04 -0.11964252539E+03 -0.23661313942E+04  0.25755591677E+04  0.25500000920E-02 0. -1.
       -2    1    3    3    0  502 -0.10102538877E+04  0.11964252539E+03  0.12297291572E+04  0.15959827855E+04  0.25500000920E-02 0.  1.
</event>
<event>
 5   0  0.5515000E-08  0.3981645E+04  0.7818609E-02  0.8008260E-01
       -1   -1    0    0    0  501  0.00000000000E+00  0.00000000000E+00  0.17578268864E+04  0.17578268864E+04  0.50400001928E-02 0. -1.
        1   -1    0    0  501    0  0.00000000000E+00  0.00000000000E+00 -0.22547012523E+04  0.22547012524E+04  0.50400001928E-02 0.  1.
    10030    2    1    2    0    0  0.00000000000E+00  0.00000000000E+00 -0.49687436597E+03  0.40125281387E+04  0.39816451284E+04 0.  0.
        2    1    3    3  502    0 -0.76866041603E+01  0.36526397981E+03  0.17237545020E+04  0.17620460953E+04  0.25500000920E-02 0. -1.
       -2    1    3    3    0  502  0.76866041603E+01 -0.36526397981E+03 -0.22206288679E+04  0.22504820435E+04  0.25500000920E-02 0.  1.
</event>
<event>
 5   0  0.1821433E-07  0.3432431E+04  0.7818609E-02  0.8129992E-01
       -2   -1    0    0    0  501  0.00000000000E+00  0.00000000000E+00  0.10843035097E+04  0.10843035097E+04  0.25500000920E-02 0. -1.
        2   -1    0    0  501    0  0.00000000000E+00  0.00000000000E+00 -0.27163936004E+04  0.27163936004E+04  0.25500000920E-02 0.  1.
    10030    2    1    2    0    0  0.00000000000E+00  0.00000000000E+00 -0.16320900907E+04  0.38006971101E+04  0.34324306925E+04 0.  0.
        5    1    3    3  502    0 -0.66547751085E+03 -0.77390812431E+02  0.93351681127E+03  0.11490541250E+04  0.46999998093E+01 0. -1.
       -5    1    3    3    0  502  0.66547751085E+03  0.77390812431E+02 -0.25656069019E+04  0.26516429851E+04  0.46999998093E+01 0.  1.
</event>
<event>
 5   0  0.5515000E-08  0.4026760E+04  0.7818609E-02  0.7999170E-01
       -3   -1    0    0    0  501  0.00000000000E+00  0.00000000000E+00  0.18034330315E+04  0.18034330344E+04  0.10100000352E+00 0. -1.
        3   -1    0    0  501    0  0.00000000000E+00  0.00000000000E+00 -0.22477684721E+04  0.22477684744E+04  0.10100000352E+00 0.  1.
    10030    2    1    2    0    0  0.00000000000E+00  0.00000000000E+00 -0.44433544058E+03  0.40512015088E+04  0.40267604449E+04 0.  0.
        5    1    3    3  502    0  0.59966302560E+03 -0.13609929635E+04 -0.15875270316E+04  0.21753532488E+04  0.46999998093E+01 0.  1.
       -5    1    3    3    0  502 -0.59966302560E+03  0.13609929635E+04  0.11431915910E+04  0.18758482600E+04  0.46999998093E+01 0. -1.
</event>
<event>
 5   0  0.5515000E-08  0.4057714E+04  0.7818609E-02  0.7993004E-01
        1   -1    0    0  501    0  0.00000000000E+00  0.00000000000E+00  0.14771898669E+04  0.14771898669E+04  0.50400001928E-02 0. -1.
       -1   -1    0    0    0  501  0.00000000000E+00  0.00000000000E+00 -0.27865487971E+04  0.27865487971E+04  0.50400001928E-02 0.  1.
    10030    2    1    2    0    0  0.00000000000E+00  0.00000000000E+00 -0.13093589302E+04  0.42637386640E+04  0.40577144536E+04 0.  0.
        3    1    3    3  502    0 -0.74139621430E+03  0.53323733437E+03 -0.25583641062E+04  0.27164751631E+04  0.10100000352E+00 0.  1.
       -3    1    3    3    0  502  0.74139621430E+03 -0.53323733437E+03  0.12490051760E+04  0.15472635009E+04  0.10100000352E+00 0. -1.
</event>
<event>
 5   0  0.5515000E-08  0.3880477E+04  0.7818609E-02  0.8029102E-01
       -1   -1    0    0    0  501  0.00000000000E+00  0.00000000000E+00  0.35396443992E+04  0.35396443992E+04  0.50400001928E-02 0. -1.
        1   -1    0    0  501    0  0.00000000000E+00  0.00000000000E+00 -0.10635323583E+04  0.10635323584E+04  0.50400001928E-02 0.  1.
    10030    2    1    2    0    0  0.00000000000E+00  0.00000000000E+00  0.24761120408E+04  0.46031767575E+04  0.38804774735E+04 0.  0.
        5    1    3    3  502    0 -0.46211464394E+03  0.33732006393E+03 -0.96118566879E+03  0.11185860492E+04  0.46999998093E+01 0.  1.
       -5    1    3    3    0  502  0.46211464394E+03 -0.33732006393E+03  0.34372977096E+04  0.34845907083E+04  0.46999998093E+01 0. -1.
</event>
<event>
 5   0  0.5515000E-08  0.3989551E+04  0.7818609E-02  0.8006658E-01
       -1   -1    0    0    0  501  0.00000000000E+00  0.00000000000E+00  0.16994784825E+04  0.16994784825E+04  0.50400001928E-02 0. -1.
        1   -1    0    0  501    0  0.00000000000E+00  0.00000000000E+00 -0.23413830361E+04  0.23413830361E+04  0.50400001928E-02 0.  1.
    10030    2    1    2    0    0  0.00000000000E+00  0.00000000000E+00 -0.64190455362E+03  0.40408615186E+04  0.39895513979E+04 0.  0.
        1    1    3    3  502    0 -0.46447725710E+03  0.19015382603E+04 -0.71000594899E+03  0.20822332543E+04  0.50400001928E-02 0.  1.
       -1    1    3    3    0  502  0.46447725710E+03 -0.19015382603E+04  0.68101395370E+02  0.19586282643E+04  0.50400001928E-02 0. -1.
</event>
<event>
 5   0  0.1785559E-07  0.4015604E+04  0.7818609E-02  0.8001406E-01
        2   -1    0    0  501    0  0.00000000000E+00  0.00000000000E+00  0.20700215714E+04  0.20700215714E+04  0.25500000920E-02 0. -1.
       -2   -1    0    0    0  501  0.00000000000E+00  0.00000000000E+00 -0.19474529159E+04  0.19474529159E+04  0.25500000920E-02 0.  1.
    10030    2    1    2    0    0  0.00000000000E+00  0.00000000000E+00  0.12256865553E+03  0.40174744872E+04  0.40156043356E+04 0.  0.
        2    1    3    3  502    0 -0.59953602938E+03 -0.10193882989E+04  0.16845915522E+04  0.20582625324E+04  0.25500000920E-02 0. -1.
       -2    1    3    3    0  502  0.59953602938E+03  0.10193882989E+04 -0.15620228967E+04  0.19592119549E+04  0.25500000920E-02 0.  1.
</event>
<event>
 5   0  0.1819906E-07  0.3986275E+04  0.7818609E-02  0.8007321E-01
       -2   -1    0    0    0  501  0.00000000000E+00  0.00000000000E+00  0.19203013365E+04  0.19203013365E+04  0.25500000920E-02 0.  1.
        2   -1    0    0  501    0  0.00000000000E+00  0.00000000000E+00 -0.20687359540E+04  0.20687359540E+04  0.25500000920E-02 0. -1.
    10030    2    1    2    0    0  0.00000000000E+00  0.00000000000E+00 -0.14843461750E+03  0.39890372905E+04  0.39862746606E+04 0.  0.
        1    1    3    3  502    0  0.17121057421E+04 -0.72493332429E+03  0.64444613889E+03  0.19677767208E+04  0.50400001928E-02 0.  1.
       -1    1    3    3    0  502 -0.17121057421E+04  0.72493332429E+03 -0.79288075639E+03  0.20212605697E+04  0.50400001928E-02 0. -1.
</event>
<event>
 5   0  0.5515000E-08  0.3586061E+04  0.7818609E-02  0.8093692E-01
        1   -1    0    0  501    0  0.00000000000E+00  0.00000000000E+00  0.18326104743E+04  0.18326104743E+04  0.50400001928E-02 0. -1.
       -1   -1    0    0    0  501  0.00000000000E+00  0.00000000000E+00 -0.17543053073E+04  0.17543053073E+04  0.50400001928E-02 0.  1.
    10030    2    1    2    0    0  0.00000000000E+00  0.00000000000E+00  0.78305166998E+02  0.35869157816E+04  0.35860609484E+04 0.  0.
        2    1    3    3  502    0  0.17012498191E+04  0.56408084715E+03 -0.11060301091E+02  0.17923617044E+04  0.25500000920E-02 0.  1.
       -2    1    3    3    0  502 -0.17012498191E+04 -0.56408084715E+03  0.89365468088E+02  0.17945540772E+04  0.25500000920E-02 0. -1.
</event>
<event>
 5   0  0.5515000E-08  0.4020960E+04  0.7818609E-02  0.8000332E-01
        1   -1    0    0  501    0  0.00000000000E+00  0.00000000000E+00  0.13454011719E+04  0.13454011719E+04  0.50400001928E-02 0. -1.
       -1   -1    0    0    0  501  0.00000000000E+00  0.00000000000E+00 -0.30043305093E+04  0.30043305093E+04  0.50400001928E-02 0.  1.
    10030    2    1    2    0    0  0.00000000000E+00  0.00000000000E+00 -0.16589293374E+04  0.43497316812E+04  0.40209599788E+04 0.  0.
        3    1    3    3  502    0  0.36785267588E+03 -0.10036012034E+04 -0.26714840046E+04  0.28773873156E+04  0.10100000352E+00 0.  1.
       -3    1    3    3    0  502 -0.36785267588E+03  0.10036012034E+04  0.10125546672E+04  0.14723443656E+04  0.10100000352E+00 0. -1.
</event>
<event>
 5   0  0.1785559E-07  0.4035375E+04  0.7818609E-02  0.7997448E-01
       -2   -1    0    0    0  501  0.00000000000E+00  0.00000000000E+00  0.24513426202E+04  0.24513426202E+04  0.25500000920E-02 0. -1.
        2   -1    0    0  501    0  0.00000000000E+00  0.00000000000E+00 -0.16607479257E+04  0.16607479257E+04  0.25500000920E-02 0.  1.
    10030    2    1    2    0    0  0.00000000000E+00  0.00000000000E+00  0.79059469446E+03  0.41120905459E+04  0.40353746650E+04 0.  0.
        2    1    3    3  502    0  0.20911740236E+03 -0.64017474110E+03 -0.15428356658E+04  0.16834178563E+04  0.25500000920E-02 0.  1.
       -2    1    3    3    0  502 -0.20911740236E+03  0.64017474110E+03  0.23334303603E+04  0.24286726896E+04  0.25500000920E-02 0. -1.
</event>
<event>
 5   0  0.1773903E-07  0.3964183E+04  0.7818609E-02  0.8011811E-01
       -2   -1    0    0    0  501  0.00000000000E+00  0.00000000000E+00  0.30790544091E+04  0.30790544091E+04  0.25500000920E-02 0.  1.
        2   -1    0    0  501    0  0.00000000000E+00  0.00000000000E+00 -0.12759395145E+04  0.12759395145E+04  0.25500000920E-02 0. -1.
    10030    2    1    2    0    0  0.00000000000E+00  0.00000000000E+00  0.18031148947E+04  0.43549939236E+04  0.39641832389E+04 0.  0.
        3    1    3    3  502    0 -0.49236745669E+03  0.13701717703E+03 -0.12023090068E+04  0.13064250370E+04  0.10100000352E+00 0. -1.
       -3    1    3    3    0  502  0.49236745669E+03 -0.13701717703E+03  0.30054239014E+04  0.30485688866E+04  0.10100000352E+00 0.  1.
</event>
<event>
 5   0  0.5515000E-08  0.4069359E+04  0.7818609E-02  0.7990699E-01
       -1   -1    0    0    0  501  0.00000000000E+00  0.00000000000E+00  0.27324799815E+04  0.27324799815E+04  0.50400001928E-02 0. -1.
        1   -1    0    0  501    0  0.00000000000E+00  0.00000000000E+00 -0.15150777760E+04  0.15150777760E+04  0.50400001928E-02 0.  1.
    10030    2    1    2    0    0  0.00000000000E+00  0.00000000000E+00  0.12174022055E+04  0.42475577574E+04  0.40693585210E+04 0.  0.
        1    1    3    3  502    0  0.15251723742E+04  0.27574901596E+02 -0.79674198774E+03  0.17209616327E+04  0.50400001928E-02 0.  1.
       -1    1    3    3    0  502 -0.15251723742E+04 -0.27574901596E+02  0.20141441932E+04  0.25265961247E+04  0.50400001928E-02 0. -1.
</event>
<event>
 5   0  0.1785559E-07  0.3896450E+04  0.7818609E-02  0.8025768E-01
        2   -1    0    0  501    0  0.00000000000E+00  0.00000000000E+00  0.21853307823E+04  0.21853307823E+04  0.25500000920E-02 0. -1.
       -2   -1    0    0    0  501  0.00000000000E+00  0.00000000000E+00 -0.17368446436E+04  0.17368446436E+04  0.25500000920E-02 0.  1.
    10030    2    1    2    0    0  0.00000000000E+00  0.00000000000E+00  0.44848613869E+03  0.39221754260E+04  0.38964496988E+04 0.  0.
        2    1    3    3  502    0 -0.63880591918E+03 -0.73905668579E+03  0.19209883890E+04  0.21551042151E+04  0.25500000920E-02 0. -1.
       -2    1    3    3    0  502  0.63880591918E+03  0.73905668579E+03 -0.14725022503E+04  0.17670712109E+04  0.25500000920E-02 0.  1.
</event>
<event>
 5   0  0.5515000E-08  0.3997171E+04  0.7818609E-02  0.8005118E-01
       -1   -1    0    0    0  501  0.00000000000E+00  0.00000000000E+00  0.12436294040E+04  0.12436294040E+04  0.50400001928E-02 0. -1.
        1   -1    0    0  501    0  0.00000000000E+00  0.00000000000E+00 -0.32118438162E+04  0.32118438162E+04  0.50400001928E-02 0.  1.
    10030    2    1    2    0    0  0.00000000000E+00  0.00000000000E+00 -0.19682144123E+04  0.44554732202E+04  0.39971707048E+04 0.  0.
        4    1    3    3  502    0 -0.17765579205E+04  0.72953493329E+03 -0.36754731902E+03  0.19553700183E+04  0.12699999809E+01 0. -1.
       -4    1    3    3    0  502  0.17765579205E+04 -0.72953493329E+03 -0.16006670932E+04  0.25001032019E+04  0.12699999809E+01 0.  1.
</event>
<event>
 5   0  0.5515000E-08  0.3964594E+04  0.7818609E-02  0.8011727E-01
        1   -1    0    0  501    0  0.00000000000E+00  0.00000000000E+00  0.22502150097E+04  0.22502150097E+04  0.50400001928E-02 0. -1.
       -1   -1    0    0    0  501  0.00000000000E+00  0.00000000000E+00 -0.17462783288E+04  0.17462783288E+04  0.50400001928E-02 0.  1.
    10030    2    1    2    0    0  0.00000000000E+00  0.00000000000E+00  0.50393668087E+03  0.39964933385E+04  0.39645941566E+04 0.  0.
        3    1    3    3  502    0 -0.12108271946E+03  0.18768667612E+02  0.22463940439E+04  0.22497332061E+04  0.10100000352E+00 0. -1.
       -3    1    3    3    0  502  0.12108271946E+03 -0.18768667612E+02 -0.17424573631E+04  0.17467601324E+04  0.10100000352E+00 0.  1.
</event>
<event>
 5   0  0.1821433E-07  0.3995783E+04  0.7818609E-02  0.8005398E-01
       -2   -1    0    0    0  501  0.00000000000E+00  0.00000000000E+00  0.23018398517E+04  0.23018398517E+04  0.25500000920E-02 0. -1.
        2   -1    0    0  501    0  0.00000000000E+00  0.00000000000E+00 -0.17340785451E+04  0.17340785451E+04  0.25500000920E-02 0.  1.
    10030    2    1    2    0    0  0.00000000000E+00  0.00000000000E+00  0.56776130654E+03  0.40359183968E+04  0.39957833280E+04 0.  0.
        5    1    3    3  502    0 -0.95323938472E+03  0.89912560334E+03  0.18071590948E+04  0.22322495961E+04  0.46999998093E+01 0. -1.
       -5    1    3    3    0  502  0.95323938472E+03 -0.89912560334E+03 -0.12393977883E+04  0.18036688007E+04  0.46999998093E+01 0.  1.
</event>
<event>
 5   0  0.1785559E-07  0.3963360E+04  0.7818609E-02  0.8011979E-01
       -2   -1    0    0    0  501  0.00000000000E+00  0.00000000000E+00  0.15935014969E+04  0.15935014969E+04  0.25500000920E-02 0. -1.
        2   -1    0    0  501    0  0.00000000000E+00  0.00000000000E+00 -0.24644197105E+04  0.24644197105E+04  0.25500000920E-02 0.  1.
    10030    2    1    2    0    0  0.00000000000E+00  0.00000000000E+00 -0.87091821361E+03  0.40579212074E+04  0.39633604417E+04 0.  0.
        2    1    3    3  502    0 -0.14134601967E+04 -0.13332148226E+04 -0.83427147890E+03  0.21145544191E+04  0.25500000920E-02 0.  1.
       -2    1    3    3    0  502  0.14134601967E+04  0.13332148226E+04 -0.36646734715E+02  0.19433667883E+04  0.25500000920E-02 0. -1.
</event>
<event>
 5   0  0.5515000E-08  0.3985243E+04  0.7818609E-02  0.8007530E-01
       -1   -1    0    0    0  501  0.00000000000E+00  0.00000000000E+00  0.30722573848E+04  0.30722573849E+04  0.50400001928E-02 0. -1.
        1   -1    0    0  501    0  0.00000000000E+00  0.00000000000E+00 -0.12923853826E+04  0.12923853826E+04  0.50400001928E-02 0.  1.
    10030    2    1    2    0    0  0.00000000000E+00  0.00000000000E+00  0.17798720023E+04  0.43646427674E+04  0.39852430469E+04 0.  0.
        2    1    3    3  502    0 -0.12704755964E+04 -0.27942153049E+03 -0.76318511846E+03  0.15081896955E+04  0.25500000920E-02 0.  1.
       -2    1    3    3    0  502  0.12704755964E+04  0.27942153049E+03  0.25430571207E+04  0.28564530719E+04  0.25500000920E-02 0. -1.
</event>
<event>
 5   0  0.5515000E-08  0.4006884E+04  0.7818609E-02  0.8003159E-01
       -1   -1    0    0    0  501  0.00000000000E+00  0.00000000000E+00  0.20569605338E+04  0.20569605338E+04  0.50400001928E-02 0. -1.
        1   -1    0    0  501    0  0.00000000000E+00  0.00000000000E+00 -0.19513155008E+04  0.19513155008E+04  0.50400001928E-02 0.  1.
    10030    2    1    2    0    0  0.00000000000E+00  0.00000000000E+00  0.10564503304E+03  0.40082760346E+04  0.40068835641E+04 0.  0.
        1    1    3    3  502    0  0.16652516508E+04  0.10738190419E+04 -0.24330160413E+03  0.19963331550E+04  0.50400001928E-02 0.  1.
       -1    1    3    3    0  502 -0.16652516508E+04 -0.10738190419E+04  0.34894663717E+03  0.20119428796E+04  0.50400001928E-02 0. -1.
</event>
<event>
 5   0  0.1785559E-07  0.4029294E+04  0.7818609E-02  0.7998663E-01
       -2   -1    0    0    0  501  0.00000000000E+00  0.00000000000E+00  0.18540729260E+04  0.18540729260E+04  0.25500000920E-02 0.  1.
        2   -1    0    0  501    0  0.00000000000E+00  0.00000000000E+00 -0.21891276149E+04  0.21891276149E+04  0.25500000920E-02 0. -1.
    10030    2    1    2    0    0  0.00000000000E+00  0.00000000000E+00 -0.33505468888E+03  0.40432005409E+04  0.40292938550E+04 0.  0.
        2    1    3    3  502    0  0.17627494245E+04  0.19995394454E+03  0.79051134130E+03  0.19422088699E+04  0.25500000920E-02 0.  1.
       -2    1    3    3    0  502 -0.17627494245E+04 -0.19995394454E+03 -0.11255660302E+04  0.21009916711E+04  0.25500000920E-02 0. -1.
</event>
<event>
 5   0  0.5515000E-08  0.3970720E+04  0.7818609E-02  0.8010479E-01
        1   -1    0    0  501    0  0.00000000000E+00  0.00000000000E+00  0.13788915074E+04  0.13788915074E+04  0.50400001928E-02 0. -1.
       -1   -1    0    0    0  501  0.00000000000E+00  0.00000000000E+00 -0.28585671048E+04  0.28585671048E+04  0.50400001928E-02 0.  1.
    10030    2    1    2    0    0  0.00000000000E+00  0.00000000000E+00 -0.14796755973E+04  0.42374586122E+04  0.39707197858E+04 0.  0.
        1    1    3    3  502    0 -0.52351910083E+03  0.17824452909E+02  0.13038159385E+04  0.14051070997E+04  0.50400001928E-02 0. -1.
       -1    1    3    3    0  502  0.52351910083E+03 -0.17824452909E+02 -0.27834915359E+04  0.28323515125E+04  0.50400001928E-02 0.  1.
</event>
<event>
 5   0  0.5515000E-08  0.3984087E+04  0.7818609E-02  0.8007764E-01
        4   -1    0    0  501    0  0.00000000000E+00  0.00000000000E+00  0.25586921578E+04  0.25586924730E+04  0.12699999809E+01 0.  1.
       -4   -1    0    0    0  501  0.00000000000E+00  0.00000000000E+00 -0.15508846585E+04  0.15508851785E+04  0.12699999809E+01 0. -1.
    10030    2    1    2    0    0  0.00000000000E+00  0.00000000000E+00  0.10078074993E+04  0.41095776516E+04  0.39840874135E+04 0.  0.
        5    1    3    3  502    0  0.14994306964E+04  0.12167291871E+04 -0.89165162662E+00  0.19309959122E+04  0.46999998093E+01 0.  1.
       -5    1    3    3    0  502 -0.14994306964E+04 -0.12167291871E+04  0.10086991509E+04  0.21785817393E+04  0.46999998093E+01 0. -1.
</event>
<event>
 5   0  0.5515000E-08  0.4006534E+04  0.7818609E-02  0.8003230E-01
       -1   -1    0    0    0  501  0.00000000000E+00  0.00000000000E+00  0.18457138668E+04  0.18457138668E+04  0.50400001928E-02 0.  1.
        1   -1    0    0  501    0  0.00000000000E+00  0.00000000000E+00 -0.21742691655E+04  0.21742691655E+04  0.50400001928E-02 0. -1.
    10030    2    1    2    0    0  0.00000000000E+00  0.00000000000E+00 -0.32855529870E+03  0.40199830322E+04  0.40065340377E+04 0.  0.
        3    1    3    3  502    0 -0.82755455929E+03  0.17554056978E+03  0.16576971496E+04  0.18610805706E+04  0.10100000352E+00 0.  1.
       -3    1    3    3    0  502  0.82755455929E+03 -0.17554056978E+03 -0.19862524483E+04  0.21589024616E+04  0.10100000352E+00 0. -1.
</event>
<event>
 5   0  0.5515000E-08  0.3956261E+04  0.7818609E-02  0.8013429E-01
        1   -1    0    0  501    0  0.00000000000E+00  0.00000000000E+00  0.11807997776E+04  0.11807997777E+04  0.50400001928E-02 0.  1.
       -1   -1    0    0    0  501  0.00000000000E+00  0.00000000000E+00 -0.33138556358E+04  0.33138556358E+04  0.50400001928E-02 0. -1.
    10030    2    1    2    0    0  0.00000000000E+00  0.00000000000E+00 -0.21330558581E+04  0.44946554134E+04  0.39562608599E+04 0.  0.
        5    1    3    3  502    0 -0.51828557014E+03  0.10380495716E+04  0.75362732426E+03  0.13835255976E+04  0.46999998093E+01 0.  1.
       -5    1    3    3    0  502  0.51828557014E+03 -0.10380495716E+04 -0.28866831824E+04  0.31111298158E+04  0.46999998093E+01 0. -1.
</event>
<event>
 5   0  0.1785559E-07  0.4021818E+04  0.7818609E-02  0.8000160E-01
        2   -1    0    0  501    0  0.00000000000E+00  0.00000000000E+00  0.15757154601E+04  0.15757154601E+04  0.25500000920E-02 0.  1.
       -2   -1    0    0    0  501  0.00000000000E+00  0.00000000000E+00 -0.25662978784E+04  0.25662978784E+04  0.25500000920E-02 0. -1.
    10030    2    1    2    0    0  0.00000000000E+00  0.00000000000E+00 -0.99058241834E+03  0.41420133385E+04  0.40218181174E+04 0.  0.
        2    1    3    3  502    0  0.36189826890E+03 -0.18820814877E+04  0.13163281532E+03  0.19210747725E+04  0.25500000920E-02 0.  1.
       -2    1    3    3    0  502 -0.36189826890E+03  0.18820814877E+04 -0.11222152337E+04  0.22209385660E+04  0.25500000920E-02 0. -1.
</event>
<event>
 5   0  0.5515000E-08  0.3658060E+04  0.7818609E-02  0.8077320E-01
        1   -1    0    0  501    0  0.00000000000E+00  0.00000000000E+00  0.17822564591E+04  0.17822564591E+04  0.50400001928E-02 0.  1.
       -1   -1    0    0    0  501  0.00000000000E+00  0.00000000000E+00 -0.18770313897E+04  0.18770313898E+04  0.50400001928E-02 0. -1.
    10030    2    1    2    0    0  0.00000000000E+00  0.00000000000E+00 -0.94774930659E+02  0.36592878488E+04  0.36580603157E+04 0.  0.
        3    1    3    3  502    0 -0.98925289276E+03 -0.83366237428E+03 -0.13407780575E+04  0.18631425200E+04  0.10100000352E+00 0. -1.
       -3    1    3    3    0  502  0.98925289276E+03  0.83366237428E+03  0.12460031268E+04  0.17961453289E+04  0.10100000352E+00 0.  1.
</event>
<event>
 5   0  0.1785559E-07  0.4023925E+04  0.7818609E-02  0.7999737E-01
        2   -1    0    0  501    0  0.00000000000E+00  0.00000000000E+00  0.28316647206E+04  0.28316647206E+04  0.25500000920E-02 0. -1.
       -2   -1    0    0    0  501  0.00000000000E+00  0.00000000000E+00 -0.14295455143E+04  0.14295455143E+04  0.25500000920E-02 0.  1.
    10030    2    1    2    0    0  0.00000000000E+00  0.00000000000E+00  0.14021192063E+04  0.42612102349E+04  0.40239252475E+04 0.  0.
        2    1    3    3  502    0 -0.13514074055E+04  0.14904804809E+04  0.71443617704E+03  0.21350065786E+04  0.25500000920E-02 0. -1.
       -2    1    3    3    0  502  0.13514074055E+04 -0.14904804809E+04  0.68768302923E+03  0.21262036563E+04  0.25500000920E-02 0.  1.
</event>
<event>
 5   0  0.5515000E-08  0.3993740E+04  0.7818609E-02  0.8005811E-01
       -1   -1    0    0    0  501  0.00000000000E+00  0.00000000000E+00  0.14132402728E+04  0.14132402728E+04  0.50400001928E-02 0. -1.
        1   -1    0    0  501    0  0.00000000000E+00  0.00000000000E+00 -0.28215227766E+04  0.28215227766E+04  0.50400001928E-02 0.  1.
    10030    2    1    2    0    0  0.00000000000E+00  0.00000000000E+00 -0.14082825038E+04  0.42347630494E+04  0.39937399107E+04 0.  0.
        2    1    3    3  502    0 -0.10509602769E+04 -0.43826822487E+03 -0.24435336087E+04  0.26958214031E+04  0.25500000920E-02 0.  1.
       -2    1    3    3    0  502  0.10509602769E+04  0.43826822487E+03  0.10352511049E+04  0.15389416463E+04  0.25500000920E-02 0. -1.
</event>
<event>
 5   0  0.5515000E-08  0.3990138E+04  0.7818609E-02  0.8006539E-01
       -1   -1    0    0    0  501  0.00000000000E+00  0.00000000000E+00  0.17998482310E+04  0.17998482310E+04  0.50400001928E-02 0. -1.
        1   -1    0    0  501    0  0.00000000000E+00  0.00000000000E+00 -0.22114645976E+04  0.22114645976E+04  0.50400001928E-02 0.  1.
    10030    2    1    2    0    0  0.00000000000E+00  0.00000000000E+00 -0.41161636660E+03  0.40113128286E+04  0.39901381650E+04 0.  0.
        2    1    3    3  502    0 -0.57613416413E+03 -0.15762119956E+04 -0.12903873261E+04  0.21169492865E+04  0.25500000920E-02 0.  1.
       -2    1    3    3    0  502  0.57613416413E+03  0.15762119956E+04  0.87877095954E+03  0.18943635421E+04  0.25500000920E-02 0. -1.
</event>
<event>
 5   0  0.5515000E-08  0.3945984E+04  0.7818609E-02  0.8015533E-01
       -1   -1    0    0    0  501  0.00000000000E+00  0.00000000000E+00  0.18988174791E+04  0.18988174791E+04  0.50400001928E-02 0. -1.
        1   -1    0    0  501    0  0.00000000000E+00  0.00000000000E+00 -0.20500642275E+04  0.20500642275E+04  0.50400001928E-02 0.  1.
    10030    2    1    2    0    0  0.00000000000E+00  0.00000000000E+00 -0.15124674837E+03  0.39488817066E+04  0.39459841806E+04 0.  0.
        4    1    3    3  502    0  0.94557254795E+03 -0.22020554507E+02  0.16571514074E+04  0.19080735699E+04  0.12699999809E+01 0. -1.
       -4    1    3    3    0  502 -0.94557254795E+03  0.22020554507E+02 -0.18083981557E+04  0.20408081367E+04  0.12699999809E+01 0.  1.
</event>
<event>
 5   0  0.5515000E-08  0.4003008E+04  0.7818609E-02  0.8003940E-01
        1   -1    0    0  501    0  0.00000000000E+00  0.00000000000E+00  0.22470123159E+04  0.22470123159E+04  0.50400001928E-02 0.  1.
       -1   -1    0    0    0  501  0.00000000000E+00  0.00000000000E+00 -0.17828195648E+04  0.17828195648E+04  0.50400001928E-02 0. -1.
    10030    2    1    2    0    0  0.00000000000E+00  0.00000000000E+00  0.46419275116E+03  0.40298318807E+04  0.40030076288E+04 0.  0.
        4    1    3    3  502    0  0.88112826991E+03 -0.16361161433E+04  0.98055190860E+03  0.21011298677E+04  0.12699999809E+01 0.  1.
       -4    1    3    3    0  502 -0.88112826991E+03  0.16361161433E+04 -0.51635915745E+03  0.19287020130E+04  0.12699999809E+01 0. -1.
</event>
<event>
 5   0  0.5515000E-08  0.3945312E+04  0.7818609E-02  0.8015671E-01
       -3   -1    0    0    0  501  0.00000000000E+00  0.00000000000E+00  0.28744789605E+04  0.28744789622E+04  0.10100000352E+00 0. -1.
        3   -1    0    0  501    0  0.00000000000E+00  0.00000000000E+00 -0.13537656600E+04  0.13537656638E+04  0.10100000352E+00 0.  1.
    10030    2    1    2    0    0  0.00000000000E+00  0.00000000000E+00  0.15207133005E+04  0.42282446260E+04  0.39453116068E+04 0.  0.
        4    1    3    3  502    0 -0.51391229267E+03  0.13289491229E+04 -0.70172080664E+03  0.15882774692E+04  0.12699999809E+01 0.  1.
       -4    1    3    3    0  502  0.51391229267E+03 -0.13289491229E+04  0.22224341071E+04  0.26399671568E+04  0.12699999809E+01 0. -1.
</event>
<event>
 5   0  0.5515000E-08  0.3953165E+04  0.7818609E-02  0.8014062E-01
       -1   -1    0    0    0  501  0.00000000000E+00  0.00000000000E+00  0.19500450853E+04  0.19500450853E+04  0.50400001928E-02 0.  1.
        1   -1    0    0  501    0  0.00000000000E+00  0.00000000000E+00 -0.20034806730E+04  0.20034806730E+04  0.50400001928E-02 0. -1.
    10030    2    1    2    0    0  0.00000000000E+00  0.00000000000E+00 -0.53435587654E+02  0.39535257583E+04  0.39531646259E+04 0.  0.
        3    1    3    3  502    0  0.17779830084E+04  0.59660254907E+03 -0.65104996272E+03  0.19852013107E+04  0.10100000352E+00 0.  1.
       -3    1    3    3    0  502 -0.17779830084E+04 -0.59660254907E+03  0.59761437506E+03  0.19683244476E+04  0.10100000352E+00 0. -1.
</event>
<event>
 5   0  0.1821433E-07  0.3994109E+04  0.7818609E-02  0.8005736E-01
       -2   -1    0    0    0  501  0.00000000000E+00  0.00000000000E+00  0.14794107644E+04  0.14794107644E+04  0.25500000920E-02 0.  1.
        2   -1    0    0  501    0  0.00000000000E+00  0.00000000000E+00 -0.26958215631E+04  0.26958215631E+04  0.25500000920E-02 0. -1.
    10030    2    1    2    0    0  0.00000000000E+00  0.00000000000E+00 -0.12164107987E+04  0.41752323275E+04  0.39941093822E+04 0.  0.
        5    1    3    3  502    0 -0.10783009885E+04 -0.47888235201E+03 -0.22925272502E+04  0.25783259320E+04  0.46999998093E+01 0. -1.
       -5    1    3    3    0  502  0.10783009885E+04  0.47888235201E+03  0.10761164514E+04  0.15969063955E+04  0.46999998093E+01 0.  1.
</event>
<event>
 5   0  0.5515000E-08  0.3863087E+04  0.7818609E-02  0.8032751E-01
       -3   -1    0    0    0  501  0.00000000000E+00  0.00000000000E+00  0.19905491839E+04  0.19905491865E+04  0.10100000352E+00 0. -1.
        3   -1    0    0  501    0  0.00000000000E+00  0.00000000000E+00 -0.18742867519E+04  0.18742867546E+04  0.10100000352E+00 0.  1.
    10030    2    1    2    0    0  0.00000000000E+00  0.00000000000E+00  0.11626243201E+03  0.38648359411E+04  0.38630868355E+04 0.  0.
        4    1    3    3  502    0  0.15300381833E+04  0.10222997859E+04 -0.52928424226E+03  0.19147472723E+04  0.12699999809E+01 0.  1.
       -4    1    3    3    0  502 -0.15300381833E+04 -0.10222997859E+04  0.64554667427E+03  0.19500886688E+04  0.12699999809E+01 0. -1.
</event>
<event>
 5   0  0.1819906E-07  0.3597323E+04  0.7818609E-02  0.8091105E-01
       -2   -1    0    0    0  501  0.00000000000E+00  0.00000000000E+00  0.18942319944E+04  0.18942319944E+04  0.25500000920E-02 0.  1.
        2   -1    0    0  501    0  0.00000000000E+00  0.00000000000E+00 -0.17079130940E+04  0.17079130940E+04  0.25500000920E-02 0. -1.
    10030    2    1    2    0    0  0.00000000000E+00  0.00000000000E+00  0.18631890037E+03  0.36021450884E+04  0.35973232417E+04 0.  0.
        1    1    3    3  502    0  0.81389250014E+03 -0.12358741557E+04 -0.93064815839E+03  0.17481166795E+04  0.50400001928E-02 0. -1.
       -1    1    3    3    0  502 -0.81389250014E+03  0.12358741557E+04  0.11169670588E+04  0.18540284089E+04  0.50400001928E-02 0.  1.
</event>
<event>
 5   0  0.5515000E-08  0.4040280E+04  0.7818609E-02  0.7996470E-01
       -1   -1    0    0    0  501  0.00000000000E+00  0.00000000000E+00  0.23425437679E+04  0.23425437679E+04  0.50400001928E-02 0.  1.
        1   -1    0    0  501    0  0.00000000000E+00  0.00000000000E+00 -0.17421083004E+04  0.17421083004E+04  0.50400001928E-02 0. -1.
    10030    2    1    2    0    0  0.00000000000E+00  0.00000000000E+00  0.60043546745E+03  0.40846520683E+04  0.40402796647E+04 0.  0.
        3    1    3    3  502    0 -0.92109751296E+03  0.55585566504E+03 -0.14284053154E+04  0.17882219951E+04  0.10100000352E+00 0. -1.
       -3    1    3    3    0  502  0.92109751296E+03 -0.55585566504E+03  0.20288407828E+04  0.22964300732E+04  0.10100000352E+00 0.  1.
</event>
<event>
 5   0  0.5515000E-08  0.3992756E+04  0.7818609E-02  0.8006010E-01
       -1   -1    0    0    0  501  0.00000000000E+00  0.00000000000E+00  0.16317630861E+04  0.16317630861E+04  0.50400001928E-02 0. -1.
        1   -1    0    0  501    0  0.00000000000E+00  0.00000000000E+00 -0.24424649788E+04  0.24424649788E+04  0.50400001928E-02 0.  1.
    10030    2    1    2    0    0  0.00000000000E+00  0.00000000000E+00 -0.81070189266E+03  0.40742280649E+04  0.39927555354E+04 0.  0.
        4    1    3    3  502    0 -0.41760195387E+03 -0.15966976832E+04 -0.15515196593E+04  0.22651820566E+04  0.12699999809E+01 0.  1.
       -4    1    3    3    0  502  0.41760195387E+03  0.15966976832E+04  0.74081776668E+03  0.18090460082E+04  0.12699999809E+01 0. -1.
</event>
<event>
 5   0  0.1819906E-07  0.3990217E+04  0.7818609E-02  0.8006523E-01
        2   -1    0    0  501    0  0.00000000000E+00  0.00000000000E+00  0.15236557733E+04  0.15236557733E+04  0.25500000920E-02 0. -1.
       -2   -1    0    0    0  501  0.00000000000E+00  0.00000000000E+00 -0.26124393888E+04  0.26124393888E+04  0.25500000920E-02 0.  1.
    10030    2    1    2    0    0  0.00000000000E+00  0.00000000000E+00 -0.10887836155E+04  0.41360951621E+04  0.39902172157E+04 0.  0.
        1    1    3    3  502    0  0.12044131201E+04  0.13852332269E+04 -0.13546177910E+04  0.22813310624E+04  0.50400001928E-02 0.  1.
       -1    1    3    3    0  502 -0.12044131201E+04 -0.13852332269E+04  0.26583417544E+03  0.18547640997E+04  0.50400001928E-02 0. -1.
</event>
<event>
 5   0  0.1773903E-07  0.4074972E+04  0.7818609E-02  0.7989591E-01
       -2   -1    0    0    0  501  0.00000000000E+00  0.00000000000E+00  0.18985109625E+04  0.18985109625E+04  0.25500000920E-02 0. -1.
        2   -1    0    0  501    0  0.00000000000E+00  0.00000000000E+00 -0.21866344987E+04  0.21866344987E+04  0.25500000920E-02 0.  1.
    10030    2    1    2    0    0  0.00000000000E+00  0.00000000000E+00 -0.28812353621E+03  0.40851454613E+04  0.40749721800E+04 0.  0.
        3    1    3    3  502    0  0.59216030820E+03  0.16709312447E+04  0.86277844070E+03  0.19715607277E+04  0.10100000352E+00 0. -1.
       -3    1    3    3    0  502 -0.59216030820E+03 -0.16709312447E+04 -0.11509019769E+04  0.21135847335E+04  0.10100000352E+00 0.  1.
</event>
<event>
 5   0  0.1819906E-07  0.3808376E+04  0.7818609E-02  0.8044360E-01
        2   -1    0    0  501    0  0.00000000000E+00  0.00000000000E+00  0.26450946685E+04  0.26450946685E+04  0.25500000920E-02 0. -1.
       -2   -1    0    0    0  501  0.00000000000E+00  0.00000000000E+00 -0.13708138366E+04  0.13708138366E+04  0.25500000920E-02 0.  1.
    10030    2    1    2    0    0  0.00000000000E+00  0.00000000000E+00  0.12742808319E+04  0.40159085051E+04  0.38083762265E+04 0.  0.
        1    1    3    3  502    0  0.42117613318E+00  0.98715897005E+03 -0.10799202230E+04  0.14631167751E+04  0.50400001928E-02 0.  1.
       -1    1    3    3    0  502 -0.42117613318E+00 -0.98715897005E+03  0.23542010549E+04  0.25527917300E+04  0.50400001928E-02 0. -1.
</event>
<event>
 5   0  0.1773903E-07  0.3962007E+04  0.7818609E-02  0.8012255E-01
        2   -1    0    0  501    0  0.00000000000E+00  0.00000000000E+00  0.20988877982E+04  0.20988877982E+04  0.25500000920E-02 0.  1.
       -2   -1    0    0    0  501  0.00000000000E+00  0.00000000000E+00 -0.18697398292E+04  0.18697398292E+04  0.25500000920E-02 0. -1.
    10030    2    1    2    0    0  0.00000000000E+00  0.00000000000E+00  0.22914796901E+03  0.39686276275E+04  0.39620066196E+04 0.  0.
        3    1    3    3  502    0  0.19354885764E+04 -0.16591490335E+03 -0.27431484023E+03  0.19618594308E+04  0.10100000352E+00 0. -1.
       -3    1    3    3    0  502 -0.19354885764E+04  0.16591490335E+03  0.50346280924E+03  0.20067681966E+04  0.10100000352E+00 0.  1.
</event>
<event>
 5   0  0.1785559E-07  0.4035674E+04  0.7818609E-02  0.7997388E-01
        2   -1    0    0  501    0  0.00000000000E+00  0.00000000000E+00  0.21001800902E+04  0.21001800902E+04  0.25500000920E-02 0.  1.
       -2   -1    0    0    0  501  0.00000000000E+00  0.00000000000E+00 -0.19387228381E+04  0.19387228381E+04  0.25500000920E-02 0. -1.
    10030    2    1    2    0    0  0.00000000000E+00  0.00000000000E+00  0.16145725212E+03  0.40389029283E+04  0.40356744690E+04 0.  0.
        2    1    3    3  502    0  0.17343440493E+04  0.81219059122E+03 -0.55544038640E+03  0.19940202759E+04  0.25500000920E-02 0. -1.
       -2    1    3    3    0  502 -0.17343440493E+04 -0.81219059122E+03  0.71689763852E+03  0.20448826524E+04  0.25500000920E-02 0.  1.
</event>
<event>
 5   0  0.1819906E-07  0.4023955E+04  0.7818609E-02  0.7999732E-01
       -2   -1    0    0    0  501  0.00000000000E+00  0.00000000000E+00  0.12359931146E+04  0.12359931146E+04  0.25500000920E-02 0. -1.
        2   -1    0    0  501    0  0.00000000000E+00  0.00000000000E+00 -0.32751418988E+04  0.32751418988E+04  0.25500000920E-02 0.  1.
    10030    2    1    2    0    0  0.00000000000E+00  0.00000000000E+00 -0.20391487842E+04  0.45111350133E+04  0.40239546897E+04 0.  0.
        1    1    3    3  502    0 -0.91870606186E+03 -0.16015674989E+04 -0.12340980460E+03  0.18504781170E+04  0.50400001928E-02 0. -1.
       -1    1    3    3    0  502  0.91870606186E+03  0.16015674989E+04 -0.19157389796E+04  0.26606568963E+04  0.50400001928E-02 0.  1.
</event>
<event>
 5   0  0.5515000E-08  0.4002932E+04  0.7818609E-02  0.8003955E-01
        1   -1    0    0  501    0  0.00000000000E+00  0.00000000000E+00  0.26824790260E+04  0.26824790260E+04  0.50400001928E-02 0.  1.
       -1   -1    0    0    0  501  0.00000000000E+00  0.00000000000E+00 -0.14933445040E+04  0.14933445040E+04  0.50400001928E-02 0. -1.
    10030    2    1    2    0    0  0.00000000000E+00  0.00000000000E+00  0.11891345220E+04  0.41758235300E+04  0.40029315810E+04 0.  0.
        5    1    3    3  502    0 -0.34855897022E+03  0.19515115816E+04  0.88206521234E+03  0.21697815415E+04  0.46999998093E+01 0. -1.
       -5    1    3    3    0  502  0.34855897022E+03 -0.19515115816E+04  0.30706930963E+03  0.20060419885E+04  0.46999998093E+01 0.  1.
</event>
<event>
 5   0  0.5515000E-08  0.3844927E+04  0.7818609E-02  0.8036582E-01
       -1   -1    0    0    0  501  0.00000000000E+00  0.00000000000E+00  0.13682467693E+04  0.13682467693E+04  0.50400001928E-02 0. -1.
        1   -1    0    0  501    0  0.00000000000E+00  0.00000000000E+00 -0.27011690612E+04  0.27011690612E+04  0.50400001928E-02 0.  1.
    10030    2    1    2    0    0  0.00000000000E+00  0.00000000000E+00 -0.13329222919E+04  0.40694158305E+04  0.38449269649E+04 0.  0.
        5    1    3    3  502    0 -0.69329833723E+03 -0.17546487744E+04 -0.10573321027E+04  0.21627362695E+04  0.46999998093E+01 0.  1.
       -5    1    3    3    0  502  0.69329833723E+03  0.17546487744E+04 -0.27559018924E+03  0.19066795610E+04  0.46999998093E+01 0. -1.
</event>
<event>
 5   0  0.1785559E-07  0.3972780E+04  0.7818609E-02  0.8010060E-01
        2   -1    0    0  501    0  0.00000000000E+00  0.00000000000E+00  0.20802421777E+04  0.20802421777E+04  0.25500000920E-02 0. -1.
       -2   -1    0    0    0  501  0.00000000000E+00  0.00000000000E+00 -0.18967716272E+04  0.18967716272E+04  0.25500000920E-02 0.  1.
    10030    2    1    2    0    0  0.00000000000E+00  0.00000000000E+00  0.18347055051E+03  0.39770138049E+04  0.39727795511E+04 0.  0.
        2    1    3    3  502    0 -0.56197364217E+03  0.13354367986E+04  0.14520575763E+04  0.20512622998E+04  0.25500000920E-02 0. -1.
       -2    1    3    3    0  502  0.56197364217E+03 -0.13354367986E+04 -0.12685870258E+04  0.19257515051E+04  0.25500000920E-02 0.  1.
</event>
<event>
 5   0  0.5515000E-08  0.3976440E+04  0.7818609E-02  0.8009316E-01
        1   -1    0    0  501    0  0.00000000000E+00  0.00000000000E+00  0.26374530217E+04  0.26374530217E+04  0.50400001928E-02 0.  1.
       -1   -1    0    0    0  501  0.00000000000E+00  0.00000000000E+00 -0.14988013512E+04  0.14988013512E+04  0.50400001928E-02 0. -1.
    10030    2    1    2    0    0  0.00000000000E+00  0.00000000000E+00  0.11386516705E+04  0.41362543728E+04  0.39764396902E+04 0.  0.
        3    1    3    3  502    0  0.10914429692E+04 -0.92082496120E+03 -0.86969469272E+03  0.16719854165E+04  0.10100000352E+00 0. -1.
       -3    1    3    3    0  502 -0.10914429692E+04  0.92082496120E+03  0.20083463632E+04  0.24642689563E+04  0.10100000352E+00 0.  1.
</event>
<event>
 5   0  0.5515000E-08  0.4018153E+04  0.7818609E-02  0.8000894E-01
       -1   -1    0    0    0  501  0.00000000000E+00  0.00000000000E+00  0.18916523439E+04  0.18916523439E+04  0.50400001928E-02 0. -1.
        1   -1    0    0  501    0  0.00000000000E+00  0.00000000000E+00 -0.21337901569E+04  0.21337901569E+04  0.50400001928E-02 0.  1.
    10030    2    1    2    0    0  0.00000000000E+00  0.00000000000E+00 -0.24213781301E+03  0.40254425008E+04  0.40181533827E+04 0.  0.
        5    1    3    3  502    0 -0.41880546301E+03  0.17632864937E+04  0.74756209937E+03  0.19604714885E+04  0.46999998093E+01 0.  1.
       -5    1    3    3    0  502  0.41880546301E+03 -0.17632864937E+04 -0.98969991237E+03  0.20649710123E+04  0.46999998093E+01 0. -1.
</event>
<event>
 5   0  0.5515000E-08  0.3953746E+04  0.7818609E-02  0.8013943E-01
       -1   -1    0    0    0  501  0.00000000000E+00  0.00000000000E+00  0.25290988630E+04  0.25290988630E+04  0.50400001928E-02 0.  1.
        1   -1    0    0  501    0  0.00000000000E+00  0.00000000000E+00 -0.15452249221E+04  0.15452249221E+04  0.50400001928E-02 0. -1.
    10030    2    1    2    0    0  0.00000000000E+00  0.00000000000E+00  0.98387394096E+03  0.40743237851E+04  0.39537458662E+04 0.  0.
        2    1    3    3  502    0 -0.15699874314E+04 -0.51646931013E+03 -0.62577269140E+03  0.17672556534E+04  0.25500000920E-02 0.  1.
       -2    1    3    3    0  502  0.15699874314E+04  0.51646931013E+03  0.16096466324E+04  0.23070681317E+04  0.25500000920E-02 0. -1.
</event>
<event>
 5   0  0.1773903E-07  0.4001463E+04  0.7818609E-02  0.8004252E-01
        2   -1    0    0  501    0  0.00000000000E+00  0.00000000000E+00  0.18107168943E+04  0.18107168943E+04  0.25500000920E-02 0.  1.
       -2   -1    0    0    0  501  0.00000000000E+00  0.00000000000E+00 -0.22106859307E+04  0.22106859307E+04  0.25500000920E-02 0. -1.
    10030    2    1    2    0    0  0.00000000000E+00  0.00000000000E+00 -0.39996903640E+03  0.40214028250E+04  0.40014629139E+04 0.  0.
        3    1    3    3  502    0  0.76023697455E+03 -0.20818694015E+03 -0.20480674663E+04  0.21945118856E+04  0.10100000352E+00 0. -1.
       -3    1    3    3    0  502 -0.76023697455E+03  0.20818694015E+03  0.16480984299E+04  0.18268909394E+04  0.10100000352E+00 0.  1.
</event>
<event>
 5   0  0.1785559E-07  0.4042202E+04  0.7818609E-02  0.7996087E-01
       -2   -1    0    0    0  501  0.00000000000E+00  0.00000000000E+00  0.17055034315E+04  0.17055034315E+04  0.25500000920E-02 0.  1.
        2   -1    0    0  501    0  0.00000000000E+00  0.00000000000E+00 -0.23950985259E+04  0.23950985259E+04  0.25500000920E-02 0. -1.
    10030    2    1    2    0    0  0.00000000000E+00  0.00000000000E+00 -0.68959509437E+03  0.41006019574E+04  0.40422017539E+04 0.  0.
        2    1    3    3  502    0 -0.13868655568E+04  0.43857953272E+03  0.10787225048E+04  0.18109087005E+04  0.25500000920E-02 0.  1.
       -2    1    3    3    0  502  0.13868655568E+04 -0.43857953272E+03 -0.17683175992E+04  0.22896932569E+04  0.25500000920E-02 0. -1.
</event>
<event>
 5   0  0.5515000E-08  0.4005817E+04  0.7818609E-02  0.8003374E-01
        1   -1    0    0  501    0  0.00000000000E+00  0.00000000000E+00  0.19285067892E+04  0.19285067892E+04  0.50400001928E-02 0.  1.
       -1   -1    0    0    0  501  0.00000000000E+00  0.00000000000E+00 -0.20801809987E+04  0.20801809987E+04  0.50400001928E-02 0. -1.
    10030    2    1    2    0    0  0.00000000000E+00  0.00000000000E+00 -0.15167420949E+03  0.40086877879E+04  0.40058173592E+04 0.  0.
        3    1    3    3  502    0  0.11711381836E+03 -0.19646213035E+04 -0.44784351853E+03  0.20184192677E+04  0.10100000352E+00 0. -1.
       -3    1    3    3    0  502 -0.11711381836E+03  0.19646213035E+04  0.29616930904E+03  0.19902685202E+04  0.10100000352E+00 0.  1.
</event>
<event>
 5   0  0.1773903E-07  0.3955868E+04  0.7818609E-02  0.8013509E-01
       -2   -1    0    0    0  501  0.00000000000E+00  0.00000000000E+00  0.21406963860E+04  0.21406963860E+04  0.25500000920E-02 0.  1.
        2   -1    0    0  501    0  0.00000000000E+00  0.00000000000E+00 -0.18275466154E+04  0.18275466154E+04  0.25500000920E-02 0. -1.
    10030    2    1    2    0    0  0.00000000000E+00  0.00000000000E+00  0.31314977062E+03  0.39682430014E+04  0.39558677606E+04 0.  0.
        3    1    3    3  502    0  0.49349099577E+03  0.40809181337E+03 -0.17206827252E+04  0.18359796682E+04  0.10100000352E+00 0. -1.
       -3    1    3    3    0  502 -0.49349099577E+03 -0.40809181337E+03  0.20338324958E+04  0.21322633332E+04  0.10100000352E+00 0.  1.
</event>
<event>
 5   0  0.5515000E-08  0.4011543E+04  0.7818609E-02  0.8002222E-01
       -1   -1    0    0    0  501  0.00000000000E+00  0.00000000000E+00  0.15342221526E+04  0.15342221526E+04  0.50400001928E-02 0. -1.
        1   -1    0    0  501    0  0.00000000000E+00  0.00000000000E+00 -0.26222534324E+04  0.26222534324E+04  0.50400001928E-02 0.  1.
    10030    2    1    2    0    0  0.00000000000E+00  0.00000000000E+00 -0.10880312798E+04  0.41564755850E+04  0.40115429978E+04 0.  0.
        2    1    3    3  502    0 -0.99484429262E+03 -0.13462974410E+04  0.60084223908E+03  0.17785509165E+04  0.25500000920E-02 0. -1.
       -2    1    3    3    0  502  0.99484429262E+03  0.13462974410E+04 -0.16888735189E+04  0.23779246685E+04  0.25500000920E-02 0.  1.
</event>
<event>
 5   0  0.5515000E-08  0.3981298E+04  0.7818609E-02  0.8008330E-01
       -1   -1    0    0    0  501  0.00000000000E+00  0.00000000000E+00  0.16708802088E+04  0.16708802088E+04  0.50400001928E-02 0. -1.
        1   -1    0    0  501    0  0.00000000000E+00  0.00000000000E+00 -0.23716139921E+04  0.23716139921E+04  0.50400001928E-02 0.  1.
    10030    2    1    2    0    0  0.00000000000E+00  0.00000000000E+00 -0.70073378324E+03  0.40424942009E+04  0.39812977193E+04 0.  0.
        5    1    3    3  502    0 -0.53472519746E+03  0.12989209675E+03 -0.22928482347E+04  0.23579605830E+04  0.46999998093E+01 0.  1.
       -5    1    3    3    0  502  0.53472519746E+03 -0.12989209675E+03  0.15921144514E+04  0.16845336179E+04  0.46999998093E+01 0. -1.
</event>
<event>
 5   0  0.5515000E-08  0.3996032E+04  0.7818609E-02  0.8005347E-01
        1   -1    0    0  501    0  0.00000000000E+00  0.00000000000E+00  0.31671294362E+04  0.31671294362E+04  0.50400001928E-02 0.  1.
       -1   -1    0    0    0  501  0.00000000000E+00  0.00000000000E+00 -0.12604691134E+04  0.12604691134E+04  0.50400001928E-02 0. -1.
    10030    2    1    2    0    0  0.00000000000E+00  0.00000000000E+00  0.19066603228E+04  0.44275985497E+04  0.39960324486E+04 0.  0.
        5    1    3    3  502    0  0.16642968670E+04  0.94875657641E+03  0.32457276392E+03  0.19430369713E+04  0.46999998093E+01 0.  1.
       -5    1    3    3    0  502 -0.16642968670E+04 -0.94875657641E+03  0.15820875589E+04  0.24845615784E+04  0.46999998093E+01 0. -1.
</event>
<event>
 5   0  0.5515000E-08  0.3999227E+04  0.7818609E-02  0.8004703E-01
       -1   -1    0    0    0  501  0.00000000000E+00  0.00000000000E+00  0.32438169355E+04  0.32438169355E+04  0.50400001928E-02 0. -1.
        1   -1    0    0  501    0  0.00000000000E+00  0.00000000000E+00 -0.12326385931E+04  0.12326385931E+04  0.50400001928E-02 0.  1.
    10030    2    1    2    0    0  0.00000000000E+00  0.00000000000E+00  0.20111783424E+04  0.44764555285E+04  0.39992268970E+04 0.  0.
        2    1    3    3  502    0 -0.45216638230E+03 -0.28599755779E+03 -0.11510336657E+04  0.12693019892E+04  0.25500000920E-02 0.  1.
       -2    1    3    3    0  502  0.45216638230E+03  0.28599755779E+03  0.31622120081E+04  0.32071535393E+04  0.25500000920E-02 0. -1.
</event>
<event>
 5   0  0.1776653E-07  0.3992978E+04  0.7818609E-02  0.8005965E-01
        2   -1    0    0  501    0  0.00000000000E+00  0.00000000000E+00  0.25089281429E+04  0.25089281429E+04  0.25500000920E-02 0. -1.
       -2   -1    0    0    0  501  0.00000000000E+00  0.00000000000E+00 -0.15887136036E+04  0.15887136036E+04  0.25500000920E-02 0.  1.
    10030    2    1    2    0    0  0.00000000000E+00  0.00000000000E+00  0.92021453931E+03  0.40976417464E+04  0.39929779718E+04 0.  0.
        4    1    3    3  502    0 -0.12453132422E+04  0.74942896620E+03 -0.94453581208E+03  0.17333777314E+04  0.12699999809E+01 0.  1.
       -4    1    3    3    0  502  0.12453132422E+04 -0.74942896620E+03  0.18647503514E+04  0.23642640150E+04  0.12699999809E+01 0. -1.
</event>
<event>
 5   0  0.5515000E-08  0.3978137E+04  0.7818609E-02  0.8008972E-01
        1   -1    0    0  501    0  0.00000000000E+00  0.00000000000E+00  0.16269084572E+04  0.16269084572E+04  0.50400001928E-02 0.  1.
       -1   -1    0    0    0  501  0.00000000000E+00  0.00000000000E+00 -0.24318474158E+04  0.24318474158E+04  0.50400001928E-02 0. -1.
    10030    2    1    2    0    0  0.00000000000E+00  0.00000000000E+00 -0.80493895867E+03  0.40587558730E+04  0.39781368138E+04 0.  0.
        4    1    3    3  502    0 -0.47434629061E+03 -0.84702477347E+03 -0.21737210093E+04  0.23806553739E+04  0.12699999809E+01 0. -1.
       -4    1    3    3    0  502  0.47434629061E+03  0.84702477347E+03  0.13687820506E+04  0.16781004991E+04  0.12699999809E+01 0.  1.
</event>
<event>
 5   0  0.5515000E-08  0.3837256E+04  0.7818609E-02  0.8038207E-01
        1   -1    0    0  501    0  0.00000000000E+00  0.00000000000E+00  0.16161206708E+04  0.16161206708E+04  0.50400001928E-02 0.  1.
       -1   -1    0    0    0  501  0.00000000000E+00  0.00000000000E+00 -0.22777592155E+04  0.22777592155E+04  0.50400001928E-02 0. -1.
    10030    2    1    2    0    0  0.00000000000E+00  0.00000000000E+00 -0.66163854468E+03  0.38938798863E+04  0.38372561819E+04 0.  0.
        5    1    3    3  502    0  0.16060610529E+04  0.27203940641E+03 -0.13595209916E+04  0.21217344228E+04  0.46999998093E+01 0. -1.
       -5    1    3    3    0  502 -0.16060610529E+04 -0.27203940641E+03  0.69788244696E+03  0.17721454635E+04  0.46999998093E+01 0.  1.
</event>
<event>
 5   0  0.5515000E-08  0.4044362E+04  0.7818609E-02  0.7995657E-01
       -1   -1    0    0    0  501  0.00000000000E+00  0.00000000000E+00  0.23238315544E+04  0.23238315544E+04  0.50400001928E-02 0.  1.
        1   -1    0    0  501    0  0.00000000000E+00  0.00000000000E+00 -0.17596867267E+04  0.17596867267E+04  0.50400001928E-02 0. -1.
    10030    2    1    2    0    0  0.00000000000E+00  0.00000000000E+00  0.56414482768E+03  0.40835182811E+04  0.40443617748E+04 0.  0.
        2    1    3    3  502    0 -0.85794932766E+03 -0.16874205215E+04 -0.43597423104E+03  0.19425598048E+04  0.25500000920E-02 0. -1.
       -2    1    3    3    0  502  0.85794932766E+03  0.16874205215E+04  0.10001190587E+04  0.21409584762E+04  0.25500000920E-02 0.  1.
</event>
<event>
 5   0  0.1819906E-07  0.4026588E+04  0.7818609E-02  0.7999204E-01
       -2   -1    0    0    0  501  0.00000000000E+00  0.00000000000E+00  0.15810051277E+04  0.15810051277E+04  0.25500000920E-02 0. -1.
        2   -1    0    0  501    0  0.00000000000E+00  0.00000000000E+00 -0.25637816440E+04  0.25637816440E+04  0.25500000920E-02 0.  1.
    10030    2    1    2    0    0  0.00000000000E+00  0.00000000000E+00 -0.98277651635E+03  0.41447867718E+04  0.40265876002E+04 0.  0.
        1    1    3    3  502    0  0.93230366693E+03 -0.16433940500E+04  0.22430406333E+03  0.19026945219E+04  0.50400001928E-02 0. -1.
       -1    1    3    3    0  502 -0.93230366693E+03  0.16433940500E+04 -0.12070805797E+04  0.22420922498E+04  0.50400001928E-02 0.  1.
</event>
<event>
 5   0  0.1773903E-07  0.3971671E+04  0.7818609E-02  0.8010286E-01
       -2   -1    0    0    0  501  0.00000000000E+00  0.00000000000E+00  0.20177896910E+04  0.20177896910E+04  0.25500000920E-02 0. -1.
        2   -1    0    0  501    0  0.00000000000E+00  0.00000000000E+00 -0.19543877265E+04  0.19543877265E+04  0.25500000920E-02 0.  1.
    10030    2    1    2    0    0  0.00000000000E+00  0.00000000000E+00  0.63401964568E+02  0.39721774175E+04  0.39716713896E+04 0.  0.
        3    1    3    3  502    0  0.19826656915E+03  0.13660014782E+04 -0.13961621585E+04  0.19632978516E+04  0.10100000352E+00 0.  1.
       -3    1    3    3    0  502 -0.19826656915E+03 -0.13660014782E+04  0.14595641231E+04  0.20088795659E+04  0.10100000352E+00 0. -1.
</event>
<event>
 5   0  0.1773903E-07  0.4052428E+04  0.7818609E-02  0.7994053E-01
        2   -1    0    0  501    0  0.00000000000E+00  0.00000000000E+00  0.25755450949E+04  0.25755450949E+04  0.25500000920E-02 0. -1.
       -2   -1    0    0    0  501  0.00000000000E+00  0.00000000000E+00 -0.15940484863E+04  0.15940484863E+04  0.25500000920E-02 0.  1.
    10030    2    1    2    0    0  0.00000000000E+00  0.00000000000E+00  0.98149660853E+03  0.41695935812E+04  0.40524282893E+04 0.  0.
        3    1    3    3  502    0 -0.54181820673E+03  0.71694437396E+03 -0.13777881528E+04  0.16449548348E+04  0.10100000352E+00 0.  1.
       -3    1    3    3    0  502  0.54181820673E+03 -0.71694437396E+03  0.23592847613E+04  0.25246387464E+04  0.10100000352E+00 0. -1.
</event>
<event>
 5   0  0.5515000E-08  0.3972287E+04  0.7818609E-02  0.8010161E-01
        1   -1    0    0  501    0  0.00000000000E+00  0.00000000000E+00  0.21176909035E+04  0.21176909035E+04  0.50400001928E-02 0.  1.
       -1   -1    0    0    0  501  0.00000000000E+00  0.00000000000E+00 -0.18627674878E+04  0.18627674878E+04  0.50400001928E-02 0. -1.
    10030    2    1    2    0    0  0.00000000000E+00  0.00000000000E+00  0.25492341566E+03  0.39804583913E+04  0.39722868800E+04 0.  0.
        1    1    3    3  502    0  0.10733442997E+04  0.16703903290E+04  0.77419738658E+02  0.19870243211E+04  0.50400001928E-02 0.  1.
       -1    1    3    3    0  502 -0.10733442997E+04 -0.16703903290E+04  0.17750367700E+03  0.19934340702E+04  0.50400001928E-02 0. -1.
</event>
<event>
 5   0  0.1819906E-07  0.4004180E+04  0.7818609E-02  0.8003704E-01
        2   -1    0    0  501    0  0.00000000000E+00  0.00000000000E+00  0.23331106603E+04  0.23331106603E+04  0.25500000920E-02 0. -1.
       -2   -1    0    0    0  501  0.00000000000E+00  0.00000000000E+00 -0.17180340719E+04  0.17180340719E+04  0.25500000920E-02 0.  1.
    10030    2    1    2    0    0  0.00000000000E+00  0.00000000000E+00  0.61507658841E+03  0.40511447322E+04  0.40041796203E+04 0.  0.
        1    1    3    3  502    0 -0.52550521292E+03  0.17036054071E+04 -0.61415544973E+03  0.18856335880E+04  0.50400001928E-02 0.  1.
       -1    1    3    3    0  502  0.52550521292E+03 -0.17036054071E+04  0.12292320381E+04  0.21655111442E+04  0.50400001928E-02 0. -1.
</event>
<event>
 5   0  0.5515000E-08  0.3830139E+04  0.7818609E-02  0.8039718E-01
       -1   -1    0    0    0  501  0.00000000000E+00  0.00000000000E+00  0.19666069135E+04  0.19666069135E+04  0.50400001928E-02 0. -1.
        1   -1    0    0  501    0  0.00000000000E+00  0.00000000000E+00 -0.18648830166E+04  0.18648830166E+04  0.50400001928E-02 0.  1.
    10030    2    1    2    0    0  0.00000000000E+00  0.00000000000E+00  0.10172389696E+03  0.38314899301E+04  0.38301393360E+04 0.  0.
        2    1    3    3  502    0  0.18583761235E+04 -0.19173444329E+03 -0.37019967290E+03  0.19045660165E+04  0.25500000920E-02 0.  1.
       -2    1    3    3    0  502 -0.18583761235E+04  0.19173444329E+03  0.47192356986E+03  0.19269239137E+04  0.25500000920E-02 0. -1.
</event>
<event>
 5   0  0.5515000E-08  0.4022549E+04  0.7818609E-02  0.8000013E-01
       -1   -1    0    0    0  501  0.00000000000E+00  0.00000000000E+00  0.19073542314E+04  0.19073542314E+04  0.50400001928E-02 0.  1.
        1   -1    0    0  501    0  0.00000000000E+00  0.00000000000E+00 -0.21208567897E+04  0.21208567897E+04  0.50400001928E-02 0. -1.
    10030    2    1    2    0    0  0.00000000000E+00  0.00000000000E+00 -0.21350255831E+03  0.40282110211E+04  0.40225490286E+04 0.  0.
        3    1    3    3  502    0 -0.46558614068E+03 -0.17456293026E+04  0.77836671476E+03  0.19671926365E+04  0.10100000352E+00 0.  1.
       -3    1    3    3    0  502  0.46558614068E+03  0.17456293026E+04 -0.99186927307E+03  0.20610183845E+04  0.10100000352E+00 0. -1.
</event>
<event>
 5   0  0.5515000E-08  0.3983372E+04  0.7818609E-02  0.8007909E-01
        3   -1    0    0  501    0  0.00000000000E+00  0.00000000000E+00  0.23607105461E+04  0.23607105482E+04  0.10100000352E+00 0. -1.
       -3   -1    0    0    0  501  0.00000000000E+00  0.00000000000E+00 -0.16803471408E+04  0.16803471439E+04  0.10100000352E+00 0.  1.
    10030    2    1    2    0    0  0.00000000000E+00  0.00000000000E+00  0.68036340526E+03  0.40410576921E+04  0.39833720524E+04 0.  0.
        3    1    3    3  502    0  0.92341328027E+03 -0.17607868865E+04  0.22122028764E+03  0.20005001804E+04  0.10100000352E+00 0.  1.
       -3    1    3    3    0  502 -0.92341328027E+03  0.17607868865E+04  0.45914311762E+03  0.20405575117E+04  0.10100000352E+00 0. -1.
</event>
<event>
 5   0  0.1785559E-07  0.3882968E+04  0.7818609E-02  0.8028581E-01
       -2   -1    0    0    0  501  0.00000000000E+00  0.00000000000E+00  0.30972428986E+04  0.30972428986E+04  0.25500000920E-02 0.  1.
        2   -1    0    0  501    0  0.00000000000E+00  0.00000000000E+00 -0.12170050929E+04  0.12170050929E+04  0.25500000920E-02 0. -1.
    10030    2    1    2    0    0  0.00000000000E+00  0.00000000000E+00  0.18802378057E+04  0.43142479915E+04  0.38829681336E+04 0.  0.
        2    1    3    3  502    0 -0.10215358934E+04 -0.16424774548E+04  0.11263436223E+04  0.22382845499E+04  0.25500000920E-02 0.  1.
       -2    1    3    3    0  502  0.10215358934E+04  0.16424774548E+04  0.75389418337E+03  0.20759634416E+04  0.25500000920E-02 0. -1.
</event>
<event>
 5   0  0.1819906E-07  0.3989402E+04  0.7818609E-02  0.8006688E-01
       -2   -1    0    0    0  501  0.00000000000E+00  0.00000000000E+00  0.20061741305E+04  0.20061741305E+04  0.25500000920E-02 0. -1.
        2   -1    0    0  501    0  0.00000000000E+00  0.00000000000E+00 -0.19832937771E+04  0.19832937771E+04  0.25500000920E-02 0.  1.
    10030    2    1    2    0    0  0.00000000000E+00  0.00000000000E+00  0.22880353388E+02  0.39894679076E+04  0.39894022955E+04 0.  0.
        1    1    3    3  502    0  0.99691717077E+03  0.64789297092E+03 -0.15902176834E+04  0.19855481429E+04  0.50400001928E-02 0.  1.
       -1    1    3    3    0  502 -0.99691717077E+03 -0.64789297092E+03  0.16130980368E+04  0.20039197647E+04  0.50400001928E-02 0. -1.
</event>
<event>
 5   0  0.1821433E-07  0.3989533E+04  0.7818609E-02  0.8006661E-01
        2   -1    0    0  501    0  0.00000000000E+00  0.00000000000E+00  0.18324765345E+04  0.18324765345E+04  0.25500000920E-02 0.  1.
       -2   -1    0    0    0  501  0.00000000000E+00  0.00000000000E+00 -0.21714298502E+04  0.21714298502E+04  0.25500000920E-02 0. -1.
    10030    2    1    2    0    0  0.00000000000E+00  0.00000000000E+00 -0.33895331569E+03  0.40039063847E+04  0.39895334298E+04 0.  0.
        5    1    3    3  502    0 -0.13004436979E+04 -0.14833651917E+04 -0.46642444469E+03  0.20270915016E+04  0.46999998093E+01 0. -1.
       -5    1    3    3    0  502  0.13004436979E+04  0.14833651917E+04  0.12747112900E+03  0.19768148831E+04  0.46999998093E+01 0.  1.
</event>
<event>
 5   0  0.5515000E-08  0.3998577E+04  0.7818609E-02  0.8004834E-01
       -1   -1    0    0    0  501  0.00000000000E+00  0.00000000000E+00  0.21055668770E+04  0.21055668770E+04  0.50400001928E-02 0. -1.
        1   -1    0    0  501    0  0.00000000000E+00  0.00000000000E+00 -0.18983746499E+04  0.18983746499E+04  0.50400001928E-02 0.  1.
    10030    2    1    2    0    0  0.00000000000E+00  0.00000000000E+00  0.20719222713E+03  0.40039415270E+04  0.39985771385E+04 0.  0.
        2    1    3    3  502    0 -0.42100958338E+03  0.18706644450E+04 -0.46330848912E+03  0.19726351135E+04  0.25500000920E-02 0.  1.
       -2    1    3    3    0  502  0.42100958338E+03 -0.18706644450E+04  0.67050071625E+03  0.20313064135E+04  0.25500000920E-02 0. -1.
</event>
<event>
 5   0  0.1776653E-07  0.3755338E+04  0.7818609E-02  0.8055808E-01
       -2   -1    0    0    0  501  0.00000000000E+00  0.00000000000E+00  0.13339900805E+04  0.13339900806E+04  0.25500000920E-02 0.  1.
        2   -1    0    0  501    0  0.00000000000E+00  0.00000000000E+00 -0.26429281909E+04  0.26429281909E+04  0.25500000920E-02 0. -1.
    10030    2    1    2    0    0  0.00000000000E+00  0.00000000000E+00 -0.13089381104E+04  0.39769182715E+04  0.37553375296E+04 0.  0.
        4    1    3    3  502    0 -0.15152239881E+04 -0.95299703961E+03 -0.53974177636E+02  0.17908159918E+04  0.12699999809E+01 0.  1.
       -4    1    3    3    0  502  0.15152239881E+04  0.95299703961E+03 -0.12549639327E+04  0.21861022797E+04  0.12699999809E+01 0. -1.
</event>
<event>
 5   0  0.1819906E-07  0.4012265E+04  0.7818609E-02  0.8002077E-01
       -2   -1    0    0    0  501  0.00000000000E+00  0.00000000000E+00  0.17623748671E+04  0.17623748671E+04  0.25500000920E-02 0. -1.
        2   -1    0    0  501    0  0.00000000000E+00  0.00000000000E+00 -0.22836042357E+04  0.22836042357E+04  0.25500000920E-02 0.  1.
    10030    2    1    2    0    0  0.00000000000E+00  0.00000000000E+00 -0.52122936854E+03  0.40459791028E+04  0.40122645533E+04 0.  0.
        1    1    3    3  502    0 -0.75551121040E+03  0.18815833878E+03 -0.21250329627E+04  0.22631760519E+04  0.50400001928E-02 0.  1.
       -1    1    3    3    0  502  0.75551121040E+03 -0.18815833878E+03  0.16038035942E+04  0.17828030509E+04  0.50400001928E-02 0. -1.
</event>
<event>
 5   0  0.5515000E-08  0.3808331E+04  0.7818609E-02  0.8044369E-01
       -1   -1    0    0    0  501  0.00000000000E+00  0.00000000000E+00  0.19404337616E+04  0.19404337616E+04  0.50400001928E-02 0. -1.
        1   -1    0    0  501    0  0.00000000000E+00  0.00000000000E+00 -0.18685755644E+04  0.18685755645E+04  0.50400001928E-02 0.  1.
    10030    2    1    2    0    0  0.00000000000E+00  0.00000000000E+00  0.71858197169E+02  0.38090093261E+04  0.38083314517E+04 0.  0.
        1    1    3    3  502    0  0.10219200052E+04  0.13461213552E+04 -0.84142936211E+03  0.18879530109E+04  0.50400001928E-02 0.  1.
       -1    1    3    3    0  502 -0.10219200052E+04 -0.13461213552E+04  0.91328755928E+03  0.19210563152E+04  0.50400001928E-02 0. -1.
</event>
<event>
 5   0  0.5515000E-08  0.3752632E+04  0.7818609E-02  0.8056397E-01
        1   -1    0    0  501    0  0.00000000000E+00  0.00000000000E+00  0.19438061082E+04  0.19438061082E+04  0.50400001928E-02 0. -1.
       -1   -1    0    0    0  501  0.00000000000E+00  0.00000000000E+00 -0.18111687863E+04  0.18111687863E+04  0.50400001928E-02 0.  1.
    10030    2    1    2    0    0  0.00000000000E+00  0.00000000000E+00  0.13263732192E+03  0.37549748945E+04  0.37526315832E+04 0.  0.
        5    1    3    3  502    0 -0.76461418332E+03  0.16300869618E+04 -0.46195087924E+03  0.18588273339E+04  0.46999998093E+01 0.  1.
       -5    1    3    3    0  502  0.76461418332E+03 -0.16300869618E+04  0.59458820116E+03  0.18961475606E+04  0.46999998093E+01 0. -1.
</event>
<event>
 5   0  0.1821433E-07  0.3988705E+04  0.7818609E-02  0.8006829E-01
        2   -1    0    0  501    0  0.00000000000E+00  0.00000000000E+00  0.20312147009E+04  0.20312147009E+04  0.25500000920E-02 0.  1.
       -2   -1    0    0    0  501  0.00000000000E+00  0.00000000000E+00 -0.19581591983E+04  0.19581591983E+04  0.25500000920E-02 0. -1.
    10030    2    1    2    0    0  0.00000000000E+00  0.00000000000E+00  0.73055502635E+02  0.39893738993E+04  0.39887049279E+04 0.  0.
        5    1    3    3  502    0  0.16285786166E+04 -0.11148717107E+04  0.32330292094E+03  0.19999385266E+04  0.46999998093E+01 0. -1.
       -5    1    3    3    0  502 -0.16285786166E+04  0.11148717107E+04 -0.25024741830E+03  0.19894353726E+04  0.46999998093E+01 0.  1.
</event>
<event>
 5   0  0.1821433E-07  0.4029575E+04  0.7818609E-02  0.7998607E-01
       -2   -1    0    0    0  501  0.00000000000E+00  0.00000000000E+00  0.17852533461E+04  0.17852533461E+04  0.25500000920E-02 0. -1.
        2   -1    0    0  501    0  0.00000000000E+00  0.00000000000E+00 -0.22738329343E+04  0.22738329343E+04  0.25500000920E-02 0.  1.
    10030    2    1    2    0    0  0.00000000000E+00  0.00000000000E+00 -0.48857958825E+03  0.40590862804E+04  0.40295745951E+04 0.  0.
        5    1    3    3  502    0  0.17014795129E+04  0.89708462346E+03 -0.84830821689E+03  0.21022469587E+04  0.46999998093E+01 0.  1.
       -5    1    3    3    0  502 -0.17014795129E+04 -0.89708462346E+03  0.35972862864E+03  0.19568393217E+04  0.46999998093E+01 0. -1.
</event>
<event>
 5   0  0.1821433E-07  0.4035004E+04  0.7818609E-02  0.7997522E-01
       -2   -1    0    0    0  501  0.00000000000E+00  0.00000000000E+00  0.16893682562E+04  0.16893682562E+04  0.25500000920E-02 0. -1.
        2   -1    0    0  501    0  0.00000000000E+00  0.00000000000E+00 -0.24093702479E+04  0.24093702479E+04  0.25500000920E-02 0.  1.
    10030    2    1    2    0    0  0.00000000000E+00  0.00000000000E+00 -0.72000199167E+03  0.40987385040E+04  0.40350036501E+04 0.  0.
        5    1    3    3  502    0  0.16868591380E+04 -0.48889458857E+03  0.64854625251E+03  0.18722035151E+04  0.46999998093E+01 0. -1.
       -5    1    3    3    0  502 -0.16868591380E+04  0.48889458857E+03 -0.13685482442E+04  0.22265349889E+04  0.46999998093E+01 0.  1.
</event>
<event>
 5   0  0.1776653E-07  0.3992891E+04  0.7818609E-02  0.8005982E-01
        2   -1    0    0  501    0  0.00000000000E+00  0.00000000000E+00  0.18173381496E+04  0.18173381496E+04  0.25500000920E-02 0. -1.
       -2   -1    0    0    0  501  0.00000000000E+00  0.00000000000E+00 -0.21932042106E+04  0.21932042106E+04  0.25500000920E-02 0.  1.
    10030    2    1    2    0    0  0.00000000000E+00  0.00000000000E+00 -0.37586606101E+03  0.40105423602E+04  0.39928905229E+04 0.  0.
        4    1    3    3  502    0  0.91282192790E+03  0.16466109670E+04 -0.85511385570E+03  0.20677990395E+04  0.12699999809E+01 0.  1.
       -4    1    3    3    0  502 -0.91282192790E+03 -0.16466109670E+04  0.47924779468E+03  0.19427433207E+04  0.12699999809E+01 0. -1.
</event>
<event>
 5   0  0.1776653E-07  0.3964381E+04  0.7818609E-02  0.8011771E-01
       -2   -1    0    0    0  501  0.00000000000E+00  0.00000000000E+00  0.27327240042E+04  0.27327240042E+04  0.25500000920E-02 0.  1.
        2   -1    0    0  501    0  0.00000000000E+00  0.00000000000E+00 -0.14377882299E+04  0.14377882299E+04  0.25500000920E-02 0. -1.
    10030    2    1    2    0    0  0.00000000000E+00  0.00000000000E+00  0.12949357743E+04  0.41705122340E+04  0.39643806117E+04 0.  0.
        4    1    3    3  502    0  0.18159570466E+04 -0.51762714550E+03  0.12816730658E+04  0.22821755667E+04  0.12699999809E+01 0.  1.
       -4    1    3    3    0  502 -0.18159570466E+04  0.51762714550E+03  0.13262708533E+02  0.18883366673E+04  0.12699999809E+01 0. -1.
</event>
<event>
 5   0  0.5515000E-08  0.4174840E+04  0.7818609E-02  0.7970175E-01
       -1   -1    0    0    0  501  0.00000000000E+00  0.00000000000E+00  0.22797813647E+04  0.22797813647E+04  0.50400001928E-02 0.  1.
        1   -1    0    0  501    0  0.00000000000E+00  0.00000000000E+00 -0.19112897337E+04  0.19112897337E+04  0.50400001928E-02 0. -1.
    10030    2    1    2    0    0  0.00000000000E+00  0.00000000000E+00  0.36849163098E+03  0.41910710983E+04  0.41748402208E+04 0.  0.
        5    1    3    3  502    0 -0.67967651945E+02 -0.21237515616E+03  0.22677853021E+04  0.22787266346E+04  0.46999998093E+01 0.  1.
       -5    1    3    3    0  502  0.67967651945E+02  0.21237515616E+03 -0.18992936712E+04  0.19123444637E+04  0.46999998093E+01 0. -1.
</event>
<event>
 5   0  0.1773903E-07  0.3972163E+04  0.7818609E-02  0.8010186E-01
       -2   -1    0    0    0  501  0.00000000000E+00  0.00000000000E+00  0.14722309789E+04  0.14722309789E+04  0.25500000920E-02 0. -1.
        2   -1    0    0  501    0  0.00000000000E+00  0.00000000000E+00 -0.26792806863E+04  0.26792806863E+04  0.25500000920E-02 0.  1.
    10030    2    1    2    0    0  0.00000000000E+00  0.00000000000E+00 -0.12070497074E+04  0.41515116651E+04  0.39721631524E+04 0.  0.
        3    1    3    3  502    0  0.13647921952E+04  0.10236897762E+04  0.45920522392E+03  0.17667676536E+04  0.10100000352E+00 0. -1.
       -3    1    3    3    0  502 -0.13647921952E+04 -0.10236897762E+04 -0.16662549313E+04  0.23847440115E+04  0.10100000352E+00 0.  1.
</event>
<event>
 5   0  0.1785559E-07  0.4032559E+04  0.7818609E-02  0.7998010E-01
       -2   -1    0    0    0  501  0.00000000000E+00  0.00000000000E+00  0.16019367368E+04  0.16019367368E+04  0.25500000920E-02 0. -1.
        2   -1    0    0  501    0  0.00000000000E+00  0.00000000000E+00 -0.25377919450E+04  0.25377919450E+04  0.25500000920E-02 0.  1.
    10030    2    1    2    0    0  0.00000000000E+00  0.00000000000E+00 -0.93585520819E+03  0.41397286818E+04  0.40325585660E+04 0.  0.
        2    1    3    3  502    0 -0.36016800912E+03 -0.55193559604E+02  0.15678573524E+04  0.16096409541E+04  0.25500000920E-02 0. -1.
       -2    1    3    3    0  502  0.36016800912E+03  0.55193559604E+02 -0.25037125606E+04  0.25300877277E+04  0.25500000920E-02 0.  1.
</event>
<event>
 5   0  0.5515000E-08  0.4035643E+04  0.7818609E-02  0.7997395E-01
        1   -1    0    0  501    0  0.00000000000E+00  0.00000000000E+00  0.18510129980E+04  0.18510129980E+04  0.50400001928E-02 0. -1.
       -1   -1    0    0    0  501  0.00000000000E+00  0.00000000000E+00 -0.21996626983E+04  0.21996626984E+04  0.50400001928E-02 0.  1.
    10030    2    1    2    0    0  0.00000000000E+00  0.00000000000E+00 -0.34864970033E+03  0.40506756964E+04  0.40356433172E+04 0.  0.
        3    1    3    3  502    0  0.29758027494E+03  0.13592287808E+04  0.12924697436E+04  0.18990879250E+04  0.10100000352E+00 0. -1.
       -3    1    3    3    0  502 -0.29758027494E+03 -0.13592287808E+04 -0.16411194439E+04  0.21515877714E+04  0.10100000352E+00 0.  1.
</event>
<event>
 5   0  0.1821433E-07  0.4005563E+04  0.7818609E-02  0.8003425E-01
        2   -1    0    0  501    0  0.00000000000E+00  0.00000000000E+00  0.24555482972E+04  0.24555482972E+04  0.25500000920E-02 0. -1.
       -2   -1    0    0    0  501  0.00000000000E+00  0.00000000000E+00 -0.16334979858E+04  0.16334979858E+04  0.25500000920E-02 0.  1.
    10030    2    1    2    0    0  0.00000000000E+00  0.00000000000E+00  0.82205031137E+03  0.40890462830E+04  0.40055627307E+04 0.  0.
        5    1    3    3  502    0 -0.42495306105E+02 -0.19241840267E+03 -0.16235720242E+04  0.16354934731E+04  0.46999998093E+01 0.  1.
       -5    1    3    3    0  502  0.42495306105E+02  0.19241840267E+03  0.24456223356E+04  0.24535528099E+04  0.46999998093E+01 0. -1.
</event>
<event>
 5   0  0.1785559E-07  0.3874581E+04  0.7818609E-02  0.8030337E-01
       -2   -1    0    0    0  501  0.00000000000E+00  0.00000000000E+00  0.15920137895E+04  0.15920137895E+04  0.25500000920E-02 0. -1.
        2   -1    0    0  501    0  0.00000000000E+00  0.00000000000E+00 -0.23574512548E+04  0.23574512548E+04  0.25500000920E-02 0.  1.
    10030    2    1    2    0    0  0.00000000000E+00  0.00000000000E+00 -0.76543746535E+03  0.39494650443E+04  0.38745812190E+04 0.  0.
        2    1    3    3  502    0  0.17614629883E+04 -0.31123175765E+02 -0.12041308124E+04  0.21339286597E+04  0.25500000920E-02 0. -1.
       -2    1    3    3    0  502 -0.17614629883E+04  0.31123175765E+02  0.43869334705E+03  0.18155363846E+04  0.25500000920E-02 0.  1.
</event>
<event>
 5   0  0.5515000E-08  0.3991635E+04  0.7818609E-02  0.8006236E-01
       -1   -1    0    0    0  501  0.00000000000E+00  0.00000000000E+00  0.19189402264E+04  0.19189402264E+04  0.50400001928E-02 0.  1.
        1   -1    0    0  501    0  0.00000000000E+00  0.00000000000E+00 -0.20757750155E+04  0.20757750155E+04  0.50400001928E-02 0. -1.
    10030    2    1    2    0    0  0.00000000000E+00  0.00000000000E+00 -0.15683478911E+03  0.39947152420E+04  0.39916353432E+04 0.  0.
        3    1    3    3  502    0  0.52495454071E+03  0.23177427722E+03  0.18345992054E+04  0.19222515028E+04  0.10100000352E+00 0.  1.
       -3    1    3    3    0  502 -0.52495454071E+03 -0.23177427722E+03 -0.19914339945E+04  0.20724637391E+04  0.10100000352E+00 0. -1.
</event>
<event>
 5   0  0.1821433E-07  0.3898710E+04  0.7818609E-02  0.8025298E-01
       -2   -1    0    0    0  501  0.00000000000E+00  0.00000000000E+00  0.34630181720E+04  0.34630181720E+04  0.25500000920E-02 0. -1.
        2   -1    0    0  501    0  0.00000000000E+00  0.00000000000E+00 -0.10973041025E+04  0.10973041025E+04  0.25500000920E-02 0.  1.
    10030    2    1    2    0    0  0.00000000000E+00  0.00000000000E+00  0.23657140696E+04  0.45603222745E+04  0.38987095542E+04 0.  0.
        5    1    3    3  502    0  0.88586267008E+03 -0.94524706400E+03 -0.52094216070E+03  0.13962977859E+04  0.46999998093E+01 0.  1.
       -5    1    3    3    0  502 -0.88586267008E+03  0.94524706400E+03  0.28866562303E+04  0.31640244885E+04  0.46999998093E+01 0. -1.
</event>
<event>
 5   0  0.5515000E-08  0.3933537E+04  0.7818609E-02  0.8018090E-01
       -1   -1    0    0    0  501  0.00000000000E+00  0.00000000000E+00  0.31361227364E+04  0.31361227364E+04  0.50400001928E-02 0. -1.
        1   -1    0    0  501    0  0.00000000000E+00  0.00000000000E+00 -0.12334270116E+04  0.12334270116E+04  0.50400001928E-02 0.  1.
    10030    2    1    2    0    0  0.00000000000E+00  0.00000000000E+00  0.19026957248E+04  0.43695497481E+04  0.39335370825E+04 0.  0.
        2    1    3    3  502    0 -0.15152506155E+04  0.11650081542E+04  0.43633007047E+03  0.19605132893E+04  0.25500000920E-02 0.  1.
       -2    1    3    3    0  502  0.15152506155E+04 -0.11650081542E+04  0.14663656544E+04  0.24090364587E+04  0.25500000920E-02 0. -1.
</event>
<event>
 5   0  0.1773903E-07  0.3985588E+04  0.7818609E-02  0.8007460E-01
        2   -1    0    0  501    0  0.00000000000E+00  0.00000000000E+00  0.18767755296E+04  0.18767755296E+04  0.25500000920E-02 0.  1.
       -2   -1    0    0    0  501  0.00000000000E+00  0.00000000000E+00 -0.21159846944E+04  0.21159846944E+04  0.25500000920E-02 0. -1.
    10030    2    1    2    0    0  0.00000000000E+00  0.00000000000E+00 -0.23920916478E+03  0.39927602239E+04  0.39855881851E+04 0.  0.
        3    1    3    3  502    0  0.15825648179E+04 -0.82835168751E+03 -0.10046820264E+04  0.20494057444E+04  0.10100000352E+00 0. -1.
       -3    1    3    3    0  502 -0.15825648179E+04  0.82835168751E+03  0.76547286160E+03  0.19433544795E+04  0.10100000352E+00 0.  1.
</event>
<event>
 5   0  0.5515000E-08  0.4040704E+04  0.7818609E-02  0.7996385E-01
        1   -1    0    0  501    0  0.00000000000E+00  0.00000000000E+00  0.16532532970E+04  0.16532532970E+04  0.50400001928E-02 0.  1.
       -1   -1    0    0    0  501  0.00000000000E+00  0.00000000000E+00 -0.24689631680E+04  0.24689631680E+04  0.50400001928E-02 0. -1.
    10030    2    1    2    0    0  0.00000000000E+00  0.00000000000E+00 -0.81570987103E+03  0.41222164651E+04  0.40407036505E+04 0.  0.
        2    1    3    3  502    0 -0.10774900819E+04  0.65398179822E+03  0.12029669171E+04  0.17423565860E+04  0.25500000920E-02 0.  1.
       -2    1    3    3    0  502  0.10774900819E+04 -0.65398179822E+03 -0.20186767881E+04  0.23798598791E+04  0.25500000920E-02 0. -1.
</event>
<event>
 5   0  0.5515000E-08  0.4001063E+04  0.7818609E-02  0.8004332E-01
       -1   -1    0    0    0  501  0.00000000000E+00  0.00000000000E+00  0.19499831041E+04  0.19499831041E+04  0.50400001928E-02 0.  1.
        1   -1    0    0  501    0  0.00000000000E+00  0.00000000000E+00 -0.20523902421E+04  0.20523902421E+04  0.50400001928E-02 0. -1.
    10030    2    1    2    0    0  0.00000000000E+00  0.00000000000E+00 -0.10240713802E+03  0.40023733462E+04  0.40010630063E+04 0.  0.
        5    1    3    3  502    0 -0.19043714468E+04 -0.36638165729E+03  0.44011721708E+03  0.19886154432E+04  0.46999998093E+01 0. -1.
       -5    1    3    3    0  502  0.19043714468E+04  0.36638165729E+03 -0.54252435510E+03  0.20137579030E+04  0.46999998093E+01 0.  1.
</event>
<event>
 5   0  0.1785559E-07  0.4028459E+04  0.7818609E-02  0.7998830E-01
       -2   -1    0    0    0  501  0.00000000000E+00  0.00000000000E+00  0.17846620893E+04  0.17846620893E+04  0.25500000920E-02 0. -1.
        2   -1    0    0  501    0  0.00000000000E+00  0.00000000000E+00 -0.22733273025E+04  0.22733273025E+04  0.25500000920E-02 0.  1.
    10030    2    1    2    0    0  0.00000000000E+00  0.00000000000E+00 -0.48866521318E+03  0.40579893918E+04  0.40284592854E+04 0.  0.
        2    1    3    3  502    0 -0.11935114518E+04 -0.16123959415E+04 -0.61811693397E+02  0.20070154317E+04  0.25500000920E-02 0.  1.
       -2    1    3    3    0  502  0.11935114518E+04  0.16123959415E+04 -0.42685351979E+03  0.20509739601E+04  0.25500000920E-02 0. -1.
</event>
<event>
 5   0  0.1819906E-07  0.3965138E+04  0.7818609E-02  0.8011617E-01
       -2   -1    0    0    0  501  0.00000000000E+00  0.00000000000E+00  0.16994874833E+04  0.16994874833E+04  0.25500000920E-02 0. -1.
        2   -1    0    0  501    0  0.00000000000E+00  0.00000000000E+00 -0.23128027245E+04  0.23128027245E+04  0.25500000920E-02 0.  1.
    10030    2    1    2    0    0  0.00000000000E+00  0.00000000000E+00 -0.61331524117E+03  0.40122902078E+04  0.39651377185E+04 0.  0.
        1    1    3    3  502    0  0.28901769224E+03  0.12415186179E+04 -0.18431610653E+04  0.22410137031E+04  0.50400001928E-02 0.  1.
       -1    1    3    3    0  502 -0.28901769224E+03 -0.12415186179E+04  0.12298458241E+04  0.17712765047E+04  0.50400001928E-02 0. -1.
</event>
<event>
 5   0  0.5515000E-08  0.4047774E+04  0.7818609E-02  0.7994978E-01
        1   -1    0    0  501    0  0.00000000000E+00  0.00000000000E+00  0.22626415169E+04  0.22626415170E+04  0.50400001928E-02 0. -1.
       -1   -1    0    0    0  501  0.00000000000E+00  0.00000000000E+00 -0.18103260840E+04  0.18103260840E+04  0.50400001928E-02 0.  1.
    10030    2    1    2    0    0  0.00000000000E+00  0.00000000000E+00  0.45231543294E+03  0.40729676010E+04  0.40477741819E+04 0.  0.
        4    1    3    3  502    0  0.70664330276E+02  0.24859898883E+03 -0.17936530863E+04  0.18121776711E+04  0.12699999809E+01 0.  1.
       -4    1    3    3    0  502 -0.70664330276E+02 -0.24859898883E+03  0.22459685192E+04  0.22607899299E+04  0.12699999809E+01 0. -1.
</event>
<event>
 5   0  0.5515000E-08  0.3960999E+04  0.7818609E-02  0.8012461E-01
       -1   -1    0    0    0  501  0.00000000000E+00  0.00000000000E+00  0.33016399354E+04  0.33016399354E+04  0.50400001928E-02 0.  1.
        1   -1    0    0  501    0  0.00000000000E+00  0.00000000000E+00 -0.11880090841E+04  0.11880090842E+04  0.50400001928E-02 0. -1.
    10030    2    1    2    0    0  0.00000000000E+00  0.00000000000E+00  0.21136308512E+04  0.44896490195E+04  0.39609989830E+04 0.  0.
        3    1    3    3  502    0 -0.24115699997E+03  0.16066923390E+04  0.23405657820E+04  0.28491867543E+04  0.10100000352E+00 0.  1.
       -3    1    3    3    0  502  0.24115699997E+03 -0.16066923390E+04 -0.22693493078E+03  0.16404622652E+04  0.10100000352E+00 0. -1.
</event>
<event>
 5   0  0.1785559E-07  0.3495107E+04  0.7818609E-02  0.8114950E-01
        2   -1    0    0  501    0  0.00000000000E+00  0.00000000000E+00  0.19591076104E+04  0.19591076104E+04  0.25500000920E-02 0. -1.
       -2   -1    0    0    0  501  0.00000000000E+00  0.00000000000E+00 -0.15588443076E+04  0.15588443076E+04  0.25500000920E-02 0.  1.
    10030    2    1    2    0    0  0.00000000000E+00  0.00000000000E+00  0.40026330285E+03  0.35179519180E+04  0.34951072924E+04 0.  0.
        2    1    3    3  502    0 -0.53142660673E+02 -0.31710610315E+03 -0.15288160517E+04  0.15622608434E+04  0.25500000920E-02 0.  1.
       -2    1    3    3    0  502  0.53142660673E+02  0.31710610315E+03  0.19290793545E+04  0.19556910746E+04  0.25500000920E-02 0. -1.
</event>
<event>
 5   0  0.5515000E-08  0.4068144E+04  0.7818609E-02  0.7990939E-01
        1   -1    0    0  501    0  0.00000000000E+00  0.00000000000E+00  0.17488875538E+04  0.17488875538E+04  0.50400001928E-02 0.  1.
       -1   -1    0    0    0  501  0.00000000000E+00  0.00000000000E+00 -0.23657607170E+04  0.23657607170E+04  0.50400001928E-02 0. -1.
    10030    2    1    2    0    0  0.00000000000E+00  0.00000000000E+00 -0.61687316317E+03  0.41146482708E+04  0.40681442813E+04 0.  0.
        3    1    3    3  502    0  0.51506189183E+03 -0.16970954539E+04  0.69895490346E+03  0.19062947567E+04  0.10100000352E+00 0.  1.
       -3    1    3    3    0  502 -0.51506189183E+03  0.16970954539E+04 -0.13158280666E+04  0.22083535141E+04  0.10100000352E+00 0. -1.
</event>
<event>
 5   0  0.5515000E-08  0.3978606E+04  0.7818609E-02  0.8008876E-01
       -1   -1    0    0    0  501  0.00000000000E+00  0.00000000000E+00  0.30746475856E+04  0.30746475856E+04  0.50400001928E-02 0.  1.
        1   -1    0    0  501    0  0.00000000000E+00  0.00000000000E+00 -0.12870829047E+04  0.12870829047E+04  0.50400001928E-02 0. -1.
    10030    2    1    2    0    0  0.00000000000E+00  0.00000000000E+00  0.17875646808E+04  0.43617304903E+04  0.39786059596E+04 0.  0.
        1    1    3    3  502    0  0.73749785679E+03  0.14215708787E+04 -0.39992123232E+03  0.16506676964E+04  0.50400001928E-02 0. -1.
       -1    1    3    3    0  502 -0.73749785679E+03 -0.14215708787E+04  0.21874859132E+04  0.27110627939E+04  0.50400001928E-02 0.  1.
</event>
<event>
 5   0  0.5515000E-08  0.4010698E+04  0.7818609E-02  0.8002392E-01
        1   -1    0    0  501    0  0.00000000000E+00  0.00000000000E+00  0.15846643353E+04  0.15846643353E+04  0.50400001928E-02 0. -1.
       -1   -1    0    0    0  501  0.00000000000E+00  0.00000000000E+00 -0.25377136069E+04  0.25377136069E+04  0.50400001928E-02 0.  1.
    10030    2    1    2    0    0  0.00000000000E+00  0.00000000000E+00 -0.95304927157E+03  0.41223779422E+04  0.40106978177E+04 0.  0.
        4    1    3    3  502    0 -0.65770742314E+03 -0.41721571695E+03 -0.23758916292E+04  0.25003021128E+04  0.12699999809E+01 0.  1.
       -4    1    3    3    0  502  0.65770742314E+03  0.41721571695E+03  0.14228423576E+04  0.16220758294E+04  0.12699999809E+01 0. -1.
</event>
<event>
 5   0  0.1776653E-07  0.4095203E+04  0.7818609E-02  0.7985612E-01
        2   -1    0    0  501    0  0.00000000000E+00  0.00000000000E+00  0.24392772888E+04  0.24392772888E+04  0.25500000920E-02 0.  1.
       -2   -1    0    0    0  501  0.00000000000E+00  0.00000000000E+00 -0.17188169953E+04  0.17188169953E+04  0.25500000920E-02 0. -1.
    10030    2    1    2    0    0  0.00000000000E+00  0.00000000000E+00  0.72046029359E+03  0.41580942841E+04  0.40952026862E+04 0.  0.
        4    1    3    3  502    0  0.24363791936E+03  0.91584716344E+02 -0.17019510631E+04  0.17217393038E+04  0.12699999809E+01 0. -1.
       -4    1    3    3    0  502 -0.24363791936E+03 -0.91584716344E+02  0.24224113567E+04  0.24363549803E+04  0.12699999809E+01 0.  1.
</event>
<event>
 5   0  0.5515000E-08  0.4050876E+04  0.7818609E-02  0.7994361E-01
       -1   -1    0    0    0  501  0.00000000000E+00  0.00000000000E+00  0.18191531119E+04  0.18191531119E+04  0.50400001928E-02 0.  1.
        1   -1    0    0  501    0  0.00000000000E+00  0.00000000000E+00 -0.22551145402E+04  0.22551145402E+04  0.50400001928E-02 0. -1.
    10030    2    1    2    0    0  0.00000000000E+00  0.00000000000E+00 -0.43596142833E+03  0.40742676520E+04  0.40508757737E+04 0.  0.
        2    1    3    3  502    0  0.20120945500E+04 -0.15584190273E+03 -0.44977390223E+02  0.20186218424E+04  0.25500000920E-02 0. -1.
       -2    1    3    3    0  502 -0.20120945500E+04  0.15584190273E+03 -0.39098403810E+03  0.20556458097E+04  0.25500000920E-02 0.  1.
</event>
<event>
 5   0  0.1776653E-07  0.4046997E+04  0.7818609E-02  0.7995132E-01
        2   -1    0    0  501    0  0.00000000000E+00  0.00000000000E+00  0.28233663089E+04  0.28233663089E+04  0.25500000920E-02 0.  1.
       -2   -1    0    0    0  501  0.00000000000E+00  0.00000000000E+00 -0.14502357858E+04  0.14502357858E+04  0.25500000920E-02 0. -1.
    10030    2    1    2    0    0  0.00000000000E+00  0.00000000000E+00  0.13731305231E+04  0.42736020947E+04  0.40469973351E+04 0.  0.
        4    1    3    3  502    0  0.37408712991E+03  0.16544375133E+03  0.27792531836E+04  0.28091925329E+04  0.12699999809E+01 0.  1.
       -4    1    3    3    0  502 -0.37408712991E+03 -0.16544375133E+03 -0.14061226604E+04  0.14644095618E+04  0.12699999809E+01 0. -1.
</event>
<event>
 5   0  0.1819906E-07  0.3992425E+04  0.7818609E-02  0.8006076E-01
        2   -1    0    0  501    0  0.00000000000E+00  0.00000000000E+00  0.21686296609E+04  0.21686296609E+04  0.25500000920E-02 0. -1.
       -2   -1    0    0    0  501  0.00000000000E+00  0.00000000000E+00 -0.18375031022E+04  0.18375031022E+04  0.25500000920E-02 0.  1.
    10030    2    1    2    0    0  0.00000000000E+00  0.00000000000E+00  0.33112655863E+03  0.40061327631E+04  0.39924246915E+04 0.  0.
        1    1    3    3  502    0  0.12871742751E+03  0.52565913241E+03 -0.17624861283E+04  0.18437036237E+04  0.50400001928E-02 0.  1.
       -1    1    3    3    0  502 -0.12871742751E+03 -0.52565913241E+03  0.20936126870E+04  0.21624291393E+04  0.50400001928E-02 0. -1.
</event>
<event>
 5   0  0.5515000E-08  0.3898160E+04  0.7818609E-02  0.8025412E-01
        1   -1    0    0  501    0  0.00000000000E+00  0.00000000000E+00  0.12095916764E+04  0.12095916765E+04  0.50400001928E-02 0. -1.
       -1   -1    0    0    0  501  0.00000000000E+00  0.00000000000E+00 -0.31406573225E+04  0.31406573225E+04  0.50400001928E-02 0.  1.
    10030    2    1    2    0    0  0.00000000000E+00  0.00000000000E+00 -0.19310656460E+04  0.43502489989E+04  0.38981600562E+04 0.  0.
        2    1    3    3  502    0 -0.17046103001E+04 -0.31651724161E+03  0.28269985975E+02  0.17339776907E+04  0.25500000920E-02 0. -1.
       -2    1    3    3    0  502  0.17046103001E+04  0.31651724161E+03 -0.19593356320E+04  0.26162713083E+04  0.25500000920E-02 0.  1.
</event>
<event>
 5   0  0.1773903E-07  0.3986167E+04  0.7818609E-02  0.8007343E-01
       -2   -1    0    0    0  501  0.00000000000E+00  0.00000000000E+00  0.20167935480E+04  0.20167935480E+04  0.25500000920E-02 0.  1.
        2   -1    0    0  501    0  0.00000000000E+00  0.00000000000E+00 -0.19696524842E+04  0.19696524842E+04  0.25500000920E-02 0. -1.
    10030    2    1    2    0    0  0.00000000000E+00  0.00000000000E+00  0.47141063742E+02  0.39864460322E+04  0.39861672930E+04 0.  0.
        3    1    3    3  502    0  0.13239667600E+04 -0.46517678926E+03 -0.13918393506E+04  0.19764853187E+04  0.10100000352E+00 0. -1.
       -3    1    3    3    0  502 -0.13239667600E+04  0.46517678926E+03  0.14389804143E+04  0.20099607135E+04  0.10100000352E+00 0.  1.
</event>
<event>
 5   0  0.1776653E-07  0.4028920E+04  0.7818609E-02  0.7998738E-01
        2   -1    0    0  501    0  0.00000000000E+00  0.00000000000E+00  0.20284269490E+04  0.20284269490E+04  0.25500000920E-02 0. -1.
       -2   -1    0    0    0  501  0.00000000000E+00  0.00000000000E+00 -0.20005891877E+04  0.20005891877E+04  0.25500000920E-02 0.  1.
    10030    2    1    2    0    0  0.00000000000E+00  0.00000000000E+00  0.27837761283E+02  0.40290161367E+04  0.40289199656E+04 0.  0.
        4    1    3    3  502    0 -0.13813003255E+04  0.14557613804E+04  0.18946686499E+03  0.20157209856E+04  0.12699999809E+01 0.  1.
       -4    1    3    3    0  502  0.13813003255E+04 -0.14557613804E+04 -0.16162910371E+03  0.20132951512E+04  0.12699999809E+01 0. -1.
</event>
<event>
 5   0  0.5515000E-08  0.3998143E+04  0.7818609E-02  0.8004921E-01
       -1   -1    0    0    0  501  0.00000000000E+00  0.00000000000E+00  0.16758627316E+04  0.16758627316E+04  0.50400001928E-02 0. -1.
        1   -1    0    0  501    0  0.00000000000E+00  0.00000000000E+00 -0.23846141824E+04  0.23846141824E+04  0.50400001928E-02 0.  1.
    10030    2    1    2    0    0  0.00000000000E+00  0.00000000000E+00 -0.70875145085E+03  0.40604769140E+04  0.39981425875E+04 0.  0.
        3    1    3    3  502    0  0.24577702482E+02  0.19975553531E+04 -0.27936916722E+03  0.20171461508E+04  0.10100000352E+00 0. -1.
       -3    1    3    3    0  502 -0.24577702482E+02 -0.19975553531E+04 -0.42938228363E+03  0.20433307632E+04  0.10100000352E+00 0.  1.
</event>
<event>
 5   0  0.5515000E-08  0.3981283E+04  0.7818609E-02  0.8008333E-01
        1   -1    0    0  501    0  0.00000000000E+00  0.00000000000E+00  0.13505351600E+04  0.13505351600E+04  0.50400001928E-02 0. -1.
       -1   -1    0    0    0  501  0.00000000000E+00  0.00000000000E+00 -0.29341362451E+04  0.29341362451E+04  0.50400001928E-02 0.  1.
    10030    2    1    2    0    0  0.00000000000E+00  0.00000000000E+00 -0.15836010852E+04  0.42846714051E+04  0.39812832922E+04 0.  0.
        2    1    3    3  502    0 -0.51437393319E+03  0.12200770276E+04  0.80790494315E+03  0.15510895827E+04  0.25500000920E-02 0. -1.
       -2    1    3    3    0  502  0.51437393319E+03 -0.12200770276E+04 -0.23915060283E+04  0.27335818224E+04  0.25500000920E-02 0.  1.
</event>
<event>
 5   0  0.5515000E-08  0.3682119E+04  0.7818609E-02  0.8071936E-01
        1   -1    0    0  501    0  0.00000000000E+00  0.00000000000E+00  0.17719159023E+04  0.17719159023E+04  0.50400001928E-02 0. -1.
       -1   -1    0    0    0  501  0.00000000000E+00  0.00000000000E+00 -0.19129013003E+04  0.19129013003E+04  0.50400001928E-02 0.  1.
    10030    2    1    2    0    0  0.00000000000E+00  0.00000000000E+00 -0.14098539796E+03  0.36848172026E+04  0.36821190820E+04 0.  0.
        5    1    3    3  502    0  0.90998403470E+01 -0.12823631749E+04 -0.13924224308E+04  0.18929871725E+04  0.46999998093E+01 0.  1.
       -5    1    3    3    0  502 -0.90998403470E+01  0.12823631749E+04  0.12514370329E+04  0.17918300301E+04  0.46999998093E+01 0. -1.
</event>
<event>
 5   0  0.1776653E-07  0.4021870E+04  0.7818609E-02  0.8000149E-01
       -2   -1    0    0    0  501  0.00000000000E+00  0.00000000000E+00  0.17820067284E+04  0.17820067284E+04  0.25500000920E-02 0. -1.
        2   -1    0    0  501    0  0.00000000000E+00  0.00000000000E+00 -0.22692731010E+04  0.22692731010E+04  0.25500000920E-02 0.  1.
    10030    2    1    2    0    0  0.00000000000E+00  0.00000000000E+00 -0.48726637259E+03  0.40512798293E+04  0.40218701791E+04 0.  0.
        4    1    3    3  502    0  0.37399813496E+03  0.19533565240E+04  0.55831848893E+02  0.19896218543E+04  0.12699999809E+01 0.  1.
       -4    1    3    3    0  502 -0.37399813496E+03 -0.19533565240E+04 -0.54309822148E+03  0.20616579750E+04  0.12699999809E+01 0. -1.
</event>
<event>
 5   0  0.5515000E-08  0.3962967E+04  0.7818609E-02  0.8012059E-01
       -1   -1    0    0    0  501  0.00000000000E+00  0.00000000000E+00  0.20508158251E+04  0.20508158251E+04  0.50400001928E-02 0.  1.
        1   -1    0    0  501    0  0.00000000000E+00  0.00000000000E+00 -0.19144948788E+04  0.19144948788E+04  0.50400001928E-02 0. -1.
    10030    2    1    2    0    0  0.00000000000E+00  0.00000000000E+00  0.13632094625E+03  0.39653107039E+04  0.39629667647E+04 0.  0.
        1    1    3    3  502    0  0.23246347908E+03 -0.20497174406E+03  0.20264137518E+04  0.20499769214E+04  0.50400001928E-02 0.  1.
       -1    1    3    3    0  502 -0.23246347908E+03  0.20497174406E+03 -0.18900928055E+04  0.19153337825E+04  0.50400001928E-02 0. -1.
</event>
<event>
 5   0  0.5515000E-08  0.3769786E+04  0.7818609E-02  0.8052670E-01
       -1   -1    0    0    0  501  0.00000000000E+00  0.00000000000E+00  0.16084224963E+04  0.16084224963E+04  0.50400001928E-02 0. -1.
        1   -1    0    0  501    0  0.00000000000E+00  0.00000000000E+00 -0.22088859742E+04  0.22088859742E+04  0.50400001928E-02 0.  1.
    10030    2    1    2    0    0  0.00000000000E+00  0.00000000000E+00 -0.60046347787E+03  0.38173084706E+04  0.37697861440E+04 0.  0.
        5    1    3    3  502    0  0.12492267846E+04  0.11865449874E+04 -0.10742916095E+04  0.20304140264E+04  0.46999998093E+01 0.  1.
       -5    1    3    3    0  502 -0.12492267846E+04 -0.11865449874E+04  0.47382813158E+03  0.17868944442E+04  0.46999998093E+01 0. -1.
</event>
<event>
 5   0  0.5515000E-08  0.3894051E+04  0.7818609E-02  0.8026268E-01
       -1   -1    0    0    0  501  0.00000000000E+00  0.00000000000E+00  0.23451388521E+04  0.23451388521E+04  0.50400001928E-02 0.  1.
        1   -1    0    0  501    0  0.00000000000E+00  0.00000000000E+00 -0.16164964539E+04  0.16164964539E+04  0.50400001928E-02 0. -1.
    10030    2    1    2    0    0  0.00000000000E+00  0.00000000000E+00  0.72864239823E+03  0.39616353060E+04  0.38940511749E+04 0.  0.
        1    1    3    3  502    0  0.92681021255E+03 -0.15597079400E+04 -0.35451288480E+03  0.18486063437E+04  0.50400001928E-02 0. -1.
       -1    1    3    3    0  502 -0.92681021255E+03  0.15597079400E+04  0.10831552830E+04  0.21130289623E+04  0.50400001928E-02 0.  1.
</event>
<event>
 5   0  0.5515000E-08  0.4018577E+04  0.7818609E-02  0.8000809E-01
       -1   -1    0    0    0  501  0.00000000000E+00  0.00000000000E+00  0.21163099413E+04  0.21163099413E+04  0.50400001928E-02 0.  1.
        1   -1    0    0  501    0  0.00000000000E+00  0.00000000000E+00 -0.19076789471E+04  0.19076789471E+04  0.50400001928E-02 0. -1.
    10030    2    1    2    0    0  0.00000000000E+00  0.00000000000E+00  0.20863099417E+03  0.40239888884E+04  0.40185768230E+04 0.  0.
        2    1    3    3  502    0 -0.45558633719E+03 -0.16696241028E+04 -0.91786110437E+03  0.19589978464E+04  0.25500000920E-02 0. -1.
       -2    1    3    3    0  502  0.45558633719E+03  0.16696241028E+04  0.11264920985E+04  0.20649910420E+04  0.25500000920E-02 0.  1.
</event>
<event>
 5   0  0.1821433E-07  0.3917475E+04  0.7818609E-02  0.8021405E-01
       -2   -1    0    0    0  501  0.00000000000E+00  0.00000000000E+00  0.20916366661E+04  0.20916366661E+04  0.25500000920E-02 0. -1.
        2   -1    0    0  501    0  0.00000000000E+00  0.00000000000E+00 -0.18342823033E+04  0.18342823033E+04  0.25500000920E-02 0.  1.
    10030    2    1    2    0    0  0.00000000000E+00  0.00000000000E+00  0.25735436277E+03  0.39259189693E+04  0.39174747588E+04 0.  0.
        5    1    3    3  502    0 -0.12185733325E+04  0.11552590898E+04 -0.88200324785E+03  0.18967067118E+04  0.46999998093E+01 0.  1.
       -5    1    3    3    0  502  0.12185733325E+04 -0.11552590898E+04  0.11393576106E+04  0.20292122576E+04  0.46999998093E+01 0. -1.
</event>
<event>
 5   0  0.1776653E-07  0.4018871E+04  0.7818609E-02  0.8000751E-01
        2   -1    0    0  501    0  0.00000000000E+00  0.00000000000E+00  0.19324643181E+04  0.19324643181E+04  0.25500000920E-02 0. -1.
       -2   -1    0    0    0  501  0.00000000000E+00  0.00000000000E+00 -0.20894722937E+04  0.20894722937E+04  0.25500000920E-02 0.  1.
    10030    2    1    2    0    0  0.00000000000E+00  0.00000000000E+00 -0.15700797563E+03  0.40219366118E+04  0.40188708122E+04 0.  0.
        4    1    3    3  502    0 -0.14753168955E+03 -0.84845304714E+02  0.19252383557E+04  0.19327464045E+04  0.12699999809E+01 0. -1.
       -4    1    3    3    0  502  0.14753168955E+03  0.84845304714E+02 -0.20822463313E+04  0.20891902073E+04  0.12699999809E+01 0.  1.
</event>
<event>
 5   0  0.5515000E-08  0.3982671E+04  0.7818609E-02  0.8008052E-01
        1   -1    0    0  501    0  0.00000000000E+00  0.00000000000E+00  0.19684464364E+04  0.19684464364E+04  0.50400001928E-02 0. -1.
       -1   -1    0    0    0  501  0.00000000000E+00  0.00000000000E+00 -0.20144902574E+04  0.20144902574E+04  0.50400001928E-02 0.  1.
    10030    2    1    2    0    0  0.00000000000E+00  0.00000000000E+00 -0.46043821016E+02  0.39829366939E+04  0.39826705455E+04 0.  0.
        5    1    3    3  502    0  0.41123671231E+02  0.68422220130E+03  0.18467401352E+04  0.19698533941E+04  0.46999998093E+01 0. -1.
       -5    1    3    3    0  502 -0.41123671231E+02 -0.68422220130E+03 -0.18927839562E+04  0.20130832998E+04  0.46999998093E+01 0.  1.
</event>
<event>
 5   0  0.5515000E-08  0.3986721E+04  0.7818609E-02  0.8007231E-01
        1   -1    0    0  501    0  0.00000000000E+00  0.00000000000E+00  0.21871062865E+04  0.21871062865E+04  0.50400001928E-02 0.  1.
       -1   -1    0    0    0  501  0.00000000000E+00  0.00000000000E+00 -0.18167776518E+04  0.18167776518E+04  0.50400001928E-02 0. -1.
    10030    2    1    2    0    0  0.00000000000E+00  0.00000000000E+00  0.37032863465E+03  0.40038839383E+04  0.39867208698E+04 0.  0.
        2    1    3    3  502    0 -0.67790338966E+03 -0.69383145313E+03 -0.15637488833E+04  0.18401808773E+04  0.25500000920E-02 0. -1.
       -2    1    3    3    0  502  0.67790338966E+03  0.69383145313E+03  0.19340775179E+04  0.21637030611E+04  0.25500000920E-02 0.  1.
</event>
<event>
 5   0  0.1776653E-07  0.3993504E+04  0.7818609E-02  0.8005858E-01
       -2   -1    0    0    0  501  0.00000000000E+00  0.00000000000E+00  0.18502228037E+04  0.18502228037E+04  0.25500000920E-02 0.  1.
        2   -1    0    0  501    0  0.00000000000E+00  0.00000000000E+00 -0.21548854889E+04  0.21548854889E+04  0.25500000920E-02 0. -1.
    10030    2    1    2    0    0  0.00000000000E+00  0.00000000000E+00 -0.30466268521E+03  0.40051082927E+04  0.39935038606E+04 0.  0.
        4    1    3    3  502    0 -0.10354646471E+04 -0.12033553424E+04 -0.13669515558E+04  0.20949485159E+04  0.12699999809E+01 0. -1.
       -4    1    3    3    0  502  0.10354646471E+04  0.12033553424E+04  0.10622888705E+04  0.19101597768E+04  0.12699999809E+01 0.  1.
</event>
<event>
 5   0  0.5515000E-08  0.3827600E+04  0.7818609E-02  0.8040258E-01
       -1   -1    0    0    0  501  0.00000000000E+00  0.00000000000E+00  0.22116672522E+04  0.22116672522E+04  0.50400001928E-02 0. -1.
        1   -1    0    0  501    0  0.00000000000E+00  0.00000000000E+00 -0.16560495668E+04  0.16560495668E+04  0.50400001928E-02 0.  1.
    10030    2    1    2    0    0  0.00000000000E+00  0.00000000000E+00  0.55561768542E+03  0.38677168190E+04  0.38276000809E+04 0.  0.
        1    1    3    3  502    0 -0.17833037014E+04  0.52679859534E+03  0.73525852136E+03  0.19995734407E+04  0.50400001928E-02 0. -1.
       -1    1    3    3    0  502  0.17833037014E+04 -0.52679859534E+03 -0.17964083594E+03  0.18681433782E+04  0.50400001928E-02 0.  1.
</event>
<event>
 5   0  0.1819906E-07  0.3365489E+04  0.7818609E-02  0.8146429E-01
       -2   -1    0    0    0  501  0.00000000000E+00  0.00000000000E+00  0.15126160430E+04  0.15126160430E+04  0.25500000920E-02 0.  1.
        2   -1    0    0  501    0  0.00000000000E+00  0.00000000000E+00 -0.18720082731E+04  0.18720082731E+04  0.25500000920E-02 0. -1.
    10030    2    1    2    0    0  0.00000000000E+00  0.00000000000E+00 -0.35939223004E+03  0.33846243161E+04  0.33654894126E+04 0.  0.
        1    1    3    3  502    0 -0.12181120873E+04 -0.58311366581E+03  0.82990964417E+03  0.15851083944E+04  0.50400001928E-02 0.  1.
       -1    1    3    3    0  502  0.12181120873E+04  0.58311366581E+03 -0.11893018742E+04  0.17995159217E+04  0.50400001928E-02 0. -1.
</event>
<event>
 5   0  0.5515000E-08  0.3206306E+04  0.7818609E-02  0.8187154E-01
       -1   -1    0    0    0  501  0.00000000000E+00  0.00000000000E+00  0.13272787380E+04  0.13272787380E+04  0.50400001928E-02 0. -1.
        1   -1    0    0  501    0  0.00000000000E+00  0.00000000000E+00 -0.19363679003E+04  0.19363679003E+04  0.50400001928E-02 0.  1.
    10030    2    1    2    0    0  0.00000000000E+00  0.00000000000E+00 -0.60908916231E+03  0.32636466383E+04  0.32063062505E+04 0.  0.
        1    1    3    3  502    0 -0.81454276326E+03  0.54909370590E+03 -0.15941336963E+04  0.18724972771E+04  0.50400001928E-02 0.  1.
       -1    1    3    3    0  502  0.81454276326E+03 -0.54909370590E+03  0.98504453403E+03  0.13911493612E+04  0.50400001928E-02 0. -1.
</event>
<event>
 5   0  0.5515000E-08  0.3990791E+04  0.7818609E-02  0.8006407E-01
       -1   -1    0    0    0  501  0.00000000000E+00  0.00000000000E+00  0.12462488515E+04  0.12462488516E+04  0.50400001928E-02 0.  1.
        1   -1    0    0  501    0  0.00000000000E+00  0.00000000000E+00 -0.31948698887E+04  0.31948698887E+04  0.50400001928E-02 0. -1.
    10030    2    1    2    0    0  0.00000000000E+00  0.00000000000E+00 -0.19486210371E+04  0.44411187403E+04  0.39907908638E+04 0.  0.
        1    1    3    3  502    0 -0.10765132790E+04  0.12270863901E+04  0.30278441997E+03  0.16602109063E+04  0.50400001928E-02 0. -1.
       -1    1    3    3    0  502  0.10765132790E+04 -0.12270863901E+04 -0.22514054571E+04  0.27809078339E+04  0.50400001928E-02 0.  1.
</event>
<event>
 5   0  0.1821433E-07  0.4009393E+04  0.7818609E-02  0.8002654E-01
        2   -1    0    0  501    0  0.00000000000E+00  0.00000000000E+00  0.15096661039E+04  0.15096661039E+04  0.25500000920E-02 0. -1.
       -2   -1    0    0    0  501  0.00000000000E+00  0.00000000000E+00 -0.26620515245E+04  0.26620515245E+04  0.25500000920E-02 0.  1.
    10030    2    1    2    0    0  0.00000000000E+00  0.00000000000E+00 -0.11523854206E+04  0.41717176285E+04  0.40093934471E+04 0.  0.
        5    1    3    3  502    0 -0.62897225791E+03 -0.15964852749E+04 -0.16546982168E+04  0.23837826270E+04  0.46999998093E+01 0.  1.
       -5    1    3    3    0  502  0.62897225791E+03  0.15964852749E+04  0.50231279618E+03  0.17879350014E+04  0.46999998093E+01 0. -1.
</event>
<event>
 5   0  0.1773903E-07  0.3995019E+04  0.7818609E-02  0.8005552E-01
       -2   -1    0    0    0  501  0.00000000000E+00  0.00000000000E+00  0.26478062367E+04  0.26478062367E+04  0.25500000920E-02 0. -1.
        2   -1    0    0  501    0  0.00000000000E+00  0.00000000000E+00 -0.15069241997E+04  0.15069241997E+04  0.25500000920E-02 0.  1.
    10030    2    1    2    0    0  0.00000000000E+00  0.00000000000E+00  0.11408820369E+04  0.41547304364E+04  0.39950185453E+04 0.  0.
        3    1    3    3  502    0  0.22821456108E+03  0.19499028836E+04  0.95374039811E+03  0.21826185875E+04  0.10100000352E+00 0. -1.
       -3    1    3    3    0  502 -0.22821456108E+03 -0.19499028836E+04  0.18714163881E+03  0.19721118489E+04  0.10100000352E+00 0.  1.
</event>
<event>
 5   0  0.1776653E-07  0.3970936E+04  0.7818609E-02  0.8010435E-01
       -2   -1    0    0    0  501  0.00000000000E+00  0.00000000000E+00  0.15019937263E+04  0.15019937263E+04  0.25500000920E-02 0.  1.
        2   -1    0    0  501    0  0.00000000000E+00  0.00000000000E+00 -0.26245669465E+04  0.26245669465E+04  0.25500000920E-02 0. -1.
    10030    2    1    2    0    0  0.00000000000E+00  0.00000000000E+00 -0.11225732201E+04  0.41265606728E+04  0.39709359541E+04 0.  0.
        4    1    3    3  502    0  0.16871277641E+04 -0.69403317950E+02  0.52409077686E+03  0.17680185712E+04  0.12699999809E+01 0.  1.
       -4    1    3    3    0  502 -0.16871277641E+04  0.69403317950E+02 -0.16466639970E+04  0.23585421016E+04  0.12699999809E+01 0. -1.
</event>
<event>
 5   0  0.1773903E-07  0.3628871E+04  0.7818609E-02  0.8083910E-01
        2   -1    0    0  501    0  0.00000000000E+00  0.00000000000E+00  0.22269651141E+04  0.22269651141E+04  0.25500000920E-02 0.  1.
       -2   -1    0    0    0  501  0.00000000000E+00  0.00000000000E+00 -0.14783243482E+04  0.14783243482E+04  0.25500000920E-02 0. -1.
    10030    2    1    2    0    0  0.00000000000E+00  0.00000000000E+00  0.74864076593E+03  0.37052894623E+04  0.36288713125E+04 0.  0.
        3    1    3    3  502    0  0.10550708780E+04  0.86768356826E+03 -0.84503342006E+03  0.16062785634E+04  0.10100000352E+00 0. -1.
       -3    1    3    3    0  502 -0.10550708780E+04 -0.86768356826E+03  0.15936741860E+04  0.20990108988E+04  0.10100000352E+00 0.  1.
</event>
<event>
 5   0  0.1819906E-07  0.3993159E+04  0.7818609E-02  0.8005928E-01
       -2   -1    0    0    0  501  0.00000000000E+00  0.00000000000E+00  0.22630809483E+04  0.22630809483E+04  0.25500000920E-02 0. -1.
        2   -1    0    0  501    0  0.00000000000E+00  0.00000000000E+00 -0.17614610104E+04  0.17614610104E+04  0.25500000920E-02 0.  1.
    10030    2    1    2    0    0  0.00000000000E+00  0.00000000000E+00  0.50161993790E+03  0.40245419586E+04  0.39931585762E+04 0.  0.
        1    1    3    3  502    0 -0.13600588629E+04  0.63783720902E+03 -0.10747194388E+04  0.18470566553E+04  0.50400001928E-02 0. -1.
       -1    1    3    3    0  502  0.13600588629E+04 -0.63783720902E+03  0.15763393767E+04  0.21774853033E+04  0.50400001928E-02 0.  1.
</event>
<event>
 5   0  0.5515000E-08  0.3982179E+04  0.7818609E-02  0.8008151E-01
       -1   -1    0    0    0  501  0.00000000000E+00  0.00000000000E+00  0.18429511362E+04  0.18429511363E+04  0.50400001928E-02 0.  1.
        1   -1    0    0  501    0  0.00000000000E+00  0.00000000000E+00 -0.21511355430E+04  0.21511355430E+04  0.50400001928E-02 0. -1.
    10030    2    1    2    0    0  0.00000000000E+00  0.00000000000E+00 -0.30818440670E+03  0.39940866792E+04  0.39821791487E+04 0.  0.
        2    1    3    3  502    0 -0.57314573519E+03 -0.36723347738E+03  0.17226204639E+04  0.18522358714E+04  0.25500000920E-02 0.  1.
       -2    1    3    3    0  502  0.57314573519E+03  0.36723347738E+03 -0.20308048706E+04  0.21418508078E+04  0.25500000920E-02 0. -1.
</event>
<event>
 5   0  0.5515000E-08  0.3662475E+04  0.7818609E-02  0.8076329E-01
        1   -1    0    0  501    0  0.00000000000E+00  0.00000000000E+00  0.16146231052E+04  0.16146231052E+04  0.50400001928E-02 0. -1.
       -1   -1    0    0    0  501  0.00000000000E+00  0.00000000000E+00 -0.20769123908E+04  0.20769123908E+04  0.50400001928E-02 0.  1.
    10030    2    1    2    0    0  0.00000000000E+00  0.00000000000E+00 -0.46228928565E+03  0.36915354960E+04  0.36624749739E+04 0.  0.
        4    1    3    3  502    0 -0.88397407702E+03 -0.13757005793E+04 -0.10619829750E+04  0.19498132487E+04  0.12699999809E+01 0.  1.
       -4    1    3    3    0  502  0.88397407702E+03  0.13757005793E+04  0.59969368935E+03  0.17417222473E+04  0.12699999809E+01 0. -1.
</event>
<event>
 5   0  0.1821433E-07  0.4053045E+04  0.7818609E-02  0.7993930E-01
       -2   -1    0    0    0  501  0.00000000000E+00  0.00000000000E+00  0.19311668959E+04  0.19311668959E+04  0.25500000920E-02 0. -1.
        2   -1    0    0  501    0  0.00000000000E+00  0.00000000000E+00 -0.21265869188E+04  0.21265869188E+04  0.25500000920E-02 0.  1.
    10030    2    1    2    0    0  0.00000000000E+00  0.00000000000E+00 -0.19542002283E+03  0.40577538147E+04  0.40530454026E+04 0.  0.
        5    1    3    3  502    0 -0.13234099408E+04 -0.15083771858E+04 -0.38115825441E+03  0.20425276769E+04  0.46999998093E+01 0.  1.
       -5    1    3    3    0  502  0.13234099408E+04  0.15083771858E+04  0.18573823158E+03  0.20152261378E+04  0.46999998093E+01 0. -1.
</event>
<event>
 5   0  0.5515000E-08  0.3978083E+04  0.7818609E-02  0.8008982E-01
        1   -1    0    0  501    0  0.00000000000E+00  0.00000000000E+00  0.14123676818E+04  0.14123676818E+04  0.50400001928E-02 0. -1.
       -1   -1    0    0    0  501  0.00000000000E+00  0.00000000000E+00 -0.28011733886E+04  0.28011733886E+04  0.50400001928E-02 0.  1.
    10030    2    1    2    0    0  0.00000000000E+00  0.00000000000E+00 -0.13888057068E+04  0.42135410704E+04  0.39780833401E+04 0.  0.
        1    1    3    3  502    0  0.25185688313E+03  0.97454437415E+03 -0.25114960478E+04  0.27056941854E+04  0.50400001928E-02 0.  1.
       -1    1    3    3    0  502 -0.25185688313E+03 -0.97454437415E+03  0.11226903410E+04  0.15078468850E+04  0.50400001928E-02 0. -1.
</event>
<event>
 5   0  0.5515000E-08  0.3895263E+04  0.7818609E-02  0.8026015E-01
        1   -1    0    0  501    0  0.00000000000E+00  0.00000000000E+00  0.13345016686E+04  0.13345016686E+04  0.50400001928E-02 0.  1.
       -1   -1    0    0    0  501  0.00000000000E+00  0.00000000000E+00 -0.28424603593E+04  0.28424603593E+04  0.50400001928E-02 0. -1.
    10030    2    1    2    0    0  0.00000000000E+00  0.00000000000E+00 -0.15079586907E+04  0.41769620278E+04  0.38952628113E+04 0.  0.
        4    1    3    3  502    0 -0.14475132619E+04  0.60237272781E+03 -0.19930148173E+04  0.25357951852E+04  0.12699999809E+01 0. -1.
       -4    1    3    3    0  502  0.14475132619E+04 -0.60237272781E+03  0.48505612660E+03  0.16411668426E+04  0.12699999809E+01 0.  1.
</event>
<event>
 5   0  0.5515000E-08  0.4010215E+04  0.7818609E-02  0.8002489E-01
       -1   -1    0    0    0  501  0.00000000000E+00  0.00000000000E+00  0.25122334791E+04  0.25122334791E+04  0.50400001928E-02 0. -1.
        1   -1    0    0  501    0  0.00000000000E+00  0.00000000000E+00 -0.16003510802E+04  0.16003510802E+04  0.50400001928E-02 0.  1.
    10030    2    1    2    0    0  0.00000000000E+00  0.00000000000E+00  0.91188239893E+03  0.41125845593E+04  0.40102147384E+04 0.  0.
        5    1    3    3  502    0 -0.13697186386E+04  0.25206380367E+02 -0.10455613424E+04  0.17233644772E+04  0.46999998093E+01 0.  1.
       -5    1    3    3    0  502  0.13697186386E+04 -0.25206380367E+02  0.19574437413E+04  0.23892200822E+04  0.46999998093E+01 0. -1.
</event>
<event>
 5   0  0.1776653E-07  0.4203875E+04  0.7818609E-02  0.7964636E-01
       -2   -1    0    0    0  501  0.00000000000E+00  0.00000000000E+00  0.16700791748E+04  0.16700791748E+04  0.25500000920E-02 0.  1.
        2   -1    0    0  501    0  0.00000000000E+00  0.00000000000E+00 -0.26454683847E+04  0.26454683847E+04  0.25500000920E-02 0. -1.
    10030    2    1    2    0    0  0.00000000000E+00  0.00000000000E+00 -0.97538920987E+03  0.43155475595E+04  0.42038751917E+04 0.  0.
        4    1    3    3  502    0  0.14632640102E+04  0.13876383819E+03  0.10547989319E+04  0.18091432685E+04  0.12699999809E+01 0.  1.
       -4    1    3    3    0  502 -0.14632640102E+04 -0.13876383819E+03 -0.20301881418E+04  0.25064042910E+04  0.12699999809E+01 0. -1.
</event>
<event>
 5   0  0.5515000E-08  0.3997509E+04  0.7818609E-02  0.8005049E-01
        1   -1    0    0  501    0  0.00000000000E+00  0.00000000000E+00  0.18027597615E+04  0.18027597615E+04  0.50400001928E-02 0.  1.
       -1   -1    0    0    0  501  0.00000000000E+00  0.00000000000E+00 -0.22160575303E+04  0.22160575303E+04  0.50400001928E-02 0. -1.
    10030    2    1    2    0    0  0.00000000000E+00  0.00000000000E+00 -0.41329776874E+03  0.40188172918E+04  0.39975088967E+04 0.  0.
        1    1    3    3  502    0 -0.60375046474E+03  0.51202496412E+03  0.16384365160E+04  0.18196588704E+04  0.50400001928E-02 0.  1.
       -1    1    3    3    0  502  0.60375046474E+03 -0.51202496412E+03 -0.20517342847E+04  0.21991584215E+04  0.50400001928E-02 0. -1.
</event>
<event>
 5   0  0.1785559E-07  0.4010404E+04  0.7818609E-02  0.8002451E-01
        2   -1    0    0  501    0  0.00000000000E+00  0.00000000000E+00  0.19806488950E+04  0.19806488950E+04  0.25500000920E-02 0.  1.
       -2   -1    0    0    0  501  0.00000000000E+00  0.00000000000E+00 -0.20300589754E+04  0.20300589754E+04  0.25500000920E-02 0. -1.
    10030    2    1    2    0    0  0.00000000000E+00  0.00000000000E+00 -0.49410080437E+02  0.40107078704E+04  0.40104035041E+04 0.  0.
        2    1    3    3  502    0  0.58649404863E+03 -0.11796026953E+04 -0.15365724909E+04  0.20239794484E+04  0.25500000920E-02 0. -1.
       -2    1    3    3    0  502 -0.58649404863E+03  0.11796026953E+04  0.14871624105E+04  0.19867284220E+04  0.25500000920E-02 0.  1.
</event>
<event>
 5   0  0.1821433E-07  0.3973030E+04  0.7818609E-02  0.8010010E-01
       -2   -1    0    0    0  501  0.00000000000E+00  0.00000000000E+00  0.13122055674E+04  0.13122055674E+04  0.25500000920E-02 0.  1.
        2   -1    0    0  501    0  0.00000000000E+00  0.00000000000E+00 -0.30073346723E+04  0.30073346723E+04  0.25500000920E-02 0. -1.
    10030    2    1    2    0    0  0.00000000000E+00  0.00000000000E+00 -0.16951291048E+04  0.43195402397E+04  0.39730297255E+04 0.  0.
        5    1    3    3  502    0 -0.10417281719E+04 -0.55946172333E+03 -0.25830360461E+04  0.28408259907E+04  0.46999998093E+01 0. -1.
       -5    1    3    3    0  502  0.10417281719E+04  0.55946172333E+03  0.88790694122E+03  0.14787142490E+04  0.46999998093E+01 0.  1.
</event>
<event>
 5   0  0.5515000E-08  0.4031840E+04  0.7818609E-02  0.7998154E-01
       -1   -1    0    0    0  501  0.00000000000E+00  0.00000000000E+00  0.16016019157E+04  0.16016019157E+04  0.50400001928E-02 0.  1.
        1   -1    0    0  501    0  0.00000000000E+00  0.00000000000E+00 -0.25374183193E+04  0.25374183193E+04  0.50400001928E-02 0. -1.
    10030    2    1    2    0    0  0.00000000000E+00  0.00000000000E+00 -0.93581640359E+03  0.41390202349E+04  0.40318402949E+04 0.  0.
        3    1    3    3  502    0  0.14153132602E+04 -0.13496664993E+04  0.34197860609E+02  0.19559858864E+04  0.10100000352E+00 0.  1.
       -3    1    3    3    0  502 -0.14153132602E+04  0.13496664993E+04 -0.97001426420E+03  0.21830343485E+04  0.10100000352E+00 0. -1.
</event>
<event>
 5   0  0.5515000E-08  0.3938853E+04  0.7818609E-02  0.8016997E-01
       -1   -1    0    0    0  501  0.00000000000E+00  0.00000000000E+00  0.15355743634E+04  0.15355743634E+04  0.50400001928E-02 0.  1.
        1   -1    0    0  501    0  0.00000000000E+00  0.00000000000E+00 -0.25258566172E+04  0.25258566172E+04  0.50400001928E-02 0. -1.
    10030    2    1    2    0    0  0.00000000000E+00  0.00000000000E+00 -0.99028225375E+03  0.40614309806E+04  0.39388529635E+04 0.  0.
        5    1    3    3  502    0 -0.66727183542E+03 -0.12690744652E+04 -0.18872744485E+04  0.23701537154E+04  0.46999998093E+01 0. -1.
       -5    1    3    3    0  502  0.66727183542E+03  0.12690744652E+04  0.89699219470E+03  0.16912772653E+04  0.46999998093E+01 0.  1.
</event>
<event>
 5   0  0.1785559E-07  0.3966613E+04  0.7818609E-02  0.8011316E-01
        2   -1    0    0  501    0  0.00000000000E+00  0.00000000000E+00  0.17785303274E+04  0.17785303274E+04  0.25500000920E-02 0. -1.
       -2   -1    0    0    0  501  0.00000000000E+00  0.00000000000E+00 -0.22116597985E+04  0.22116597985E+04  0.25500000920E-02 0.  1.
    10030    2    1    2    0    0  0.00000000000E+00  0.00000000000E+00 -0.43312947108E+03  0.39901901259E+04  0.39666126736E+04 0.  0.
        2    1    3    3  502    0  0.19486912725E+04  0.31137688925E+03 -0.17523059308E+02  0.19734893717E+04  0.25500000920E-02 0. -1.
       -2    1    3    3    0  502 -0.19486912725E+04 -0.31137688925E+03 -0.41560641177E+03  0.20167007542E+04  0.25500000920E-02 0.  1.
</event>
<event>
 5   0  0.5515000E-08  0.3402857E+04  0.7818609E-02  0.8137205E-01
        1   -1    0    0  501    0  0.00000000000E+00  0.00000000000E+00  0.24770224005E+04  0.24770224005E+04  0.50400001928E-02 0. -1.
       -1   -1    0    0    0  501  0.00000000000E+00  0.00000000000E+00 -0.11686849493E+04  0.11686849493E+04  0.50400001928E-02 0.  1.
    10030    2    1    2    0    0  0.00000000000E+00  0.00000000000E+00  0.13083374513E+04  0.36457073498E+04  0.34028569165E+04 0.  0.
        4    1    3    3  502    0 -0.10076666836E+04  0.58404603818E+03 -0.67465213336E+03  0.13459788386E+04  0.12699999809E+01 0.  1.
       -4    1    3    3    0  502  0.10076666836E+04 -0.58404603818E+03  0.19829895846E+04  0.22997285113E+04  0.12699999809E+01 0. -1.
</event>
<event>
 5   0  0.1773903E-07  0.3617491E+04  0.7818609E-02  0.8086497E-01
        2   -1    0    0  501    0  0.00000000000E+00  0.00000000000E+00  0.10049138826E+04  0.10049138826E+04  0.25500000920E-02 0.  1.
       -2   -1    0    0    0  501  0.00000000000E+00  0.00000000000E+00 -0.32555625314E+04  0.32555625314E+04  0.25500000920E-02 0. -1.
    10030    2    1    2    0    0  0.00000000000E+00  0.00000000000E+00 -0.22506486488E+04  0.42604764141E+04  0.36174908341E+04 0.  0.
        3    1    3    3  502    0 -0.12517909311E+04 -0.10577919304E+04 -0.20266295775E+04  0.26063637040E+04  0.10100000352E+00 0. -1.
       -3    1    3    3    0  502  0.12517909311E+04  0.10577919304E+04 -0.22401907132E+03  0.16541127101E+04  0.10100000352E+00 0.  1.
</event>
<event>
 5   0  0.1821433E-07  0.3341644E+04  0.7818609E-02  0.8152379E-01
       -2   -1    0    0    0  501  0.00000000000E+00  0.00000000000E+00  0.16764936942E+04  0.16764936942E+04  0.25500000920E-02 0. -1.
        2   -1    0    0  501    0  0.00000000000E+00  0.00000000000E+00 -0.16651697388E+04  0.16651697388E+04  0.25500000920E-02 0.  1.
    10030    2    1    2    0    0  0.00000000000E+00  0.00000000000E+00  0.11323955420E+02  0.33416634330E+04  0.33416442461E+04 0.  0.
        5    1    3    3  502    0 -0.39502380581E+03 -0.14714168983E+04 -0.68028144860E+03  0.16685072476E+04  0.46999998093E+01 0.  1.
       -5    1    3    3    0  502  0.39502380581E+03  0.14714168983E+04  0.69160540402E+03  0.16731561854E+04  0.46999998093E+01 0. -1.
</event>
<event>
 5   0  0.1819906E-07  0.3620897E+04  0.7818609E-02  0.8085722E-01
       -2   -1    0    0    0  501  0.00000000000E+00  0.00000000000E+00  0.11364739808E+04  0.11364739809E+04  0.25500000920E-02 0.  1.
        2   -1    0    0  501    0  0.00000000000E+00  0.00000000000E+00 -0.28841169317E+04  0.28841169317E+04  0.25500000920E-02 0. -1.
    10030    2    1    2    0    0  0.00000000000E+00  0.00000000000E+00 -0.17476429508E+04  0.40205909125E+04  0.36208970439E+04 0.  0.
        1    1    3    3  502    0 -0.10555162744E+04 -0.10882522247E+04  0.22502042392E+03  0.15326583772E+04  0.50400001928E-02 0.  1.
       -1    1    3    3    0  502  0.10555162744E+04  0.10882522247E+04 -0.19726633747E+04  0.24879325353E+04  0.50400001928E-02 0. -1.
</event>
<event>
 5   0  0.5515000E-08  0.3484205E+04  0.7818609E-02  0.8117543E-01
        1   -1    0    0  501    0  0.00000000000E+00  0.00000000000E+00  0.18426820772E+04  0.18426820772E+04  0.50400001928E-02 0. -1.
       -1   -1    0    0    0  501  0.00000000000E+00  0.00000000000E+00 -0.16470125266E+04  0.16470125266E+04  0.50400001928E-02 0.  1.
    10030    2    1    2    0    0  0.00000000000E+00  0.00000000000E+00  0.19566955061E+03  0.34896946038E+04  0.34842046229E+04 0.  0.
        1    1    3    3  502    0  0.13390406293E+04 -0.10298648414E+04  0.52426268053E+03  0.17687574046E+04  0.50400001928E-02 0. -1.
       -1    1    3    3    0  502 -0.13390406293E+04  0.10298648414E+04 -0.32859312992E+03  0.17209371991E+04  0.50400001928E-02 0.  1.
</event>
<event>
 5   0  0.1819906E-07  0.4030470E+04  0.7818609E-02  0.7998428E-01
       -2   -1    0    0    0  501  0.00000000000E+00  0.00000000000E+00  0.23084296762E+04  0.23084296762E+04  0.25500000920E-02 0.  1.
        2   -1    0    0  501    0  0.00000000000E+00  0.00000000000E+00 -0.17592793806E+04  0.17592793806E+04  0.25500000920E-02 0. -1.
    10030    2    1    2    0    0  0.00000000000E+00  0.00000000000E+00  0.54915029556E+03  0.40677090569E+04  0.40304703105E+04 0.  0.
        1    1    3    3  502    0  0.15165854388E+04  0.48483409758E+03 -0.97218356833E+03  0.18655391677E+04  0.50400001928E-02 0.  1.
       -1    1    3    3    0  502 -0.15165854388E+04 -0.48483409758E+03  0.15213338639E+04  0.22021698892E+04  0.50400001928E-02 0. -1.
</event>
<event>
 5   0  0.5515000E-08  0.3955919E+04  0.7818609E-02  0.8013499E-01
       -1   -1    0    0    0  501  0.00000000000E+00  0.00000000000E+00  0.24383490578E+04  0.24383490578E+04  0.50400001928E-02 0.  1.
        1   -1    0    0  501    0  0.00000000000E+00  0.00000000000E+00 -0.16044968592E+04  0.16044968592E+04  0.50400001928E-02 0. -1.
    10030    2    1    2    0    0  0.00000000000E+00  0.00000000000E+00  0.83385219855E+03  0.40428459170E+04  0.39559188086E+04 0.  0.
        1    1    3    3  502    0  0.10069963083E+04  0.17306577900E+03 -0.13139037786E+04  0.16644327767E+04  0.50400001928E-02 0. -1.
       -1    1    3    3    0  502 -0.10069963083E+04 -0.17306577900E+03  0.21477559771E+04  0.23784131403E+04  0.50400001928E-02 0.  1.
</event>
<event>
 5   0  0.1776653E-07  0.3988654E+04  0.7818609E-02  0.8006839E-01
        2   -1    0    0  501    0  0.00000000000E+00  0.00000000000E+00  0.15030530853E+04  0.15030530853E+04  0.25500000920E-02 0. -1.
       -2   -1    0    0    0  501  0.00000000000E+00  0.00000000000E+00 -0.26461744294E+04  0.26461744294E+04  0.25500000920E-02 0.  1.
    10030    2    1    2    0    0  0.00000000000E+00  0.00000000000E+00 -0.11431213441E+04  0.41492275146E+04  0.39886542293E+04 0.  0.
        4    1    3    3  502    0  0.16859117731E+04 -0.41046657152E+03 -0.15942759770E+04  0.23563740826E+04  0.12699999809E+01 0.  1.
       -4    1    3    3    0  502 -0.16859117731E+04  0.41046657152E+03  0.45115463294E+03  0.17928534321E+04  0.12699999809E+01 0. -1.
</event>
<event>
 5   0  0.5515000E-08  0.4039903E+04  0.7818609E-02  0.7996545E-01
       -1   -1    0    0    0  501  0.00000000000E+00  0.00000000000E+00  0.10998165422E+04  0.10998165422E+04  0.50400001928E-02 0. -1.
        1   -1    0    0  501    0  0.00000000000E+00  0.00000000000E+00 -0.37098951840E+04  0.37098951840E+04  0.50400001928E-02 0.  1.
    10030    2    1    2    0    0  0.00000000000E+00  0.00000000000E+00 -0.26100786418E+04  0.48097117262E+04  0.40399030153E+04 0.  0.
        1    1    3    3  502    0 -0.17986577870E+03  0.31645640265E+03 -0.36705265336E+04  0.36885310608E+04  0.50400001928E-02 0.  1.
       -1    1    3    3    0  502  0.17986577870E+03 -0.31645640265E+03  0.10604478918E+04  0.11211806654E+04  0.50400001928E-02 0. -1.
</event>
<event>
 5   0  0.1821433E-07  0.4022959E+04  0.7818609E-02  0.7999931E-01
        2   -1    0    0  501    0  0.00000000000E+00  0.00000000000E+00  0.22234745104E+04  0.22234745104E+04  0.25500000920E-02 0.  1.
       -2   -1    0    0    0  501  0.00000000000E+00  0.00000000000E+00 -0.18196973236E+04  0.18196973236E+04  0.25500000920E-02 0. -1.
    10030    2    1    2    0    0  0.00000000000E+00  0.00000000000E+00  0.40377718678E+03  0.40431718340E+04  0.40229594160E+04 0.  0.
        5    1    3    3  502    0 -0.18209378115E+04 -0.16479346253E+02  0.10605478502E+04  0.21073371621E+04  0.46999998093E+01 0.  1.
       -5    1    3    3    0  502  0.18209378115E+04  0.16479346253E+02 -0.65677066346E+03  0.19358346718E+04  0.46999998093E+01 0. -1.
</event>
<event>
 5   0  0.1821433E-07  0.4017860E+04  0.7818609E-02  0.8000953E-01
        2   -1    0    0  501    0  0.00000000000E+00  0.00000000000E+00  0.24139298681E+04  0.24139298681E+04  0.25500000920E-02 0.  1.
       -2   -1    0    0    0  501  0.00000000000E+00  0.00000000000E+00 -0.16718791598E+04  0.16718791598E+04  0.25500000920E-02 0. -1.
    10030    2    1    2    0    0  0.00000000000E+00  0.00000000000E+00  0.74205070833E+03  0.40858090280E+04  0.40178596490E+04 0.  0.
        5    1    3    3  502    0 -0.40431174539E+03  0.98456101741E+03 -0.13615932454E+04  0.17282322299E+04  0.46999998093E+01 0. -1.
       -5    1    3    3    0  502  0.40431174539E+03 -0.98456101741E+03  0.21036439538E+04  0.23575767981E+04  0.46999998093E+01 0.  1.
</event>
<event>
 5   0  0.1785559E-07  0.4022201E+04  0.7818609E-02  0.8000083E-01
        2   -1    0    0  501    0  0.00000000000E+00  0.00000000000E+00  0.19150409323E+04  0.19150409323E+04  0.25500000920E-02 0. -1.
       -2   -1    0    0    0  501  0.00000000000E+00  0.00000000000E+00 -0.21119784208E+04  0.21119784208E+04  0.25500000920E-02 0.  1.
    10030    2    1    2    0    0  0.00000000000E+00  0.00000000000E+00 -0.19693748853E+03  0.40270193531E+04  0.40222009517E+04 0.  0.
        2    1    3    3  502    0 -0.43838117054E+03 -0.72797541158E+03  0.17264596890E+04  0.19242633157E+04  0.25500000920E-02 0. -1.
       -2    1    3    3    0  502  0.43838117054E+03  0.72797541158E+03 -0.19233971775E+04  0.21027560374E+04  0.25500000920E-02 0.  1.
</event>
<event>
 5   0  0.1785559E-07  0.3981968E+04  0.7818609E-02  0.8008194E-01
       -2   -1    0    0    0  501  0.00000000000E+00  0.00000000000E+00  0.14486105505E+04  0.14486105505E+04  0.25500000920E-02 0. -1.
        2   -1    0    0  501    0  0.00000000000E+00  0.00000000000E+00 -0.27364276860E+04  0.27364276860E+04  0.25500000920E-02 0.  1.
    10030    2    1    2    0    0  0.00000000000E+00  0.00000000000E+00 -0.12878171355E+04  0.41850382365E+04  0.39819683658E+04 0.  0.
        2    1    3    3  502    0 -0.19031177941E+03  0.63957831717E+02  0.14379441950E+04  0.14518927941E+04  0.25500000920E-02 0. -1.
       -2    1    3    3    0  502  0.19031177941E+03 -0.63957831717E+02 -0.27257613306E+04  0.27331454423E+04  0.25500000920E-02 0.  1.
</event>
<event>
 5   0  0.1819906E-07  0.3996153E+04  0.7818609E-02  0.8005323E-01
       -2   -1    0    0    0  501  0.00000000000E+00  0.00000000000E+00  0.27194681511E+04  0.27194681511E+04  0.25500000920E-02 0.  1.
        2   -1    0    0  501    0  0.00000000000E+00  0.00000000000E+00 -0.14680476994E+04  0.14680476994E+04  0.25500000920E-02 0. -1.
    10030    2    1    2    0    0  0.00000000000E+00  0.00000000000E+00  0.12514204517E+04  0.41875158505E+04  0.39961526312E+04 0.  0.
        1    1    3    3  502    0  0.53207610792E+03 -0.13087940785E+04 -0.85484008720E+03  0.16513020618E+04  0.50400001928E-02 0. -1.
       -1    1    3    3    0  502 -0.53207610792E+03  0.13087940785E+04  0.21062605389E+04  0.25362137887E+04  0.50400001928E-02 0.  1.
</event>
<event>
 5   0  0.5515000E-08  0.3997723E+04  0.7818609E-02  0.8005006E-01
        1   -1    0    0  501    0  0.00000000000E+00  0.00000000000E+00  0.23961871291E+04  0.23961871291E+04  0.50400001928E-02 0.  1.
       -1   -1    0    0    0  501  0.00000000000E+00  0.00000000000E+00 -0.16674187317E+04  0.16674187317E+04  0.50400001928E-02 0. -1.
    10030    2    1    2    0    0  0.00000000000E+00  0.00000000000E+00  0.72876839743E+03  0.40636058608E+04  0.39977230038E+04 0.  0.
        5    1    3    3  502    0  0.10590004880E+04 -0.14598692197E+03  0.20811919974E+04  0.23396957997E+04  0.46999998093E+01 0.  1.
       -5    1    3    3    0  502 -0.10590004880E+04  0.14598692197E+03 -0.13524236000E+04  0.17239100611E+04  0.46999998093E+01 0. -1.
</event>
<event>
 5   0  0.5515000E-08  0.4012726E+04  0.7818609E-02  0.8001984E-01
       -1   -1    0    0    0  501  0.00000000000E+00  0.00000000000E+00  0.17071263844E+04  0.17071263844E+04  0.50400001928E-02 0. -1.
        1   -1    0    0  501    0  0.00000000000E+00  0.00000000000E+00 -0.23580516337E+04  0.23580516337E+04  0.50400001928E-02 0.  1.
    10030    2    1    2    0    0  0.00000000000E+00  0.00000000000E+00 -0.65092524935E+03  0.40651780181E+04  0.40127258365E+04 0.  0.
        3    1    3    3  502    0  0.57889641556E+02  0.48072636993E+03  0.16470484082E+04  0.17167462021E+04  0.10100000352E+00 0. -1.
       -3    1    3    3    0  502 -0.57889641556E+02 -0.48072636993E+03 -0.22979736576E+04  0.23484318160E+04  0.10100000352E+00 0.  1.
</event>
<event>
 5   0  0.1773903E-07  0.3419621E+04  0.7818609E-02  0.8133107E-01
       -2   -1    0    0    0  501  0.00000000000E+00  0.00000000000E+00  0.98562960191E+03  0.98562960192E+03  0.25500000920E-02 0. -1.
        2   -1    0    0  501    0  0.00000000000E+00  0.00000000000E+00 -0.29660752439E+04  0.29660752439E+04  0.25500000920E-02 0.  1.
    10030    2    1    2    0    0  0.00000000000E+00  0.00000000000E+00 -0.19804456420E+04  0.39517048458E+04  0.34196207754E+04 0.  0.
        3    1    3    3  502    0 -0.85083442127E+03  0.93274532824E+03 -0.23226814808E+04  0.26436305209E+04  0.10100000352E+00 0.  1.
       -3    1    3    3    0  502  0.85083442127E+03 -0.93274532824E+03  0.34223583884E+03  0.13080743249E+04  0.10100000352E+00 0. -1.
</event>
<event>
 5   0  0.5515000E-08  0.3915514E+04  0.7818609E-02  0.8021810E-01
        1   -1    0    0  501    0  0.00000000000E+00  0.00000000000E+00  0.12441937417E+04  0.12441937418E+04  0.50400001928E-02 0.  1.
       -1   -1    0    0    0  501  0.00000000000E+00  0.00000000000E+00 -0.30805595420E+04  0.30805595420E+04  0.50400001928E-02 0. -1.
    10030    2    1    2    0    0  0.00000000000E+00  0.00000000000E+00 -0.18363658002E+04  0.43247532837E+04  0.39155142207E+04 0.  0.
        1    1    3    3  502    0  0.84431198260E+03 -0.14157420011E+04 -0.20848087756E+04  0.26577463702E+04  0.50400001928E-02 0.  1.
       -1    1    3    3    0  502 -0.84431198260E+03  0.14157420011E+04  0.24844297538E+03  0.16670069135E+04  0.50400001928E-02 0. -1.
</event>
<event>
 5   0  0.1785559E-07  0.4014432E+04  0.7818609E-02  0.8001641E-01
       -2   -1    0    0    0  501  0.00000000000E+00  0.00000000000E+00  0.22549782665E+04  0.22549782665E+04  0.25500000920E-02 0. -1.
        2   -1    0    0  501    0  0.00000000000E+00  0.00000000000E+00 -0.17866762634E+04  0.17866762634E+04  0.25500000920E-02 0.  1.
    10030    2    1    2    0    0  0.00000000000E+00  0.00000000000E+00  0.46830200312E+03  0.40416545299E+04  0.40144320362E+04 0.  0.
        2    1    3    3  502    0 -0.70107121261E+03  0.14242308886E+04 -0.10025851653E+04  0.18775280245E+04  0.25500000920E-02 0.  1.
       -2    1    3    3    0  502  0.70107121261E+03 -0.14242308886E+04  0.14708871685E+04  0.21641265054E+04  0.25500000920E-02 0. -1.
</event>
<event>
 5   0  0.5515000E-08  0.3965423E+04  0.7818609E-02  0.8011558E-01
       -1   -1    0    0    0  501  0.00000000000E+00  0.00000000000E+00  0.17200951922E+04  0.17200951922E+04  0.50400001928E-02 0. -1.
        1   -1    0    0  501    0  0.00000000000E+00  0.00000000000E+00 -0.22854232276E+04  0.22854232276E+04  0.50400001928E-02 0.  1.
    10030    2    1    2    0    0  0.00000000000E+00  0.00000000000E+00 -0.56532803538E+03  0.40055184198E+04  0.39654233096E+04 0.  0.
        4    1    3    3  502    0 -0.12272309990E+04  0.31345647637E+03  0.12581423085E+04  0.17852939727E+04  0.12699999809E+01 0. -1.
       -4    1    3    3    0  502  0.12272309990E+04 -0.31345647637E+03 -0.18234703439E+04  0.22202244471E+04  0.12699999809E+01 0.  1.
</event>
<event>
 5   0  0.5515000E-08  0.3912677E+04  0.7818609E-02  0.8022398E-01
        1   -1    0    0  501    0  0.00000000000E+00  0.00000000000E+00  0.18664943882E+04  0.18664943882E+04  0.50400001928E-02 0.  1.
       -1   -1    0    0    0  501  0.00000000000E+00  0.00000000000E+00 -0.20505074227E+04  0.20505074227E+04  0.50400001928E-02 0. -1.
    10030    2    1    2    0    0  0.00000000000E+00  0.00000000000E+00 -0.18401303448E+03  0.39170018109E+04  0.39126771384E+04 0.  0.
        1    1    3    3  502    0 -0.24424267969E+03  0.17838773651E+04 -0.85795849180E+03  0.19944838214E+04  0.50400001928E-02 0. -1.
       -1    1    3    3    0  502  0.24424267969E+03 -0.17838773651E+04  0.67394545732E+03  0.19225179895E+04  0.50400001928E-02 0.  1.
</event>
<event>
 5   0  0.5515000E-08  0.3985253E+04  0.7818609E-02  0.8007528E-01
       -1   -1    0    0    0  501  0.00000000000E+00  0.00000000000E+00  0.32262506068E+04  0.32262506068E+04  0.50400001928E-02 0. -1.
        1   -1    0    0  501    0  0.00000000000E+00  0.00000000000E+00 -0.12307042021E+04  0.12307042021E+04  0.50400001928E-02 0.  1.
    10030    2    1    2    0    0  0.00000000000E+00  0.00000000000E+00  0.19955464047E+04  0.44569548089E+04  0.39852529047E+04 0.  0.
        2    1    3    3  502    0 -0.53661870093E+03  0.17692593190E+04  0.16662490615E+03  0.18563410321E+04  0.25500000920E-02 0.  1.
       -2    1    3    3    0  502  0.53661870093E+03 -0.17692593190E+04  0.18289214986E+04  0.26006137768E+04  0.25500000920E-02 0. -1.
</event>
<event>
 5   0  0.5515000E-08  0.4007130E+04  0.7818609E-02  0.8003110E-01
       -1   -1    0    0    0  501  0.00000000000E+00  0.00000000000E+00  0.30663347351E+04  0.30663347352E+04  0.50400001928E-02 0. -1.
        1   -1    0    0  501    0  0.00000000000E+00  0.00000000000E+00 -0.13091436304E+04  0.13091436304E+04  0.50400001928E-02 0.  1.
    10030    2    1    2    0    0  0.00000000000E+00  0.00000000000E+00  0.17571911048E+04  0.43754783655E+04  0.40071299391E+04 0.  0.
        5    1    3    3  502    0 -0.17679960245E+02 -0.87973396280E+03 -0.10868681476E+04  0.13984094131E+04  0.46999998093E+01 0.  1.
       -5    1    3    3    0  502  0.17679960245E+02  0.87973396280E+03  0.28440592524E+04  0.29770689524E+04  0.46999998093E+01 0. -1.
</event>
<event>
 5   0  0.1776653E-07  0.3999262E+04  0.7818609E-02  0.8004696E-01
       -2   -1    0    0    0  501  0.00000000000E+00  0.00000000000E+00  0.23175096535E+04  0.23175096535E+04  0.25500000920E-02 0.  1.
        2   -1    0    0  501    0  0.00000000000E+00  0.00000000000E+00 -0.17253534046E+04  0.17253534046E+04  0.25500000920E-02 0. -1.
    10030    2    1    2    0    0  0.00000000000E+00  0.00000000000E+00  0.59215624887E+03  0.40428630581E+04  0.39992615173E+04 0.  0.
        4    1    3    3  502    0  0.16820505604E+04  0.61432406694E+03  0.11956298440E+04  0.21531884460E+04  0.12699999809E+01 0.  1.
       -4    1    3    3    0  502 -0.16820505604E+04 -0.61432406694E+03 -0.60347359514E+03  0.18896746122E+04  0.12699999809E+01 0. -1.
</event>
<event>
 5   0  0.1776653E-07  0.3534841E+04  0.7818609E-02  0.8105582E-01
       -2   -1    0    0    0  501  0.00000000000E+00  0.00000000000E+00  0.28058838960E+04  0.28058838960E+04  0.25500000920E-02 0. -1.
        2   -1    0    0  501    0  0.00000000000E+00  0.00000000000E+00 -0.11132944158E+04  0.11132944158E+04  0.25500000920E-02 0.  1.
    10030    2    1    2    0    0  0.00000000000E+00  0.00000000000E+00  0.16925894802E+04  0.39191783119E+04  0.35348408015E+04 0.  0.
        4    1    3    3  502    0 -0.13641482708E+04 -0.75077947636E+03 -0.80805694468E+02  0.15591989931E+04  0.12699999809E+01 0.  1.
       -4    1    3    3    0  502  0.13641482708E+04  0.75077947636E+03  0.17733951747E+04  0.23599793188E+04  0.12699999809E+01 0. -1.
</event>
<event>
 5   0  0.5515000E-08  0.3968677E+04  0.7818609E-02  0.8010895E-01
       -1   -1    0    0    0  501  0.00000000000E+00  0.00000000000E+00  0.14383598776E+04  0.14383598776E+04  0.50400001928E-02 0. -1.
        1   -1    0    0  501    0  0.00000000000E+00  0.00000000000E+00 -0.27375625055E+04  0.27375625055E+04  0.50400001928E-02 0.  1.
    10030    2    1    2    0    0  0.00000000000E+00  0.00000000000E+00 -0.12992026280E+04  0.41759223831E+04  0.39686773970E+04 0.  0.
        2    1    3    3  502    0  0.29308258379E+03  0.12522024923E+04  0.94050201308E+03  0.15932521832E+04  0.25500000920E-02 0. -1.
       -2    1    3    3    0  502 -0.29308258379E+03 -0.12522024923E+04 -0.22397046410E+04  0.25826701999E+04  0.25500000920E-02 0.  1.
</event>
<event>
 5   0  0.1776653E-07  0.3989812E+04  0.7818609E-02  0.8006605E-01
       -2   -1    0    0    0  501  0.00000000000E+00  0.00000000000E+00  0.12661392423E+04  0.12661392423E+04  0.25500000920E-02 0. -1.
        2   -1    0    0  501    0  0.00000000000E+00  0.00000000000E+00 -0.31431372687E+04  0.31431372687E+04  0.25500000920E-02 0.  1.
    10030    2    1    2    0    0  0.00000000000E+00  0.00000000000E+00 -0.18769980264E+04  0.44092765110E+04  0.39898117449E+04 0.  0.
        4    1    3    3  502    0 -0.15763445387E+04  0.10923187235E+04 -0.33155451569E+03  0.19462662480E+04  0.12699999809E+01 0.  1.
       -4    1    3    3    0  502  0.15763445387E+04 -0.10923187235E+04 -0.15454435108E+04  0.24630102631E+04  0.12699999809E+01 0. -1.
</event>
<event>
 5   0  0.1819906E-07  0.4038271E+04  0.7818609E-02  0.7996870E-01
        2   -1    0    0  501    0  0.00000000000E+00  0.00000000000E+00  0.25247391149E+04  0.25247391149E+04  0.25500000920E-02 0. -1.
       -2   -1    0    0    0  501  0.00000000000E+00  0.00000000000E+00 -0.16147836293E+04  0.16147836293E+04  0.25500000920E-02 0.  1.
    10030    2    1    2    0    0  0.00000000000E+00  0.00000000000E+00  0.90995548563E+03  0.41395227443E+04  0.40382706155E+04 0.  0.
        1    1    3    3  502    0  0.13429600039E+04 -0.14601965456E+03 -0.10833302539E+04  0.17316084287E+04  0.50400001928E-02 0.  1.
       -1    1    3    3    0  502 -0.13429600039E+04  0.14601965456E+03  0.19932857395E+04  0.24079143155E+04  0.50400001928E-02 0. -1.
</event>
<event>
 5   0  0.1776653E-07  0.3990714E+04  0.7818609E-02  0.8006423E-01
        2   -1    0    0  501    0  0.00000000000E+00  0.00000000000E+00  0.21139457086E+04  0.21139457086E+04  0.25500000920E-02 0.  1.
       -2   -1    0    0    0  501  0.00000000000E+00  0.00000000000E+00 -0.18834205221E+04  0.18834205221E+04  0.25500000920E-02 0. -1.
    10030    2    1    2    0    0  0.00000000000E+00  0.00000000000E+00  0.23052518650E+03  0.39973662308E+04  0.39907135855E+04 0.  0.
        4    1    3    3  502    0 -0.92286149578E+03 -0.12105706535E+04 -0.11769626003E+04  0.19241614337E+04  0.12699999809E+01 0. -1.
       -4    1    3    3    0  502  0.92286149578E+03  0.12105706535E+04  0.14074877868E+04  0.20732047971E+04  0.12699999809E+01 0.  1.
</event>
<event>
 5   0  0.5515000E-08  0.3928794E+04  0.7818609E-02  0.8019067E-01
        1   -1    0    0  501    0  0.00000000000E+00  0.00000000000E+00  0.12782085572E+04  0.12782085572E+04  0.50400001928E-02 0. -1.
       -1   -1    0    0    0  501  0.00000000000E+00  0.00000000000E+00 -0.30189560073E+04  0.30189560073E+04  0.50400001928E-02 0.  1.
    10030    2    1    2    0    0  0.00000000000E+00  0.00000000000E+00 -0.17407474502E+04  0.42971645645E+04  0.39287939128E+04 0.  0.
        5    1    3    3  502    0 -0.81570134259E+02  0.17559058651E+04 -0.18295062692E+04  0.25371193060E+04  0.46999998093E+01 0.  1.
       -5    1    3    3    0  502  0.81570134259E+02 -0.17559058651E+04  0.88758819037E+02  0.17600452585E+04  0.46999998093E+01 0. -1.
</event>
<event>
 5   0  0.1821433E-07  0.3993088E+04  0.7818609E-02  0.8005942E-01
        2   -1    0    0  501    0  0.00000000000E+00  0.00000000000E+00  0.22108779487E+04  0.22108779487E+04  0.25500000920E-02 0.  1.
       -2   -1    0    0    0  501  0.00000000000E+00  0.00000000000E+00 -0.18029883927E+04  0.18029883927E+04  0.25500000920E-02 0. -1.
    10030    2    1    2    0    0  0.00000000000E+00  0.00000000000E+00  0.40788955603E+03  0.40138663414E+04  0.39930876671E+04 0.  0.
        5    1    3    3  502    0 -0.18689126487E+04  0.69964100408E+03  0.14171003601E+03  0.20006088691E+04  0.46999998093E+01 0. -1.
       -5    1    3    3    0  502  0.18689126487E+04 -0.69964100408E+03  0.26617952002E+03  0.20132574723E+04  0.46999998093E+01 0.  1.
</event>
<event>
 5   0  0.5515000E-08  0.3998893E+04  0.7818609E-02  0.8004770E-01
        1   -1    0    0  501    0  0.00000000000E+00  0.00000000000E+00  0.22917810932E+04  0.22917810932E+04  0.50400001928E-02 0.  1.
       -1   -1    0    0    0  501  0.00000000000E+00  0.00000000000E+00 -0.17444016390E+04  0.17444016390E+04  0.50400001928E-02 0. -1.
    10030    2    1    2    0    0  0.00000000000E+00  0.00000000000E+00  0.54737945416E+03  0.40361827323E+04  0.39988931945E+04 0.  0.
        5    1    3    3  502    0  0.21953701993E+03  0.65361230211E+03 -0.16206062094E+04  0.17611905406E+04  0.46999998093E+01 0. -1.
       -5    1    3    3    0  502 -0.21953701993E+03 -0.65361230211E+03  0.21679856635E+04  0.22749921916E+04  0.46999998093E+01 0.  1.
</event>
<event>
 5   0  0.5515000E-08  0.4063687E+04  0.7818609E-02  0.7991821E-01
       -1   -1    0    0    0  501  0.00000000000E+00  0.00000000000E+00  0.23439356285E+04  0.23439356285E+04  0.50400001928E-02 0.  1.
        1   -1    0    0  501    0  0.00000000000E+00  0.00000000000E+00 -0.17613063588E+04  0.17613063588E+04  0.50400001928E-02 0. -1.
    10030    2    1    2    0    0  0.00000000000E+00  0.00000000000E+00  0.58262926964E+03  0.41052419873E+04  0.40636873537E+04 0.  0.
        3    1    3    3  502    0  0.15029813688E+04  0.17904536818E+03  0.16606751063E+04  0.22469650771E+04  0.10100000352E+00 0.  1.
       -3    1    3    3    0  502 -0.15029813688E+04 -0.17904536818E+03 -0.10780458367E+04  0.18582769102E+04  0.10100000352E+00 0. -1.
</event>
<event>
 5   0  0.1821433E-07  0.3999183E+04  0.7818609E-02  0.8004711E-01
       -2   -1    0    0    0  501  0.00000000000E+00  0.00000000000E+00  0.16889545202E+04  0.16889545202E+04  0.25500000920E-02 0. -1.
        2   -1    0    0  501    0  0.00000000000E+00  0.00000000000E+00 -0.23673615179E+04  0.23673615179E+04  0.25500000920E-02 0.  1.
    10030    2    1    2    0    0  0.00000000000E+00  0.00000000000E+00 -0.67840699769E+03  0.40563160382E+04  0.39991828849E+04 0.  0.
        5    1    3    3  502    0 -0.16688330201E+04  0.86232901059E+03  0.35595549913E+03  0.19118947091E+04  0.46999998093E+01 0. -1.
       -5    1    3    3    0  502  0.16688330201E+04 -0.86232901059E+03 -0.10343624968E+04  0.21444213290E+04  0.46999998093E+01 0.  1.
</event>
<event>
 5   0  0.5515000E-08  0.4087031E+04  0.7818609E-02  0.7987216E-01
       -1   -1    0    0    0  501  0.00000000000E+00  0.00000000000E+00  0.20844355011E+04  0.20844355012E+04  0.50400001928E-02 0. -1.
        1   -1    0    0  501    0  0.00000000000E+00  0.00000000000E+00 -0.20033991337E+04  0.20033991337E+04  0.50400001928E-02 0.  1.
    10030    2    1    2    0    0  0.00000000000E+00  0.00000000000E+00  0.81036367435E+02  0.40878346349E+04  0.40870313321E+04 0.  0.
        1    1    3    3  502    0  0.45966364110E+03  0.40271155543E+03 -0.19098622707E+04  0.20052533887E+04  0.50400001928E-02 0.  1.
       -1    1    3    3    0  502 -0.45966364110E+03 -0.40271155543E+03  0.19908986381E+04  0.20825812462E+04  0.50400001928E-02 0. -1.
</event>
<event>
 5   0  0.5515000E-08  0.3639668E+04  0.7818609E-02  0.8081465E-01
        1   -1    0    0  501    0  0.00000000000E+00  0.00000000000E+00  0.11617344027E+04  0.11617344027E+04  0.50400001928E-02 0.  1.
       -1   -1    0    0    0  501  0.00000000000E+00  0.00000000000E+00 -0.28507340447E+04  0.28507340447E+04  0.50400001928E-02 0. -1.
    10030    2    1    2    0    0  0.00000000000E+00  0.00000000000E+00 -0.16889996420E+04  0.40124684474E+04  0.36396680138E+04 0.  0.
        4    1    3    3  502    0  0.48364031135E+03  0.11206886985E+04 -0.23325489224E+04  0.26326103392E+04  0.12699999809E+01 0. -1.
       -4    1    3    3    0  502 -0.48364031135E+03 -0.11206886985E+04  0.64354928040E+03  0.13798581083E+04  0.12699999809E+01 0.  1.
</event>
<event>
 5   0  0.5515000E-08  0.3885766E+04  0.7818609E-02  0.8027996E-01
       -1   -1    0    0    0  501  0.00000000000E+00  0.00000000000E+00  0.17400238557E+04  0.17400238557E+04  0.50400001928E-02 0.  1.
        1   -1    0    0  501    0  0.00000000000E+00  0.00000000000E+00 -0.21693928329E+04  0.21693928329E+04  0.50400001928E-02 0. -1.
    10030    2    1    2    0    0  0.00000000000E+00  0.00000000000E+00 -0.42936897717E+03  0.39094166886E+04  0.38857664786E+04 0.  0.
        5    1    3    3  502    0 -0.51581704965E+03  0.52929535776E+03  0.15930688988E+04  0.17561638337E+04  0.46999998093E+01 0.  1.
       -5    1    3    3    0  502  0.51581704965E+03 -0.52929535776E+03 -0.20224378760E+04  0.21532528548E+04  0.46999998093E+01 0. -1.
</event>
<event>
 5   0  0.5515000E-08  0.3675132E+04  0.7818609E-02  0.8073495E-01
        1   -1    0    0  501    0  0.00000000000E+00  0.00000000000E+00  0.20074025832E+04  0.20074025832E+04  0.50400001928E-02 0. -1.
       -1   -1    0    0    0  501  0.00000000000E+00  0.00000000000E+00 -0.16820987733E+04  0.16820987733E+04  0.50400001928E-02 0.  1.
    10030    2    1    2    0    0  0.00000000000E+00  0.00000000000E+00  0.32530380992E+03  0.36895013564E+04  0.36751323365E+04 0.  0.
        1    1    3    3  502    0  0.10982663445E+04  0.14384976976E+04  0.48199122935E+03  0.18729068676E+04  0.50400001928E-02 0.  1.
       -1    1    3    3    0  502 -0.10982663445E+04 -0.14384976976E+04 -0.15668741943E+03  0.18165944889E+04  0.50400001928E-02 0. -1.
</event>
<event>
 5   0  0.5515000E-08  0.3941871E+04  0.7818609E-02  0.8016377E-01
        1   -1    0    0  501    0  0.00000000000E+00  0.00000000000E+00  0.23503615989E+04  0.23503615989E+04  0.50400001928E-02 0.  1.
       -1   -1    0    0    0  501  0.00000000000E+00  0.00000000000E+00 -0.16527609448E+04  0.16527609448E+04  0.50400001928E-02 0. -1.
    10030    2    1    2    0    0  0.00000000000E+00  0.00000000000E+00  0.69760065412E+03  0.40031225437E+04  0.39418705492E+04 0.  0.
        1    1    3    3  502    0  0.11838607944E+04 -0.54476058206E+03  0.18503888698E+04  0.22632342879E+04  0.50400001928E-02 0.  1.
       -1    1    3    3    0  502 -0.11838607944E+04  0.54476058206E+03 -0.11527882157E+04  0.17398882558E+04  0.50400001928E-02 0. -1.
</event>
<event>
 5   0  0.1776653E-07  0.3858668E+04  0.7818609E-02  0.8033681E-01
       -2   -1    0    0    0  501  0.00000000000E+00  0.00000000000E+00  0.13686437968E+04  0.13686437968E+04  0.25500000920E-02 0. -1.
        2   -1    0    0  501    0  0.00000000000E+00  0.00000000000E+00 -0.27197215280E+04  0.27197215280E+04  0.25500000920E-02 0.  1.
    10030    2    1    2    0    0  0.00000000000E+00  0.00000000000E+00 -0.13510777313E+04  0.40883653248E+04  0.38586681631E+04 0.  0.
        4    1    3    3  502    0  0.59100338573E+03 -0.42007981939E+03  0.12187875001E+04  0.14181666474E+04  0.12699999809E+01 0. -1.
       -4    1    3    3    0  502 -0.59100338573E+03  0.42007981939E+03 -0.25698652313E+04  0.26701986774E+04  0.12699999809E+01 0.  1.
</event>
<event>
 5   0  0.5515000E-08  0.4014508E+04  0.7818609E-02  0.8001626E-01
       -1   -1    0    0    0  501  0.00000000000E+00  0.00000000000E+00  0.19103602981E+04  0.19103602981E+04  0.50400001928E-02 0. -1.
        1   -1    0    0  501    0  0.00000000000E+00  0.00000000000E+00 -0.21090622575E+04  0.21090622575E+04  0.50400001928E-02 0.  1.
    10030    2    1    2    0    0  0.00000000000E+00  0.00000000000E+00 -0.19870195944E+03  0.40194225557E+04  0.40145080909E+04 0.  0.
        4    1    3    3  502    0 -0.44483620705E+02  0.16293387981E+04 -0.12722557138E+04  0.20676943502E+04  0.12699999809E+01 0.  1.
       -4    1    3    3    0  502  0.44483620705E+02 -0.16293387981E+04  0.10735537544E+04  0.19517282055E+04  0.12699999809E+01 0. -1.
</event>
<event>
 5   0  0.5515000E-08  0.4021937E+04  0.7818609E-02  0.8000136E-01
        1   -1    0    0  501    0  0.00000000000E+00  0.00000000000E+00  0.20131171327E+04  0.20131171327E+04  0.50400001928E-02 0. -1.
       -1   -1    0    0    0  501  0.00000000000E+00  0.00000000000E+00 -0.20088220258E+04  0.20088220258E+04  0.50400001928E-02 0.  1.
    10030    2    1    2    0    0  0.00000000000E+00  0.00000000000E+00  0.42951069156E+01  0.40219391585E+04  0.40219368651E+04 0.  0.
        1    1    3    3  502    0  0.65463107976E+03  0.13537762061E+04 -0.13330468904E+04  0.20095436992E+04  0.50400001928E-02 0.  1.
       -1    1    3    3    0  502 -0.65463107976E+03 -0.13537762061E+04  0.13373419973E+04  0.20123954593E+04  0.50400001928E-02 0. -1.
</event>
<event>
 5   0  0.5515000E-08  0.3982679E+04  0.7818609E-02  0.8008050E-01
       -1   -1    0    0    0  501  0.00000000000E+00  0.00000000000E+00  0.22894875022E+04  0.22894875022E+04  0.50400001928E-02 0. -1.
        1   -1    0    0  501    0  0.00000000000E+00  0.00000000000E+00 -0.17320178299E+04  0.17320178299E+04  0.50400001928E-02 0.  1.
    10030    2    1    2    0    0  0.00000000000E+00  0.00000000000E+00  0.55746967226E+03  0.40215053321E+04  0.39826790858E+04 0.  0.
        3    1    3    3  502    0  0.17845483460E+04 -0.48816452400E+03  0.10224720562E+04  0.21138511106E+04  0.10100000352E+00 0.  1.
       -3    1    3    3    0  502 -0.17845483460E+04  0.48816452400E+03 -0.46500238399E+03  0.19076542215E+04  0.10100000352E+00 0. -1.
</event>
<event>
 5   0  0.5515000E-08  0.4044456E+04  0.7818609E-02  0.7995638E-01
       -1   -1    0    0    0  501  0.00000000000E+00  0.00000000000E+00  0.20857024678E+04  0.20857024678E+04  0.50400001928E-02 0. -1.
        1   -1    0    0  501    0  0.00000000000E+00  0.00000000000E+00 -0.19606850861E+04  0.19606850861E+04  0.50400001928E-02 0.  1.
    10030    2    1    2    0    0  0.00000000000E+00  0.00000000000E+00  0.12501738171E+03  0.40463875539E+04  0.40444558213E+04 0.  0.
        5    1    3    3  502    0 -0.10899915298E+03 -0.61324533825E+03 -0.18623210703E+04  0.19637241454E+04  0.46999998093E+01 0.  1.
       -5    1    3    3    0  502  0.10899915298E+03  0.61324533825E+03  0.19873384520E+04  0.20826634085E+04  0.46999998093E+01 0. -1.
</event>
<event>
 5   0  0.1776653E-07  0.3879412E+04  0.7818609E-02  0.8029325E-01
       -2   -1    0    0    0  501  0.00000000000E+00  0.00000000000E+00  0.20928104602E+04  0.20928104602E+04  0.25500000920E-02 0. -1.
        2   -1    0    0  501    0  0.00000000000E+00  0.00000000000E+00 -0.17978025575E+04  0.17978025575E+04  0.25500000920E-02 0.  1.
    10030    2    1    2    0    0  0.00000000000E+00  0.00000000000E+00  0.29500790276E+03  0.38906130177E+04  0.38794123255E+04 0.  0.
        4    1    3    3  502    0 -0.19514788809E+03 -0.19292188069E+04  0.97455138651E+02  0.19415115297E+04  0.12699999809E+01 0.  1.
       -4    1    3    3    0  502  0.19514788809E+03  0.19292188069E+04  0.19755276411E+03  0.19491014880E+04  0.12699999809E+01 0. -1.
</event>
<event>
 5   0  0.5515000E-08  0.3994153E+04  0.7818609E-02  0.8005727E-01
       -1   -1    0    0    0  501  0.00000000000E+00  0.00000000000E+00  0.19714798136E+04  0.19714798136E+04  0.50400001928E-02 0. -1.
        1   -1    0    0  501    0  0.00000000000E+00  0.00000000000E+00 -0.20230055659E+04  0.20230055659E+04  0.50400001928E-02 0.  1.
    10030    2    1    2    0    0  0.00000000000E+00  0.00000000000E+00 -0.51525752325E+02  0.39944853795E+04  0.39941530447E+04 0.  0.
        2    1    3    3  502    0 -0.67997477522E+02  0.63795031734E+03 -0.19171395175E+04  0.20216399763E+04  0.25500000920E-02 0.  1.
       -2    1    3    3    0  502  0.67997477522E+02 -0.63795031734E+03  0.18656137651E+04  0.19728454032E+04  0.25500000920E-02 0. -1.
</event>
<event>
 5   0  0.5515000E-08  0.3989586E+04  0.7818609E-02  0.8006651E-01
       -1   -1    0    0    0  501  0.00000000000E+00  0.00000000000E+00  0.20397555465E+04  0.20397555465E+04  0.50400001928E-02 0. -1.
        1   -1    0    0  501    0  0.00000000000E+00  0.00000000000E+00 -0.19508219281E+04  0.19508219281E+04  0.50400001928E-02 0.  1.
    10030    2    1    2    0    0  0.00000000000E+00  0.00000000000E+00  0.88933618359E+02  0.39905774746E+04  0.39895863686E+04 0.  0.
        1    1    3    3  502    0  0.34384130156E+03 -0.11304923498E+04  0.16520250659E+04  0.20311146230E+04  0.50400001928E-02 0. -1.
       -1    1    3    3    0  502 -0.34384130156E+03  0.11304923498E+04 -0.15630914475E+04  0.19594628516E+04  0.50400001928E-02 0.  1.
</event>
<event>
 5   0  0.1776653E-07  0.4019772E+04  0.7818609E-02  0.8000570E-01
       -2   -1    0    0    0  501  0.00000000000E+00  0.00000000000E+00  0.34370625209E+04  0.34370625209E+04  0.25500000920E-02 0.  1.
        2   -1    0    0  501    0  0.00000000000E+00  0.00000000000E+00 -0.11753183277E+04  0.11753183277E+04  0.25500000920E-02 0. -1.
    10030    2    1    2    0    0  0.00000000000E+00  0.00000000000E+00  0.22617441931E+04  0.46123808486E+04  0.40197724186E+04 0.  0.
        4    1    3    3  502    0  0.12419780477E+04  0.13936957275E+04  0.19854858692E+04  0.27252620060E+04  0.12699999809E+01 0.  1.
       -4    1    3    3    0  502 -0.12419780477E+04 -0.13936957275E+04  0.27625832395E+03  0.18871188426E+04  0.12699999809E+01 0. -1.
</event>
<event>
 5   0  0.1821433E-07  0.3992160E+04  0.7818609E-02  0.8006130E-01
        2   -1    0    0  501    0  0.00000000000E+00  0.00000000000E+00  0.21055283668E+04  0.21055283668E+04  0.25500000920E-02 0.  1.
       -2   -1    0    0    0  501  0.00000000000E+00  0.00000000000E+00 -0.18923206346E+04  0.18923206346E+04  0.25500000920E-02 0. -1.
    10030    2    1    2    0    0  0.00000000000E+00  0.00000000000E+00  0.21320773228E+03  0.39978490014E+04  0.39921597038E+04 0.  0.
        5    1    3    3  502    0  0.13067463889E+04 -0.13067498394E+04 -0.64887924556E+03  0.19586341243E+04  0.46999998093E+01 0.  1.
       -5    1    3    3    0  502 -0.13067463889E+04  0.13067498394E+04  0.86208697784E+03  0.20392148771E+04  0.46999998093E+01 0. -1.
</event>
<event>
 5   0  0.5515000E-08  0.3968331E+04  0.7818609E-02  0.8010966E-01
       -1   -1    0    0    0  501  0.00000000000E+00  0.00000000000E+00  0.16930637573E+04  0.16930637573E+04  0.50400001928E-02 0.  1.
        1   -1    0    0  501    0  0.00000000000E+00  0.00000000000E+00 -0.23253187861E+04  0.23253187861E+04  0.50400001928E-02 0. -1.
    10030    2    1    2    0    0  0.00000000000E+00  0.00000000000E+00 -0.63225502881E+03  0.40183825434E+04  0.39683311157E+04 0.  0.
        4    1    3    3  502    0  0.33754579345E+03 -0.15631125753E+04 -0.15055286595E+04  0.21963324528E+04  0.12699999809E+01 0. -1.
       -4    1    3    3    0  502 -0.33754579345E+03  0.15631125753E+04  0.87327363071E+03  0.18220500906E+04  0.12699999809E+01 0.  1.
</event>
<event>
 5   0  0.1776653E-07  0.4026120E+04  0.7818609E-02  0.7999298E-01
       -2   -1    0    0    0  501  0.00000000000E+00  0.00000000000E+00  0.18452263303E+04  0.18452263303E+04  0.25500000920E-02 0.  1.
        2   -1    0    0  501    0  0.00000000000E+00  0.00000000000E+00 -0.21961586448E+04  0.21961586448E+04  0.25500000920E-02 0. -1.
    10030    2    1    2    0    0  0.00000000000E+00  0.00000000000E+00 -0.35093231458E+03  0.40413849751E+04  0.40261195993E+04 0.  0.
        4    1    3    3  502    0  0.17289461284E+03  0.89138926741E+03  0.16279930747E+04  0.18640897075E+04  0.12699999809E+01 0.  1.
       -4    1    3    3    0  502 -0.17289461284E+03 -0.89138926741E+03 -0.19789253893E+04  0.21772952676E+04  0.12699999809E+01 0. -1.
</event>
<event>
 5   0  0.1773903E-07  0.4005724E+04  0.7818609E-02  0.8003393E-01
       -2   -1    0    0    0  501  0.00000000000E+00  0.00000000000E+00  0.33511188463E+04  0.33511188463E+04  0.25500000920E-02 0.  1.
        2   -1    0    0  501    0  0.00000000000E+00  0.00000000000E+00 -0.11970500254E+04  0.11970500254E+04  0.25500000920E-02 0. -1.
    10030    2    1    2    0    0  0.00000000000E+00  0.00000000000E+00  0.21540688208E+04  0.45481688717E+04  0.40057243540E+04 0.  0.
        3    1    3    3  502    0 -0.59149316977E+03  0.59933766544E+03  0.31403682890E+04  0.32513047854E+04  0.10100000352E+00 0.  1.
       -3    1    3    3    0  502  0.59149316977E+03 -0.59933766544E+03 -0.98629946816E+03  0.12968640862E+04  0.10100000352E+00 0. -1.
</event>
<event>
 5   0  0.5515000E-08  0.3991507E+04  0.7818609E-02  0.8006262E-01
       -1   -1    0    0    0  501  0.00000000000E+00  0.00000000000E+00  0.21227355795E+04  0.21227355795E+04  0.50400001928E-02 0. -1.
        1   -1    0    0  501    0  0.00000000000E+00  0.00000000000E+00 -0.18763675358E+04  0.18763675358E+04  0.50400001928E-02 0.  1.
    10030    2    1    2    0    0  0.00000000000E+00  0.00000000000E+00  0.24636804367E+03  0.39991031153E+04  0.39915070480E+04 0.  0.
        5    1    3    3  502    0  0.71006911967E+03  0.11424642060E+04  0.16002988506E+04  0.20905504342E+04  0.46999998093E+01 0. -1.
       -5    1    3    3    0  502 -0.71006911967E+03 -0.11424642060E+04 -0.13539308069E+04  0.19085526811E+04  0.46999998093E+01 0.  1.
</event>
<event>
 5   0  0.1785559E-07  0.4053532E+04  0.7818609E-02  0.7993834E-01
        2   -1    0    0  501    0  0.00000000000E+00  0.00000000000E+00  0.21654715573E+04  0.21654715573E+04  0.25500000920E-02 0. -1.
       -2   -1    0    0    0  501  0.00000000000E+00  0.00000000000E+00 -0.18969446518E+04  0.18969446518E+04  0.25500000920E-02 0.  1.
    10030    2    1    2    0    0  0.00000000000E+00  0.00000000000E+00  0.26852690552E+03  0.40624162090E+04  0.40535316400E+04 0.  0.
        2    1    3    3  502    0 -0.17776835619E+04  0.74800916003E+03 -0.49008124371E+03  0.19899387366E+04  0.25500000920E-02 0.  1.
       -2    1    3    3    0  502  0.17776835619E+04 -0.74800916003E+03  0.75860814924E+03  0.20724774725E+04  0.25500000920E-02 0. -1.
</event>
<event>
 5   0  0.1785559E-07  0.4003213E+04  0.7818609E-02  0.8003899E-01
       -2   -1    0    0    0  501  0.00000000000E+00  0.00000000000E+00  0.19301078417E+04  0.19301078417E+04  0.25500000920E-02 0. -1.
        2   -1    0    0  501    0  0.00000000000E+00  0.00000000000E+00 -0.20757539245E+04  0.20757539245E+04  0.25500000920E-02 0.  1.
    10030    2    1    2    0    0  0.00000000000E+00  0.00000000000E+00 -0.14564608281E+03  0.40058617663E+04  0.40032131731E+04 0.  0.
        2    1    3    3  502    0 -0.16558755188E+04  0.57390968597E+03  0.89483943830E+03  0.19677483786E+04  0.25500000920E-02 0. -1.
       -2    1    3    3    0  502  0.16558755188E+04 -0.57390968597E+03 -0.10404855211E+04  0.20381133877E+04  0.25500000920E-02 0.  1.
</event>
<event>
 5   0  0.5515000E-08  0.4005067E+04  0.7818609E-02  0.8003525E-01
        1   -1    0    0  501    0  0.00000000000E+00  0.00000000000E+00  0.15246460499E+04  0.15246460499E+04  0.50400001928E-02 0. -1.
       -1   -1    0    0    0  501  0.00000000000E+00  0.00000000000E+00 -0.26302110738E+04  0.26302110738E+04  0.50400001928E-02 0.  1.
    10030    2    1    2    0    0  0.00000000000E+00  0.00000000000E+00 -0.11055650239E+04  0.41548571237E+04  0.40050672524E+04 0.  0.
        5    1    3    3  502    0 -0.16865013106E+04 -0.10697416463E+04 -0.70484205853E+03  0.21178900534E+04  0.46999998093E+01 0.  1.
       -5    1    3    3    0  502  0.16865013106E+04  0.10697416463E+04 -0.40072296537E+03  0.20369670703E+04  0.46999998093E+01 0. -1.
</event>
<event>
 5   0  0.1773903E-07  0.4007889E+04  0.7818609E-02  0.8002957E-01
        2   -1    0    0  501    0  0.00000000000E+00  0.00000000000E+00  0.24959174585E+04  0.24959174585E+04  0.25500000920E-02 0.  1.
       -2   -1    0    0    0  501  0.00000000000E+00  0.00000000000E+00 -0.16089450684E+04  0.16089450684E+04  0.25500000920E-02 0. -1.
    10030    2    1    2    0    0  0.00000000000E+00  0.00000000000E+00  0.88697239010E+03  0.41048625268E+04  0.40078892629E+04 0.  0.
        3    1    3    3  502    0  0.11774760304E+04 -0.14931926572E+04 -0.20404518874E+03  0.19125136766E+04  0.10100000352E+00 0. -1.
       -3    1    3    3    0  502 -0.11774760304E+04  0.14931926572E+04  0.10910175788E+04  0.21923488503E+04  0.10100000352E+00 0.  1.
</event>
<event>
 5   0  0.5515000E-08  0.3996556E+04  0.7818609E-02  0.8005242E-01
        1   -1    0    0  501    0  0.00000000000E+00  0.00000000000E+00  0.23786892902E+04  0.23786892902E+04  0.50400001928E-02 0.  1.
       -1   -1    0    0    0  501  0.00000000000E+00  0.00000000000E+00 -0.16787040124E+04  0.16787040124E+04  0.50400001928E-02 0. -1.
    10030    2    1    2    0    0  0.00000000000E+00  0.00000000000E+00  0.69998527779E+03  0.40573933026E+04  0.39965561453E+04 0.  0.
        4    1    3    3  502    0 -0.45639622665E+03 -0.18944799848E+04 -0.99192179193E+02  0.19512028674E+04  0.12699999809E+01 0. -1.
       -4    1    3    3    0  502  0.45639622665E+03  0.18944799848E+04  0.79917745698E+03  0.21061904352E+04  0.12699999809E+01 0.  1.
</event>
<event>
 5   0  0.5515000E-08  0.3900408E+04  0.7818609E-02  0.8024944E-01
        1   -1    0    0  501    0  0.00000000000E+00  0.00000000000E+00  0.26395721952E+04  0.26395721952E+04  0.50400001928E-02 0.  1.
       -1   -1    0    0    0  501  0.00000000000E+00  0.00000000000E+00 -0.14408755765E+04  0.14408755765E+04  0.50400001928E-02 0. -1.
    10030    2    1    2    0    0  0.00000000000E+00  0.00000000000E+00  0.11986966187E+04  0.40804477717E+04  0.39004077266E+04 0.  0.
        3    1    3    3  502    0  0.17282486517E+03  0.11126663439E+04  0.22651414966E+04  0.25295772051E+04  0.10100000352E+00 0.  1.
       -3    1    3    3    0  502 -0.17282486517E+03 -0.11126663439E+04 -0.10664448778E+04  0.15508705666E+04  0.10100000352E+00 0. -1.
</event>
<event>
 5   0  0.1785559E-07  0.3952097E+04  0.7818609E-02  0.8014280E-01
       -2   -1    0    0    0  501  0.00000000000E+00  0.00000000000E+00  0.26431585221E+04  0.26431585221E+04  0.25500000920E-02 0.  1.
        2   -1    0    0  501    0  0.00000000000E+00  0.00000000000E+00 -0.14773113711E+04  0.14773113711E+04  0.25500000920E-02 0. -1.
    10030    2    1    2    0    0  0.00000000000E+00  0.00000000000E+00  0.11658471511E+04  0.41204698932E+04  0.39520972358E+04 0.  0.
        2    1    3    3  502    0 -0.50573743651E+03  0.15159886090E+03  0.25682592952E+04  0.26219665094E+04  0.25500000920E-02 0.  1.
       -2    1    3    3    0  502  0.50573743651E+03 -0.15159886090E+03 -0.14024121441E+04  0.14985033838E+04  0.25500000920E-02 0. -1.
</event>
<event>
 5   0  0.5515000E-08  0.3990741E+04  0.7818609E-02  0.8006417E-01
       -1   -1    0    0    0  501  0.00000000000E+00  0.00000000000E+00  0.18153789493E+04  0.18153789493E+04  0.50400001928E-02 0. -1.
        1   -1    0    0  501    0  0.00000000000E+00  0.00000000000E+00 -0.21932082978E+04  0.21932082978E+04  0.50400001928E-02 0.  1.
    10030    2    1    2    0    0  0.00000000000E+00  0.00000000000E+00 -0.37782934850E+03  0.40085872470E+04  0.39907413723E+04 0.  0.
        5    1    3    3  502    0  0.12824100397E+04 -0.24564565795E+03 -0.17044908300E+04  0.21471442380E+04  0.46999998093E+01 0.  1.
       -5    1    3    3    0  502 -0.12824100397E+04  0.24564565795E+03  0.13266614815E+04  0.18614430090E+04  0.46999998093E+01 0. -1.
</event>
<event>
 5   0  0.1776653E-07  0.3989391E+04  0.7818609E-02  0.8006690E-01
        2   -1    0    0  501    0  0.00000000000E+00  0.00000000000E+00  0.19566995202E+04  0.19566995202E+04  0.25500000920E-02 0.  1.
       -2   -1    0    0    0  501  0.00000000000E+00  0.00000000000E+00 -0.20334288234E+04  0.20334288234E+04  0.25500000920E-02 0. -1.
    10030    2    1    2    0    0  0.00000000000E+00  0.00000000000E+00 -0.76729303189E+02  0.39901283435E+04  0.39893905314E+04 0.  0.
        4    1    3    3  502    0 -0.49783924308E+03  0.19302902084E+04  0.31957593360E+02  0.19937118902E+04  0.12699999809E+01 0. -1.
       -4    1    3    3    0  502  0.49783924308E+03 -0.19302902084E+04 -0.10868689655E+03  0.19964164533E+04  0.12699999809E+01 0.  1.
</event>
<event>
 5   0  0.1773903E-07  0.4005176E+04  0.7818609E-02  0.8003503E-01
        2   -1    0    0  501    0  0.00000000000E+00  0.00000000000E+00  0.30740082616E+04  0.30740082616E+04  0.25500000920E-02 0.  1.
       -2   -1    0    0    0  501  0.00000000000E+00  0.00000000000E+00 -0.13046027413E+04  0.13046027413E+04  0.25500000920E-02 0. -1.
    10030    2    1    2    0    0  0.00000000000E+00  0.00000000000E+00  0.17694055203E+04  0.43786110029E+04  0.40051764530E+04 0.  0.
        3    1    3    3  502    0  0.14787014413E+04 -0.40934188092E+03 -0.52224009396E+03  0.16207570620E+04  0.10100000352E+00 0. -1.
       -3    1    3    3    0  502 -0.14787014413E+04  0.40934188092E+03  0.22916456143E+04  0.27578539409E+04  0.10100000352E+00 0.  1.
</event>
<event>
 5   0  0.5515000E-08  0.3992167E+04  0.7818609E-02  0.8006129E-01
        4   -1    0    0  501    0  0.00000000000E+00  0.00000000000E+00  0.24581197652E+04  0.24581200933E+04  0.12699999809E+01 0.  1.
       -4   -1    0    0    0  501  0.00000000000E+00  0.00000000000E+00 -0.16208924718E+04  0.16208929693E+04  0.12699999809E+01 0. -1.
    10030    2    1    2    0    0  0.00000000000E+00  0.00000000000E+00  0.83722729343E+03  0.40790130625E+04  0.39921670836E+04 0.  0.
        1    1    3    3  502    0  0.28327027283E+03 -0.58869430384E+03  0.23457909746E+04  0.24350643374E+04  0.50400001928E-02 0.  1.
       -1    1    3    3    0  502 -0.28327027283E+03  0.58869430384E+03 -0.15085636811E+04  0.16439487252E+04  0.50400001928E-02 0. -1.
</event>
<event>
 5   0  0.5515000E-08  0.4157490E+04  0.7818609E-02  0.7973508E-01
        1   -1    0    0  501    0  0.00000000000E+00  0.00000000000E+00  0.21822085885E+04  0.21822085885E+04  0.50400001928E-02 0. -1.
       -1   -1    0    0    0  501  0.00000000000E+00  0.00000000000E+00 -0.19801868529E+04  0.19801868529E+04  0.50400001928E-02 0.  1.
    10030    2    1    2    0    0  0.00000000000E+00  0.00000000000E+00  0.20202173554E+03  0.41623954414E+04  0.41574899914E+04 0.  0.
        1    1    3    3  502    0 -0.11034834942E+04 -0.11924636743E+04  0.13992811674E+04  0.21442092300E+04  0.50400001928E-02 0. -1.
       -1    1    3    3    0  502  0.11034834942E+04  0.11924636743E+04 -0.11972594319E+04  0.20181862114E+04  0.50400001928E-02 0.  1.
</event>
<event>
 5   0  0.5515000E-08  0.3884681E+04  0.7818609E-02  0.8028223E-01
       -1   -1    0    0    0  501  0.00000000000E+00  0.00000000000E+00  0.23586919496E+04  0.23586919496E+04  0.50400001928E-02 0. -1.
        1   -1    0    0  501    0  0.00000000000E+00  0.00000000000E+00 -0.15994828408E+04  0.15994828408E+04  0.50400001928E-02 0.  1.
    10030    2    1    2    0    0  0.00000000000E+00  0.00000000000E+00  0.75920910880E+03  0.39581747904E+04  0.38846813512E+04 0.  0.
        3    1    3    3  502    0  0.28371929372E+03  0.18952293841E+04  0.56917248885E+02  0.19171934277E+04  0.10100000352E+00 0. -1.
       -3    1    3    3    0  502 -0.28371929372E+03 -0.18952293841E+04  0.70229185992E+03  0.20409813626E+04  0.10100000352E+00 0.  1.
</event>
<event>
 5   0  0.5515000E-08  0.3955100E+04  0.7818609E-02  0.8013666E-01
        1   -1    0    0  501    0  0.00000000000E+00  0.00000000000E+00  0.22954158691E+04  0.22954158691E+04  0.50400001928E-02 0.  1.
       -1   -1    0    0    0  501  0.00000000000E+00  0.00000000000E+00 -0.17037018461E+04  0.17037018461E+04  0.50400001928E-02 0. -1.
    10030    2    1    2    0    0  0.00000000000E+00  0.00000000000E+00  0.59171402299E+03  0.39991177152E+04  0.39551001271E+04 0.  0.
        5    1    3    3  502    0  0.17660802140E+04 -0.69277437032E+03  0.86037741603E+03  0.20830859412E+04  0.46999998093E+01 0.  1.
       -5    1    3    3    0  502 -0.17660802140E+04  0.69277437032E+03 -0.26866339304E+03  0.19160317740E+04  0.46999998093E+01 0. -1.
</event>
<event>
 5   0  0.1776653E-07  0.3990798E+04  0.7818609E-02  0.8006405E-01
       -2   -1    0    0    0  501  0.00000000000E+00  0.00000000000E+00  0.18189181410E+04  0.18189181410E+04  0.25500000920E-02 0. -1.
        2   -1    0    0  501    0  0.00000000000E+00  0.00000000000E+00 -0.21890028518E+04  0.21890028518E+04  0.25500000920E-02 0.  1.
    10030    2    1    2    0    0  0.00000000000E+00  0.00000000000E+00 -0.37008471081E+03  0.40079209929E+04  0.39907979142E+04 0.  0.
        4    1    3    3  502    0 -0.48612265932E+03  0.18896942937E+04  0.23430836421E+03  0.19652383534E+04  0.12699999809E+01 0. -1.
       -4    1    3    3    0  502  0.48612265932E+03 -0.18896942937E+04 -0.60439307502E+03  0.20426826394E+04  0.12699999809E+01 0.  1.
</event>
<event>
 5   0  0.1819906E-07  0.3919549E+04  0.7818609E-02  0.8020976E-01
        2   -1    0    0  501    0  0.00000000000E+00  0.00000000000E+00  0.19423515723E+04  0.19423515723E+04  0.25500000920E-02 0. -1.
       -2   -1    0    0    0  501  0.00000000000E+00  0.00000000000E+00 -0.19773532172E+04  0.19773532172E+04  0.25500000920E-02 0.  1.
    10030    2    1    2    0    0  0.00000000000E+00  0.00000000000E+00 -0.35001644875E+02  0.39197047895E+04  0.39195485099E+04 0.  0.
        1    1    3    3  502    0  0.36635601549E+03 -0.83804932122E+03 -0.17508245960E+04  0.19753303928E+04  0.50400001928E-02 0.  1.
       -1    1    3    3    0  502 -0.36635601549E+03  0.83804932122E+03  0.17158229511E+04  0.19443743967E+04  0.50400001928E-02 0. -1.
</event>
<event>
 5   0  0.1821433E-07  0.4014036E+04  0.7818609E-02  0.8001721E-01
       -2   -1    0    0    0  501  0.00000000000E+00  0.00000000000E+00  0.22592838258E+04  0.22592838258E+04  0.25500000920E-02 0. -1.
        2   -1    0    0  501    0  0.00000000000E+00  0.00000000000E+00 -0.17829198679E+04  0.17829198679E+04  0.25500000920E-02 0.  1.
    10030    2    1    2    0    0  0.00000000000E+00  0.00000000000E+00  0.47636395793E+03  0.40422036938E+04  0.40140363827E+04 0.  0.
        5    1    3    3  502    0  0.53170381222E+03  0.18502721884E+04 -0.33314727285E+03  0.19537720723E+04  0.46999998093E+01 0.  1.
       -5    1    3    3    0  502 -0.53170381222E+03 -0.18502721884E+04  0.80951123078E+03  0.20884316215E+04  0.46999998093E+01 0. -1.
</event>
<event>
 5   0  0.1776653E-07  0.4052988E+04  0.7818609E-02  0.7993942E-01
       -2   -1    0    0    0  501  0.00000000000E+00  0.00000000000E+00  0.16005621555E+04  0.16005621555E+04  0.25500000920E-02 0.  1.
        2   -1    0    0  501    0  0.00000000000E+00  0.00000000000E+00 -0.25657719194E+04  0.25657719194E+04  0.25500000920E-02 0. -1.
    10030    2    1    2    0    0  0.00000000000E+00  0.00000000000E+00 -0.96520976390E+03  0.41663340750E+04  0.40529877542E+04 0.  0.
        4    1    3    3  502    0 -0.19441941962E+04  0.81879668587E+02 -0.10641834395E+04  0.22179006647E+04  0.12699999809E+01 0.  1.
       -4    1    3    3    0  502  0.19441941962E+04 -0.81879668587E+02  0.98973675642E+02  0.19484334102E+04  0.12699999809E+01 0. -1.
</event>
<event>
 5   0  0.1785559E-07  0.3961216E+04  0.7818609E-02  0.8012417E-01
       -2   -1    0    0    0  501  0.00000000000E+00  0.00000000000E+00  0.15884669712E+04  0.15884669712E+04  0.25500000920E-02 0.  1.
        2   -1    0    0  501    0  0.00000000000E+00  0.00000000000E+00 -0.24695553378E+04  0.24695553378E+04  0.25500000920E-02 0. -1.
    10030    2    1    2    0    0  0.00000000000E+00  0.00000000000E+00 -0.88108836661E+03  0.40580223090E+04  0.39612155142E+04 0.  0.
        2    1    3    3  502    0  0.12888592235E+04  0.14904222861E+04 -0.23491405755E+03  0.19843642063E+04  0.25500000920E-02 0. -1.
       -2    1    3    3    0  502 -0.12888592235E+04 -0.14904222861E+04 -0.64617430906E+03  0.20736581026E+04  0.25500000920E-02 0.  1.
</event>
<event>
 5   0  0.1821433E-07  0.3854961E+04  0.7818609E-02  0.8034462E-01
       -2   -1    0    0    0  501  0.00000000000E+00  0.00000000000E+00  0.15963005110E+04  0.15963005110E+04  0.25500000920E-02 0. -1.
        2   -1    0    0  501    0  0.00000000000E+00  0.00000000000E+00 -0.23273698684E+04  0.23273698684E+04  0.25500000920E-02 0.  1.
    10030    2    1    2    0    0  0.00000000000E+00  0.00000000000E+00 -0.73106935741E+03  0.39236703794E+04  0.38549613280E+04 0.  0.
        5    1    3    3  502    0  0.18865060615E+04  0.37111674879E+03 -0.50407410519E+03  0.19876482473E+04  0.46999998093E+01 0.  1.
       -5    1    3    3    0  502 -0.18865060615E+04 -0.37111674879E+03 -0.22699525222E+03  0.19360221321E+04  0.46999998093E+01 0. -1.
</event>
<event>
 5   0  0.1821433E-07  0.3982152E+04  0.7818609E-02  0.8008157E-01
        2   -1    0    0  501    0  0.00000000000E+00  0.00000000000E+00  0.18263828518E+04  0.18263828518E+04  0.25500000920E-02 0. -1.
       -2   -1    0    0    0  501  0.00000000000E+00  0.00000000000E+00 -0.21706203422E+04  0.21706203422E+04  0.25500000920E-02 0.  1.
    10030    2    1    2    0    0  0.00000000000E+00  0.00000000000E+00 -0.34423749035E+03  0.39970031940E+04  0.39821520668E+04 0.  0.
        5    1    3    3  502    0 -0.12603006299E+04  0.15374032805E+04 -0.60370000017E+02  0.19888773596E+04  0.46999998093E+01 0.  1.
       -5    1    3    3    0  502  0.12603006299E+04 -0.15374032805E+04 -0.28386749034E+03  0.20081258344E+04  0.46999998093E+01 0. -1.
</event>
<event>
 5   0  0.5515000E-08  0.3987471E+04  0.7818609E-02  0.8007079E-01
       -1   -1    0    0    0  501  0.00000000000E+00  0.00000000000E+00  0.32284016871E+04  0.32284016871E+04  0.50400001928E-02 0. -1.
        1   -1    0    0  501    0  0.00000000000E+00  0.00000000000E+00 -0.12312534936E+04  0.12312534937E+04  0.50400001928E-02 0.  1.
    10030    2    1    2    0    0  0.00000000000E+00  0.00000000000E+00  0.19971481934E+04  0.44596551807E+04  0.39874708055E+04 0.  0.
        2    1    3    3  502    0 -0.76655798536E+03 -0.13979835073E+04  0.23374140104E+04  0.28293945090E+04  0.25500000920E-02 0. -1.
       -2    1    3    3    0  502  0.76655798536E+03  0.13979835073E+04 -0.34026581701E+03  0.16302606717E+04  0.25500000920E-02 0.  1.
</event>
<event>
 5   0  0.5515000E-08  0.4024162E+04  0.7818609E-02  0.7999690E-01
       -1   -1    0    0    0  501  0.00000000000E+00  0.00000000000E+00  0.18386981423E+04  0.18386981423E+04  0.50400001928E-02 0.  1.
        1   -1    0    0  501    0  0.00000000000E+00  0.00000000000E+00 -0.22018130582E+04  0.22018130582E+04  0.50400001928E-02 0. -1.
    10030    2    1    2    0    0  0.00000000000E+00  0.00000000000E+00 -0.36311491590E+03  0.40405112006E+04  0.40241618158E+04 0.  0.
        2    1    3    3  502    0 -0.83668156182E+03  0.15187701184E+02 -0.20188011368E+04  0.21853660407E+04  0.25500000920E-02 0. -1.
       -2    1    3    3    0  502  0.83668156182E+03 -0.15187701184E+02  0.16556862209E+04  0.18551451599E+04  0.25500000920E-02 0.  1.
</event>
<event>
 5   0  0.5515000E-08  0.3941408E+04  0.7818609E-02  0.8016472E-01
       -1   -1    0    0    0  501  0.00000000000E+00  0.00000000000E+00  0.21441868574E+04  0.21441868574E+04  0.50400001928E-02 0. -1.
        1   -1    0    0  501    0  0.00000000000E+00  0.00000000000E+00 -0.18112570238E+04  0.18112570238E+04  0.50400001928E-02 0.  1.
    10030    2    1    2    0    0  0.00000000000E+00  0.00000000000E+00  0.33292983359E+03  0.39554438812E+04  0.39414076195E+04 0.  0.
        2    1    3    3  502    0 -0.10772774806E+04 -0.11544471731E+04 -0.10168858989E+04  0.18781192659E+04  0.25500000920E-02 0.  1.
       -2    1    3    3    0  502  0.10772774806E+04  0.11544471731E+04  0.13498157325E+04  0.20773246153E+04  0.25500000920E-02 0. -1.
</event>
<event>
 5   0  0.5515000E-08  0.4020320E+04  0.7818609E-02  0.8000460E-01
       -1   -1    0    0    0  501  0.00000000000E+00  0.00000000000E+00  0.15741533039E+04  0.15741533039E+04  0.50400001928E-02 0. -1.
        1   -1    0    0  501    0  0.00000000000E+00  0.00000000000E+00 -0.25669314778E+04  0.25669314778E+04  0.50400001928E-02 0.  1.
    10030    2    1    2    0    0  0.00000000000E+00  0.00000000000E+00 -0.99277817392E+03  0.41410847817E+04  0.40203202194E+04 0.  0.
        5    1    3    3  502    0  0.89656362750E+03 -0.17338093009E+04 -0.15410038755E+01  0.19519081676E+04  0.46999998093E+01 0. -1.
       -5    1    3    3    0  502 -0.89656362750E+03  0.17338093009E+04 -0.99123717004E+03  0.21891766140E+04  0.46999998093E+01 0.  1.
</event>
<event>
 5   0  0.1773903E-07  0.3707494E+04  0.7818609E-02  0.8066303E-01
       -2   -1    0    0    0  501  0.00000000000E+00  0.00000000000E+00  0.17444532710E+04  0.17444532710E+04  0.25500000920E-02 0.  1.
        2   -1    0    0  501    0  0.00000000000E+00  0.00000000000E+00 -0.19698884910E+04  0.19698884910E+04  0.25500000920E-02 0. -1.
    10030    2    1    2    0    0  0.00000000000E+00  0.00000000000E+00 -0.22543522008E+03  0.37143417620E+04  0.37074942598E+04 0.  0.
        3    1    3    3  502    0 -0.47817639780E+03  0.17382482443E+04  0.31961014582E+03  0.18309315339E+04  0.10100000352E+00 0.  1.
       -3    1    3    3    0  502  0.47817639780E+03 -0.17382482443E+04 -0.54504536590E+03  0.18834102281E+04  0.10100000352E+00 0. -1.
</event>
<event>
 5   0  0.5515000E-08  0.4041938E+04  0.7818609E-02  0.7996139E-01
       -1   -1    0    0    0  501  0.00000000000E+00  0.00000000000E+00  0.23885522112E+04  0.23885522112E+04  0.50400001928E-02 0.  1.
        1   -1    0    0  501    0  0.00000000000E+00  0.00000000000E+00 -0.17099541433E+04  0.17099541433E+04  0.50400001928E-02 0. -1.
    10030    2    1    2    0    0  0.00000000000E+00  0.00000000000E+00  0.67859806790E+03  0.40985063546E+04  0.40419375305E+04 0.  0.
        3    1    3    3  502    0  0.71434525844E+03 -0.67769601470E+03  0.21288656568E+04  0.23455553780E+04  0.10100000352E+00 0.  1.
       -3    1    3    3    0  502 -0.71434525844E+03  0.67769601470E+03 -0.14502675889E+04  0.17529509765E+04  0.10100000352E+00 0. -1.
</event>
<event>
 5   0  0.5515000E-08  0.4046643E+04  0.7818609E-02  0.7995203E-01
        1   -1    0    0  501    0  0.00000000000E+00  0.00000000000E+00  0.20434279907E+04  0.20434279908E+04  0.50400001928E-02 0.  1.
       -1   -1    0    0    0  501  0.00000000000E+00  0.00000000000E+00 -0.20034131508E+04  0.20034131508E+04  0.50400001928E-02 0. -1.
    10030    2    1    2    0    0  0.00000000000E+00  0.00000000000E+00  0.40014839986E+02  0.40468411415E+04  0.40466433049E+04 0.  0.
        2    1    3    3  502    0 -0.47682292114E+03 -0.23236563522E+03  0.19726593113E+04  0.20427282357E+04  0.25500000920E-02 0.  1.
       -2    1    3    3    0  502  0.47682292114E+03  0.23236563522E+03 -0.19326444713E+04  0.20041129058E+04  0.25500000920E-02 0. -1.
</event>
<event>
 5   0  0.5515000E-08  0.3962194E+04  0.7818609E-02  0.8012217E-01
       -1   -1    0    0    0  501  0.00000000000E+00  0.00000000000E+00  0.35083195900E+04  0.35083195900E+04  0.50400001928E-02 0. -1.
        1   -1    0    0  501    0  0.00000000000E+00  0.00000000000E+00 -0.11186965134E+04  0.11186965134E+04  0.50400001928E-02 0.  1.
    10030    2    1    2    0    0  0.00000000000E+00  0.00000000000E+00  0.23896230766E+04  0.46270161033E+04  0.39621937828E+04 0.  0.
        5    1    3    3  502    0  0.38178582346E+03 -0.15385802997E+03 -0.10682014401E+04  0.11447747006E+04  0.46999998093E+01 0.  1.
       -5    1    3    3    0  502 -0.38178582346E+03  0.15385802997E+03  0.34578245167E+04  0.34822414027E+04  0.46999998093E+01 0. -1.
</event>
<event>
 5   0  0.1785559E-07  0.4038428E+04  0.7818609E-02  0.7996839E-01
       -2   -1    0    0    0  501  0.00000000000E+00  0.00000000000E+00  0.19516086710E+04  0.19516086710E+04  0.25500000920E-02 0. -1.
        2   -1    0    0  501    0  0.00000000000E+00  0.00000000000E+00 -0.20891615834E+04  0.20891615834E+04  0.25500000920E-02 0.  1.
    10030    2    1    2    0    0  0.00000000000E+00  0.00000000000E+00 -0.13755291246E+03  0.40407702544E+04  0.40384283385E+04 0.  0.
        2    1    3    3  502    0  0.16230384786E+04  0.72833462696E+03 -0.10245794006E+04  0.20529218641E+04  0.25500000920E-02 0.  1.
       -2    1    3    3    0  502 -0.16230384786E+04 -0.72833462696E+03  0.88702648817E+03  0.19878483903E+04  0.25500000920E-02 0. -1.
</event>
<event>
 5   0  0.1776653E-07  0.3866181E+04  0.7818609E-02  0.8032100E-01
       -2   -1    0    0    0  501  0.00000000000E+00  0.00000000000E+00  0.15318826507E+04  0.15318826507E+04  0.25500000920E-02 0.  1.
        2   -1    0    0  501    0  0.00000000000E+00  0.00000000000E+00 -0.24393761332E+04  0.24393761332E+04  0.25500000920E-02 0. -1.
    10030    2    1    2    0    0  0.00000000000E+00  0.00000000000E+00 -0.90749348243E+03  0.39712587839E+04  0.38661805323E+04 0.  0.
        4    1    3    3  502    0 -0.77976916205E+03 -0.46573146087E+03 -0.22065516783E+04  0.23861721777E+04  0.12699999809E+01 0. -1.
       -4    1    3    3    0  502  0.77976916205E+03  0.46573146087E+03  0.12990581959E+04  0.15850866062E+04  0.12699999809E+01 0.  1.
</event>
<event>
 5   0  0.5515000E-08  0.4050297E+04  0.7818609E-02  0.7994476E-01
       -1   -1    0    0    0  501  0.00000000000E+00  0.00000000000E+00  0.33243894995E+04  0.33243894995E+04  0.50400001928E-02 0.  1.
        1   -1    0    0  501    0  0.00000000000E+00  0.00000000000E+00 -0.12336781877E+04  0.12336781878E+04  0.50400001928E-02 0. -1.
    10030    2    1    2    0    0  0.00000000000E+00  0.00000000000E+00  0.20907113118E+04  0.45580676873E+04  0.40502971808E+04 0.  0.
        3    1    3    3  502    0 -0.18239997940E+04  0.33035343905E+03  0.19631455753E+04  0.27000091116E+04  0.10100000352E+00 0.  1.
       -3    1    3    3    0  502  0.18239997940E+04 -0.33035343905E+03  0.12756573650E+03  0.18580585756E+04  0.10100000352E+00 0. -1.
</event>
<event>
 5   0  0.1785559E-07  0.3482677E+04  0.7818609E-02  0.8117908E-01
        2   -1    0    0  501    0  0.00000000000E+00  0.00000000000E+00  0.10312763513E+04  0.10312763513E+04  0.25500000920E-02 0.  1.
       -2   -1    0    0    0  501  0.00000000000E+00  0.00000000000E+00 -0.29402972298E+04  0.29402972298E+04  0.25500000920E-02 0. -1.
    10030    2    1    2    0    0  0.00000000000E+00  0.00000000000E+00 -0.19090208785E+04  0.39715735811E+04  0.34826765563E+04 0.  0.
        2    1    3    3  502    0  0.49724300542E+03 -0.26748831194E+03 -0.28330098111E+04  0.28887272618E+04  0.25500000920E-02 0. -1.
       -2    1    3    3    0  502 -0.49724300542E+03  0.26748831194E+03  0.92398893264E+03  0.10828463192E+04  0.25500000920E-02 0.  1.
</event>
<event>
 5   0  0.5515000E-08  0.3992544E+04  0.7818609E-02  0.8006052E-01
        3   -1    0    0  501    0  0.00000000000E+00  0.00000000000E+00  0.26392300353E+04  0.26392300373E+04  0.10100000352E+00 0.  1.
       -3   -1    0    0    0  501  0.00000000000E+00  0.00000000000E+00 -0.15099484135E+04  0.15099484169E+04  0.10100000352E+00 0. -1.
    10030    2    1    2    0    0  0.00000000000E+00  0.00000000000E+00  0.11292816218E+04  0.41491784542E+04  0.39925436583E+04 0.  0.
        4    1    3    3  502    0  0.57904387059E+03  0.12279853496E+04 -0.95628474742E+03  0.16606390198E+04  0.12699999809E+01 0. -1.
       -4    1    3    3    0  502 -0.57904387059E+03 -0.12279853496E+04  0.20855663693E+04  0.24885394344E+04  0.12699999809E+01 0.  1.
</event>
<event>
 5   0  0.5515000E-08  0.4039018E+04  0.7818609E-02  0.7996721E-01
       -1   -1    0    0    0  501  0.00000000000E+00  0.00000000000E+00  0.16081987867E+04  0.16081987867E+04  0.50400001928E-02 0. -1.
        1   -1    0    0  501    0  0.00000000000E+00  0.00000000000E+00 -0.25360146379E+04  0.25360146379E+04  0.50400001928E-02 0.  1.
    10030    2    1    2    0    0  0.00000000000E+00  0.00000000000E+00 -0.92781585114E+03  0.41442134246E+04  0.40390175358E+04 0.  0.
        1    1    3    3  502    0 -0.13265813123E+04 -0.68591183317E+03 -0.18587716132E+04  0.23843919416E+04  0.50400001928E-02 0.  1.
       -1    1    3    3    0  502  0.13265813123E+04  0.68591183317E+03  0.93095576204E+03  0.17598214830E+04  0.50400001928E-02 0. -1.
</event>
<event>
 5   0  0.5515000E-08  0.3984263E+04  0.7818609E-02  0.8007729E-01
       -1   -1    0    0    0  501  0.00000000000E+00  0.00000000000E+00  0.20505874610E+04  0.20505874610E+04  0.50400001928E-02 0. -1.
        1   -1    0    0  501    0  0.00000000000E+00  0.00000000000E+00 -0.19353419799E+04  0.19353419799E+04  0.50400001928E-02 0.  1.
    10030    2    1    2    0    0  0.00000000000E+00  0.00000000000E+00  0.11524548118E+03  0.39859294409E+04  0.39842630419E+04 0.  0.
        4    1    3    3  502    0 -0.21530195670E+03 -0.42522078645E+03 -0.18774609914E+04  0.19370154973E+04  0.12699999809E+01 0.  1.
       -4    1    3    3    0  502  0.21530195670E+03  0.42522078645E+03  0.19927064725E+04  0.20489139436E+04  0.12699999809E+01 0. -1.
</event>
<event>
 5   0  0.5515000E-08  0.3496177E+04  0.7818609E-02  0.8114697E-01
        3   -1    0    0  501    0  0.00000000000E+00  0.00000000000E+00  0.17553583708E+04  0.17553583737E+04  0.10100000352E+00 0.  1.
       -3   -1    0    0    0  501  0.00000000000E+00  0.00000000000E+00 -0.17408488713E+04  0.17408488742E+04  0.10100000352E+00 0. -1.
    10030    2    1    2    0    0  0.00000000000E+00  0.00000000000E+00  0.14509499549E+02  0.34962072479E+04  0.34961771401E+04 0.  0.
        3    1    3    3  502    0  0.13740060718E+04 -0.95280721853E+03  0.51723890350E+03  0.17502200931E+04  0.10100000352E+00 0.  1.
       -3    1    3    3    0  502 -0.13740060718E+04  0.95280721853E+03 -0.50272940395E+03  0.17459871548E+04  0.10100000352E+00 0. -1.
</event>
<event>
 5   0  0.5515000E-08  0.3821537E+04  0.7818609E-02  0.8041549E-01
        1   -1    0    0  501    0  0.00000000000E+00  0.00000000000E+00  0.16061958981E+04  0.16061958981E+04  0.50400001928E-02 0. -1.
       -1   -1    0    0    0  501  0.00000000000E+00  0.00000000000E+00 -0.22730950465E+04  0.22730950465E+04  0.50400001928E-02 0.  1.
    10030    2    1    2    0    0  0.00000000000E+00  0.00000000000E+00 -0.66689914842E+03  0.38792909447E+04  0.38215368321E+04 0.  0.
        3    1    3    3  502    0  0.41474274403E+03 -0.12597947551E+04 -0.17297155709E+04  0.21796812463E+04  0.10100000352E+00 0.  1.
       -3    1    3    3    0  502 -0.41474274403E+03  0.12597947551E+04  0.10628164225E+04  0.16996096984E+04  0.10100000352E+00 0. -1.
</event>
<event>
 5   0  0.1773903E-07  0.3210149E+04  0.7818609E-02  0.8186142E-01
        2   -1    0    0  501    0  0.00000000000E+00  0.00000000000E+00  0.24506044899E+04  0.24506044899E+04  0.25500000920E-02 0.  1.
       -2   -1    0    0    0  501  0.00000000000E+00  0.00000000000E+00 -0.10512772458E+04  0.10512772458E+04  0.25500000920E-02 0. -1.
    10030    2    1    2    0    0  0.00000000000E+00  0.00000000000E+00  0.13993272441E+04  0.35018817357E+04  0.32101493665E+04 0.  0.
        3    1    3    3  502    0 -0.32909034851E+03  0.12766942802E+04 -0.29896126827E+03  0.13518974046E+04  0.10100000352E+00 0. -1.
       -3    1    3    3    0  502  0.32909034851E+03 -0.12766942802E+04  0.16982885124E+04  0.21499843311E+04  0.10100000352E+00 0.  1.
</event>
<event>
 5   0  0.1773903E-07  0.3884145E+04  0.7818609E-02  0.8028335E-01
        2   -1    0    0  501    0  0.00000000000E+00  0.00000000000E+00  0.24529427259E+04  0.24529427259E+04  0.25500000920E-02 0. -1.
       -2   -1    0    0    0  501  0.00000000000E+00  0.00000000000E+00 -0.15376004929E+04  0.15376004929E+04  0.25500000920E-02 0.  1.
    10030    2    1    2    0    0  0.00000000000E+00  0.00000000000E+00  0.91534223298E+03  0.39905432188E+04  0.38841451798E+04 0.  0.
        3    1    3    3  502    0  0.77205795091E+03  0.17760982606E+04  0.60672250744E+03  0.20294606974E+04  0.10100000352E+00 0. -1.
       -3    1    3    3    0  502 -0.77205795091E+03 -0.17760982606E+04  0.30861972554E+03  0.19610825215E+04  0.10100000352E+00 0.  1.
</event>
<event>
 5   0  0.5515000E-08  0.3990679E+04  0.7818609E-02  0.8006430E-01
        1   -1    0    0  501    0  0.00000000000E+00  0.00000000000E+00  0.23102525044E+04  0.23102525044E+04  0.50400001928E-02 0. -1.
       -1   -1    0    0    0  501  0.00000000000E+00  0.00000000000E+00 -0.17233525655E+04  0.17233525655E+04  0.50400001928E-02 0.  1.
    10030    2    1    2    0    0  0.00000000000E+00  0.00000000000E+00  0.58689993887E+03  0.40336050700E+04  0.39906789300E+04 0.  0.
        5    1    3    3  502    0 -0.11324660090E+04 -0.11992780771E+04  0.14282961902E+04  0.21819255865E+04  0.46999998093E+01 0. -1.
       -5    1    3    3    0  502  0.11324660090E+04  0.11992780771E+04 -0.84139625132E+03  0.18516794835E+04  0.46999998093E+01 0.  1.
</event>
<event>
 5   0  0.5515000E-08  0.3997738E+04  0.7818609E-02  0.8005003E-01
       -1   -1    0    0    0  501  0.00000000000E+00  0.00000000000E+00  0.15303294543E+04  0.15303294543E+04  0.50400001928E-02 0.  1.
        1   -1    0    0  501    0  0.00000000000E+00  0.00000000000E+00 -0.26108612172E+04  0.26108612172E+04  0.50400001928E-02 0. -1.
    10030    2    1    2    0    0  0.00000000000E+00  0.00000000000E+00 -0.10805317630E+04  0.41411906715E+04  0.39977382714E+04 0.  0.
        3    1    3    3  502    0 -0.71568362328E+03  0.21355595755E+03  0.13803604287E+04  0.15694598176E+04  0.10100000352E+00 0.  1.
       -3    1    3    3    0  502  0.71568362328E+03 -0.21355595755E+03 -0.24608921917E+04  0.25717308539E+04  0.10100000352E+00 0. -1.
</event>
<event>
 5   0  0.5515000E-08  0.3964499E+04  0.7818609E-02  0.8011747E-01
       -1   -1    0    0    0  501  0.00000000000E+00  0.00000000000E+00  0.27066824475E+04  0.27066824475E+04  0.50400001928E-02 0.  1.
        1   -1    0    0  501    0  0.00000000000E+00  0.00000000000E+00 -0.14517084596E+04  0.14517084596E+04  0.50400001928E-02 0. -1.
    10030    2    1    2    0    0  0.00000000000E+00  0.00000000000E+00  0.12549739879E+04  0.41583909071E+04  0.39644993663E+04 0.  0.
        3    1    3    3  502    0 -0.10630823502E+04 -0.65795821793E+03  0.22409843378E+04  0.25661379371E+04  0.10100000352E+00 0.  1.
       -3    1    3    3    0  502  0.10630823502E+04  0.65795821793E+03 -0.98601034994E+03  0.15922529699E+04  0.10100000352E+00 0. -1.
</event>
<event>
 5   0  0.1785559E-07  0.4014663E+04  0.7818609E-02  0.8001595E-01
       -2   -1    0    0    0  501  0.00000000000E+00  0.00000000000E+00  0.15139449534E+04  0.15139449534E+04  0.25500000920E-02 0. -1.
        2   -1    0    0  501    0  0.00000000000E+00  0.00000000000E+00 -0.26615105781E+04  0.26615105781E+04  0.25500000920E-02 0.  1.
    10030    2    1    2    0    0  0.00000000000E+00  0.00000000000E+00 -0.11475656247E+04  0.41754555315E+04  0.40146633773E+04 0.  0.
        2    1    3    3  502    0 -0.32183198995E+03 -0.10194711202E+04 -0.23407938086E+04  0.25733660542E+04  0.25500000920E-02 0.  1.
       -2    1    3    3    0  502  0.32183198995E+03  0.10194711202E+04  0.11932281839E+04  0.16020894774E+04  0.25500000920E-02 0. -1.
</event>
<event>
 5   0  0.1785559E-07  0.4015896E+04  0.7818609E-02  0.8001347E-01
       -2   -1    0    0    0  501  0.00000000000E+00  0.00000000000E+00  0.16174699044E+04  0.16174699044E+04  0.25500000920E-02 0.  1.
        2   -1    0    0  501    0  0.00000000000E+00  0.00000000000E+00 -0.24926928533E+04  0.24926928533E+04  0.25500000920E-02 0. -1.
    10030    2    1    2    0    0  0.00000000000E+00  0.00000000000E+00 -0.87522294884E+03  0.41101627577E+04  0.40158962492E+04 0.  0.
        2    1    3    3  502    0 -0.69793511111E+03 -0.36090727037E+03 -0.23288196787E+04  0.24577975045E+04  0.25500000920E-02 0. -1.
       -2    1    3    3    0  502  0.69793511111E+03  0.36090727037E+03  0.14535967298E+04  0.16523652532E+04  0.25500000920E-02 0.  1.
</event>
<event>
 5   0  0.5515000E-08  0.4019314E+04  0.7818609E-02  0.8000662E-01
       -1   -1    0    0    0  501  0.00000000000E+00  0.00000000000E+00  0.13484361456E+04  0.13484361456E+04  0.50400001928E-02 0.  1.
        1   -1    0    0  501    0  0.00000000000E+00  0.00000000000E+00 -0.29951147526E+04  0.29951147526E+04  0.50400001928E-02 0. -1.
    10030    2    1    2    0    0  0.00000000000E+00  0.00000000000E+00 -0.16466786070E+04  0.43435508983E+04  0.40193138682E+04 0.  0.
        1    1    3    3  502    0  0.15265342202E+03  0.42909628714E+03  0.12919304055E+04  0.13698579720E+04  0.50400001928E-02 0.  1.
       -1    1    3    3    0  502 -0.15265342202E+03 -0.42909628714E+03 -0.29386090125E+04  0.29736929262E+04  0.50400001928E-02 0. -1.
</event>
<event>
 5   0  0.1819906E-07  0.4021150E+04  0.7818609E-02  0.8000293E-01
        2   -1    0    0  501    0  0.00000000000E+00  0.00000000000E+00  0.22894151733E+04  0.22894151733E+04  0.25500000920E-02 0.  1.
       -2   -1    0    0    0  501  0.00000000000E+00  0.00000000000E+00 -0.17656964567E+04  0.17656964567E+04  0.25500000920E-02 0. -1.
    10030    2    1    2    0    0  0.00000000000E+00  0.00000000000E+00  0.52371871657E+03  0.40551116300E+04  0.40211502132E+04 0.  0.
        1    1    3    3  502    0  0.18306756873E+04 -0.77141892720E+03  0.57423609707E+03  0.20678993517E+04  0.50400001928E-02 0.  1.
       -1    1    3    3    0  502 -0.18306756873E+04  0.77141892720E+03 -0.50517380502E+02  0.19872122783E+04  0.50400001928E-02 0. -1.
</event>
<event>
 5   0  0.5515000E-08  0.3518587E+04  0.7818609E-02  0.8109399E-01
        4   -1    0    0  501    0  0.00000000000E+00  0.00000000000E+00  0.18586034203E+04  0.18586038542E+04  0.12699999809E+01 0. -1.
       -4   -1    0    0    0  501  0.00000000000E+00  0.00000000000E+00 -0.16652895239E+04  0.16652900082E+04  0.12699999809E+01 0.  1.
    10030    2    1    2    0    0  0.00000000000E+00  0.00000000000E+00  0.19331389636E+03  0.35238938624E+04  0.35185874567E+04 0.  0.
        4    1    3    3  502    0 -0.28701980150E+02 -0.13331449852E+04  0.12459997359E+04  0.18249976192E+04  0.12699999809E+01 0. -1.
       -4    1    3    3    0  502  0.28701980150E+02  0.13331449852E+04 -0.10526858396E+04  0.16988962432E+04  0.12699999809E+01 0.  1.
</event>
<event>
 5   0  0.5515000E-08  0.3993708E+04  0.7818609E-02  0.8005817E-01
        4   -1    0    0  501    0  0.00000000000E+00  0.00000000000E+00  0.25524315293E+04  0.25524318453E+04  0.12699999809E+01 0.  1.
       -4   -1    0    0    0  501  0.00000000000E+00  0.00000000000E+00 -0.15622064331E+04  0.15622069494E+04  0.12699999809E+01 0. -1.
    10030    2    1    2    0    0  0.00000000000E+00  0.00000000000E+00  0.99022509617E+03  0.41146387946E+04  0.39937083856E+04 0.  0.
        2    1    3    3  502    0  0.16733450361E+04 -0.10739752208E+04  0.30536110112E+03  0.20116539928E+04  0.25500000920E-02 0.  1.
       -2    1    3    3    0  502 -0.16733450361E+04  0.10739752208E+04  0.68486399505E+03  0.21029848018E+04  0.25500000920E-02 0. -1.
</event>
<event>
 5   0  0.1785559E-07  0.4082242E+04  0.7818609E-02  0.7988158E-01
        2   -1    0    0  501    0  0.00000000000E+00  0.00000000000E+00  0.31625905638E+04  0.31625905638E+04  0.25500000920E-02 0.  1.
       -2   -1    0    0    0  501  0.00000000000E+00  0.00000000000E+00 -0.13173299443E+04  0.13173299443E+04  0.25500000920E-02 0. -1.
    10030    2    1    2    0    0  0.00000000000E+00  0.00000000000E+00  0.18452606195E+04  0.44799205080E+04  0.40822421541E+04 0.  0.
        2    1    3    3  502    0  0.19949343789E+04 -0.16395851901E+03  0.48430929723E+03  0.20594176525E+04  0.25500000920E-02 0. -1.
       -2    1    3    3    0  502 -0.19949343789E+04  0.16395851901E+03  0.13609513223E+04  0.24205028555E+04  0.25500000920E-02 0.  1.
</event>
<event>
 5   0  0.1773903E-07  0.3691944E+04  0.7818609E-02  0.8069749E-01
        2   -1    0    0  501    0  0.00000000000E+00  0.00000000000E+00  0.19990442794E+04  0.19990442794E+04  0.25500000920E-02 0.  1.
       -2   -1    0    0    0  501  0.00000000000E+00  0.00000000000E+00 -0.17046208258E+04  0.17046208258E+04  0.25500000920E-02 0. -1.
    10030    2    1    2    0    0  0.00000000000E+00  0.00000000000E+00  0.29442345366E+03  0.37036651052E+04  0.36919439380E+04 0.  0.
        3    1    3    3  502    0  0.15393453985E+04 -0.49691535262E+02 -0.87364321370E+03  0.17706795248E+04  0.10100000352E+00 0. -1.
       -3    1    3    3    0  502 -0.15393453985E+04  0.49691535262E+02  0.11680666674E+04  0.19329855804E+04  0.10100000352E+00 0.  1.
</event>
<event>
 5   0  0.5515000E-08  0.3950741E+04  0.7818609E-02  0.8014558E-01
        1   -1    0    0  501    0  0.00000000000E+00  0.00000000000E+00  0.22078931377E+04  0.22078931377E+04  0.50400001928E-02 0. -1.
       -1   -1    0    0    0  501  0.00000000000E+00  0.00000000000E+00 -0.17673360474E+04  0.17673360474E+04  0.50400001928E-02 0.  1.
    10030    2    1    2    0    0  0.00000000000E+00  0.00000000000E+00  0.44055709027E+03  0.39752291851E+04  0.39507412627E+04 0.  0.
        3    1    3    3  502    0 -0.11484680691E+04 -0.14144083088E+04  0.98826519906E+03  0.20727271609E+04  0.10100000352E+00 0. -1.
       -3    1    3    3    0  502  0.11484680691E+04  0.14144083088E+04 -0.54770810880E+03  0.19025020242E+04  0.10100000352E+00 0.  1.
</event>
<event>
 5   0  0.1776653E-07  0.3977924E+04  0.7818609E-02  0.8009015E-01
       -2   -1    0    0    0  501  0.00000000000E+00  0.00000000000E+00  0.12571305644E+04  0.12571305644E+04  0.25500000920E-02 0. -1.
        2   -1    0    0  501    0  0.00000000000E+00  0.00000000000E+00 -0.31468249006E+04  0.31468249006E+04  0.25500000920E-02 0.  1.
    10030    2    1    2    0    0  0.00000000000E+00  0.00000000000E+00 -0.18896943362E+04  0.44039554650E+04  0.39779239627E+04 0.  0.
        4    1    3    3  502    0 -0.14401114278E+04  0.37349067316E+03 -0.24062815064E+04  0.28290649530E+04  0.12699999809E+01 0.  1.
       -4    1    3    3    0  502  0.14401114278E+04 -0.37349067316E+03  0.51658717016E+03  0.15748905120E+04  0.12699999809E+01 0. -1.
</event>
<event>
 5   0  0.5515000E-08  0.4024602E+04  0.7818609E-02  0.7999602E-01
        1   -1    0    0  501    0  0.00000000000E+00  0.00000000000E+00  0.16245789346E+04  0.16245789346E+04  0.50400001928E-02 0.  1.
       -1   -1    0    0    0  501  0.00000000000E+00  0.00000000000E+00 -0.24925569096E+04  0.24925569096E+04  0.50400001928E-02 0. -1.
    10030    2    1    2    0    0  0.00000000000E+00  0.00000000000E+00 -0.86797797493E+03  0.41171358442E+04  0.40246020666E+04 0.  0.
        4    1    3    3  502    0 -0.48583324625E+03 -0.11576162266E+04 -0.20428027860E+04  0.23977393742E+04  0.12699999809E+01 0. -1.
       -4    1    3    3    0  502  0.48583324625E+03  0.11576162266E+04  0.11748248111E+04  0.17193964700E+04  0.12699999809E+01 0.  1.
</event>
<event>
 5   0  0.5515000E-08  0.3726665E+04  0.7818609E-02  0.8062078E-01
        1   -1    0    0  501    0  0.00000000000E+00  0.00000000000E+00  0.21594182947E+04  0.21594182947E+04  0.50400001928E-02 0.  1.
       -1   -1    0    0    0  501  0.00000000000E+00  0.00000000000E+00 -0.16078443343E+04  0.16078443343E+04  0.50400001928E-02 0. -1.
    10030    2    1    2    0    0  0.00000000000E+00  0.00000000000E+00  0.55157396034E+03  0.37672626290E+04  0.37266652496E+04 0.  0.
        3    1    3    3  502    0  0.32960659092E+03 -0.16991895618E+04 -0.42174640419E+03  0.17815037781E+04  0.10100000352E+00 0. -1.
       -3    1    3    3    0  502 -0.32960659092E+03  0.16991895618E+04  0.97332036453E+03  0.19857588509E+04  0.10100000352E+00 0.  1.
</event>
<event>
 5   0  0.1821433E-07  0.3984119E+04  0.7818609E-02  0.8007758E-01
       -2   -1    0    0    0  501  0.00000000000E+00  0.00000000000E+00  0.13227472774E+04  0.13227472774E+04  0.25500000920E-02 0.  1.
        2   -1    0    0  501    0  0.00000000000E+00  0.00000000000E+00 -0.30000446712E+04  0.30000446712E+04  0.25500000920E-02 0. -1.
    10030    2    1    2    0    0  0.00000000000E+00  0.00000000000E+00 -0.16772973937E+04  0.43227919486E+04  0.39841189345E+04 0.  0.
        5    1    3    3  502    0  0.11018668057E+03  0.17869772664E+03 -0.29880023228E+04  0.29953720892E+04  0.46999998093E+01 0. -1.
       -5    1    3    3    0  502 -0.11018668057E+03 -0.17869772664E+03  0.13107049290E+04  0.13274198594E+04  0.46999998093E+01 0.  1.
</event>
<event>
 5   0  0.5515000E-08  0.3984040E+04  0.7818609E-02  0.8007774E-01
        1   -1    0    0  501    0  0.00000000000E+00  0.00000000000E+00  0.25446453757E+04  0.25446453757E+04  0.50400001928E-02 0.  1.
       -1   -1    0    0    0  501  0.00000000000E+00  0.00000000000E+00 -0.15594093492E+04  0.15594093492E+04  0.50400001928E-02 0. -1.
    10030    2    1    2    0    0  0.00000000000E+00  0.00000000000E+00  0.98523602658E+03  0.41040547249E+04  0.39840400547E+04 0.  0.
        5    1    3    3  502    0  0.19568481403E+03 -0.67187316404E+03  0.24138516537E+04  0.25132465042E+04  0.46999998093E+01 0.  1.
       -5    1    3    3    0  502 -0.19568481403E+03  0.67187316404E+03 -0.14286156271E+04  0.15908082207E+04  0.46999998093E+01 0. -1.
</event>
<event>
 5   0  0.1773903E-07  0.3990274E+04  0.7818609E-02  0.8006512E-01
       -2   -1    0    0    0  501  0.00000000000E+00  0.00000000000E+00  0.11745825593E+04  0.11745825593E+04  0.25500000920E-02 0.  1.
        2   -1    0    0  501    0  0.00000000000E+00  0.00000000000E+00 -0.33889236877E+04  0.33889236877E+04  0.25500000920E-02 0. -1.
    10030    2    1    2    0    0  0.00000000000E+00  0.00000000000E+00 -0.22143411284E+04  0.45635062470E+04  0.39902735036E+04 0.  0.
        3    1    3    3  502    0 -0.18109874738E+04  0.14885122297E+03 -0.20493794014E+04  0.27389392578E+04  0.10100000352E+00 0. -1.
       -3    1    3    3    0  502  0.18109874738E+04 -0.14885122297E+03 -0.16496172702E+03  0.18245669893E+04  0.10100000352E+00 0.  1.
</event>
<event>
 5   0  0.1819906E-07  0.3898743E+04  0.7818609E-02  0.8025291E-01
        2   -1    0    0  501    0  0.00000000000E+00  0.00000000000E+00  0.21493083913E+04  0.21493083913E+04  0.25500000920E-02 0.  1.
       -2   -1    0    0    0  501  0.00000000000E+00  0.00000000000E+00 -0.17680337852E+04  0.17680337852E+04  0.25500000920E-02 0. -1.
    10030    2    1    2    0    0  0.00000000000E+00  0.00000000000E+00  0.38127460610E+03  0.39173421766E+04  0.38987433108E+04 0.  0.
        1    1    3    3  502    0 -0.12017301765E+03 -0.56647946906E+02 -0.17634796544E+04  0.17684770384E+04  0.50400001928E-02 0. -1.
       -1    1    3    3    0  502  0.12017301765E+03  0.56647946906E+02  0.21447542605E+04  0.21488651381E+04  0.50400001928E-02 0.  1.
</event>
<event>
 5   0  0.5515000E-08  0.3985873E+04  0.7818609E-02  0.8007403E-01
        1   -1    0    0  501    0  0.00000000000E+00  0.00000000000E+00  0.17879451182E+04  0.17879451182E+04  0.50400001928E-02 0.  1.
       -1   -1    0    0    0  501  0.00000000000E+00  0.00000000000E+00 -0.22214301895E+04  0.22214301895E+04  0.50400001928E-02 0. -1.
    10030    2    1    2    0    0  0.00000000000E+00  0.00000000000E+00 -0.43348507130E+03  0.40093753077E+04  0.39858726837E+04 0.  0.
        2    1    3    3  502    0  0.25214456170E+03  0.13014744991E+04 -0.17135971151E+04  0.21665243651E+04  0.25500000920E-02 0. -1.
       -2    1    3    3    0  502 -0.25214456170E+03 -0.13014744991E+04  0.12801120438E+04  0.18428509425E+04  0.25500000920E-02 0.  1.
</event>
<event>
 5   0  0.5515000E-08  0.3900956E+04  0.7818609E-02  0.8024830E-01
        1   -1    0    0  501    0  0.00000000000E+00  0.00000000000E+00  0.24739601056E+04  0.24739601056E+04  0.50400001928E-02 0.  1.
       -1   -1    0    0    0  501  0.00000000000E+00  0.00000000000E+00 -0.15377628034E+04  0.15377628034E+04  0.50400001928E-02 0. -1.
    10030    2    1    2    0    0  0.00000000000E+00  0.00000000000E+00  0.93619730220E+03  0.40117229089E+04  0.39009556918E+04 0.  0.
        2    1    3    3  502    0 -0.12504051183E+04  0.12915725306E+04  0.12463505533E+04  0.21874785172E+04  0.25500000920E-02 0.  1.
       -2    1    3    3    0  502  0.12504051183E+04 -0.12915725306E+04 -0.31015325106E+03  0.18242443917E+04  0.25500000920E-02 0. -1.
</event>
<event>
 5   0  0.1773903E-07  0.4046725E+04  0.7818609E-02  0.7995186E-01
       -2   -1    0    0    0  501  0.00000000000E+00  0.00000000000E+00  0.23541049352E+04  0.23541049352E+04  0.25500000920E-02 0.  1.
        2   -1    0    0  501    0  0.00000000000E+00  0.00000000000E+00 -0.17390878421E+04  0.17390878421E+04  0.25500000920E-02 0. -1.
    10030    2    1    2    0    0  0.00000000000E+00  0.00000000000E+00  0.61501709302E+03  0.40931927773E+04  0.40467247358E+04 0.  0.
        3    1    3    3  502    0  0.13122135514E+04 -0.12177034141E+04  0.12613584869E+04  0.21899158093E+04  0.10100000352E+00 0.  1.
       -3    1    3    3    0  502 -0.13122135514E+04  0.12177034141E+04 -0.64634139388E+03  0.19032769680E+04  0.10100000352E+00 0. -1.
</event>
<event>
 5   0  0.1821433E-07  0.4078764E+04  0.7818609E-02  0.7988843E-01
       -2   -1    0    0    0  501  0.00000000000E+00  0.00000000000E+00  0.19356470586E+04  0.19356470586E+04  0.25500000920E-02 0.  1.
        2   -1    0    0  501    0  0.00000000000E+00  0.00000000000E+00 -0.21486759036E+04  0.21486759036E+04  0.25500000920E-02 0. -1.
    10030    2    1    2    0    0  0.00000000000E+00  0.00000000000E+00 -0.21302884503E+03  0.40843229622E+04  0.40787636326E+04 0.  0.
        5    1    3    3  502    0 -0.14793798496E+03  0.17961592235E+04 -0.10622693694E+04  0.20920114500E+04  0.46999998093E+01 0. -1.
       -5    1    3    3    0  502  0.14793798496E+03 -0.17961592235E+04  0.84924052434E+03  0.19923115123E+04  0.46999998093E+01 0.  1.
</event>
<event>
 5   0  0.5515000E-08  0.3994573E+04  0.7818609E-02  0.8005642E-01
       -1   -1    0    0    0  501  0.00000000000E+00  0.00000000000E+00  0.22035811899E+04  0.22035811899E+04  0.50400001928E-02 0. -1.
        1   -1    0    0  501    0  0.00000000000E+00  0.00000000000E+00 -0.18103048085E+04  0.18103048085E+04  0.50400001928E-02 0.  1.
    10030    2    1    2    0    0  0.00000000000E+00  0.00000000000E+00  0.39327638148E+03  0.40138859984E+04  0.39945731306E+04 0.  0.
        4    1    3    3  502    0  0.10314599127E+03  0.18771240009E+04 -0.48109914194E+03  0.19405389992E+04  0.12699999809E+01 0.  1.
       -4    1    3    3    0  502 -0.10314599127E+03 -0.18771240009E+04  0.87437552341E+03  0.20733469992E+04  0.12699999809E+01 0. -1.
</event>
<event>
 5   0  0.5515000E-08  0.4020475E+04  0.7818609E-02  0.8000429E-01
        1   -1    0    0  501    0  0.00000000000E+00  0.00000000000E+00  0.26260436652E+04  0.26260436652E+04  0.50400001928E-02 0. -1.
       -1   -1    0    0    0  501  0.00000000000E+00  0.00000000000E+00 -0.15388376391E+04  0.15388376391E+04  0.50400001928E-02 0.  1.
    10030    2    1    2    0    0  0.00000000000E+00  0.00000000000E+00  0.10872060260E+04  0.41648813043E+04  0.40204750137E+04 0.  0.
        4    1    3    3  502    0 -0.94783341851E+03  0.96788513414E+03  0.20821634788E+04  0.24840684748E+04  0.12699999809E+01 0. -1.
       -4    1    3    3    0  502  0.94783341851E+03 -0.96788513414E+03 -0.99495745277E+03  0.16808128295E+04  0.12699999809E+01 0.  1.
</event>
<event>
 5   0  0.5515000E-08  0.3944345E+04  0.7818609E-02  0.8015869E-01
        1   -1    0    0  501    0  0.00000000000E+00  0.00000000000E+00  0.23485504313E+04  0.23485504313E+04  0.50400001928E-02 0. -1.
       -1   -1    0    0    0  501  0.00000000000E+00  0.00000000000E+00 -0.16561128259E+04  0.16561128259E+04  0.50400001928E-02 0.  1.
    10030    2    1    2    0    0  0.00000000000E+00  0.00000000000E+00  0.69243760545E+03  0.40046632572E+04  0.39443450617E+04 0.  0.
        1    1    3    3  502    0  0.18770356229E+03  0.13252348042E+04 -0.11243733618E+04  0.17480547390E+04  0.50400001928E-02 0.  1.
       -1    1    3    3    0  502 -0.18770356229E+03 -0.13252348042E+04  0.18168109673E+04  0.22566085182E+04  0.50400001928E-02 0. -1.
</event>
<event>
 5   0  0.5515000E-08  0.4017861E+04  0.7818609E-02  0.8000953E-01
       -1   -1    0    0    0  501  0.00000000000E+00  0.00000000000E+00  0.14545858308E+04  0.14545858308E+04  0.50400001928E-02 0.  1.
        1   -1    0    0  501    0  0.00000000000E+00  0.00000000000E+00 -0.27745368495E+04  0.27745368495E+04  0.50400001928E-02 0. -1.
    10030    2    1    2    0    0  0.00000000000E+00  0.00000000000E+00 -0.13199510187E+04  0.42291226802E+04  0.40178611167E+04 0.  0.
        1    1    3    3  502    0  0.19927286812E+04 -0.23046348430E+03 -0.77393151211E+03  0.21501281357E+04  0.50400001928E-02 0.  1.
       -1    1    3    3    0  502 -0.19927286812E+04  0.23046348430E+03 -0.54601950659E+03  0.20789945445E+04  0.50400001928E-02 0. -1.
</event>
<event>
 5   0  0.5515000E-08  0.4060127E+04  0.7818609E-02  0.7992526E-01
       -1   -1    0    0    0  501  0.00000000000E+00  0.00000000000E+00  0.20240902574E+04  0.20240902574E+04  0.50400001928E-02 0. -1.
        1   -1    0    0  501    0  0.00000000000E+00  0.00000000000E+00 -0.20360546211E+04  0.20360546211E+04  0.50400001928E-02 0.  1.
    10030    2    1    2    0    0  0.00000000000E+00  0.00000000000E+00 -0.11964363689E+02  0.40601448785E+04  0.40601272503E+04 0.  0.
        2    1    3    3  502    0 -0.10389573531E+04 -0.16012203006E+04  0.68526570331E+03  0.20280354821E+04  0.25500000920E-02 0.  1.
       -2    1    3    3    0  502  0.10389573531E+04  0.16012203006E+04 -0.69723006700E+03  0.20321093964E+04  0.25500000920E-02 0. -1.
</event>
<event>
 5   0  0.5515000E-08  0.4005876E+04  0.7818609E-02  0.8003362E-01
        1   -1    0    0  501    0  0.00000000000E+00  0.00000000000E+00  0.17167546593E+04  0.17167546593E+04  0.50400001928E-02 0. -1.
       -1   -1    0    0    0  501  0.00000000000E+00  0.00000000000E+00 -0.23368283833E+04  0.23368283833E+04  0.50400001928E-02 0.  1.
    10030    2    1    2    0    0  0.00000000000E+00  0.00000000000E+00 -0.62007372400E+03  0.40535830426E+04  0.40058761913E+04 0.  0.
        5    1    3    3  502    0  0.39402778799E+03 -0.66006432790E+03 -0.21816028616E+04  0.23130836453E+04  0.46999998093E+01 0.  1.
       -5    1    3    3    0  502 -0.39402778799E+03  0.66006432790E+03  0.15615291376E+04  0.17404993973E+04  0.46999998093E+01 0. -1.
</event>
<event>
 5   0  0.5515000E-08  0.4042176E+04  0.7818609E-02  0.7996092E-01
        1   -1    0    0  501    0  0.00000000000E+00  0.00000000000E+00  0.23187826720E+04  0.23187826720E+04  0.50400001928E-02 0. -1.
       -1   -1    0    0    0  501  0.00000000000E+00  0.00000000000E+00 -0.17616125992E+04  0.17616125992E+04  0.50400001928E-02 0.  1.
    10030    2    1    2    0    0  0.00000000000E+00  0.00000000000E+00  0.55717007284E+03  0.40803952713E+04  0.40421760327E+04 0.  0.
        2    1    3    3  502    0  0.13474103862E+04 -0.67702139459E+03  0.16370146213E+04  0.22256885649E+04  0.25500000920E-02 0. -1.
       -2    1    3    3    0  502 -0.13474103862E+04  0.67702139459E+03 -0.10798445485E+04  0.18547067063E+04  0.25500000920E-02 0.  1.
</event>
<event>
 5   0  0.1819906E-07  0.3659375E+04  0.7818609E-02  0.8077025E-01
       -2   -1    0    0    0  501  0.00000000000E+00  0.00000000000E+00  0.13658211993E+04  0.13658211993E+04  0.25500000920E-02 0.  1.
        2   -1    0    0  501    0  0.00000000000E+00  0.00000000000E+00 -0.24510936175E+04  0.24510936175E+04  0.25500000920E-02 0. -1.
    10030    2    1    2    0    0  0.00000000000E+00  0.00000000000E+00 -0.10852724181E+04  0.38169148168E+04  0.36593746047E+04 0.  0.
        1    1    3    3  502    0 -0.69718057710E+03  0.60574548439E+03  0.11048455594E+04  0.14400250203E+04  0.50400001928E-02 0.  1.
       -1    1    3    3    0  502  0.69718057710E+03 -0.60574548439E+03 -0.21901179776E+04  0.23768897965E+04  0.50400001928E-02 0. -1.
</event>
<event>
 5   0  0.1819906E-07  0.4001051E+04  0.7818609E-02  0.8004335E-01
        2   -1    0    0  501    0  0.00000000000E+00  0.00000000000E+00  0.14178073294E+04  0.14178073294E+04  0.25500000920E-02 0.  1.
       -2   -1    0    0    0  501  0.00000000000E+00  0.00000000000E+00 -0.28227409548E+04  0.28227409548E+04  0.25500000920E-02 0. -1.
    10030    2    1    2    0    0  0.00000000000E+00  0.00000000000E+00 -0.14049336254E+04  0.42405482842E+04  0.40010512692E+04 0.  0.
        1    1    3    3  502    0  0.15869213136E+04  0.71565860775E+03 -0.17471757157E+04  0.24663960509E+04  0.50400001928E-02 0.  1.
       -1    1    3    3    0  502 -0.15869213136E+04 -0.71565860775E+03  0.34224209028E+03  0.17741522333E+04  0.50400001928E-02 0. -1.
</event>
<event>
 5   0  0.1785559E-07  0.4007951E+04  0.7818609E-02  0.8002945E-01
        2   -1    0    0  501    0  0.00000000000E+00  0.00000000000E+00  0.25135439839E+04  0.25135439839E+04  0.25500000920E-02 0.  1.
       -2   -1    0    0    0  501  0.00000000000E+00  0.00000000000E+00 -0.15977112986E+04  0.15977112986E+04  0.25500000920E-02 0. -1.
    10030    2    1    2    0    0  0.00000000000E+00  0.00000000000E+00  0.91583268535E+03  0.41112552825E+04  0.40079509092E+04 0.  0.
        2    1    3    3  502    0  0.83176831081E+03 -0.10732463219E+04 -0.10539176229E+04  0.17188480288E+04  0.25500000920E-02 0. -1.
       -2    1    3    3    0  502 -0.83176831081E+03  0.10732463219E+04  0.19697503083E+04  0.23924072537E+04  0.25500000920E-02 0.  1.
</event>
<event>
 5   0  0.5515000E-08  0.3957710E+04  0.7818609E-02  0.8013133E-01
        1   -1    0    0  501    0  0.00000000000E+00  0.00000000000E+00  0.20329839432E+04  0.20329839432E+04  0.50400001928E-02 0.  1.
       -1   -1    0    0    0  501  0.00000000000E+00  0.00000000000E+00 -0.19261670907E+04  0.19261670907E+04  0.50400001928E-02 0. -1.
    10030    2    1    2    0    0  0.00000000000E+00  0.00000000000E+00  0.10681685254E+03  0.39591510339E+04  0.39577098263E+04 0.  0.
        4    1    3    3  502    0 -0.59089539650E+03  0.18971335919E+03 -0.18262959464E+04  0.19288615879E+04  0.12699999809E+01 0. -1.
       -4    1    3    3    0  502  0.59089539650E+03 -0.18971335919E+03  0.19331127990E+04  0.20302894461E+04  0.12699999809E+01 0.  1.
</event>
<event>
 5   0  0.5515000E-08  0.4031787E+04  0.7818609E-02  0.7998165E-01
        1   -1    0    0  501    0  0.00000000000E+00  0.00000000000E+00  0.24104266721E+04  0.24104266721E+04  0.50400001928E-02 0. -1.
       -1   -1    0    0    0  501  0.00000000000E+00  0.00000000000E+00 -0.16859365938E+04  0.16859365938E+04  0.50400001928E-02 0.  1.
    10030    2    1    2    0    0  0.00000000000E+00  0.00000000000E+00  0.72449007831E+03  0.40963632659E+04  0.40317869652E+04 0.  0.
        4    1    3    3  502    0 -0.13522496270E+04 -0.10570334245E+04  0.14365002152E+04  0.22381763102E+04  0.12699999809E+01 0. -1.
       -4    1    3    3    0  502  0.13522496270E+04  0.10570334245E+04 -0.71201013690E+03  0.18581869557E+04  0.12699999809E+01 0.  1.
</event>
<event>
 5   0  0.5515000E-08  0.3991330E+04  0.7818609E-02  0.8006298E-01
        1   -1    0    0  501    0  0.00000000000E+00  0.00000000000E+00  0.30474053711E+04  0.30474053711E+04  0.50400001928E-02 0.  1.
       -1   -1    0    0    0  501  0.00000000000E+00  0.00000000000E+00 -0.13069081700E+04  0.13069081701E+04  0.50400001928E-02 0. -1.
    10030    2    1    2    0    0  0.00000000000E+00  0.00000000000E+00  0.17404972010E+04  0.43543135411E+04  0.39913300925E+04 0.  0.
        1    1    3    3  502    0 -0.87105472841E+03  0.71027731091E+03  0.26692955334E+04  0.28962680889E+04  0.50400001928E-02 0.  1.
       -1    1    3    3    0  502  0.87105472841E+03 -0.71027731091E+03 -0.92879833240E+03  0.14580454522E+04  0.50400001928E-02 0. -1.
</event>
<event>
 5   0  0.5515000E-08  0.3978924E+04  0.7818609E-02  0.8008812E-01
        1   -1    0    0  501    0  0.00000000000E+00  0.00000000000E+00  0.22197829949E+04  0.22197829949E+04  0.50400001928E-02 0. -1.
       -1   -1    0    0    0  501  0.00000000000E+00  0.00000000000E+00 -0.17830384271E+04  0.17830384272E+04  0.50400001928E-02 0.  1.
    10030    2    1    2    0    0  0.00000000000E+00  0.00000000000E+00  0.43674456774E+03  0.40028214220E+04  0.39789236634E+04 0.  0.
        2    1    3    3  502    0 -0.38343644186E+03  0.18614125787E+04  0.81018958721E+03  0.20659834124E+04  0.25500000920E-02 0. -1.
       -2    1    3    3    0  502  0.38343644186E+03 -0.18614125787E+04 -0.37344501948E+03  0.19368380097E+04  0.25500000920E-02 0.  1.
</event>
<event>
 5   0  0.5515000E-08  0.3962665E+04  0.7818609E-02  0.8012121E-01
        1   -1    0    0  501    0  0.00000000000E+00  0.00000000000E+00  0.14265656484E+04  0.14265656484E+04  0.50400001928E-02 0. -1.
       -1   -1    0    0    0  501  0.00000000000E+00  0.00000000000E+00 -0.27518384108E+04  0.27518384109E+04  0.50400001928E-02 0.  1.
    10030    2    1    2    0    0  0.00000000000E+00  0.00000000000E+00 -0.13252727625E+04  0.41784040592E+04  0.39626648341E+04 0.  0.
        2    1    3    3  502    0  0.15789394270E+04  0.55086928561E+03  0.45784086289E+03  0.17338180238E+04  0.25500000920E-02 0. -1.
       -2    1    3    3    0  502 -0.15789394270E+04 -0.55086928561E+03 -0.17831136254E+04  0.24445860355E+04  0.25500000920E-02 0.  1.
</event>
<event>
 5   0  0.1773903E-07  0.4044420E+04  0.7818609E-02  0.7995645E-01
       -2   -1    0    0    0  501  0.00000000000E+00  0.00000000000E+00  0.17017441075E+04  0.17017441075E+04  0.25500000920E-02 0. -1.
        2   -1    0    0  501    0  0.00000000000E+00  0.00000000000E+00 -0.24030252942E+04  0.24030252942E+04  0.25500000920E-02 0.  1.
    10030    2    1    2    0    0  0.00000000000E+00  0.00000000000E+00 -0.70128118678E+03  0.41047694017E+04  0.40444204205E+04 0.  0.
        3    1    3    3  502    0 -0.14930991392E+04  0.13436033015E+04 -0.11322865708E+03  0.20118239511E+04  0.10100000352E+00 0. -1.
       -3    1    3    3    0  502  0.14930991392E+04 -0.13436033015E+04 -0.58805252970E+03  0.20929454506E+04  0.10100000352E+00 0.  1.
</event>
<event>
 5   0  0.1819906E-07  0.3832048E+04  0.7818609E-02  0.8039312E-01
        2   -1    0    0  501    0  0.00000000000E+00  0.00000000000E+00  0.25794100926E+04  0.25794100926E+04  0.25500000920E-02 0.  1.
       -2   -1    0    0    0  501  0.00000000000E+00  0.00000000000E+00 -0.14232509173E+04  0.14232509173E+04  0.25500000920E-02 0. -1.
    10030    2    1    2    0    0  0.00000000000E+00  0.00000000000E+00  0.11561591752E+04  0.40026610099E+04  0.38320479018E+04 0.  0.
        1    1    3    3  502    0  0.55819082666E+03  0.13855258626E+04  0.18314584555E+04  0.23633660295E+04  0.50400001928E-02 0.  1.
       -1    1    3    3    0  502 -0.55819082666E+03 -0.13855258626E+04 -0.67529928027E+03  0.16392949805E+04  0.50400001928E-02 0. -1.
</event>
<event>
 5   0  0.1773903E-07  0.4014785E+04  0.7818609E-02  0.8001571E-01
        2   -1    0    0  501    0  0.00000000000E+00  0.00000000000E+00  0.21888983728E+04  0.21888983728E+04  0.25500000920E-02 0. -1.
       -2   -1    0    0    0  501  0.00000000000E+00  0.00000000000E+00 -0.18409370699E+04  0.18409370699E+04  0.25500000920E-02 0.  1.
    10030    2    1    2    0    0  0.00000000000E+00  0.00000000000E+00  0.34796130286E+03  0.40298354427E+04  0.40147847548E+04 0.  0.
        3    1    3    3  502    0 -0.94847036606E+03 -0.10205535266E+04 -0.12766008714E+04  0.18896654018E+04  0.10100000352E+00 0.  1.
       -3    1    3    3    0  502  0.94847036606E+03  0.10205535266E+04  0.16245621742E+04  0.21401700409E+04  0.10100000352E+00 0. -1.
</event>
<event>
 5   0  0.5515000E-08  0.4037644E+04  0.7818609E-02  0.7996995E-01
        1   -1    0    0  501    0  0.00000000000E+00  0.00000000000E+00  0.29771007675E+04  0.29771007675E+04  0.50400001928E-02 0.  1.
       -1   -1    0    0    0  501  0.00000000000E+00  0.00000000000E+00 -0.13689971940E+04  0.13689971940E+04  0.50400001928E-02 0. -1.
    10030    2    1    2    0    0  0.00000000000E+00  0.00000000000E+00  0.16081035735E+04  0.43460979615E+04  0.40376441631E+04 0.  0.
        1    1    3    3  502    0  0.14674393965E+04  0.11917055635E+03  0.22909039117E+04  0.27232004584E+04  0.50400001928E-02 0.  1.
       -1    1    3    3    0  502 -0.14674393965E+04 -0.11917055635E+03 -0.68280033822E+03  0.16228975031E+04  0.50400001928E-02 0. -1.
</event>
<event>
 5   0  0.1785559E-07  0.3724685E+04  0.7818609E-02  0.8062513E-01
       -2   -1    0    0    0  501  0.00000000000E+00  0.00000000000E+00  0.16100741312E+04  0.16100741312E+04  0.25500000920E-02 0. -1.
        2   -1    0    0  501    0  0.00000000000E+00  0.00000000000E+00 -0.21541363519E+04  0.21541363519E+04  0.25500000920E-02 0.  1.
    10030    2    1    2    0    0  0.00000000000E+00  0.00000000000E+00 -0.54406222067E+03  0.37642104832E+04  0.37246848003E+04 0.  0.
        2    1    3    3  502    0  0.15798747870E+04 -0.97004532056E+03 -0.93158674514E+02  0.18562518162E+04  0.25500000920E-02 0. -1.
       -2    1    3    3    0  502 -0.15798747870E+04  0.97004532056E+03 -0.45090354616E+03  0.19079586669E+04  0.25500000920E-02 0.  1.
</event>
<event>
 5   0  0.1785559E-07  0.4028379E+04  0.7818609E-02  0.7998846E-01
        2   -1    0    0  501    0  0.00000000000E+00  0.00000000000E+00  0.17258213069E+04  0.17258213069E+04  0.25500000920E-02 0. -1.
       -2   -1    0    0    0  501  0.00000000000E+00  0.00000000000E+00 -0.23507417464E+04  0.23507417464E+04  0.25500000920E-02 0.  1.
    10030    2    1    2    0    0  0.00000000000E+00  0.00000000000E+00 -0.62492043950E+03  0.40765630534E+04  0.40283794226E+04 0.  0.
        2    1    3    3  502    0 -0.23813107936E+03 -0.67305552562E+03 -0.22184022900E+04  0.23304546491E+04  0.25500000920E-02 0.  1.
       -2    1    3    3    0  502  0.23813107936E+03  0.67305552562E+03  0.15934818505E+04  0.17461084042E+04  0.25500000920E-02 0. -1.
</event>
<event>
 5   0  0.5515000E-08  0.4013086E+04  0.7818609E-02  0.8001912E-01
        1   -1    0    0  501    0  0.00000000000E+00  0.00000000000E+00  0.14721518721E+04  0.14721518721E+04  0.50400001928E-02 0.  1.
       -1   -1    0    0    0  501  0.00000000000E+00  0.00000000000E+00 -0.27349180053E+04  0.27349180053E+04  0.50400001928E-02 0. -1.
    10030    2    1    2    0    0  0.00000000000E+00  0.00000000000E+00 -0.12627661332E+04  0.42070698774E+04  0.40130859256E+04 0.  0.
        1    1    3    3  502    0  0.11548651247E+04 -0.16363700659E+04 -0.75889393254E+03  0.21418077527E+04  0.50400001928E-02 0.  1.
       -1    1    3    3    0  502 -0.11548651247E+04  0.16363700659E+04 -0.50387220066E+03  0.20652621246E+04  0.50400001928E-02 0. -1.
</event>
<event>
 5   0  0.5515000E-08  0.4090761E+04  0.7818609E-02  0.7986483E-01
        1   -1    0    0  501    0  0.00000000000E+00  0.00000000000E+00  0.17986431342E+04  0.17986431342E+04  0.50400001928E-02 0. -1.
       -1   -1    0    0    0  501  0.00000000000E+00  0.00000000000E+00 -0.23259655831E+04  0.23259655831E+04  0.50400001928E-02 0.  1.
    10030    2    1    2    0    0  0.00000000000E+00  0.00000000000E+00 -0.52732244889E+03  0.41246087173E+04  0.40907613112E+04 0.  0.
        4    1    3    3  502    0 -0.45266908568E+03  0.18303880758E+04 -0.10629056833E+04  0.21644860622E+04  0.12699999809E+01 0. -1.
       -4    1    3    3    0  502  0.45266908568E+03 -0.18303880758E+04  0.53558323436E+03  0.19601226551E+04  0.12699999809E+01 0.  1.
</event>
<event>
 5   0  0.5515000E-08  0.3988566E+04  0.7818609E-02  0.8006857E-01
       -3   -1    0    0    0  501  0.00000000000E+00  0.00000000000E+00  0.18688455879E+04  0.18688455907E+04  0.10100000352E+00 0.  1.
        3   -1    0    0  501    0  0.00000000000E+00  0.00000000000E+00 -0.21281400652E+04  0.21281400676E+04  0.10100000352E+00 0. -1.
    10030    2    1    2    0    0  0.00000000000E+00  0.00000000000E+00 -0.25929447726E+03  0.39969856583E+04  0.39885662495E+04 0.  0.
        3    1    3    3  502    0  0.54856936256E+03  0.18624051198E+04  0.32703833748E+03  0.19688664912E+04  0.10100000352E+00 0. -1.
       -3    1    3    3    0  502 -0.54856936256E+03 -0.18624051198E+04 -0.58633281474E+03  0.20281191670E+04  0.10100000352E+00 0.  1.
</event>
<event>
 5   0  0.1776653E-07  0.4013573E+04  0.7818609E-02  0.8001814E-01
        2   -1    0    0  501    0  0.00000000000E+00  0.00000000000E+00  0.13475066520E+04  0.13475066520E+04  0.25500000920E-02 0.  1.
       -2   -1    0    0    0  501  0.00000000000E+00  0.00000000000E+00 -0.29886251591E+04  0.29886251591E+04  0.25500000920E-02 0. -1.
    10030    2    1    2    0    0  0.00000000000E+00  0.00000000000E+00 -0.16411185072E+04  0.43361318111E+04  0.40135731124E+04 0.  0.
        4    1    3    3  502    0  0.38415004806E+03  0.16449816900E+04  0.34986000356E+03  0.17250912019E+04  0.12699999809E+01 0.  1.
       -4    1    3    3    0  502 -0.38415004806E+03 -0.16449816900E+04 -0.19909785107E+04  0.26110406092E+04  0.12699999809E+01 0. -1.
</event>
<event>
 5   0  0.5515000E-08  0.3986937E+04  0.7818609E-02  0.8007187E-01
        1   -1    0    0  501    0  0.00000000000E+00  0.00000000000E+00  0.21744405646E+04  0.21744405646E+04  0.50400001928E-02 0. -1.
       -1   -1    0    0    0  501  0.00000000000E+00  0.00000000000E+00 -0.18275578862E+04  0.18275578862E+04  0.50400001928E-02 0.  1.
    10030    2    1    2    0    0  0.00000000000E+00  0.00000000000E+00  0.34688267839E+03  0.40019984508E+04  0.39869366697E+04 0.  0.
        5    1    3    3  502    0 -0.52645731739E+03 -0.10890051221E+04  0.17639792452E+04  0.21388628592E+04  0.46999998093E+01 0. -1.
       -5    1    3    3    0  502  0.52645731739E+03  0.10890051221E+04 -0.14170965668E+04  0.18631355916E+04  0.46999998093E+01 0.  1.
</event>
<event>
 5   0  0.1773903E-07  0.3997549E+04  0.7818609E-02  0.8005041E-01
       -2   -1    0    0    0  501  0.00000000000E+00  0.00000000000E+00  0.20321025593E+04  0.20321025593E+04  0.25500000920E-02 0.  1.
        2   -1    0    0  501    0  0.00000000000E+00  0.00000000000E+00 -0.19659935146E+04  0.19659935146E+04  0.25500000920E-02 0. -1.
    10030    2    1    2    0    0  0.00000000000E+00  0.00000000000E+00  0.66109044703E+02  0.39980960739E+04  0.39975494757E+04 0.  0.
        3    1    3    3  502    0 -0.46494881177E+03 -0.17652840958E+04 -0.78111766060E+03  0.19855855928E+04  0.10100000352E+00 0. -1.
       -3    1    3    3    0  502  0.46494881177E+03  0.17652840958E+04  0.84722670530E+03  0.20125104811E+04  0.10100000352E+00 0.  1.
</event>
<event>
 5   0  0.5515000E-08  0.3652046E+04  0.7818609E-02  0.8078673E-01
       -3   -1    0    0    0  501  0.00000000000E+00  0.00000000000E+00  0.21910710545E+04  0.21910710569E+04  0.10100000352E+00 0.  1.
        3   -1    0    0  501    0  0.00000000000E+00  0.00000000000E+00 -0.15217943656E+04  0.15217943690E+04  0.10100000352E+00 0. -1.
    10030    2    1    2    0    0  0.00000000000E+00  0.00000000000E+00  0.66927668892E+03  0.37128654258E+04  0.36520457806E+04 0.  0.
        2    1    3    3  502    0  0.10175244416E+04 -0.63963011563E+02  0.18747636115E+04  0.21340538548E+04  0.25500000920E-02 0.  1.
       -2    1    3    3    0  502 -0.10175244416E+04  0.63963011563E+02 -0.12054869226E+04  0.15788115710E+04  0.25500000920E-02 0. -1.
</event>
<event>
 5   0  0.5515000E-08  0.3989595E+04  0.7818609E-02  0.8006649E-01
       -1   -1    0    0    0  501  0.00000000000E+00  0.00000000000E+00  0.30616472336E+04  0.30616472336E+04  0.50400001928E-02 0. -1.
        1   -1    0    0  501    0  0.00000000000E+00  0.00000000000E+00 -0.12996980419E+04  0.12996980419E+04  0.50400001928E-02 0.  1.
    10030    2    1    2    0    0  0.00000000000E+00  0.00000000000E+00  0.17619491917E+04  0.43613452755E+04  0.39895949241E+04 0.  0.
        3    1    3    3  502    0 -0.15627222043E+04  0.28531253496E+03  0.21999282748E+04  0.27135195512E+04  0.10100000352E+00 0. -1.
       -3    1    3    3    0  502  0.15627222043E+04 -0.28531253496E+03 -0.43797908308E+03  0.16478257243E+04  0.10100000352E+00 0.  1.
</event>
<event>
 5   0  0.5515000E-08  0.4008098E+04  0.7818609E-02  0.8002915E-01
       -1   -1    0    0    0  501  0.00000000000E+00  0.00000000000E+00  0.22093619751E+04  0.22093619751E+04  0.50400001928E-02 0.  1.
        1   -1    0    0  501    0  0.00000000000E+00  0.00000000000E+00 -0.18178157486E+04  0.18178157486E+04  0.50400001928E-02 0. -1.
    10030    2    1    2    0    0  0.00000000000E+00  0.00000000000E+00  0.39154622651E+03  0.40271777237E+04  0.40080982986E+04 0.  0.
        3    1    3    3  502    0 -0.63822836040E+03  0.16284861407E+04  0.11786476330E+04  0.21091497821E+04  0.10100000352E+00 0.  1.
       -3    1    3    3    0  502  0.63822836040E+03 -0.16284861407E+04 -0.78710140652E+03  0.19180279416E+04  0.10100000352E+00 0. -1.
</event>
<event>
 5   0  0.1776653E-07  0.3954663E+04  0.7818609E-02  0.8013756E-01
        2   -1    0    0  501    0  0.00000000000E+00  0.00000000000E+00  0.23914746007E+04  0.23914746007E+04  0.25500000920E-02 0. -1.
       -2   -1    0    0    0  501  0.00000000000E+00  0.00000000000E+00 -0.16349071337E+04  0.16349071337E+04  0.25500000920E-02 0.  1.
    10030    2    1    2    0    0  0.00000000000E+00  0.00000000000E+00  0.75656746705E+03  0.40263817344E+04  0.39546625063E+04 0.  0.
        4    1    3    3  502    0  0.11909144635E+04 -0.97976628138E+02 -0.12257110874E+04  0.17117961215E+04  0.12699999809E+01 0.  1.
       -4    1    3    3    0  502 -0.11909144635E+04  0.97976628138E+02  0.19822785544E+04  0.23145856129E+04  0.12699999809E+01 0. -1.
</event>
<event>
 5   0  0.1773903E-07  0.4044249E+04  0.7818609E-02  0.7995679E-01
       -2   -1    0    0    0  501  0.00000000000E+00  0.00000000000E+00  0.17180793429E+04  0.17180793429E+04  0.25500000920E-02 0. -1.
        2   -1    0    0  501    0  0.00000000000E+00  0.00000000000E+00 -0.23799762381E+04  0.23799762381E+04  0.25500000920E-02 0.  1.
    10030    2    1    2    0    0  0.00000000000E+00  0.00000000000E+00 -0.66189689517E+03  0.40980555810E+04  0.40442492560E+04 0.  0.
        3    1    3    3  502    0  0.15638940637E+04  0.65483955306E+03  0.78571508267E+03  0.18686700308E+04  0.10100000352E+00 0. -1.
       -3    1    3    3    0  502 -0.15638940637E+04 -0.65483955306E+03 -0.14476119778E+04  0.22293855502E+04  0.10100000352E+00 0.  1.
</event>
<event>
 5   0  0.1785559E-07  0.3998521E+04  0.7818609E-02  0.8004845E-01
        2   -1    0    0  501    0  0.00000000000E+00  0.00000000000E+00  0.24692728793E+04  0.24692728793E+04  0.25500000920E-02 0.  1.
       -2   -1    0    0    0  501  0.00000000000E+00  0.00000000000E+00 -0.16187124006E+04  0.16187124006E+04  0.25500000920E-02 0. -1.
    10030    2    1    2    0    0  0.00000000000E+00  0.00000000000E+00  0.85056047869E+03  0.40879852799E+04  0.39985210417E+04 0.  0.
        2    1    3    3  502    0 -0.11125542122E+04  0.16491934392E+04  0.62828464156E+03  0.20862304441E+04  0.25500000920E-02 0. -1.
       -2    1    3    3    0  502  0.11125542122E+04 -0.16491934392E+04  0.22227583713E+03  0.20017548358E+04  0.25500000920E-02 0.  1.
</event>
<event>
 5   0  0.1819906E-07  0.3655455E+04  0.7818609E-02  0.8077906E-01
       -2   -1    0    0    0  501  0.00000000000E+00  0.00000000000E+00  0.15669574321E+04  0.15669574321E+04  0.25500000920E-02 0. -1.
        2   -1    0    0  501    0  0.00000000000E+00  0.00000000000E+00 -0.21318947301E+04  0.21318947301E+04  0.25500000920E-02 0.  1.
    10030    2    1    2    0    0  0.00000000000E+00  0.00000000000E+00 -0.56493729796E+03  0.36988521622E+04  0.36554552612E+04 0.  0.
        1    1    3    3  502    0 -0.47064368450E+03 -0.23825594042E+02  0.15044279820E+04  0.15765077512E+04  0.50400001928E-02 0. -1.
       -1    1    3    3    0  502  0.47064368450E+03  0.23825594042E+02 -0.20693652800E+04  0.21223444109E+04  0.50400001928E-02 0.  1.
</event>
<event>
 5   0  0.1821433E-07  0.4008380E+04  0.7818609E-02  0.8002858E-01
        2   -1    0    0  501    0  0.00000000000E+00  0.00000000000E+00  0.17698760729E+04  0.17698760729E+04  0.25500000920E-02 0. -1.
       -2   -1    0    0    0  501  0.00000000000E+00  0.00000000000E+00 -0.22695249944E+04  0.22695249944E+04  0.25500000920E-02 0.  1.
    10030    2    1    2    0    0  0.00000000000E+00  0.00000000000E+00 -0.49964892150E+03  0.40394010673E+04  0.40083802137E+04 0.  0.
        5    1    3    3  502    0 -0.82613214119E+01 -0.12109504941E+03  0.17661632981E+04  0.17703353202E+04  0.46999998093E+01 0. -1.
       -5    1    3    3    0  502  0.82613214119E+01  0.12109504941E+03 -0.22658122196E+04  0.22690657471E+04  0.46999998093E+01 0.  1.
</event>
<event>
 5   0  0.1773903E-07  0.3994085E+04  0.7818609E-02  0.8005741E-01
       -2   -1    0    0    0  501  0.00000000000E+00  0.00000000000E+00  0.22676320873E+04  0.22676320873E+04  0.25500000920E-02 0.  1.
        2   -1    0    0  501    0  0.00000000000E+00  0.00000000000E+00 -0.17587414133E+04  0.17587414133E+04  0.25500000920E-02 0. -1.
    10030    2    1    2    0    0  0.00000000000E+00  0.00000000000E+00  0.50889067397E+03  0.40263735006E+04  0.39940848574E+04 0.  0.
        3    1    3    3  502    0 -0.64840802597E+03 -0.62578362520E+02 -0.16486266943E+04  0.17726587396E+04  0.10100000352E+00 0. -1.
       -3    1    3    3    0  502  0.64840802597E+03  0.62578362520E+02  0.21575173683E+04  0.22537147610E+04  0.10100000352E+00 0.  1.
</event>
<event>
 5   0  0.5515000E-08  0.3863794E+04  0.7818609E-02  0.8032602E-01
       -1   -1    0    0    0  501  0.00000000000E+00  0.00000000000E+00  0.23334412811E+04  0.23334412811E+04  0.50400001928E-02 0. -1.
        1   -1    0    0  501    0  0.00000000000E+00  0.00000000000E+00 -0.15994515636E+04  0.15994515636E+04  0.50400001928E-02 0.  1.
    10030    2    1    2    0    0  0.00000000000E+00  0.00000000000E+00  0.73398971749E+03  0.39328928447E+04  0.38637941486E+04 0.  0.
        3    1    3    3  502    0 -0.10036422593E+04  0.71995121776E+03 -0.11450330862E+04  0.16842589822E+04  0.10100000352E+00 0.  1.
       -3    1    3    3    0  502  0.10036422593E+04 -0.71995121776E+03  0.18790228037E+04  0.22486338625E+04  0.10100000352E+00 0. -1.
</event>
<event>
 5   0  0.5515000E-08  0.3971645E+04  0.7818609E-02  0.8010291E-01
       -1   -1    0    0    0  501  0.00000000000E+00  0.00000000000E+00  0.19712344621E+04  0.19712344621E+04  0.50400001928E-02 0. -1.
        1   -1    0    0  501    0  0.00000000000E+00  0.00000000000E+00 -0.20005182446E+04  0.20005182446E+04  0.50400001928E-02 0.  1.
    10030    2    1    2    0    0  0.00000000000E+00  0.00000000000E+00 -0.29283782431E+02  0.39717527067E+04  0.39716447504E+04 0.  0.
        5    1    3    3  502    0  0.18988376126E+04  0.10175023948E+03  0.55767692844E+03  0.19816566395E+04  0.46999998093E+01 0. -1.
       -5    1    3    3    0  502 -0.18988376126E+04 -0.10175023948E+03 -0.58696071087E+03  0.19900960672E+04  0.46999998093E+01 0.  1.
</event>
<event>
 5   0  0.5515000E-08  0.3954430E+04  0.7818609E-02  0.8013803E-01
       -1   -1    0    0    0  501  0.00000000000E+00  0.00000000000E+00  0.25734719715E+04  0.25734719715E+04  0.50400001928E-02 0. -1.
        1   -1    0    0  501    0  0.00000000000E+00  0.00000000000E+00 -0.15191068102E+04  0.15191068102E+04  0.50400001928E-02 0.  1.
    10030    2    1    2    0    0  0.00000000000E+00  0.00000000000E+00  0.10543651613E+04  0.40925787818E+04  0.39544298188E+04 0.  0.
        5    1    3    3  502    0  0.15166497304E+04 -0.10054899014E+04  0.13275832985E+04  0.22524954719E+04  0.46999998093E+01 0. -1.
       -5    1    3    3    0  502 -0.15166497304E+04  0.10054899014E+04 -0.27321813723E+03  0.18400833098E+04  0.46999998093E+01 0.  1.
</event>
<event>
 5   0  0.5515000E-08  0.3998951E+04  0.7818609E-02  0.8004758E-01
        1   -1    0    0  501    0  0.00000000000E+00  0.00000000000E+00  0.28456875211E+04  0.28456875211E+04  0.50400001928E-02 0.  1.
       -1   -1    0    0    0  501  0.00000000000E+00  0.00000000000E+00 -0.14048982038E+04  0.14048982038E+04  0.50400001928E-02 0. -1.
    10030    2    1    2    0    0  0.00000000000E+00  0.00000000000E+00  0.14407893173E+04  0.42505857249E+04  0.39989505058E+04 0.  0.
        5    1    3    3  502    0 -0.16665778076E+04  0.71586291775E+03 -0.17394055143E+03  0.18221467315E+04  0.46999998093E+01 0. -1.
       -5    1    3    3    0  502  0.16665778076E+04 -0.71586291775E+03  0.16147298687E+04  0.24284389934E+04  0.46999998093E+01 0.  1.
</event>
<event>
 5   0  0.1785559E-07  0.4006234E+04  0.7818609E-02  0.8003290E-01
       -2   -1    0    0    0  501  0.00000000000E+00  0.00000000000E+00  0.16352270052E+04  0.16352270052E+04  0.25500000920E-02 0. -1.
        2   -1    0    0  501    0  0.00000000000E+00  0.00000000000E+00 -0.24537743550E+04  0.24537743550E+04  0.25500000920E-02 0.  1.
    10030    2    1    2    0    0  0.00000000000E+00  0.00000000000E+00 -0.81854734971E+03  0.40890013602E+04  0.40062341869E+04 0.  0.
        2    1    3    3  502    0  0.16418176770E+04 -0.66743201031E+03 -0.13620731099E+04  0.22352346476E+04  0.25500000920E-02 0. -1.
       -2    1    3    3    0  502 -0.16418176770E+04  0.66743201031E+03  0.54352576019E+03  0.18537667126E+04  0.25500000920E-02 0.  1.
</event>
<event>
 5   0  0.1773903E-07  0.4069868E+04  0.7818609E-02  0.7990598E-01
       -2   -1    0    0    0  501  0.00000000000E+00  0.00000000000E+00  0.15881734575E+04  0.15881734575E+04  0.25500000920E-02 0. -1.
        2   -1    0    0  501    0  0.00000000000E+00  0.00000000000E+00 -0.26073699456E+04  0.26073699456E+04  0.25500000920E-02 0.  1.
    10030    2    1    2    0    0  0.00000000000E+00  0.00000000000E+00 -0.10191964881E+04  0.41955434030E+04  0.40698676840E+04 0.  0.
        3    1    3    3  502    0  0.35332519396E+01  0.32066368787E+03  0.15619613595E+04  0.15945409946E+04  0.10100000352E+00 0. -1.
       -3    1    3    3    0  502 -0.35332519396E+01 -0.32066368787E+03 -0.25811578476E+04  0.26010024085E+04  0.10100000352E+00 0.  1.
</event>
<event>
 5   0  0.5515000E-08  0.4013405E+04  0.7818609E-02  0.8001848E-01
        1   -1    0    0  501    0  0.00000000000E+00  0.00000000000E+00  0.22415531836E+04  0.22415531836E+04  0.50400001928E-02 0.  1.
       -1   -1    0    0    0  501  0.00000000000E+00  0.00000000000E+00 -0.17964573413E+04  0.17964573413E+04  0.50400001928E-02 0. -1.
    10030    2    1    2    0    0  0.00000000000E+00  0.00000000000E+00  0.44509584236E+03  0.40380105249E+04  0.40134048750E+04 0.  0.
        3    1    3    3  502    0 -0.55508056775E+03  0.11168604065E+04  0.18042429439E+04  0.21933499984E+04  0.10100000352E+00 0.  1.
       -3    1    3    3    0  502  0.55508056775E+03 -0.11168604065E+04 -0.13591471016E+04  0.18446605266E+04  0.10100000352E+00 0. -1.
</event>
<event>
 5   0  0.5515000E-08  0.3982185E+04  0.7818609E-02  0.8008150E-01
        1   -1    0    0  501    0  0.00000000000E+00  0.00000000000E+00  0.16111635146E+04  0.16111635147E+04  0.50400001928E-02 0.  1.
       -1   -1    0    0    0  501  0.00000000000E+00  0.00000000000E+00 -0.24606122008E+04  0.24606122008E+04  0.50400001928E-02 0. -1.
    10030    2    1    2    0    0  0.00000000000E+00  0.00000000000E+00 -0.84944868616E+03  0.40717757155E+04  0.39821846274E+04 0.  0.
        2    1    3    3  502    0 -0.57475435555E+03 -0.24493251615E+03 -0.23577902550E+04  0.24391616169E+04  0.25500000920E-02 0. -1.
       -2    1    3    3    0  502  0.57475435555E+03  0.24493251615E+03  0.15083415688E+04  0.16326140986E+04  0.25500000920E-02 0.  1.
</event>
<event>
 5   0  0.1785559E-07  0.3976355E+04  0.7818609E-02  0.8009333E-01
        2   -1    0    0  501    0  0.00000000000E+00  0.00000000000E+00  0.20881973561E+04  0.20881973561E+04  0.25500000920E-02 0.  1.
       -2   -1    0    0    0  501  0.00000000000E+00  0.00000000000E+00 -0.18929486191E+04  0.18929486191E+04  0.25500000920E-02 0. -1.
    10030    2    1    2    0    0  0.00000000000E+00  0.00000000000E+00  0.19524873693E+03  0.39811459752E+04  0.39763552666E+04 0.  0.
        2    1    3    3  502    0  0.12339205003E+04  0.12571482767E+04 -0.82536955708E+03  0.19453062731E+04  0.25500000920E-02 0. -1.
       -2    1    3    3    0  502 -0.12339205003E+04 -0.12571482767E+04  0.10206182940E+04  0.20358397021E+04  0.25500000920E-02 0.  1.
</event>
<event>
 5   0  0.5515000E-08  0.3247380E+04  0.7818609E-02  0.8176415E-01
        1   -1    0    0  501    0  0.00000000000E+00  0.00000000000E+00  0.19746540286E+04  0.19746540286E+04  0.50400001928E-02 0.  1.
       -1   -1    0    0    0  501  0.00000000000E+00  0.00000000000E+00 -0.13351041870E+04  0.13351041871E+04  0.50400001928E-02 0. -1.
    10030    2    1    2    0    0  0.00000000000E+00  0.00000000000E+00  0.63954984156E+03  0.33097582157E+04  0.32473797817E+04 0.  0.
        4    1    3    3  502    0 -0.28228237486E+03 -0.77203461244E+03 -0.11073527670E+04  0.13791129560E+04  0.12699999809E+01 0. -1.
       -4    1    3    3    0  502  0.28228237486E+03  0.77203461244E+03  0.17469026086E+04  0.19306452597E+04  0.12699999809E+01 0.  1.
</event>
<event>
 5   0  0.1819906E-07  0.4061273E+04  0.7818609E-02  0.7992299E-01
        2   -1    0    0  501    0  0.00000000000E+00  0.00000000000E+00  0.22797288558E+04  0.22797288558E+04  0.25500000920E-02 0.  1.
       -2   -1    0    0    0  501  0.00000000000E+00  0.00000000000E+00 -0.18087613403E+04  0.18087613403E+04  0.25500000920E-02 0. -1.
    10030    2    1    2    0    0  0.00000000000E+00  0.00000000000E+00  0.47096751557E+03  0.40884901961E+04  0.40612734066E+04 0.  0.
        1    1    3    3  502    0 -0.64335710409E+03 -0.25157723751E+03 -0.16868380613E+04  0.18228061101E+04  0.50400001928E-02 0. -1.
       -1    1    3    3    0  502  0.64335710409E+03  0.25157723751E+03  0.21578055769E+04  0.22656840860E+04  0.50400001928E-02 0.  1.
</event>
<event>
 5   0  0.5515000E-08  0.3863905E+04  0.7818609E-02  0.8032578E-01
       -1   -1    0    0    0  501  0.00000000000E+00  0.00000000000E+00  0.15816842261E+04  0.15816842261E+04  0.50400001928E-02 0.  1.
        1   -1    0    0  501    0  0.00000000000E+00  0.00000000000E+00 -0.23597891306E+04  0.23597891306E+04  0.50400001928E-02 0. -1.
    10030    2    1    2    0    0  0.00000000000E+00  0.00000000000E+00 -0.77810490450E+03  0.39414733567E+04  0.38639054051E+04 0.  0.
        4    1    3    3  502    0 -0.57893000231E+03  0.18011100409E+04 -0.78842491879E+03  0.20495786866E+04  0.12699999809E+01 0. -1.
       -4    1    3    3    0  502  0.57893000231E+03 -0.18011100409E+04  0.10320014285E+02  0.18918946701E+04  0.12699999809E+01 0.  1.
</event>
<event>
 5   0  0.5515000E-08  0.3977455E+04  0.7818609E-02  0.8009110E-01
       -1   -1    0    0    0  501  0.00000000000E+00  0.00000000000E+00  0.31163225735E+04  0.31163225735E+04  0.50400001928E-02 0. -1.
        1   -1    0    0  501    0  0.00000000000E+00  0.00000000000E+00 -0.12691362680E+04  0.12691362680E+04  0.50400001928E-02 0.  1.
    10030    2    1    2    0    0  0.00000000000E+00  0.00000000000E+00  0.18471863056E+04  0.43854588415E+04  0.39774554684E+04 0.  0.
        3    1    3    3  502    0 -0.31449270499E+03  0.12190572174E+04  0.26210033340E+04  0.29076906038E+04  0.10100000352E+00 0. -1.
       -3    1    3    3    0  502  0.31449270499E+03 -0.12190572174E+04 -0.77381702839E+03  0.14777682377E+04  0.10100000352E+00 0.  1.
</event>
<event>
 5   0  0.5515000E-08  0.3984475E+04  0.7818609E-02  0.8007686E-01
       -1   -1    0    0    0  501  0.00000000000E+00  0.00000000000E+00  0.14572382023E+04  0.14572382023E+04  0.50400001928E-02 0.  1.
        1   -1    0    0  501    0  0.00000000000E+00  0.00000000000E+00 -0.27236518126E+04  0.27236518126E+04  0.50400001928E-02 0. -1.
    10030    2    1    2    0    0  0.00000000000E+00  0.00000000000E+00 -0.12664136103E+04  0.41808900149E+04  0.39844746058E+04 0.  0.
        2    1    3    3  502    0  0.87161469974E+02 -0.10767722357E+04  0.11232186499E+04  0.15584144843E+04  0.25500000920E-02 0.  1.
       -2    1    3    3    0  502 -0.87161469974E+02  0.10767722357E+04 -0.23896322602E+04  0.26224755305E+04  0.25500000920E-02 0. -1.
</event>
<event>
 5   0  0.1819906E-07  0.3908003E+04  0.7818609E-02  0.8023367E-01
       -2   -1    0    0    0  501  0.00000000000E+00  0.00000000000E+00  0.23789608270E+04  0.23789608270E+04  0.25500000920E-02 0.  1.
        2   -1    0    0  501    0  0.00000000000E+00  0.00000000000E+00 -0.16049540524E+04  0.16049540524E+04  0.25500000920E-02 0. -1.
    10030    2    1    2    0    0  0.00000000000E+00  0.00000000000E+00  0.77400677452E+03  0.39839148794E+04  0.39080034902E+04 0.  0.
        1    1    3    3  502    0  0.11138209453E+04  0.74582885538E+03 -0.10623248045E+04  0.17103776688E+04  0.50400001928E-02 0. -1.
       -1    1    3    3    0  502 -0.11138209453E+04 -0.74582885538E+03  0.18363315790E+04  0.22735372106E+04  0.50400001928E-02 0.  1.
</event>
<event>
 5   0  0.1821433E-07  0.3903479E+04  0.7818609E-02  0.8024306E-01
       -2   -1    0    0    0  501  0.00000000000E+00  0.00000000000E+00  0.15372436338E+04  0.15372436338E+04  0.25500000920E-02 0. -1.
        2   -1    0    0  501    0  0.00000000000E+00  0.00000000000E+00 -0.24779981862E+04  0.24779981862E+04  0.25500000920E-02 0.  1.
    10030    2    1    2    0    0  0.00000000000E+00  0.00000000000E+00 -0.94075455237E+03  0.40152418200E+04  0.39034789285E+04 0.  0.
        5    1    3    3  502    0  0.18344603606E+03 -0.33110977921E+02  0.15280599250E+04  0.15393953388E+04  0.46999998093E+01 0. -1.
       -5    1    3    3    0  502 -0.18344603606E+03  0.33110977921E+02 -0.24688144773E+04  0.24758464812E+04  0.46999998093E+01 0.  1.
</event>
<event>
 5   0  0.5515000E-08  0.4022701E+04  0.7818609E-02  0.7999983E-01
        1   -1    0    0  501    0  0.00000000000E+00  0.00000000000E+00  0.26285334292E+04  0.26285334292E+04  0.50400001928E-02 0.  1.
       -1   -1    0    0    0  501  0.00000000000E+00  0.00000000000E+00 -0.15390832659E+04  0.15390832659E+04  0.50400001928E-02 0. -1.
    10030    2    1    2    0    0  0.00000000000E+00  0.00000000000E+00  0.10894501633E+04  0.41676166951E+04  0.40227014877E+04 0.  0.
        5    1    3    3  502    0 -0.13611668923E+04  0.11274665455E+04 -0.44983325962E+03  0.18238224068E+04  0.46999998093E+01 0. -1.
       -5    1    3    3    0  502  0.13611668923E+04 -0.11274665455E+04  0.15392834229E+04  0.23437942883E+04  0.46999998093E+01 0.  1.
</event>
<event>
 5   0  0.1776653E-07  0.3965291E+04  0.7818609E-02  0.8011585E-01
       -2   -1    0    0    0  501  0.00000000000E+00  0.00000000000E+00  0.16535368601E+04  0.16535368601E+04  0.25500000920E-02 0. -1.
        2   -1    0    0  501    0  0.00000000000E+00  0.00000000000E+00 -0.23772578141E+04  0.23772578141E+04  0.25500000920E-02 0.  1.
    10030    2    1    2    0    0  0.00000000000E+00  0.00000000000E+00 -0.72372095393E+03  0.40307946742E+04  0.39652911225E+04 0.  0.
        4    1    3    3  502    0  0.15905729103E+04  0.80832577986E+03 -0.12407641056E+04  0.21732026891E+04  0.12699999809E+01 0.  1.
       -4    1    3    3    0  502 -0.15905729103E+04 -0.80832577986E+03  0.51704315171E+03  0.18575919851E+04  0.12699999809E+01 0. -1.
</event>
<event>
 5   0  0.5515000E-08  0.3991626E+04  0.7818609E-02  0.8006238E-01
        1   -1    0    0  501    0  0.00000000000E+00  0.00000000000E+00  0.16398037104E+04  0.16398037104E+04  0.50400001928E-02 0.  1.
       -1   -1    0    0    0  501  0.00000000000E+00  0.00000000000E+00 -0.24291133319E+04  0.24291133319E+04  0.50400001928E-02 0. -1.
    10030    2    1    2    0    0  0.00000000000E+00  0.00000000000E+00 -0.78930962152E+03  0.40689170423E+04  0.39916257613E+04 0.  0.
        1    1    3    3  502    0 -0.16790764313E+04 -0.27643900790E+03 -0.14577060731E+04  0.22406747160E+04  0.50400001928E-02 0. -1.
       -1    1    3    3    0  502  0.16790764313E+04  0.27643900790E+03  0.66839645156E+03  0.18282423263E+04  0.50400001928E-02 0.  1.
</event>
<event>
 5   0  0.5515000E-08  0.3938801E+04  0.7818609E-02  0.8017007E-01
        3   -1    0    0  501    0  0.00000000000E+00  0.00000000000E+00  0.29772578467E+04  0.29772578484E+04  0.10100000352E+00 0. -1.
       -3   -1    0    0    0  501  0.00000000000E+00  0.00000000000E+00 -0.13027215850E+04  0.13027215889E+04  0.10100000352E+00 0.  1.
    10030    2    1    2    0    0  0.00000000000E+00  0.00000000000E+00  0.16745362617E+04  0.42799794373E+04  0.39388008698E+04 0.  0.
        3    1    3    3  502    0 -0.19050150266E+03  0.36082403029E+03 -0.12562887103E+04  0.13208883894E+04  0.10100000352E+00 0.  1.
       -3    1    3    3    0  502  0.19050150266E+03 -0.36082403029E+03  0.29308249720E+04  0.29590910479E+04  0.10100000352E+00 0. -1.
</event>
<event>
 5   0  0.5515000E-08  0.3982508E+04  0.7818609E-02  0.8008085E-01
        1   -1    0    0  501    0  0.00000000000E+00  0.00000000000E+00  0.13717975463E+04  0.13717975463E+04  0.50400001928E-02 0. -1.
       -1   -1    0    0    0  501  0.00000000000E+00  0.00000000000E+00 -0.28904356512E+04  0.28904356512E+04  0.50400001928E-02 0.  1.
    10030    2    1    2    0    0  0.00000000000E+00  0.00000000000E+00 -0.15186381049E+04  0.42622331974E+04  0.39825080208E+04 0.  0.
        2    1    3    3  502    0 -0.29381584812E+03  0.17854289659E+04  0.13033701574E+03  0.18141312197E+04  0.25500000920E-02 0.  1.
       -2    1    3    3    0  502  0.29381584812E+03 -0.17854289659E+04 -0.16489751206E+04  0.24481019777E+04  0.25500000920E-02 0. -1.
</event>
<event>
 5   0  0.5515000E-08  0.4016081E+04  0.7818609E-02  0.8001310E-01
       -1   -1    0    0    0  501  0.00000000000E+00  0.00000000000E+00  0.19037655987E+04  0.19037655987E+04  0.50400001928E-02 0. -1.
        1   -1    0    0  501    0  0.00000000000E+00  0.00000000000E+00 -0.21180265755E+04  0.21180265755E+04  0.50400001928E-02 0.  1.
    10030    2    1    2    0    0  0.00000000000E+00  0.00000000000E+00 -0.21426097686E+03  0.40217921742E+04  0.40160807420E+04 0.  0.
        2    1    3    3  502    0 -0.47056460722E+03  0.11990328946E+04  0.14355521773E+04  0.19287096686E+04  0.25500000920E-02 0. -1.
       -2    1    3    3    0  502  0.47056460722E+03 -0.11990328946E+04 -0.16498131541E+04  0.20930825057E+04  0.25500000920E-02 0.  1.
</event>
<event>
 5   0  0.5515000E-08  0.3989931E+04  0.7818609E-02  0.8006581E-01
        1   -1    0    0  501    0  0.00000000000E+00  0.00000000000E+00  0.24137989568E+04  0.24137989568E+04  0.50400001928E-02 0. -1.
       -1   -1    0    0    0  501  0.00000000000E+00  0.00000000000E+00 -0.16488068441E+04  0.16488068441E+04  0.50400001928E-02 0.  1.
    10030    2    1    2    0    0  0.00000000000E+00  0.00000000000E+00  0.76499211268E+03  0.40626058010E+04  0.39899314482E+04 0.  0.
        4    1    3    3  502    0 -0.45692448070E+03  0.17211809561E+04  0.12981209725E+04  0.22037158476E+04  0.12699999809E+01 0. -1.
       -4    1    3    3    0  502  0.45692448070E+03 -0.17211809561E+04 -0.53312885978E+03  0.18588899534E+04  0.12699999809E+01 0.  1.
</event>
<event>
 5   0  0.5515000E-08  0.4014418E+04  0.7818609E-02  0.8001644E-01
       -1   -1    0    0    0  501  0.00000000000E+00  0.00000000000E+00  0.28097498842E+04  0.28097498842E+04  0.50400001928E-02 0.  1.
        1   -1    0    0  501    0  0.00000000000E+00  0.00000000000E+00 -0.14338958285E+04  0.14338958286E+04  0.50400001928E-02 0. -1.
    10030    2    1    2    0    0  0.00000000000E+00  0.00000000000E+00  0.13758540557E+04  0.42436457128E+04  0.40144183331E+04 0.  0.
        2    1    3    3  502    0  0.79712089867E+03  0.54478799519E+03  0.25481524040E+04  0.27249360288E+04  0.25500000920E-02 0.  1.
       -2    1    3    3    0  502 -0.79712089867E+03 -0.54478799519E+03 -0.11722983483E+04  0.15187096840E+04  0.25500000920E-02 0. -1.
</event>
<event>
 5   0  0.5515000E-08  0.3991616E+04  0.7818609E-02  0.8006240E-01
        1   -1    0    0  501    0  0.00000000000E+00  0.00000000000E+00  0.14169044862E+04  0.14169044862E+04  0.50400001928E-02 0. -1.
       -1   -1    0    0    0  501  0.00000000000E+00  0.00000000000E+00 -0.28112332554E+04  0.28112332554E+04  0.50400001928E-02 0.  1.
    10030    2    1    2    0    0  0.00000000000E+00  0.00000000000E+00 -0.13943287693E+04  0.42281377416E+04  0.39916157187E+04 0.  0.
        2    1    3    3  502    0  0.22778933108E+03  0.19786443190E+04 -0.56181297280E+03  0.20694335304E+04  0.25500000920E-02 0. -1.
       -2    1    3    3    0  502 -0.22778933108E+03 -0.19786443190E+04 -0.83251579645E+03  0.21587042112E+04  0.25500000920E-02 0.  1.
</event>
<event>
 5   0  0.1819906E-07  0.3902661E+04  0.7818609E-02  0.8024476E-01
       -2   -1    0    0    0  501  0.00000000000E+00  0.00000000000E+00  0.19066090295E+04  0.19066090295E+04  0.25500000920E-02 0. -1.
        2   -1    0    0  501    0  0.00000000000E+00  0.00000000000E+00 -0.19971011907E+04  0.19971011907E+04  0.25500000920E-02 0.  1.
    10030    2    1    2    0    0  0.00000000000E+00  0.00000000000E+00 -0.90492161167E+02  0.39037102202E+04  0.39026612269E+04 0.  0.
        1    1    3    3  502    0  0.27565881462E+03  0.16758372168E+03 -0.19702422703E+04  0.19964785723E+04  0.50400001928E-02 0.  1.
       -1    1    3    3    0  502 -0.27565881462E+03 -0.16758372168E+03  0.18797501091E+04  0.19072316479E+04  0.50400001928E-02 0. -1.
</event>
<event>
 5   0  0.5515000E-08  0.3912318E+04  0.7818609E-02  0.8022472E-01
        3   -1    0    0  501    0  0.00000000000E+00  0.00000000000E+00  0.29183994151E+04  0.29183994168E+04  0.10100000352E+00 0. -1.
       -3   -1    0    0    0  501  0.00000000000E+00  0.00000000000E+00 -0.13111836714E+04  0.13111836753E+04  0.10100000352E+00 0.  1.
    10030    2    1    2    0    0  0.00000000000E+00  0.00000000000E+00  0.16072157437E+04  0.42295830921E+04  0.39123178151E+04 0.  0.
        3    1    3    3  502    0 -0.17052042481E+04 -0.40421356693E+03  0.17432567200E+04  0.24718523696E+04  0.10100000352E+00 0.  1.
       -3    1    3    3    0  502  0.17052042481E+04  0.40421356693E+03 -0.13604097626E+03  0.17577307225E+04  0.10100000352E+00 0. -1.
</event>
<event>
 5   0  0.5515000E-08  0.4016775E+04  0.7818609E-02  0.8001171E-01
        1   -1    0    0  501    0  0.00000000000E+00  0.00000000000E+00  0.22237675027E+04  0.22237675027E+04  0.50400001928E-02 0.  1.
       -1   -1    0    0    0  501  0.00000000000E+00  0.00000000000E+00 -0.18138675940E+04  0.18138675940E+04  0.50400001928E-02 0. -1.
    10030    2    1    2    0    0  0.00000000000E+00  0.00000000000E+00  0.40989990872E+03  0.40376350967E+04  0.40167747309E+04 0.  0.
        2    1    3    3  502    0  0.64477941615E+03 -0.18893798536E+04  0.42545895029E+03  0.20412035776E+04  0.25500000920E-02 0.  1.
       -2    1    3    3    0  502 -0.64477941615E+03  0.18893798536E+04 -0.15559041570E+02  0.19964315191E+04  0.25500000920E-02 0. -1.
</event>
<event>
 5   0  0.5515000E-08  0.3975159E+04  0.7818609E-02  0.8009577E-01
       -1   -1    0    0    0  501  0.00000000000E+00  0.00000000000E+00  0.16669787085E+04  0.16669787085E+04  0.50400001928E-02 0.  1.
        1   -1    0    0  501    0  0.00000000000E+00  0.00000000000E+00 -0.23698393687E+04  0.23698393687E+04  0.50400001928E-02 0. -1.
    10030    2    1    2    0    0  0.00000000000E+00  0.00000000000E+00 -0.70286066017E+03  0.40368180772E+04  0.39751587491E+04 0.  0.
        1    1    3    3  502    0 -0.42415920370E+03  0.17220182180E+04  0.55982558147E+03  0.18597479547E+04  0.50400001928E-02 0.  1.
       -1    1    3    3    0  502  0.42415920370E+03 -0.17220182180E+04 -0.12626862416E+04  0.21770701225E+04  0.50400001928E-02 0. -1.
</event>
<event>
 5   0  0.1821433E-07  0.3866399E+04  0.7818609E-02  0.8032054E-01
       -2   -1    0    0    0  501  0.00000000000E+00  0.00000000000E+00  0.23318309941E+04  0.23318309941E+04  0.25500000920E-02 0.  1.
        2   -1    0    0  501    0  0.00000000000E+00  0.00000000000E+00 -0.16027147281E+04  0.16027147281E+04  0.25500000920E-02 0. -1.
    10030    2    1    2    0    0  0.00000000000E+00  0.00000000000E+00  0.72911626599E+03  0.39345457222E+04  0.38663987780E+04 0.  0.
        5    1    3    3  502    0 -0.41554192478E+03 -0.18862307411E+04  0.28128498018E+03  0.19518413947E+04  0.46999998093E+01 0. -1.
       -5    1    3    3    0  502  0.41554192478E+03  0.18862307411E+04  0.44783128581E+03  0.19827043275E+04  0.46999998093E+01 0.  1.
</event>
<event>
 5   0  0.1821433E-07  0.3924867E+04  0.7818609E-02  0.8019877E-01
       -2   -1    0    0    0  501  0.00000000000E+00  0.00000000000E+00  0.14352828377E+04  0.14352828377E+04  0.25500000920E-02 0.  1.
        2   -1    0    0  501    0  0.00000000000E+00  0.00000000000E+00 -0.26831956086E+04  0.26831956086E+04  0.25500000920E-02 0. -1.
    10030    2    1    2    0    0  0.00000000000E+00  0.00000000000E+00 -0.12479127709E+04  0.41184784463E+04  0.39248666766E+04 0.  0.
        5    1    3    3  502    0  0.18460353501E+04  0.34433336182E+03 -0.12218997920E+04  0.22404180791E+04  0.46999998093E+01 0.  1.
       -5    1    3    3    0  502 -0.18460353501E+04 -0.34433336182E+03 -0.26012978889E+02  0.18780603672E+04  0.46999998093E+01 0. -1.
</event>
<event>
 5   0  0.1776653E-07  0.4055840E+04  0.7818609E-02  0.7993376E-01
       -2   -1    0    0    0  501  0.00000000000E+00  0.00000000000E+00  0.21185132741E+04  0.21185132741E+04  0.25500000920E-02 0.  1.
        2   -1    0    0  501    0  0.00000000000E+00  0.00000000000E+00 -0.19412010632E+04  0.19412010632E+04  0.25500000920E-02 0. -1.
    10030    2    1    2    0    0  0.00000000000E+00  0.00000000000E+00  0.17731221085E+03  0.40597143373E+04  0.40558403421E+04 0.  0.
        4    1    3    3  502    0  0.12308143493E+02  0.34170936597E+03 -0.19121383048E+04  0.19424704092E+04  0.12699999809E+01 0. -1.
       -4    1    3    3    0  502 -0.12308143493E+02 -0.34170936597E+03  0.20894505156E+04  0.21172439281E+04  0.12699999809E+01 0.  1.
</event>
<event>
 5   0  0.5515000E-08  0.4008853E+04  0.7818609E-02  0.8002763E-01
        1   -1    0    0  501    0  0.00000000000E+00  0.00000000000E+00  0.26572739874E+04  0.26572739874E+04  0.50400001928E-02 0.  1.
       -1   -1    0    0    0  501  0.00000000000E+00  0.00000000000E+00 -0.15119725457E+04  0.15119725457E+04  0.50400001928E-02 0. -1.
    10030    2    1    2    0    0  0.00000000000E+00  0.00000000000E+00  0.11453014417E+04  0.41692465331E+04  0.40088528611E+04 0.  0.
        5    1    3    3  502    0  0.25662864934E+03 -0.73327422273E+02 -0.14934036937E+04  0.15170734513E+04  0.46999998093E+01 0. -1.
       -5    1    3    3    0  502 -0.25662864934E+03  0.73327422273E+02  0.26387051353E+04  0.26521730818E+04  0.46999998093E+01 0.  1.
</event>
<event>
 5   0  0.1785559E-07  0.3957354E+04  0.7818609E-02  0.8013205E-01
       -2   -1    0    0    0  501  0.00000000000E+00  0.00000000000E+00  0.14776948702E+04  0.14776948702E+04  0.25500000920E-02 0.  1.
        2   -1    0    0  501    0  0.00000000000E+00  0.00000000000E+00 -0.26495069303E+04  0.26495069303E+04  0.25500000920E-02 0. -1.
    10030    2    1    2    0    0  0.00000000000E+00  0.00000000000E+00 -0.11718120601E+04  0.41272018005E+04  0.39573540652E+04 0.  0.
        2    1    3    3  502    0  0.95708685277E+03 -0.16672755747E+04 -0.97468044053E+02  0.19249215843E+04  0.25500000920E-02 0. -1.
       -2    1    3    3    0  502 -0.95708685277E+03  0.16672755747E+04 -0.10743440160E+04  0.22022802162E+04  0.25500000920E-02 0.  1.
</event>
<event>
 5   0  0.5515000E-08  0.3929384E+04  0.7818609E-02  0.8018945E-01
        1   -1    0    0  501    0  0.00000000000E+00  0.00000000000E+00  0.21238185823E+04  0.21238185823E+04  0.50400001928E-02 0. -1.
       -1   -1    0    0    0  501  0.00000000000E+00  0.00000000000E+00 -0.18174881667E+04  0.18174881667E+04  0.50400001928E-02 0.  1.
    10030    2    1    2    0    0  0.00000000000E+00  0.00000000000E+00  0.30633041562E+03  0.39413067490E+04  0.39293842477E+04 0.  0.
        2    1    3    3  502    0 -0.16055613656E+04  0.89710915014E+03  0.84619071436E+03  0.20245174366E+04  0.25500000920E-02 0. -1.
       -2    1    3    3    0  502  0.16055613656E+04 -0.89710915014E+03 -0.53986029873E+03  0.19167893124E+04  0.25500000920E-02 0.  1.
</event>
<event>
 5   0  0.1785559E-07  0.3711816E+04  0.7818609E-02  0.8065348E-01
        2   -1    0    0  501    0  0.00000000000E+00  0.00000000000E+00  0.18201670698E+04  0.18201670698E+04  0.25500000920E-02 0.  1.
       -2   -1    0    0    0  501  0.00000000000E+00  0.00000000000E+00 -0.18923509673E+04  0.18923509673E+04  0.25500000920E-02 0. -1.
    10030    2    1    2    0    0  0.00000000000E+00  0.00000000000E+00 -0.72183897532E+02  0.37125180371E+04  0.37118162213E+04 0.  0.
        2    1    3    3  502    0  0.47276843179E+03  0.11552167484E+04 -0.14097995551E+04  0.18829685370E+04  0.25500000920E-02 0. -1.
       -2    1    3    3    0  502 -0.47276843179E+03 -0.11552167484E+04  0.13376156576E+04  0.18295495001E+04  0.25500000920E-02 0.  1.
</event>
<event>
 5   0  0.5515000E-08  0.3987493E+04  0.7818609E-02  0.8007074E-01
        1   -1    0    0  501    0  0.00000000000E+00  0.00000000000E+00  0.16963426761E+04  0.16963426762E+04  0.50400001928E-02 0. -1.
       -1   -1    0    0    0  501  0.00000000000E+00  0.00000000000E+00 -0.23432912794E+04  0.23432912794E+04  0.50400001928E-02 0.  1.
    10030    2    1    2    0    0  0.00000000000E+00  0.00000000000E+00 -0.64694860329E+03  0.40396339556E+04  0.39874929467E+04 0.  0.
        5    1    3    3  502    0 -0.15502419889E+04  0.12170853313E+04 -0.18782525091E+02  0.19710204974E+04  0.46999998093E+01 0. -1.
       -5    1    3    3    0  502  0.15502419889E+04 -0.12170853313E+04 -0.62816607820E+03  0.20686134582E+04  0.46999998093E+01 0.  1.
</event>
<event>
 5   0  0.1776653E-07  0.4002541E+04  0.7818609E-02  0.8004034E-01
        2   -1    0    0  501    0  0.00000000000E+00  0.00000000000E+00  0.18637729597E+04  0.18637729597E+04  0.25500000920E-02 0. -1.
       -2   -1    0    0    0  501  0.00000000000E+00  0.00000000000E+00 -0.21489117224E+04  0.21489117224E+04  0.25500000920E-02 0.  1.
    10030    2    1    2    0    0  0.00000000000E+00  0.00000000000E+00 -0.28513876276E+03  0.40126846821E+04  0.40025409734E+04 0.  0.
        4    1    3    3  502    0  0.10341455620E+04  0.60232279468E+03 -0.17506394751E+04  0.21206107557E+04  0.12699999809E+01 0.  1.
       -4    1    3    3    0  502 -0.10341455620E+04 -0.60232279468E+03  0.14655007123E+04  0.18920739264E+04  0.12699999809E+01 0. -1.
</event>
<event>
 5   0  0.5515000E-08  0.3996123E+04  0.7818609E-02  0.8005329E-01
        1   -1    0    0  501    0  0.00000000000E+00  0.00000000000E+00  0.18455916143E+04  0.18455916143E+04  0.50400001928E-02 0. -1.
       -1   -1    0    0    0  501  0.00000000000E+00  0.00000000000E+00 -0.21631276085E+04  0.21631276085E+04  0.50400001928E-02 0.  1.
    10030    2    1    2    0    0  0.00000000000E+00  0.00000000000E+00 -0.31753599419E+03  0.40087192228E+04  0.39961232087E+04 0.  0.
        1    1    3    3  502    0  0.14087191960E+04  0.14063900282E+04 -0.33201874740E+03  0.20180830343E+04  0.50400001928E-02 0. -1.
       -1    1    3    3    0  502 -0.14087191960E+04 -0.14063900282E+04  0.14482753215E+02  0.19906361885E+04  0.50400001928E-02 0.  1.
</event>
<event>
 5   0  0.5515000E-08  0.4062106E+04  0.7818609E-02  0.7992134E-01
        1   -1    0    0  501    0  0.00000000000E+00  0.00000000000E+00  0.19217752896E+04  0.19217752896E+04  0.50400001928E-02 0. -1.
       -1   -1    0    0    0  501  0.00000000000E+00  0.00000000000E+00 -0.21465440987E+04  0.21465440987E+04  0.50400001928E-02 0.  1.
    10030    2    1    2    0    0  0.00000000000E+00  0.00000000000E+00 -0.22476880911E+03  0.40683193883E+04  0.40621055658E+04 0.  0.
        5    1    3    3  502    0  0.27914476366E+03 -0.16332284975E+04 -0.12888285313E+04  0.20991565442E+04  0.46999998093E+01 0.  1.
       -5    1    3    3    0  502 -0.27914476366E+03  0.16332284975E+04  0.10640597222E+04  0.19691628441E+04  0.46999998093E+01 0. -1.
</event>
<event>
 5   0  0.5515000E-08  0.4019801E+04  0.7818609E-02  0.8000564E-01
       -1   -1    0    0    0  501  0.00000000000E+00  0.00000000000E+00  0.17416574121E+04  0.17416574121E+04  0.50400001928E-02 0. -1.
        1   -1    0    0  501    0  0.00000000000E+00  0.00000000000E+00 -0.23194571025E+04  0.23194571025E+04  0.50400001928E-02 0.  1.
    10030    2    1    2    0    0  0.00000000000E+00  0.00000000000E+00 -0.57779969046E+03  0.40611145146E+04  0.40198008182E+04 0.  0.
        1    1    3    3  502    0 -0.56040043191E+03  0.13279283472E+04 -0.17041026478E+04  0.22319068470E+04  0.50400001928E-02 0.  1.
       -1    1    3    3    0  502  0.56040043191E+03 -0.13279283472E+04  0.11263029573E+04  0.18292076676E+04  0.50400001928E-02 0. -1.
</event>
<event>
 5   0  0.1785559E-07  0.3994741E+04  0.7818609E-02  0.8005608E-01
       -2   -1    0    0    0  501  0.00000000000E+00  0.00000000000E+00  0.13954032053E+04  0.13954032053E+04  0.25500000920E-02 0.  1.
        2   -1    0    0  501    0  0.00000000000E+00  0.00000000000E+00 -0.28590216323E+04  0.28590216323E+04  0.25500000920E-02 0. -1.
    10030    2    1    2    0    0  0.00000000000E+00  0.00000000000E+00 -0.14636184269E+04  0.42544248376E+04  0.39947405171E+04 0.  0.
        2    1    3    3  502    0 -0.11337035198E+04  0.14832828785E+04 -0.14879460034E+04  0.23873405868E+04  0.25500000920E-02 0. -1.
       -2    1    3    3    0  502  0.11337035198E+04 -0.14832828785E+04  0.24327576457E+02  0.18670842508E+04  0.25500000920E-02 0.  1.
</event>
<event>
 5   0  0.1773903E-07  0.4032086E+04  0.7818609E-02  0.7998105E-01
        2   -1    0    0  501    0  0.00000000000E+00  0.00000000000E+00  0.20227193089E+04  0.20227193089E+04  0.25500000920E-02 0.  1.
       -2   -1    0    0    0  501  0.00000000000E+00  0.00000000000E+00 -0.20093891446E+04  0.20093891446E+04  0.25500000920E-02 0. -1.
    10030    2    1    2    0    0  0.00000000000E+00  0.00000000000E+00  0.13330164288E+02  0.40321084535E+04  0.40320864187E+04 0.  0.
        3    1    3    3  502    0 -0.29115930778E+03 -0.93222757419E+03 -0.17570362013E+04  0.20102234243E+04  0.10100000352E+00 0. -1.
       -3    1    3    3    0  502  0.29115930778E+03  0.93222757419E+03  0.17703663656E+04  0.20218850292E+04  0.10100000352E+00 0.  1.
</event>
<event>
 5   0  0.5515000E-08  0.3979795E+04  0.7818609E-02  0.8008635E-01
        1   -1    0    0  501    0  0.00000000000E+00  0.00000000000E+00  0.18661797940E+04  0.18661797940E+04  0.50400001928E-02 0.  1.
       -1   -1    0    0    0  501  0.00000000000E+00  0.00000000000E+00 -0.21218170651E+04  0.21218170651E+04  0.50400001928E-02 0. -1.
    10030    2    1    2    0    0  0.00000000000E+00  0.00000000000E+00 -0.25563727111E+03  0.39879968591E+04  0.39797950367E+04 0.  0.
        5    1    3    3  502    0 -0.17078210531E+04 -0.56819642486E+03  0.72255864731E+03  0.19394878229E+04  0.46999998093E+01 0.  1.
       -5    1    3    3    0  502  0.17078210531E+04  0.56819642486E+03 -0.97819591841E+03  0.20485090362E+04  0.46999998093E+01 0. -1.
</event>
<event>
 5   0  0.1821433E-07  0.3350573E+04  0.7818609E-02  0.8150145E-01
       -2   -1    0    0    0  501  0.00000000000E+00  0.00000000000E+00  0.14633112430E+04  0.14633112430E+04  0.25500000920E-02 0.  1.
        2   -1    0    0  501    0  0.00000000000E+00  0.00000000000E+00 -0.19179683951E+04  0.19179683951E+04  0.25500000920E-02 0. -1.
    10030    2    1    2    0    0  0.00000000000E+00  0.00000000000E+00 -0.45465715214E+03  0.33812796382E+04  0.33505729160E+04 0.  0.
        5    1    3    3  502    0  0.54921523273E+03  0.15446507768E+04 -0.57542342513E+03  0.17374457120E+04  0.46999998093E+01 0.  1.
       -5    1    3    3    0  502 -0.54921523273E+03 -0.15446507768E+04  0.12076627300E+03  0.16438339261E+04  0.46999998093E+01 0. -1.
</event>
<event>
 5   0  0.1821433E-07  0.4039611E+04  0.7818609E-02  0.7996603E-01
       -2   -1    0    0    0  501  0.00000000000E+00  0.00000000000E+00  0.22622189961E+04  0.22622189961E+04  0.25500000920E-02 0.  1.
        2   -1    0    0  501    0  0.00000000000E+00  0.00000000000E+00 -0.18033681969E+04  0.18033681969E+04  0.25500000920E-02 0. -1.
    10030    2    1    2    0    0  0.00000000000E+00  0.00000000000E+00  0.45885079914E+03  0.40655871930E+04  0.40396107693E+04 0.  0.
        5    1    3    3  502    0  0.18504532032E+04 -0.73343677723E+03  0.57439055143E+03  0.20717270957E+04  0.46999998093E+01 0. -1.
       -5    1    3    3    0  502 -0.18504532032E+04  0.73343677723E+03 -0.11553975229E+03  0.19938600973E+04  0.46999998093E+01 0.  1.
</event>
<event>
 5   0  0.1821433E-07  0.3728012E+04  0.7818609E-02  0.8061782E-01
        2   -1    0    0  501    0  0.00000000000E+00  0.00000000000E+00  0.23952138225E+04  0.23952138225E+04  0.25500000920E-02 0.  1.
       -2   -1    0    0    0  501  0.00000000000E+00  0.00000000000E+00 -0.14506087282E+04  0.14506087282E+04  0.25500000920E-02 0. -1.
    10030    2    1    2    0    0  0.00000000000E+00  0.00000000000E+00  0.94460509431E+03  0.38458225506E+04  0.37280118437E+04 0.  0.
        5    1    3    3  502    0  0.50402822126E+03  0.67768005905E+03 -0.12418954802E+04  0.15018725592E+04  0.46999998093E+01 0. -1.
       -5    1    3    3    0  502 -0.50402822126E+03 -0.67768005905E+03  0.21865005745E+04  0.23439499915E+04  0.46999998093E+01 0.  1.
</event>
<event>
 5   0  0.5515000E-08  0.4019570E+04  0.7818609E-02  0.8000610E-01
       -1   -1    0    0    0  501  0.00000000000E+00  0.00000000000E+00  0.20795096548E+04  0.20795096548E+04  0.50400001928E-02 0. -1.
        1   -1    0    0  501    0  0.00000000000E+00  0.00000000000E+00 -0.19423977444E+04  0.19423977444E+04  0.50400001928E-02 0.  1.
    10030    2    1    2    0    0  0.00000000000E+00  0.00000000000E+00  0.13711191035E+03  0.40219073992E+04  0.40195695605E+04 0.  0.
        1    1    3    3  502    0  0.96170792164E+02  0.33901291609E+03 -0.19112449725E+04  0.19434597818E+04  0.50400001928E-02 0.  1.
       -1    1    3    3    0  502 -0.96170792164E+02 -0.33901291609E+03  0.20483568829E+04  0.20784476174E+04  0.50400001928E-02 0. -1.
</event>
<event>
 5   0  0.1776653E-07  0.3986534E+04  0.7818609E-02  0.8007269E-01
        2   -1    0    0  501    0  0.00000000000E+00  0.00000000000E+00  0.17532233187E+04  0.17532233187E+04  0.25500000920E-02 0.  1.
       -2   -1    0    0    0  501  0.00000000000E+00  0.00000000000E+00 -0.22661764219E+04  0.22661764219E+04  0.25500000920E-02 0. -1.
    10030    2    1    2    0    0  0.00000000000E+00  0.00000000000E+00 -0.51295310327E+03  0.40193997406E+04  0.39865340069E+04 0.  0.
        4    1    3    3  502    0  0.66015866986E+03 -0.25276958758E+03  0.16225968262E+04  0.17698937841E+04  0.12699999809E+01 0.  1.
       -4    1    3    3    0  502 -0.66015866986E+03  0.25276958758E+03 -0.21355499295E+04  0.22495059564E+04  0.12699999809E+01 0. -1.
</event>
<event>
 5   0  0.5515000E-08  0.3853667E+04  0.7818609E-02  0.8034735E-01
       -1   -1    0    0    0  501  0.00000000000E+00  0.00000000000E+00  0.27761117840E+04  0.27761117840E+04  0.50400001928E-02 0.  1.
        1   -1    0    0  501    0  0.00000000000E+00  0.00000000000E+00 -0.13373695886E+04  0.13373695886E+04  0.50400001928E-02 0. -1.
    10030    2    1    2    0    0  0.00000000000E+00  0.00000000000E+00  0.14387421955E+04  0.41134813726E+04  0.38536670715E+04 0.  0.
        1    1    3    3  502    0 -0.57777003996E+03  0.17821337158E+04  0.12001471628E+04  0.22248982027E+04  0.50400001928E-02 0. -1.
       -1    1    3    3    0  502  0.57777003996E+03 -0.17821337158E+04  0.23859503268E+03  0.18885831699E+04  0.50400001928E-02 0.  1.
</event>
<event>
 5   0  0.5515000E-08  0.4026600E+04  0.7818609E-02  0.7999202E-01
       -1   -1    0    0    0  501  0.00000000000E+00  0.00000000000E+00  0.16632387824E+04  0.16632387824E+04  0.50400001928E-02 0. -1.
        1   -1    0    0  501    0  0.00000000000E+00  0.00000000000E+00 -0.24370379696E+04  0.24370379696E+04  0.50400001928E-02 0.  1.
    10030    2    1    2    0    0  0.00000000000E+00  0.00000000000E+00 -0.77379918717E+03  0.41002767520E+04  0.40265995903E+04 0.  0.
        3    1    3    3  502    0 -0.28631453836E+02 -0.27588685289E+02  0.16628389439E+04  0.16633142394E+04  0.10100000352E+00 0. -1.
       -3    1    3    3    0  502  0.28631453836E+02  0.27588685289E+02 -0.24366381310E+04  0.24369625125E+04  0.10100000352E+00 0.  1.
</event>
<event>
 5   0  0.5515000E-08  0.3998706E+04  0.7818609E-02  0.8004808E-01
       -1   -1    0    0    0  501  0.00000000000E+00  0.00000000000E+00  0.11796793230E+04  0.11796793230E+04  0.50400001928E-02 0. -1.
        1   -1    0    0  501    0  0.00000000000E+00  0.00000000000E+00 -0.33885584482E+04  0.33885584482E+04  0.50400001928E-02 0.  1.
    10030    2    1    2    0    0  0.00000000000E+00  0.00000000000E+00 -0.22088791252E+04  0.45682377713E+04  0.39987059588E+04 0.  0.
        4    1    3    3  502    0  0.88881080259E+03 -0.13011701274E+04  0.30143639664E+03  0.16043359552E+04  0.12699999809E+01 0. -1.
       -4    1    3    3    0  502 -0.88881080259E+03  0.13011701274E+04 -0.25103155218E+04  0.29639018161E+04  0.12699999809E+01 0.  1.
</event>
<event>
 5   0  0.1776653E-07  0.4032722E+04  0.7818609E-02  0.7997978E-01
        2   -1    0    0  501    0  0.00000000000E+00  0.00000000000E+00  0.20094537487E+04  0.20094537487E+04  0.25500000920E-02 0. -1.
       -2   -1    0    0    0  501  0.00000000000E+00  0.00000000000E+00 -0.20232920588E+04  0.20232920588E+04  0.25500000920E-02 0.  1.
    10030    2    1    2    0    0  0.00000000000E+00  0.00000000000E+00 -0.13838310105E+02  0.40327458076E+04  0.40327220645E+04 0.  0.
        4    1    3    3  502    0 -0.75477009019E+03  0.38179045793E+02 -0.18763083121E+04  0.20227876862E+04  0.12699999809E+01 0.  1.
       -4    1    3    3    0  502  0.75477009019E+03 -0.38179045793E+02  0.18624700020E+04  0.20099581214E+04  0.12699999809E+01 0. -1.
</event>
<event>
 5   0  0.5515000E-08  0.3919205E+04  0.7818609E-02  0.8021047E-01
       -1   -1    0    0    0  501  0.00000000000E+00  0.00000000000E+00  0.27017684279E+04  0.27017684279E+04  0.50400001928E-02 0. -1.
        1   -1    0    0  501    0  0.00000000000E+00  0.00000000000E+00 -0.14213066755E+04  0.14213066755E+04  0.50400001928E-02 0.  1.
    10030    2    1    2    0    0  0.00000000000E+00  0.00000000000E+00  0.12804617524E+04  0.41230751034E+04  0.39192047674E+04 0.  0.
        4    1    3    3  502    0 -0.11138238230E+03 -0.10429400786E+04  0.23816023570E+04  0.26023376880E+04  0.12699999809E+01 0. -1.
       -4    1    3    3    0  502  0.11138238230E+03  0.10429400786E+04 -0.11011406046E+04  0.15207374154E+04  0.12699999809E+01 0.  1.
</event>
<event>
 5   0  0.5515000E-08  0.3975969E+04  0.7818609E-02  0.8009412E-01
       -1   -1    0    0    0  501  0.00000000000E+00  0.00000000000E+00  0.14411556860E+04  0.14411556861E+04  0.50400001928E-02 0. -1.
        1   -1    0    0  501    0  0.00000000000E+00  0.00000000000E+00 -0.27423013596E+04  0.27423013596E+04  0.50400001928E-02 0.  1.
    10030    2    1    2    0    0  0.00000000000E+00  0.00000000000E+00 -0.13011456736E+04  0.41834570457E+04  0.39759694150E+04 0.  0.
        3    1    3    3  502    0 -0.11287622154E+04  0.90921034275E+02  0.10686197098E+04  0.15570224365E+04  0.10100000352E+00 0. -1.
       -3    1    3    3    0  502  0.11287622154E+04 -0.90921034275E+02 -0.23697653834E+04  0.26264346091E+04  0.10100000352E+00 0.  1.
</event>
<event>
 5   0  0.1819906E-07  0.3922170E+04  0.7818609E-02  0.8020434E-01
       -2   -1    0    0    0  501  0.00000000000E+00  0.00000000000E+00  0.15439106682E+04  0.15439106682E+04  0.25500000920E-02 0.  1.
        2   -1    0    0  501    0  0.00000000000E+00  0.00000000000E+00 -0.24909828963E+04  0.24909828963E+04  0.25500000920E-02 0. -1.
    10030    2    1    2    0    0  0.00000000000E+00  0.00000000000E+00 -0.94707222816E+03  0.40348935645E+04  0.39221703522E+04 0.  0.
        1    1    3    3  502    0 -0.17044730216E+04 -0.95128060005E+03 -0.27918317482E+03  0.19718281635E+04  0.50400001928E-02 0.  1.
       -1    1    3    3    0  502  0.17044730216E+04  0.95128060005E+03 -0.66788905334E+03  0.20630654010E+04  0.50400001928E-02 0. -1.
</event>
<event>
 5   0  0.1821433E-07  0.3993816E+04  0.7818609E-02  0.8005795E-01
        2   -1    0    0  501    0  0.00000000000E+00  0.00000000000E+00  0.29941973477E+04  0.29941973477E+04  0.25500000920E-02 0. -1.
       -2   -1    0    0    0  501  0.00000000000E+00  0.00000000000E+00 -0.13317899399E+04  0.13317899399E+04  0.25500000920E-02 0.  1.
    10030    2    1    2    0    0  0.00000000000E+00  0.00000000000E+00  0.16624074079E+04  0.43259872876E+04  0.39938161729E+04 0.  0.
        5    1    3    3  502    0  0.44948843553E+03 -0.43479308508E+03  0.28853875478E+04  0.29523834899E+04  0.46999998093E+01 0. -1.
       -5    1    3    3    0  502 -0.44948843553E+03  0.43479308508E+03 -0.12229801399E+04  0.13736037977E+04  0.46999998093E+01 0.  1.
</event>
<event>
 5   0  0.5515000E-08  0.4009134E+04  0.7818609E-02  0.8002706E-01
       -1   -1    0    0    0  501  0.00000000000E+00  0.00000000000E+00  0.23593444693E+04  0.23593444693E+04  0.50400001928E-02 0. -1.
        1   -1    0    0  501    0  0.00000000000E+00  0.00000000000E+00 -0.17031382447E+04  0.17031382447E+04  0.50400001928E-02 0.  1.
    10030    2    1    2    0    0  0.00000000000E+00  0.00000000000E+00  0.65620622463E+03  0.40624827140E+04  0.40091344692E+04 0.  0.
        4    1    3    3  502    0  0.86413047079E+03 -0.13274272248E+04 -0.91686432012E+03  0.18301437927E+04  0.12699999809E+01 0.  1.
       -4    1    3    3    0  502 -0.86413047079E+03  0.13274272248E+04  0.15730705448E+04  0.22323389213E+04  0.12699999809E+01 0. -1.
</event>
<event>
 5   0  0.1776653E-07  0.3386613E+04  0.7818609E-02  0.8141200E-01
       -2   -1    0    0    0  501  0.00000000000E+00  0.00000000000E+00  0.15531971344E+04  0.15531971344E+04  0.25500000920E-02 0.  1.
        2   -1    0    0  501    0  0.00000000000E+00  0.00000000000E+00 -0.18460549858E+04  0.18460549858E+04  0.25500000920E-02 0. -1.
    10030    2    1    2    0    0  0.00000000000E+00  0.00000000000E+00 -0.29285785147E+03  0.33992521202E+04  0.33866132427E+04 0.  0.
        4    1    3    3  502    0 -0.46764437983E+03 -0.36460675656E+03  0.14455724247E+04  0.15624693919E+04  0.12699999809E+01 0.  1.
       -4    1    3    3    0  502  0.46764437983E+03  0.36460675656E+03 -0.17384302761E+04  0.18367827283E+04  0.12699999809E+01 0. -1.
</event>
<event>
 5   0  0.1785559E-07  0.4021854E+04  0.7818609E-02  0.8000152E-01
       -2   -1    0    0    0  501  0.00000000000E+00  0.00000000000E+00  0.15871555734E+04  0.15871555734E+04  0.25500000920E-02 0.  1.
        2   -1    0    0  501    0  0.00000000000E+00  0.00000000000E+00 -0.25478454006E+04  0.25478454006E+04  0.25500000920E-02 0. -1.
    10030    2    1    2    0    0  0.00000000000E+00  0.00000000000E+00 -0.96068982713E+03  0.41350009740E+04  0.40218538152E+04 0.  0.
        2    1    3    3  502    0 -0.15302351016E+04  0.76510154163E+03 -0.15668764222E+04  0.23199356796E+04  0.25500000920E-02 0. -1.
       -2    1    3    3    0  502  0.15302351016E+04 -0.76510154163E+03  0.60618659504E+03  0.18150652944E+04  0.25500000920E-02 0.  1.
</event>
<event>
 5   0  0.5515000E-08  0.4002124E+04  0.7818609E-02  0.8004118E-01
        1   -1    0    0  501    0  0.00000000000E+00  0.00000000000E+00  0.13488051043E+04  0.13488051043E+04  0.50400001928E-02 0.  1.
       -1   -1    0    0    0  501  0.00000000000E+00  0.00000000000E+00 -0.29687379439E+04  0.29687379439E+04  0.50400001928E-02 0. -1.
    10030    2    1    2    0    0  0.00000000000E+00  0.00000000000E+00 -0.16199328396E+04  0.43175430482E+04  0.40021238822E+04 0.  0.
        3    1    3    3  502    0  0.13347869067E+04  0.14908295757E+04 -0.81478762585E+03  0.21605804302E+04  0.10100000352E+00 0.  1.
       -3    1    3    3    0  502 -0.13347869067E+04 -0.14908295757E+04 -0.80514521373E+03  0.21569626180E+04  0.10100000352E+00 0. -1.
</event>
<event>
 5   0  0.1785559E-07  0.3996432E+04  0.7818609E-02  0.8005267E-01
        2   -1    0    0  501    0  0.00000000000E+00  0.00000000000E+00  0.37327428617E+04  0.37327428617E+04  0.25500000920E-02 0.  1.
       -2   -1    0    0    0  501  0.00000000000E+00  0.00000000000E+00 -0.10696869582E+04  0.10696869582E+04  0.25500000920E-02 0. -1.
    10030    2    1    2    0    0  0.00000000000E+00  0.00000000000E+00  0.26630559035E+04  0.48024298200E+04  0.39964315871E+04 0.  0.
        2    1    3    3  502    0  0.18735918224E+03  0.13702047115E+04  0.30647405275E+04  0.33623204659E+04  0.25500000920E-02 0.  1.
       -2    1    3    3    0  502 -0.18735918224E+03 -0.13702047115E+04 -0.40168462402E+03  0.14401093541E+04  0.25500000920E-02 0. -1.
</event>
<event>
 5   0  0.5515000E-08  0.4000086E+04  0.7818609E-02  0.8004529E-01
        1   -1    0    0  501    0  0.00000000000E+00  0.00000000000E+00  0.18946729783E+04  0.18946729783E+04  0.50400001928E-02 0. -1.
       -1   -1    0    0    0  501  0.00000000000E+00  0.00000000000E+00 -0.21112728392E+04  0.21112728392E+04  0.50400001928E-02 0.  1.
    10030    2    1    2    0    0  0.00000000000E+00  0.00000000000E+00 -0.21659986091E+03  0.40059458176E+04  0.40000857983E+04 0.  0.
        4    1    3    3  502    0 -0.38777600813E+03 -0.12312340136E+04  0.14216365580E+04  0.19202498652E+04  0.12699999809E+01 0. -1.
       -4    1    3    3    0  502  0.38777600813E+03  0.12312340136E+04 -0.16382364189E+04  0.20856959524E+04  0.12699999809E+01 0.  1.
</event>
<event>
 5   0  0.5515000E-08  0.3934181E+04  0.7818609E-02  0.8017957E-01
        1   -1    0    0  501    0  0.00000000000E+00  0.00000000000E+00  0.19156820859E+04  0.19156820859E+04  0.50400001928E-02 0.  1.
       -1   -1    0    0    0  501  0.00000000000E+00  0.00000000000E+00 -0.20198788063E+04  0.20198788063E+04  0.50400001928E-02 0. -1.
    10030    2    1    2    0    0  0.00000000000E+00  0.00000000000E+00 -0.10419672037E+03  0.39355608923E+04  0.39341813100E+04 0.  0.
        1    1    3    3  502    0 -0.22656241958E+03  0.14719011793E+04 -0.13377034981E+04  0.20018177391E+04  0.50400001928E-02 0. -1.
       -1    1    3    3    0  502  0.22656241958E+03 -0.14719011793E+04  0.12335067778E+04  0.19337431532E+04  0.50400001928E-02 0.  1.
</event>
<event>
 5   0  0.1819906E-07  0.3966799E+04  0.7818609E-02  0.8011278E-01
        2   -1    0    0  501    0  0.00000000000E+00  0.00000000000E+00  0.11901884419E+04  0.11901884419E+04  0.25500000920E-02 0.  1.
       -2   -1    0    0    0  501  0.00000000000E+00  0.00000000000E+00 -0.33052519559E+04  0.33052519559E+04  0.25500000920E-02 0. -1.
    10030    2    1    2    0    0  0.00000000000E+00  0.00000000000E+00 -0.21150635140E+04  0.44954403978E+04  0.39667985456E+04 0.  0.
        1    1    3    3  502    0 -0.32771442724E+03  0.12686671046E+04 -0.27449043804E+04  0.30416135563E+04  0.50400001928E-02 0. -1.
       -1    1    3    3    0  502  0.32771442724E+03 -0.12686671046E+04  0.62984086642E+03  0.14538268415E+04  0.50400001928E-02 0.  1.
</event>
<event>
 5   0  0.1785559E-07  0.3999109E+04  0.7818609E-02  0.8004726E-01
        2   -1    0    0  501    0  0.00000000000E+00  0.00000000000E+00  0.24696060102E+04  0.24696060102E+04  0.25500000920E-02 0. -1.
       -2   -1    0    0    0  501  0.00000000000E+00  0.00000000000E+00 -0.16189698957E+04  0.16189698957E+04  0.25500000920E-02 0.  1.
    10030    2    1    2    0    0  0.00000000000E+00  0.00000000000E+00  0.85063611444E+03  0.40885759059E+04  0.39991087931E+04 0.  0.
        2    1    3    3  502    0 -0.75641478348E+03 -0.15872616174E+04  0.13988044396E+04  0.22468236751E+04  0.25500000920E-02 0. -1.
       -2    1    3    3    0  502  0.75641478348E+03  0.15872616174E+04 -0.54816832520E+03  0.18417522308E+04  0.25500000920E-02 0.  1.
</event>
<event>
 5   0  0.5515000E-08  0.3624752E+04  0.7818609E-02  0.8084845E-01
        1   -1    0    0  501    0  0.00000000000E+00  0.00000000000E+00  0.17357526027E+04  0.17357526027E+04  0.50400001928E-02 0.  1.
       -1   -1    0    0    0  501  0.00000000000E+00  0.00000000000E+00 -0.18923818190E+04  0.18923818190E+04  0.50400001928E-02 0. -1.
    10030    2    1    2    0    0  0.00000000000E+00  0.00000000000E+00 -0.15662921629E+03  0.36281344217E+04  0.36247519461E+04 0.  0.
        3    1    3    3  502    0 -0.60730952491E+03  0.14376904912E+04  0.84391798785E+03  0.17742537553E+04  0.10100000352E+00 0.  1.
       -3    1    3    3    0  502  0.60730952491E+03 -0.14376904912E+04 -0.10005472041E+04  0.18538806665E+04  0.10100000352E+00 0. -1.
</event>
<event>
 5   0  0.5515000E-08  0.3972399E+04  0.7818609E-02  0.8010138E-01
       -1   -1    0    0    0  501  0.00000000000E+00  0.00000000000E+00  0.32518933253E+04  0.32518933253E+04  0.50400001928E-02 0.  1.
        1   -1    0    0  501    0  0.00000000000E+00  0.00000000000E+00 -0.12131359149E+04  0.12131359149E+04  0.50400001928E-02 0. -1.
    10030    2    1    2    0    0  0.00000000000E+00  0.00000000000E+00  0.20387574104E+04  0.44650292402E+04  0.39723990658E+04 0.  0.
        2    1    3    3  502    0  0.11364503320E+04 -0.16016417164E+04  0.13532182887E+04  0.23849476476E+04  0.25500000920E-02 0.  1.
       -2    1    3    3    0  502 -0.11364503320E+04  0.16016417164E+04  0.68553912169E+03  0.20800815927E+04  0.25500000920E-02 0. -1.
</event>
<event>
 5   0  0.1819906E-07  0.4012158E+04  0.7818609E-02  0.8002098E-01
       -2   -1    0    0    0  501  0.00000000000E+00  0.00000000000E+00  0.16950544851E+04  0.16950544851E+04  0.25500000920E-02 0.  1.
        2   -1    0    0  501    0  0.00000000000E+00  0.00000000000E+00 -0.23741730003E+04  0.23741730003E+04  0.25500000920E-02 0. -1.
    10030    2    1    2    0    0  0.00000000000E+00  0.00000000000E+00 -0.67911851517E+03  0.40692274854E+04  0.40121578197E+04 0.  0.
        1    1    3    3  502    0 -0.15375261590E+04 -0.79309241976E+03  0.69045034939E+03  0.18627141383E+04  0.50400001928E-02 0.  1.
       -1    1    3    3    0  502  0.15375261590E+04  0.79309241976E+03 -0.13695688646E+04  0.22065133471E+04  0.50400001928E-02 0. -1.
</event>
<event>
 5   0  0.5515000E-08  0.4231415E+04  0.7818609E-02  0.7959423E-01
        1   -1    0    0  501    0  0.00000000000E+00  0.00000000000E+00  0.20368699694E+04  0.20368699694E+04  0.50400001928E-02 0. -1.
       -1   -1    0    0    0  501  0.00000000000E+00  0.00000000000E+00 -0.21975964929E+04  0.21975964929E+04  0.50400001928E-02 0.  1.
    10030    2    1    2    0    0  0.00000000000E+00  0.00000000000E+00 -0.16072652356E+03  0.42344664623E+04  0.42314150358E+04 0.  0.
        2    1    3    3  502    0  0.10014622553E+04  0.15370391535E+04 -0.11350693584E+04  0.21572664315E+04  0.25500000920E-02 0. -1.
       -2    1    3    3    0  502 -0.10014622553E+04 -0.15370391535E+04  0.97434283484E+03  0.20772000308E+04  0.25500000920E-02 0.  1.
</event>
<event>
 5   0  0.5515000E-08  0.3943268E+04  0.7818609E-02  0.8016090E-01
        1   -1    0    0  501    0  0.00000000000E+00  0.00000000000E+00  0.17306800819E+04  0.17306800819E+04  0.50400001928E-02 0. -1.
       -1   -1    0    0    0  501  0.00000000000E+00  0.00000000000E+00 -0.22461344072E+04  0.22461344072E+04  0.50400001928E-02 0.  1.
    10030    2    1    2    0    0  0.00000000000E+00  0.00000000000E+00 -0.51545432525E+03  0.39768144891E+04  0.39432677210E+04 0.  0.
        3    1    3    3  502    0 -0.59259296830E+03 -0.20581103128E+03 -0.21428039692E+04  0.22327412451E+04  0.10100000352E+00 0.  1.
       -3    1    3    3    0  502  0.59259296830E+03  0.20581103128E+03  0.16273496440E+04  0.17440732441E+04  0.10100000352E+00 0. -1.
</event>
<event>
 5   0  0.1776653E-07  0.4040141E+04  0.7818609E-02  0.7996498E-01
       -2   -1    0    0    0  501  0.00000000000E+00  0.00000000000E+00  0.18622807957E+04  0.18622807957E+04  0.25500000920E-02 0.  1.
        2   -1    0    0  501    0  0.00000000000E+00  0.00000000000E+00 -0.21912291449E+04  0.21912291449E+04  0.25500000920E-02 0. -1.
    10030    2    1    2    0    0  0.00000000000E+00  0.00000000000E+00 -0.32894834923E+03  0.40535099407E+04  0.40401405697E+04 0.  0.
        4    1    3    3  502    0 -0.15990693341E+04 -0.36580091047E+03  0.10183457267E+04  0.19307673794E+04  0.12699999809E+01 0.  1.
       -4    1    3    3    0  502  0.15990693341E+04  0.36580091047E+03 -0.13472940759E+04  0.21227425613E+04  0.12699999809E+01 0. -1.
</event>
<event>
 5   0  0.1776653E-07  0.4064676E+04  0.7818609E-02  0.7991625E-01
        2   -1    0    0  501    0  0.00000000000E+00  0.00000000000E+00  0.23448905619E+04  0.23448905619E+04  0.25500000920E-02 0. -1.
       -2   -1    0    0    0  501  0.00000000000E+00  0.00000000000E+00 -0.17614459766E+04  0.17614459766E+04  0.25500000920E-02 0.  1.
    10030    2    1    2    0    0  0.00000000000E+00  0.00000000000E+00  0.58344458535E+03  0.41063365385E+04  0.40646761474E+04 0.  0.
        4    1    3    3  502    0  0.22119347062E+02  0.19049962178E+04  0.10067166637E+04  0.21547575059E+04  0.12699999809E+01 0. -1.
       -4    1    3    3    0  502 -0.22119347062E+02 -0.19049962178E+04 -0.42327207832E+03  0.19515790326E+04  0.12699999809E+01 0.  1.
</event>
<event>
 5   0  0.1776653E-07  0.3988777E+04  0.7818609E-02  0.8006814E-01
       -2   -1    0    0    0  501  0.00000000000E+00  0.00000000000E+00  0.17754776748E+04  0.17754776748E+04  0.25500000920E-02 0.  1.
        2   -1    0    0  501    0  0.00000000000E+00  0.00000000000E+00 -0.22402904257E+04  0.22402904257E+04  0.25500000920E-02 0. -1.
    10030    2    1    2    0    0  0.00000000000E+00  0.00000000000E+00 -0.46481275084E+03  0.40157681005E+04  0.39887770737E+04 0.  0.
        4    1    3    3  502    0  0.64201141456E+03  0.11850747261E+04 -0.17123888465E+04  0.21791874488E+04  0.12699999809E+01 0. -1.
       -4    1    3    3    0  502 -0.64201141456E+03 -0.11850747261E+04  0.12475760956E+04  0.18365806516E+04  0.12699999809E+01 0.  1.
</event>
<event>
 5   0  0.1773903E-07  0.4082784E+04  0.7818609E-02  0.7988051E-01
        2   -1    0    0  501    0  0.00000000000E+00  0.00000000000E+00  0.14376522818E+04  0.14376522818E+04  0.25500000920E-02 0.  1.
       -2   -1    0    0    0  501  0.00000000000E+00  0.00000000000E+00 -0.28986717842E+04  0.28986717842E+04  0.25500000920E-02 0. -1.
    10030    2    1    2    0    0  0.00000000000E+00  0.00000000000E+00 -0.14610195024E+04  0.43363240660E+04  0.40827843954E+04 0.  0.
        3    1    3    3  502    0  0.16031879358E+04  0.80892055008E+03  0.30072182584E+03  0.18207134977E+04  0.10100000352E+00 0.  1.
       -3    1    3    3    0  502 -0.16031879358E+04 -0.80892055008E+03 -0.17617413282E+04  0.25156105684E+04  0.10100000352E+00 0. -1.
</event>
<event>
 5   0  0.5515000E-08  0.3998986E+04  0.7818609E-02  0.8004751E-01
       -1   -1    0    0    0  501  0.00000000000E+00  0.00000000000E+00  0.32904642455E+04  0.32904642455E+04  0.50400001928E-02 0. -1.
        1   -1    0    0  501    0  0.00000000000E+00  0.00000000000E+00 -0.12150179747E+04  0.12150179747E+04  0.50400001928E-02 0.  1.
    10030    2    1    2    0    0  0.00000000000E+00  0.00000000000E+00  0.20754462708E+04  0.45054822202E+04  0.39989864733E+04 0.  0.
        1    1    3    3  502    0 -0.26352542411E+03 -0.84477534921E+03  0.30578278149E+04  0.31833004862E+04  0.50400001928E-02 0. -1.
       -1    1    3    3    0  502  0.26352542411E+03  0.84477534921E+03 -0.98238154405E+03  0.13221817341E+04  0.50400001928E-02 0.  1.
</event>
<event>
 5   0  0.1785559E-07  0.3554894E+04  0.7818609E-02  0.8100903E-01
        2   -1    0    0  501    0  0.00000000000E+00  0.00000000000E+00  0.31690660898E+04  0.31690660898E+04  0.25500000920E-02 0.  1.
       -2   -1    0    0    0  501  0.00000000000E+00  0.00000000000E+00 -0.99692380266E+03  0.99692380266E+03  0.25500000920E-02 0. -1.
    10030    2    1    2    0    0  0.00000000000E+00  0.00000000000E+00  0.21721422872E+04  0.41659898925E+04  0.35548937633E+04 0.  0.
        2    1    3    3  502    0 -0.13589570241E+04  0.11288436991E+04  0.13153126023E+04  0.22025211763E+04  0.25500000920E-02 0. -1.
       -2    1    3    3    0  502  0.13589570241E+04 -0.11288436991E+04  0.85682968486E+03  0.19634687161E+04  0.25500000920E-02 0.  1.
</event>
<event>
 5   0  0.1819906E-07  0.4004365E+04  0.7818609E-02  0.8003667E-01
        2   -1    0    0  501    0  0.00000000000E+00  0.00000000000E+00  0.32051043786E+04  0.32051043786E+04  0.25500000920E-02 0.  1.
       -2   -1    0    0    0  501  0.00000000000E+00  0.00000000000E+00 -0.12507344615E+04  0.12507344615E+04  0.25500000920E-02 0. -1.
    10030    2    1    2    0    0  0.00000000000E+00  0.00000000000E+00  0.19543699170E+04  0.44558388401E+04  0.40043648680E+04 0.  0.
        1    1    3    3  502    0  0.64404471602E+03  0.15511427605E+04  0.21899739112E+04  0.27598592702E+04  0.50400001928E-02 0. -1.
       -1    1    3    3    0  502 -0.64404471602E+03 -0.15511427605E+04 -0.23560399413E+03  0.16959795699E+04  0.50400001928E-02 0.  1.
</event>
<event>
 5   0  0.5515000E-08  0.3965172E+04  0.7818609E-02  0.8011610E-01
        1   -1    0    0  501    0  0.00000000000E+00  0.00000000000E+00  0.20634255671E+04  0.20634255671E+04  0.50400001928E-02 0.  1.
       -1   -1    0    0    0  501  0.00000000000E+00  0.00000000000E+00 -0.19049136473E+04  0.19049136473E+04  0.50400001928E-02 0. -1.
    10030    2    1    2    0    0  0.00000000000E+00  0.00000000000E+00  0.15851191981E+03  0.39683392144E+04  0.39651721390E+04 0.  0.
        2    1    3    3  502    0  0.15394771812E+04 -0.61770581533E+03  0.11659856199E+04  0.20275780951E+04  0.25500000920E-02 0.  1.
       -2    1    3    3    0  502 -0.15394771812E+04  0.61770581533E+03 -0.10074737001E+04  0.19407611193E+04  0.25500000920E-02 0. -1.
</event>
<event>
 5   0  0.5515000E-08  0.3765726E+04  0.7818609E-02  0.8053550E-01
        1   -1    0    0  501    0  0.00000000000E+00  0.00000000000E+00  0.19358450856E+04  0.19358450856E+04  0.50400001928E-02 0.  1.
       -1   -1    0    0    0  501  0.00000000000E+00  0.00000000000E+00 -0.18313312344E+04  0.18313312344E+04  0.50400001928E-02 0. -1.
    10030    2    1    2    0    0  0.00000000000E+00  0.00000000000E+00  0.10451385120E+03  0.37671763200E+04  0.37657262621E+04 0.  0.
        2    1    3    3  502    0  0.14953854281E+04  0.77156564921E+03  0.89737950717E+03  0.19070346377E+04  0.25500000920E-02 0. -1.
       -2    1    3    3    0  502 -0.14953854281E+04 -0.77156564921E+03 -0.79286565597E+03  0.18601416823E+04  0.25500000920E-02 0.  1.
</event>
<event>
 5   0  0.1819906E-07  0.3979304E+04  0.7818609E-02  0.8008735E-01
        2   -1    0    0  501    0  0.00000000000E+00  0.00000000000E+00  0.30830473842E+04  0.30830473842E+04  0.25500000920E-02 0.  1.
       -2   -1    0    0    0  501  0.00000000000E+00  0.00000000000E+00 -0.12840265808E+04  0.12840265808E+04  0.25500000920E-02 0. -1.
    10030    2    1    2    0    0  0.00000000000E+00  0.00000000000E+00  0.17990208034E+04  0.43670739649E+04  0.39793038542E+04 0.  0.
        1    1    3    3  502    0  0.67991786523E+03  0.10351008894E+04  0.26084970004E+04  0.28875558446E+04  0.50400001928E-02 0.  1.
       -1    1    3    3    0  502 -0.67991786523E+03 -0.10351008894E+04 -0.80947619702E+03  0.14795181203E+04  0.50400001928E-02 0. -1.
</event>
<event>
 5   0  0.1776653E-07  0.3833875E+04  0.7818609E-02  0.8038924E-01
        2   -1    0    0  501    0  0.00000000000E+00  0.00000000000E+00  0.18407572142E+04  0.18407572142E+04  0.25500000920E-02 0.  1.
       -2   -1    0    0    0  501  0.00000000000E+00  0.00000000000E+00 -0.19962706754E+04  0.19962706754E+04  0.25500000920E-02 0. -1.
    10030    2    1    2    0    0  0.00000000000E+00  0.00000000000E+00 -0.15551346113E+03  0.38370278896E+04  0.38338751400E+04 0.  0.
        4    1    3    3  502    0  0.14524444126E+04 -0.21249460398E+03  0.11560990480E+04  0.18685061815E+04  0.12699999809E+01 0.  1.
       -4    1    3    3    0  502 -0.14524444126E+04  0.21249460398E+03 -0.13116125091E+04  0.19685217081E+04  0.12699999809E+01 0. -1.
</event>
<event>
 5   0  0.1776653E-07  0.3987876E+04  0.7818609E-02  0.8006997E-01
        2   -1    0    0  501    0  0.00000000000E+00  0.00000000000E+00  0.22710673305E+04  0.22710673305E+04  0.25500000920E-02 0.  1.
       -2   -1    0    0    0  501  0.00000000000E+00  0.00000000000E+00 -0.17506253900E+04  0.17506253900E+04  0.25500000920E-02 0. -1.
    10030    2    1    2    0    0  0.00000000000E+00  0.00000000000E+00  0.52044194046E+03  0.40216927205E+04  0.39878756908E+04 0.  0.
        4    1    3    3  502    0  0.97794427242E+03  0.16720239089E+04 -0.21680984347E+03  0.19491144330E+04  0.12699999809E+01 0. -1.
       -4    1    3    3    0  502 -0.97794427242E+03 -0.16720239089E+04  0.73725178392E+03  0.20725782875E+04  0.12699999809E+01 0.  1.
</event>
<event>
 5   0  0.5515000E-08  0.3990384E+04  0.7818609E-02  0.8006489E-01
       -1   -1    0    0    0  501  0.00000000000E+00  0.00000000000E+00  0.27032803445E+04  0.27032803445E+04  0.50400001928E-02 0. -1.
        1   -1    0    0  501    0  0.00000000000E+00  0.00000000000E+00 -0.14725777797E+04  0.14725777797E+04  0.50400001928E-02 0.  1.
    10030    2    1    2    0    0  0.00000000000E+00  0.00000000000E+00  0.12307025648E+04  0.41758581242E+04  0.39903837247E+04 0.  0.
        5    1    3    3  502    0  0.87078083176E+02  0.11078534063E+03 -0.14673582196E+04  0.14741160805E+04  0.46999998093E+01 0.  1.
       -5    1    3    3    0  502 -0.87078083176E+02 -0.11078534063E+03  0.26980607844E+04  0.27017420437E+04  0.46999998093E+01 0. -1.
</event>
<event>
 5   0  0.5515000E-08  0.4009898E+04  0.7818609E-02  0.8002553E-01
        1   -1    0    0  501    0  0.00000000000E+00  0.00000000000E+00  0.18811098331E+04  0.18811098331E+04  0.50400001928E-02 0. -1.
       -1   -1    0    0    0  501  0.00000000000E+00  0.00000000000E+00 -0.21369406971E+04  0.21369406971E+04  0.50400001928E-02 0.  1.
    10030    2    1    2    0    0  0.00000000000E+00  0.00000000000E+00 -0.25583086393E+03  0.40180505302E+04  0.40098978332E+04 0.  0.
        5    1    3    3  502    0 -0.55912431454E+03 -0.17879330199E+04  0.58801153878E+03  0.19634419122E+04  0.46999998093E+01 0.  1.
       -5    1    3    3    0  502  0.55912431454E+03  0.17879330199E+04 -0.84384240271E+03  0.20546086180E+04  0.46999998093E+01 0. -1.
</event>
<event>
 5   0  0.1785559E-07  0.3729713E+04  0.7818609E-02  0.8061409E-01
       -2   -1    0    0    0  501  0.00000000000E+00  0.00000000000E+00  0.24277433426E+04  0.24277433426E+04  0.25500000920E-02 0.  1.
        2   -1    0    0  501    0  0.00000000000E+00  0.00000000000E+00 -0.14324785157E+04  0.14324785157E+04  0.25500000920E-02 0. -1.
    10030    2    1    2    0    0  0.00000000000E+00  0.00000000000E+00  0.99526482692E+03  0.38602218583E+04  0.37297132222E+04 0.  0.
        2    1    3    3  502    0  0.28670643056E+03 -0.12017475353E+04 -0.94813359254E+03  0.15573551378E+04  0.25500000920E-02 0. -1.
       -2    1    3    3    0  502 -0.28670643056E+03  0.12017475353E+04  0.19433984195E+04  0.23028667206E+04  0.25500000920E-02 0.  1.
</event>
<event>
 5   0  0.5515000E-08  0.4011515E+04  0.7818609E-02  0.8002228E-01
        1   -1    0    0  501    0  0.00000000000E+00  0.00000000000E+00  0.23326328741E+04  0.23326328742E+04  0.50400001928E-02 0.  1.
       -1   -1    0    0    0  501  0.00000000000E+00  0.00000000000E+00 -0.17246875592E+04  0.17246875592E+04  0.50400001928E-02 0. -1.
    10030    2    1    2    0    0  0.00000000000E+00  0.00000000000E+00  0.60794531493E+03  0.40573204334E+04  0.40115148751E+04 0.  0.
        2    1    3    3  502    0 -0.19637793135E+04 -0.40820458081E+03  0.30564269265E+03  0.20289104533E+04  0.25500000920E-02 0. -1.
       -2    1    3    3    0  502  0.19637793135E+04  0.40820458081E+03  0.30230262228E+03  0.20284099801E+04  0.25500000920E-02 0.  1.
</event>
<event>
 5   0  0.5515000E-08  0.3992999E+04  0.7818609E-02  0.8005960E-01
        1   -1    0    0  501    0  0.00000000000E+00  0.00000000000E+00  0.28753155229E+04  0.28753155229E+04  0.50400001928E-02 0.  1.
       -1   -1    0    0    0  501  0.00000000000E+00  0.00000000000E+00 -0.13862863998E+04  0.13862863998E+04  0.50400001928E-02 0. -1.
    10030    2    1    2    0    0  0.00000000000E+00  0.00000000000E+00  0.14890291231E+04  0.42616019227E+04  0.39929992760E+04 0.  0.
        4    1    3    3  502    0  0.16066336175E+03  0.81827087470E+02 -0.13775791771E+04  0.13893287553E+04  0.12699999809E+01 0. -1.
       -4    1    3    3    0  502 -0.16066336175E+03 -0.81827087470E+02  0.28666083003E+04  0.28722731674E+04  0.12699999809E+01 0.  1.
</event>
<event>
 5   0  0.5515000E-08  0.3882962E+04  0.7818609E-02  0.8028582E-01
       -1   -1    0    0    0  501  0.00000000000E+00  0.00000000000E+00  0.19256154044E+04  0.19256154044E+04  0.50400001928E-02 0. -1.
        1   -1    0    0  501    0  0.00000000000E+00  0.00000000000E+00 -0.19574776609E+04  0.19574776609E+04  0.50400001928E-02 0.  1.
    10030    2    1    2    0    0  0.00000000000E+00  0.00000000000E+00 -0.31862256449E+02  0.38830930653E+04  0.38829623422E+04 0.  0.
        1    1    3    3  502    0  0.20891284392E+03 -0.11772309066E+04 -0.15456335507E+04  0.19540983232E+04  0.50400001928E-02 0.  1.
       -1    1    3    3    0  502 -0.20891284392E+03  0.11772309066E+04  0.15137712942E+04  0.19289947421E+04  0.50400001928E-02 0. -1.
</event>
<event>
 5   0  0.1785559E-07  0.3277492E+04  0.7818609E-02  0.8168646E-01
        2   -1    0    0  501    0  0.00000000000E+00  0.00000000000E+00  0.15508775625E+04  0.15508775625E+04  0.25500000920E-02 0.  1.
       -2   -1    0    0    0  501  0.00000000000E+00  0.00000000000E+00 -0.17315924851E+04  0.17315924851E+04  0.25500000920E-02 0. -1.
    10030    2    1    2    0    0  0.00000000000E+00  0.00000000000E+00 -0.18071492256E+03  0.32824700476E+04  0.32774916827E+04 0.  0.
        2    1    3    3  502    0 -0.76508440270E+03  0.41645497673E+03  0.12998067838E+04  0.15647001521E+04  0.25500000920E-02 0.  1.
       -2    1    3    3    0  502  0.76508440270E+03 -0.41645497673E+03 -0.14805217063E+04  0.17177698955E+04  0.25500000920E-02 0. -1.
</event>
<event>
 5   0  0.1776653E-07  0.3764477E+04  0.7818609E-02  0.8053821E-01
        2   -1    0    0  501    0  0.00000000000E+00  0.00000000000E+00  0.24480896230E+04  0.24480896230E+04  0.25500000920E-02 0.  1.
       -2   -1    0    0    0  501  0.00000000000E+00  0.00000000000E+00 -0.14471784031E+04  0.14471784031E+04  0.25500000920E-02 0. -1.
    10030    2    1    2    0    0  0.00000000000E+00  0.00000000000E+00  0.10009112199E+04  0.38952680260E+04  0.37644773508E+04 0.  0.
        4    1    3    3  502    0 -0.38445817428E+03  0.62868160748E+03 -0.12917044446E+04  0.14871283188E+04  0.12699999809E+01 0. -1.
       -4    1    3    3    0  502  0.38445817428E+03 -0.62868160748E+03  0.22926156645E+04  0.24081397072E+04  0.12699999809E+01 0.  1.
</event>
<event>
 5   0  0.5515000E-08  0.4014023E+04  0.7818609E-02  0.8001724E-01
        1   -1    0    0  501    0  0.00000000000E+00  0.00000000000E+00  0.21093920319E+04  0.21093920319E+04  0.50400001928E-02 0.  1.
       -1   -1    0    0    0  501  0.00000000000E+00  0.00000000000E+00 -0.19095997564E+04  0.19095997564E+04  0.50400001928E-02 0. -1.
    10030    2    1    2    0    0  0.00000000000E+00  0.00000000000E+00  0.19979227545E+03  0.40189917883E+04  0.40140226757E+04 0.  0.
        3    1    3    3  502    0 -0.10612383669E+04  0.79442000440E+02 -0.16038438881E+04  0.19247995040E+04  0.10100000352E+00 0. -1.
       -3    1    3    3    0  502  0.10612383669E+04 -0.79442000440E+02  0.18036361636E+04  0.20941922843E+04  0.10100000352E+00 0.  1.
</event>
<event>
 5   0  0.1819906E-07  0.3953385E+04  0.7818609E-02  0.8014017E-01
       -2   -1    0    0    0  501  0.00000000000E+00  0.00000000000E+00  0.14735523853E+04  0.14735523853E+04  0.25500000920E-02 0.  1.
        2   -1    0    0  501    0  0.00000000000E+00  0.00000000000E+00 -0.26516276653E+04  0.26516276653E+04  0.25500000920E-02 0. -1.
    10030    2    1    2    0    0  0.00000000000E+00  0.00000000000E+00 -0.11780752800E+04  0.41251800506E+04  0.39533845101E+04 0.  0.
        1    1    3    3  502    0 -0.42385895467E+03 -0.32321651627E+02 -0.26033689029E+04  0.26378458535E+04  0.50400001928E-02 0. -1.
       -1    1    3    3    0  502  0.42385895467E+03  0.32321651627E+02  0.14252936228E+04  0.14873341971E+04  0.50400001928E-02 0.  1.
</event>
<event>
 5   0  0.5515000E-08  0.3964778E+04  0.7818609E-02  0.8011690E-01
        1   -1    0    0  501    0  0.00000000000E+00  0.00000000000E+00  0.14419637473E+04  0.14419637473E+04  0.50400001928E-02 0. -1.
       -1   -1    0    0    0  501  0.00000000000E+00  0.00000000000E+00 -0.27253566717E+04  0.27253566717E+04  0.50400001928E-02 0.  1.
    10030    2    1    2    0    0  0.00000000000E+00  0.00000000000E+00 -0.12833929244E+04  0.41673204190E+04  0.39647776831E+04 0.  0.
        2    1    3    3  502    0 -0.19189532341E+04 -0.16740393218E+03 -0.14929915396E+03  0.19320185891E+04  0.25500000920E-02 0. -1.
       -2    1    3    3    0  502  0.19189532341E+04  0.16740393218E+03 -0.11340937704E+04  0.22353018300E+04  0.25500000920E-02 0.  1.
</event>
<event>
 5   0  0.5515000E-08  0.4149659E+04  0.7818609E-02  0.7975018E-01
        1   -1    0    0  501    0  0.00000000000E+00  0.00000000000E+00  0.15843989978E+04  0.15843989979E+04  0.50400001928E-02 0. -1.
       -1   -1    0    0    0  501  0.00000000000E+00  0.00000000000E+00 -0.27170668025E+04  0.27170668025E+04  0.50400001928E-02 0.  1.
    10030    2    1    2    0    0  0.00000000000E+00  0.00000000000E+00 -0.11326678046E+04  0.43014658003E+04  0.41496592241E+04 0.  0.
        1    1    3    3  502    0 -0.16954967125E+04  0.88921622589E+03  0.26261057579E+03  0.19324541167E+04  0.50400001928E-02 0. -1.
       -1    1    3    3    0  502  0.16954967125E+04 -0.88921622589E+03 -0.13952783804E+04  0.23690116837E+04  0.50400001928E-02 0.  1.
</event>
<event>
 5   0  0.5515000E-08  0.4063607E+04  0.7818609E-02  0.7991836E-01
        1   -1    0    0  501    0  0.00000000000E+00  0.00000000000E+00  0.26335924909E+04  0.26335924909E+04  0.50400001928E-02 0. -1.
       -1   -1    0    0    0  501  0.00000000000E+00  0.00000000000E+00 -0.15675265061E+04  0.15675265061E+04  0.50400001928E-02 0.  1.
    10030    2    1    2    0    0  0.00000000000E+00  0.00000000000E+00  0.10660659849E+04  0.42011189970E+04  0.40636072821E+04 0.  0.
        3    1    3    3  502    0 -0.16364527467E+03  0.49103912541E+03 -0.14982259519E+04  0.15851120502E+04  0.10100000352E+00 0.  1.
       -3    1    3    3    0  502  0.16364527467E+03 -0.49103912541E+03  0.25642919368E+04  0.26160069468E+04  0.10100000352E+00 0. -1.
</event>
<event>
 5   0  0.5515000E-08  0.3982628E+04  0.7818609E-02  0.8008060E-01
        1   -1    0    0  501    0  0.00000000000E+00  0.00000000000E+00  0.20242707501E+04  0.20242707501E+04  0.50400001928E-02 0.  1.
       -1   -1    0    0    0  501  0.00000000000E+00  0.00000000000E+00 -0.19588933271E+04  0.19588933271E+04  0.50400001928E-02 0. -1.
    10030    2    1    2    0    0  0.00000000000E+00  0.00000000000E+00  0.65377422934E+02  0.39831640772E+04  0.39826275069E+04 0.  0.
        1    1    3    3  502    0 -0.29968480890E+03 -0.36791951388E+03  0.19668972277E+04  0.20233290532E+04  0.50400001928E-02 0.  1.
       -1    1    3    3    0  502  0.29968480890E+03  0.36791951388E+03 -0.19015198047E+04  0.19598350240E+04  0.50400001928E-02 0. -1.
</event>
<event>
 5   0  0.5515000E-08  0.3998393E+04  0.7818609E-02  0.8004871E-01
        1   -1    0    0  501    0  0.00000000000E+00  0.00000000000E+00  0.17015972538E+04  0.17015972538E+04  0.50400001928E-02 0. -1.
       -1   -1    0    0    0  501  0.00000000000E+00  0.00000000000E+00 -0.23488435277E+04  0.23488435277E+04  0.50400001928E-02 0.  1.
    10030    2    1    2    0    0  0.00000000000E+00  0.00000000000E+00 -0.64724627391E+03  0.40504407815E+04  0.39983925251E+04 0.  0.
        1    1    3    3  502    0  0.22316152077E-02  0.77536836280E+03  0.15430765620E+04  0.17269283060E+04  0.50400001928E-02 0. -1.
       -1    1    3    3    0  502 -0.22316152077E-02 -0.77536836280E+03 -0.21903228359E+04  0.23235124754E+04  0.50400001928E-02 0.  1.
</event>
<event>
 5   0  0.5515000E-08  0.4003459E+04  0.7818609E-02  0.8003849E-01
        1   -1    0    0  501    0  0.00000000000E+00  0.00000000000E+00  0.11552605905E+04  0.11552605905E+04  0.50400001928E-02 0.  1.
       -1   -1    0    0    0  501  0.00000000000E+00  0.00000000000E+00 -0.34684136447E+04  0.34684136447E+04  0.50400001928E-02 0. -1.
    10030    2    1    2    0    0  0.00000000000E+00  0.00000000000E+00 -0.23131530542E+04  0.46236742351E+04  0.40034593017E+04 0.  0.
        2    1    3    3  502    0  0.10179896549E+04  0.30968229141E+03 -0.31147413659E+04  0.32914768472E+04  0.25500000920E-02 0. -1.
       -2    1    3    3    0  502 -0.10179896549E+04 -0.30968229141E+03  0.80158831168E+03  0.13321973880E+04  0.25500000920E-02 0.  1.
</event>
<event>
 5   0  0.5515000E-08  0.3931659E+04  0.7818609E-02  0.8018477E-01
       -1   -1    0    0    0  501  0.00000000000E+00  0.00000000000E+00  0.12861457515E+04  0.12861457515E+04  0.50400001928E-02 0. -1.
        1   -1    0    0  501    0  0.00000000000E+00  0.00000000000E+00 -0.30047033424E+04  0.30047033424E+04  0.50400001928E-02 0.  1.
    10030    2    1    2    0    0  0.00000000000E+00  0.00000000000E+00 -0.17185575909E+04  0.42908490938E+04  0.39316594147E+04 0.  0.
        1    1    3    3  502    0 -0.17451816750E+04 -0.12906573320E+03  0.11818435980E+03  0.17539340310E+04  0.50400001928E-02 0.  1.
       -1    1    3    3    0  502  0.17451816750E+04  0.12906573320E+03 -0.18367419507E+04  0.25369150628E+04  0.50400001928E-02 0. -1.
</event>
<event>
 5   0  0.1785559E-07  0.3979197E+04  0.7818609E-02  0.8008756E-01
        2   -1    0    0  501    0  0.00000000000E+00  0.00000000000E+00  0.20472499716E+04  0.20472499716E+04  0.25500000920E-02 0. -1.
       -2   -1    0    0    0  501  0.00000000000E+00  0.00000000000E+00 -0.19335705948E+04  0.19335705948E+04  0.25500000920E-02 0.  1.
    10030    2    1    2    0    0  0.00000000000E+00  0.00000000000E+00  0.11367937683E+03  0.39808205663E+04  0.39791970774E+04 0.  0.
        2    1    3    3  502    0  0.22098115338E+03  0.19365742369E+04 -0.34250972539E+03  0.19790061539E+04  0.25500000920E-02 0.  1.
       -2    1    3    3    0  502 -0.22098115338E+03 -0.19365742369E+04  0.45618910222E+03  0.20018144125E+04  0.25500000920E-02 0. -1.
</event>
<event>
 5   0  0.5515000E-08  0.4042882E+04  0.7818609E-02  0.7995951E-01
        1   -1    0    0  501    0  0.00000000000E+00  0.00000000000E+00  0.13810570249E+04  0.13810570249E+04  0.50400001928E-02 0. -1.
       -1   -1    0    0    0  501  0.00000000000E+00  0.00000000000E+00 -0.29587651291E+04  0.29587651291E+04  0.50400001928E-02 0.  1.
    10030    2    1    2    0    0  0.00000000000E+00  0.00000000000E+00 -0.15777081042E+04  0.43398221540E+04  0.40428818268E+04 0.  0.
        2    1    3    3  502    0 -0.89305911683E+03 -0.56953452316E+03 -0.26370240007E+04  0.28417986803E+04  0.25500000920E-02 0.  1.
       -2    1    3    3    0  502  0.89305911683E+03  0.56953452316E+03  0.10593158964E+04  0.14980234737E+04  0.25500000920E-02 0. -1.
</event>
<event>
 5   0  0.5515000E-08  0.4002201E+04  0.7818609E-02  0.8004103E-01
        1   -1    0    0  501    0  0.00000000000E+00  0.00000000000E+00  0.15325489889E+04  0.15325489889E+04  0.50400001928E-02 0. -1.
       -1   -1    0    0    0  501  0.00000000000E+00  0.00000000000E+00 -0.26129040748E+04  0.26129040748E+04  0.50400001928E-02 0.  1.
    10030    2    1    2    0    0  0.00000000000E+00  0.00000000000E+00 -0.10803550859E+04  0.41454530638E+04  0.40022011434E+04 0.  0.
        5    1    3    3  502    0  0.16089353111E+04  0.84709655014E+03  0.32527470355E+03  0.18471792342E+04  0.46999998093E+01 0. -1.
       -5    1    3    3    0  502 -0.16089353111E+04 -0.84709655014E+03 -0.14056297895E+04  0.22982738296E+04  0.46999998093E+01 0.  1.
</event>
<event>
 5   0  0.1819906E-07  0.3958425E+04  0.7818609E-02  0.8012986E-01
        2   -1    0    0  501    0  0.00000000000E+00  0.00000000000E+00  0.22874099413E+04  0.22874099413E+04  0.25500000920E-02 0. -1.
       -2   -1    0    0    0  501  0.00000000000E+00  0.00000000000E+00 -0.17125402405E+04  0.17125402405E+04  0.25500000920E-02 0.  1.
    10030    2    1    2    0    0  0.00000000000E+00  0.00000000000E+00  0.57486970082E+03  0.39999501818E+04  0.39584247225E+04 0.  0.
        1    1    3    3  502    0  0.47422031187E+03  0.18503229673E+04  0.81123703423E+03  0.20752555297E+04  0.50400001928E-02 0.  1.
       -1    1    3    3    0  502 -0.47422031187E+03 -0.18503229673E+04 -0.23636733341E+03  0.19246946521E+04  0.50400001928E-02 0. -1.
</event>
<event>
 5   0  0.1819906E-07  0.3950171E+04  0.7818609E-02  0.8014675E-01
        2   -1    0    0  501    0  0.00000000000E+00  0.00000000000E+00  0.19373964585E+04  0.19373964585E+04  0.25500000920E-02 0.  1.
       -2   -1    0    0    0  501  0.00000000000E+00  0.00000000000E+00 -0.20135077472E+04  0.20135077472E+04  0.25500000920E-02 0. -1.
    10030    2    1    2    0    0  0.00000000000E+00  0.00000000000E+00 -0.76111288681E+02  0.39509042058E+04  0.39501710235E+04 0.  0.
        1    1    3    3  502    0  0.35930145848E+03  0.81800312363E+03  0.17237298196E+04  0.19415125905E+04  0.50400001928E-02 0.  1.
       -1    1    3    3    0  502 -0.35930145848E+03 -0.81800312363E+03 -0.17998411083E+04  0.20093916152E+04  0.50400001928E-02 0. -1.
</event>
<event>
 5   0  0.1785559E-07  0.3925550E+04  0.7818609E-02  0.8019736E-01
        2   -1    0    0  501    0  0.00000000000E+00  0.00000000000E+00  0.18023601747E+04  0.18023601747E+04  0.25500000920E-02 0. -1.
       -2   -1    0    0    0  501  0.00000000000E+00  0.00000000000E+00 -0.21374676729E+04  0.21374676729E+04  0.25500000920E-02 0.  1.
    10030    2    1    2    0    0  0.00000000000E+00  0.00000000000E+00 -0.33510749828E+03  0.39398278476E+04  0.39255504625E+04 0.  0.
        2    1    3    3  502    0  0.88020343476E+03 -0.71680395509E+03 -0.17746021904E+04  0.21066036482E+04  0.25500000920E-02 0.  1.
       -2    1    3    3    0  502 -0.88020343476E+03  0.71680395509E+03  0.14394946921E+04  0.18332241994E+04  0.25500000920E-02 0. -1.
</event>
<event>
 5   0  0.1821433E-07  0.3927987E+04  0.7818609E-02  0.8019233E-01
        2   -1    0    0  501    0  0.00000000000E+00  0.00000000000E+00  0.23062920255E+04  0.23062920255E+04  0.25500000920E-02 0.  1.
       -2   -1    0    0    0  501  0.00000000000E+00  0.00000000000E+00 -0.16724990337E+04  0.16724990337E+04  0.25500000920E-02 0. -1.
    10030    2    1    2    0    0  0.00000000000E+00  0.00000000000E+00  0.63379299179E+03  0.39787910593E+04  0.39279873646E+04 0.  0.
        5    1    3    3  502    0 -0.12311174422E+04 -0.15300459625E+04  0.29296272372E+03  0.19855830507E+04  0.46999998093E+01 0. -1.
       -5    1    3    3    0  502  0.12311174422E+04  0.15300459625E+04  0.34083026808E+03  0.19932080086E+04  0.46999998093E+01 0.  1.
</event>
<event>
 5   0  0.5515000E-08  0.3987841E+04  0.7818609E-02  0.8007004E-01
       -1   -1    0    0    0  501  0.00000000000E+00  0.00000000000E+00  0.24669965528E+04  0.24669965528E+04  0.50400001928E-02 0. -1.
        1   -1    0    0  501    0  0.00000000000E+00  0.00000000000E+00 -0.16115625857E+04  0.16115625857E+04  0.50400001928E-02 0.  1.
    10030    2    1    2    0    0  0.00000000000E+00  0.00000000000E+00  0.85543396713E+03  0.40785591385E+04  0.39878411922E+04 0.  0.
        4    1    3    3  502    0 -0.18295451391E+03  0.77706887980E+03  0.22964131804E+04  0.24312185229E+04  0.12699999809E+01 0. -1.
       -4    1    3    3    0  502  0.18295451391E+03 -0.77706887980E+03 -0.14409792132E+04  0.16473406157E+04  0.12699999809E+01 0.  1.
</event>
<event>
 5   0  0.1819906E-07  0.3963679E+04  0.7818609E-02  0.8011914E-01
        2   -1    0    0  501    0  0.00000000000E+00  0.00000000000E+00  0.27558906793E+04  0.27558906793E+04  0.25500000920E-02 0. -1.
       -2   -1    0    0    0  501  0.00000000000E+00  0.00000000000E+00 -0.14251969282E+04  0.14251969282E+04  0.25500000920E-02 0.  1.
    10030    2    1    2    0    0  0.00000000000E+00  0.00000000000E+00  0.13306937511E+04  0.41810876075E+04  0.39636785594E+04 0.  0.
        1    1    3    3  502    0 -0.12024992022E+04  0.53876115698E+02  0.23261181657E+04  0.26191091402E+04  0.50400001928E-02 0. -1.
       -1    1    3    3    0  502  0.12024992022E+04 -0.53876115698E+02 -0.99542441460E+03  0.15619784673E+04  0.50400001928E-02 0.  1.
</event>
<event>
 5   0  0.5515000E-08  0.3893159E+04  0.7818609E-02  0.8026454E-01
        1   -1    0    0  501    0  0.00000000000E+00  0.00000000000E+00  0.17144080894E+04  0.17144080894E+04  0.50400001928E-02 0. -1.
       -1   -1    0    0    0  501  0.00000000000E+00  0.00000000000E+00 -0.22101924219E+04  0.22101924219E+04  0.50400001928E-02 0.  1.
    10030    2    1    2    0    0  0.00000000000E+00  0.00000000000E+00 -0.49578433251E+03  0.39246005114E+04  0.38931590090E+04 0.  0.
        1    1    3    3  502    0 -0.81317357880E+03 -0.57206159833E+03  0.14391423787E+04  0.17491816737E+04  0.50400001928E-02 0. -1.
       -1    1    3    3    0  502  0.81317357880E+03  0.57206159833E+03 -0.19349267112E+04  0.21754188376E+04  0.50400001928E-02 0.  1.
</event>
<event>
 5   0  0.5515000E-08  0.4027272E+04  0.7818609E-02  0.7999067E-01
        1   -1    0    0  501    0  0.00000000000E+00  0.00000000000E+00  0.17683224780E+04  0.17683224780E+04  0.50400001928E-02 0. -1.
       -1   -1    0    0    0  501  0.00000000000E+00  0.00000000000E+00 -0.22929812944E+04  0.22929812944E+04  0.50400001928E-02 0.  1.
    10030    2    1    2    0    0  0.00000000000E+00  0.00000000000E+00 -0.52465881636E+03  0.40613037724E+04  0.40272722106E+04 0.  0.
        2    1    3    3  502    0  0.21033159194E+03  0.62755085022E+03  0.16554956380E+04  0.17828979936E+04  0.25500000920E-02 0. -1.
       -2    1    3    3    0  502 -0.21033159194E+03 -0.62755085022E+03 -0.21801544543E+04  0.22784057788E+04  0.25500000920E-02 0.  1.
</event>
<event>
 5   0  0.5515000E-08  0.4021858E+04  0.7818609E-02  0.8000152E-01
        1   -1    0    0  501    0  0.00000000000E+00  0.00000000000E+00  0.26741905596E+04  0.26741905596E+04  0.50400001928E-02 0. -1.
       -1   -1    0    0    0  501  0.00000000000E+00  0.00000000000E+00 -0.15121719045E+04  0.15121719045E+04  0.50400001928E-02 0.  1.
    10030    2    1    2    0    0  0.00000000000E+00  0.00000000000E+00  0.11620186551E+04  0.41863624641E+04  0.40218581932E+04 0.  0.
        3    1    3    3  502    0 -0.40579049259E+03  0.11283331291E+04  0.22613608097E+04  0.25596004172E+04  0.10100000352E+00 0. -1.
       -3    1    3    3    0  502  0.40579049259E+03 -0.11283331291E+04 -0.10993421546E+04  0.16267620469E+04  0.10100000352E+00 0.  1.
</event>
<event>
 5   0  0.5515000E-08  0.3964772E+04  0.7818609E-02  0.8011691E-01
       -1   -1    0    0    0  501  0.00000000000E+00  0.00000000000E+00  0.20524655911E+04  0.20524655911E+04  0.50400001928E-02 0.  1.
        1   -1    0    0  501    0  0.00000000000E+00  0.00000000000E+00 -0.19146994943E+04  0.19146994943E+04  0.50400001928E-02 0. -1.
    10030    2    1    2    0    0  0.00000000000E+00  0.00000000000E+00  0.13776609672E+03  0.39671650854E+04  0.39647722907E+04 0.  0.
        5    1    3    3  502    0  0.11770383612E+04 -0.14643396784E+04 -0.56405126648E+03  0.19616028952E+04  0.46999998093E+01 0.  1.
       -5    1    3    3    0  502 -0.11770383612E+04  0.14643396784E+04  0.70181736320E+03  0.20055621902E+04  0.46999998093E+01 0. -1.
</event>
<event>
 5   0  0.5515000E-08  0.3986932E+04  0.7818609E-02  0.8007188E-01
       -1   -1    0    0    0  501  0.00000000000E+00  0.00000000000E+00  0.14118514777E+04  0.14118514777E+04  0.50400001928E-02 0.  1.
        1   -1    0    0  501    0  0.00000000000E+00  0.00000000000E+00 -0.28146782715E+04  0.28146782715E+04  0.50400001928E-02 0. -1.
    10030    2    1    2    0    0  0.00000000000E+00  0.00000000000E+00 -0.14028267937E+04  0.42265297492E+04  0.39869324935E+04 0.  0.
        2    1    3    3  502    0 -0.67197003055E+03 -0.18738672904E+04 -0.81252301698E+03  0.21501432503E+04  0.25500000920E-02 0.  1.
       -2    1    3    3    0  502  0.67197003055E+03  0.18738672904E+04 -0.59030377675E+03  0.20763864989E+04  0.25500000920E-02 0. -1.
</event>
<event>
 5   0  0.1819906E-07  0.3919672E+04  0.7818609E-02  0.8020950E-01
        2   -1    0    0  501    0  0.00000000000E+00  0.00000000000E+00  0.25388574652E+04  0.25388574652E+04  0.25500000920E-02 0. -1.
       -2   -1    0    0    0  501  0.00000000000E+00  0.00000000000E+00 -0.15128682370E+04  0.15128682370E+04  0.25500000920E-02 0.  1.
    10030    2    1    2    0    0  0.00000000000E+00  0.00000000000E+00  0.10259892281E+04  0.40517257022E+04  0.39196718319E+04 0.  0.
        1    1    3    3  502    0  0.32966282733E+02 -0.38595137216E+03 -0.14729043491E+04  0.15229880036E+04  0.50400001928E-02 0.  1.
       -1    1    3    3    0  502 -0.32966282733E+02  0.38595137216E+03  0.24988935773E+04  0.25287376986E+04  0.50400001928E-02 0. -1.
</event>
<event>
 5   0  0.1773903E-07  0.3828225E+04  0.7818609E-02  0.8040125E-01
        2   -1    0    0  501    0  0.00000000000E+00  0.00000000000E+00  0.19888374503E+04  0.19888374503E+04  0.25500000920E-02 0. -1.
       -2   -1    0    0    0  501  0.00000000000E+00  0.00000000000E+00 -0.18421950516E+04  0.18421950516E+04  0.25500000920E-02 0.  1.
    10030    2    1    2    0    0  0.00000000000E+00  0.00000000000E+00  0.14664239873E+03  0.38310325019E+04  0.38282249199E+04 0.  0.
        3    1    3    3  502    0 -0.17769234400E+04 -0.52856132168E+03  0.55010793034E+03  0.19337664615E+04  0.10100000352E+00 0.  1.
       -3    1    3    3    0  502  0.17769234400E+04  0.52856132168E+03 -0.40346553161E+03  0.18972660404E+04  0.10100000352E+00 0. -1.
</event>
<event>
 5   0  0.5515000E-08  0.3974033E+04  0.7818609E-02  0.8009805E-01
        1   -1    0    0  501    0  0.00000000000E+00  0.00000000000E+00  0.19278225386E+04  0.19278225386E+04  0.50400001928E-02 0.  1.
       -1   -1    0    0    0  501  0.00000000000E+00  0.00000000000E+00 -0.20480282498E+04  0.20480282498E+04  0.50400001928E-02 0. -1.
    10030    2    1    2    0    0  0.00000000000E+00  0.00000000000E+00 -0.12020571125E+03  0.39758507884E+04  0.39740332257E+04 0.  0.
        1    1    3    3  502    0  0.10027708895E+04 -0.92841188529E+03  0.13830328483E+04  0.19442936880E+04  0.50400001928E-02 0.  1.
       -1    1    3    3    0  502 -0.10027708895E+04  0.92841188529E+03 -0.15032385596E+04  0.20315571005E+04  0.50400001928E-02 0. -1.
</event>
<event>
 5   0  0.5515000E-08  0.3911132E+04  0.7818609E-02  0.8022718E-01
       -1   -1    0    0    0  501  0.00000000000E+00  0.00000000000E+00  0.16979248131E+04  0.16979248131E+04  0.50400001928E-02 0.  1.
        1   -1    0    0  501    0  0.00000000000E+00  0.00000000000E+00 -0.22523008548E+04  0.22523008548E+04  0.50400001928E-02 0. -1.
    10030    2    1    2    0    0  0.00000000000E+00  0.00000000000E+00 -0.55437604164E+03  0.39502256679E+04  0.39111315539E+04 0.  0.
        2    1    3    3  502    0 -0.90408230398E+03  0.16287841833E+04 -0.87805882591E+03  0.20594392513E+04  0.25500000920E-02 0. -1.
       -2    1    3    3    0  502  0.90408230398E+03 -0.16287841833E+04  0.32368278427E+03  0.18907864166E+04  0.25500000920E-02 0.  1.
</event>
<event>
 5   0  0.5515000E-08  0.4055207E+04  0.7818609E-02  0.7993501E-01
       -1   -1    0    0    0  501  0.00000000000E+00  0.00000000000E+00  0.15348292516E+04  0.15348292516E+04  0.50400001928E-02 0.  1.
        1   -1    0    0  501    0  0.00000000000E+00  0.00000000000E+00 -0.26785886394E+04  0.26785886394E+04  0.50400001928E-02 0. -1.
    10030    2    1    2    0    0  0.00000000000E+00  0.00000000000E+00 -0.11437593878E+04  0.42134178910E+04  0.40552071201E+04 0.  0.
        1    1    3    3  502    0  0.96423353759E+03 -0.13466903206E+04  0.64330288635E+03  0.17768398179E+04  0.50400001928E-02 0.  1.
       -1    1    3    3    0  502 -0.96423353759E+03  0.13466903206E+04 -0.17870622741E+04  0.24365780731E+04  0.50400001928E-02 0. -1.
</event>
<event>
 5   0  0.5515000E-08  0.4040255E+04  0.7818609E-02  0.7996475E-01
        1   -1    0    0  501    0  0.00000000000E+00  0.00000000000E+00  0.20795224041E+04  0.20795224041E+04  0.50400001928E-02 0.  1.
       -1   -1    0    0    0  501  0.00000000000E+00  0.00000000000E+00 -0.19624292293E+04  0.19624292293E+04  0.50400001928E-02 0. -1.
    10030    2    1    2    0    0  0.00000000000E+00  0.00000000000E+00  0.11709317480E+03  0.40419516335E+04  0.40402552142E+04 0.  0.
        4    1    3    3  502    0  0.16551552458E+04 -0.41771640959E+03  0.11392260771E+04  0.20522825230E+04  0.12699999809E+01 0.  1.
       -4    1    3    3    0  502 -0.16551552458E+04  0.41771640959E+03 -0.10221329023E+04  0.19896691105E+04  0.12699999809E+01 0. -1.
</event>
<event>
 5   0  0.5515000E-08  0.3791398E+04  0.7818609E-02  0.8048003E-01
        1   -1    0    0  501    0  0.00000000000E+00  0.00000000000E+00  0.29161144099E+04  0.29161144099E+04  0.50400001928E-02 0.  1.
       -1   -1    0    0    0  501  0.00000000000E+00  0.00000000000E+00 -0.12323505170E+04  0.12323505171E+04  0.50400001928E-02 0. -1.
    10030    2    1    2    0    0  0.00000000000E+00  0.00000000000E+00  0.16837638929E+04  0.41484649270E+04  0.37913982122E+04 0.  0.
        5    1    3    3  502    0 -0.18090505430E+03  0.14996424379E+04 -0.41141725308E+03  0.15655479317E+04  0.46999998093E+01 0. -1.
       -5    1    3    3    0  502  0.18090505430E+03 -0.14996424379E+04  0.20951811459E+04  0.25829169953E+04  0.46999998093E+01 0.  1.
</event>
<event>
 5   0  0.1819906E-07  0.3993648E+04  0.7818609E-02  0.8005829E-01
       -2   -1    0    0    0  501  0.00000000000E+00  0.00000000000E+00  0.14796204856E+04  0.14796204856E+04  0.25500000920E-02 0.  1.
        2   -1    0    0  501    0  0.00000000000E+00  0.00000000000E+00 -0.26948172135E+04  0.26948172135E+04  0.25500000920E-02 0. -1.
    10030    2    1    2    0    0  0.00000000000E+00  0.00000000000E+00 -0.12151967279E+04  0.41744376992E+04  0.39936483341E+04 0.  0.
        1    1    3    3  502    0 -0.70185940056E+03 -0.30513693045E+03 -0.25354306468E+04  0.26484191000E+04  0.50400001928E-02 0. -1.
       -1    1    3    3    0  502  0.70185940056E+03  0.30513693045E+03  0.13202339189E+04  0.15260185992E+04  0.50400001928E-02 0.  1.
</event>
<event>
 5   0  0.5515000E-08  0.4075433E+04  0.7818609E-02  0.7989500E-01
        1   -1    0    0  501    0  0.00000000000E+00  0.00000000000E+00  0.12754226410E+04  0.12754226410E+04  0.50400001928E-02 0. -1.
       -1   -1    0    0    0  501  0.00000000000E+00  0.00000000000E+00 -0.32556180207E+04  0.32556180207E+04  0.50400001928E-02 0.  1.
    10030    2    1    2    0    0  0.00000000000E+00  0.00000000000E+00 -0.19801953797E+04  0.45310406617E+04  0.40754331961E+04 0.  0.
        5    1    3    3  502    0  0.93909874979E+03  0.17781620191E+04 -0.62387986217E+03  0.21054725837E+04  0.46999998093E+01 0. -1.
       -5    1    3    3    0  502 -0.93909874979E+03 -0.17781620191E+04 -0.13563155175E+04  0.24255680781E+04  0.46999998093E+01 0.  1.
</event>
<event>
 5   0  0.1785559E-07  0.3987674E+04  0.7818609E-02  0.8007038E-01
       -2   -1    0    0    0  501  0.00000000000E+00  0.00000000000E+00  0.16595563149E+04  0.16595563149E+04  0.25500000920E-02 0.  1.
        2   -1    0    0  501    0  0.00000000000E+00  0.00000000000E+00 -0.23954515453E+04  0.23954515453E+04  0.25500000920E-02 0. -1.
    10030    2    1    2    0    0  0.00000000000E+00  0.00000000000E+00 -0.73589523039E+03  0.40550078602E+04  0.39876743794E+04 0.  0.
        2    1    3    3  502    0  0.83005302583E+03  0.16144576201E+04  0.47055151249E+03  0.18753346791E+04  0.25500000920E-02 0.  1.
       -2    1    3    3    0  502 -0.83005302583E+03 -0.16144576201E+04 -0.12064467429E+04  0.21796731811E+04  0.25500000920E-02 0. -1.
</event>
<event>
 5   0  0.5515000E-08  0.4014899E+04  0.7818609E-02  0.8001548E-01
        1   -1    0    0  501    0  0.00000000000E+00  0.00000000000E+00  0.21928968652E+04  0.21928968652E+04  0.50400001928E-02 0. -1.
       -1   -1    0    0    0  501  0.00000000000E+00  0.00000000000E+00 -0.18376849528E+04  0.18376849528E+04  0.50400001928E-02 0.  1.
    10030    2    1    2    0    0  0.00000000000E+00  0.00000000000E+00  0.35521191233E+03  0.40305818180E+04  0.40148990384E+04 0.  0.
        4    1    3    3  502    0 -0.85070189039E+03  0.15841753352E+04 -0.71837494150E+03  0.19363288379E+04  0.12699999809E+01 0.  1.
       -4    1    3    3    0  502  0.85070189039E+03 -0.15841753352E+04  0.10735868538E+04  0.20942529801E+04  0.12699999809E+01 0. -1.
</event>
<event>
 5   0  0.1773903E-07  0.3928684E+04  0.7818609E-02  0.8019090E-01
       -2   -1    0    0    0  501  0.00000000000E+00  0.00000000000E+00  0.22412149329E+04  0.22412149329E+04  0.25500000920E-02 0. -1.
        2   -1    0    0  501    0  0.00000000000E+00  0.00000000000E+00 -0.17216729173E+04  0.17216729173E+04  0.25500000920E-02 0.  1.
    10030    2    1    2    0    0  0.00000000000E+00  0.00000000000E+00  0.51954201556E+03  0.39628878502E+04  0.39286837754E+04 0.  0.
        3    1    3    3  502    0  0.27918944455E+03  0.91462979640E+03 -0.14710186009E+04  0.17545341674E+04  0.10100000352E+00 0.  1.
       -3    1    3    3    0  502 -0.27918944455E+03 -0.91462979640E+03  0.19905606164E+04  0.22083536828E+04  0.10100000352E+00 0. -1.
</event>
<event>
 5   0  0.5515000E-08  0.3990395E+04  0.7818609E-02  0.8006487E-01
       -1   -1    0    0    0  501  0.00000000000E+00  0.00000000000E+00  0.18309104066E+04  0.18309104066E+04  0.50400001928E-02 0. -1.
        1   -1    0    0  501    0  0.00000000000E+00  0.00000000000E+00 -0.21742262162E+04  0.21742262162E+04  0.50400001928E-02 0.  1.
    10030    2    1    2    0    0  0.00000000000E+00  0.00000000000E+00 -0.34331580962E+03  0.40051366228E+04  0.39903951712E+04 0.  0.
        1    1    3    3  502    0 -0.14410223993E+04  0.11826319094E+04 -0.88537528106E+03  0.20637473627E+04  0.50400001928E-02 0.  1.
       -1    1    3    3    0  502  0.14410223993E+04 -0.11826319094E+04  0.54205947144E+03  0.19413892601E+04  0.50400001928E-02 0. -1.
</event>
<event>
 5   0  0.1773903E-07  0.3996656E+04  0.7818609E-02  0.8005221E-01
        2   -1    0    0  501    0  0.00000000000E+00  0.00000000000E+00  0.16935601815E+04  0.16935601815E+04  0.25500000920E-02 0.  1.
       -2   -1    0    0    0  501  0.00000000000E+00  0.00000000000E+00 -0.23579410553E+04  0.23579410553E+04  0.25500000920E-02 0. -1.
    10030    2    1    2    0    0  0.00000000000E+00  0.00000000000E+00 -0.66438087375E+03  0.40515012368E+04  0.39966561432E+04 0.  0.
        3    1    3    3  502    0  0.18507880272E+04  0.33415530096E+03 -0.10169141793E+04  0.21380342712E+04  0.10100000352E+00 0. -1.
       -3    1    3    3    0  502 -0.18507880272E+04 -0.33415530096E+03  0.35253330560E+03  0.19134669656E+04  0.10100000352E+00 0.  1.
</event>
<event>
 5   0  0.5515000E-08  0.3996133E+04  0.7818609E-02  0.8005327E-01
        1   -1    0    0  501    0  0.00000000000E+00  0.00000000000E+00  0.17719764812E+04  0.17719764812E+04  0.50400001928E-02 0. -1.
       -1   -1    0    0    0  501  0.00000000000E+00  0.00000000000E+00 -0.22530040325E+04  0.22530040325E+04  0.50400001928E-02 0.  1.
    10030    2    1    2    0    0  0.00000000000E+00  0.00000000000E+00 -0.48102755136E+03  0.40249805137E+04  0.39961332098E+04 0.  0.
        5    1    3    3  502    0  0.17374713534E+04  0.79403176094E+03  0.34933726245E+03  0.19419968471E+04  0.46999998093E+01 0. -1.
       -5    1    3    3    0  502 -0.17374713534E+04 -0.79403176094E+03 -0.83036481381E+03  0.20829836666E+04  0.46999998093E+01 0.  1.
</event>
<event>
 5   0  0.5515000E-08  0.3796582E+04  0.7818609E-02  0.8046889E-01
        1   -1    0    0  501    0  0.00000000000E+00  0.00000000000E+00  0.22304877802E+04  0.22304877802E+04  0.50400001928E-02 0.  1.
       -1   -1    0    0    0  501  0.00000000000E+00  0.00000000000E+00 -0.16155695962E+04  0.16155695962E+04  0.50400001928E-02 0. -1.
    10030    2    1    2    0    0  0.00000000000E+00  0.00000000000E+00  0.61491818400E+03  0.38460573763E+04  0.37965817480E+04 0.  0.
        5    1    3    3  502    0 -0.11973403989E+04  0.11483775550E+04 -0.62710917608E+03  0.17736073546E+04  0.46999998093E+01 0. -1.
       -5    1    3    3    0  502  0.11973403989E+04 -0.11483775550E+04  0.12420273601E+04  0.20724500218E+04  0.46999998093E+01 0.  1.
</event>
<event>
 5   0  0.5515000E-08  0.3988040E+04  0.7818609E-02  0.8006964E-01
       -1   -1    0    0    0  501  0.00000000000E+00  0.00000000000E+00  0.32943774166E+04  0.32943774166E+04  0.50400001928E-02 0.  1.
        1   -1    0    0  501    0  0.00000000000E+00  0.00000000000E+00 -0.12069398139E+04  0.12069398139E+04  0.50400001928E-02 0. -1.
    10030    2    1    2    0    0  0.00000000000E+00  0.00000000000E+00  0.20874376027E+04  0.45013172305E+04  0.39880397521E+04 0.  0.
        3    1    3    3  502    0 -0.46016376699E+03  0.24755734594E+03 -0.11282905218E+04  0.12434125798E+04  0.10100000352E+00 0. -1.
       -3    1    3    3    0  502  0.46016376699E+03 -0.24755734594E+03  0.32157281245E+04  0.32579046507E+04  0.10100000352E+00 0.  1.
</event>
<event>
 5   0  0.1821433E-07  0.4019135E+04  0.7818609E-02  0.8000698E-01
       -2   -1    0    0    0  501  0.00000000000E+00  0.00000000000E+00  0.17774128776E+04  0.17774128776E+04  0.25500000920E-02 0. -1.
        2   -1    0    0  501    0  0.00000000000E+00  0.00000000000E+00 -0.22720447516E+04  0.22720447516E+04  0.25500000920E-02 0.  1.
    10030    2    1    2    0    0  0.00000000000E+00  0.00000000000E+00 -0.49463187399E+03  0.40494576292E+04  0.40191350313E+04 0.  0.
        5    1    3    3  502    0 -0.68232794896E+03  0.18900995277E+04 -0.26452860371E+03  0.20268313020E+04  0.46999998093E+01 0. -1.
       -5    1    3    3    0  502  0.68232794896E+03 -0.18900995277E+04 -0.23010327028E+03  0.20226263272E+04  0.46999998093E+01 0.  1.
</event>
<event>
 5   0  0.1819906E-07  0.3994222E+04  0.7818609E-02  0.8005713E-01
       -2   -1    0    0    0  501  0.00000000000E+00  0.00000000000E+00  0.20694668162E+04  0.20694668162E+04  0.25500000920E-02 0. -1.
        2   -1    0    0  501    0  0.00000000000E+00  0.00000000000E+00 -0.19272850122E+04  0.19272850122E+04  0.25500000920E-02 0.  1.
    10030    2    1    2    0    0  0.00000000000E+00  0.00000000000E+00  0.14218180398E+03  0.39967518285E+04  0.39942220160E+04 0.  0.
        1    1    3    3  502    0  0.83955267505E+03 -0.17546836892E+04  0.52380295581E+03  0.20144808462E+04  0.50400001928E-02 0. -1.
       -1    1    3    3    0  502 -0.83955267505E+03  0.17546836892E+04 -0.38162115183E+03  0.19822709822E+04  0.50400001928E-02 0.  1.
</event>
<event>
 5   0  0.1819906E-07  0.3998850E+04  0.7818609E-02  0.8004779E-01
       -2   -1    0    0    0  501  0.00000000000E+00  0.00000000000E+00  0.16340768459E+04  0.16340768459E+04  0.25500000920E-02 0.  1.
        2   -1    0    0  501    0  0.00000000000E+00  0.00000000000E+00 -0.24464577545E+04  0.24464577545E+04  0.25500000920E-02 0. -1.
    10030    2    1    2    0    0  0.00000000000E+00  0.00000000000E+00 -0.81238090859E+03  0.40805346005E+04  0.39988498202E+04 0.  0.
        1    1    3    3  502    0 -0.12642759402E+04  0.72271204247E+01  0.11744026839E+04  0.17255919414E+04  0.50400001928E-02 0.  1.
       -1    1    3    3    0  502  0.12642759402E+04 -0.72271204247E+01 -0.19867835925E+04  0.23549426591E+04  0.50400001928E-02 0. -1.
</event>
<event>
 5   0  0.5515000E-08  0.4010547E+04  0.7818609E-02  0.8002422E-01
        1   -1    0    0  501    0  0.00000000000E+00  0.00000000000E+00  0.19693011618E+04  0.19693011619E+04  0.50400001928E-02 0.  1.
       -1   -1    0    0    0  501  0.00000000000E+00  0.00000000000E+00 -0.20419026805E+04  0.20419026805E+04  0.50400001928E-02 0. -1.
    10030    2    1    2    0    0  0.00000000000E+00  0.00000000000E+00 -0.72601518643E+02  0.40112038423E+04  0.40105467563E+04 0.  0.
        2    1    3    3  502    0  0.31595379106E+03 -0.16076512228E+04  0.11200686153E+04  0.19846720019E+04  0.25500000920E-02 0.  1.
       -2    1    3    3    0  502 -0.31595379106E+03  0.16076512228E+04 -0.11926701339E+04  0.20265318405E+04  0.25500000920E-02 0. -1.
</event>
<event>
 5   0  0.5515000E-08  0.4001934E+04  0.7818609E-02  0.8004156E-01
        1   -1    0    0  501    0  0.00000000000E+00  0.00000000000E+00  0.17666816135E+04  0.17666816135E+04  0.50400001928E-02 0. -1.
       -1   -1    0    0    0  501  0.00000000000E+00  0.00000000000E+00 -0.22663218712E+04  0.22663218713E+04  0.50400001928E-02 0.  1.
    10030    2    1    2    0    0  0.00000000000E+00  0.00000000000E+00 -0.49964025778E+03  0.40330034847E+04  0.40019341225E+04 0.  0.
        2    1    3    3  502    0  0.12941471985E+04  0.14741249217E+04  0.14822470431E+03  0.19671888112E+04  0.25500000920E-02 0. -1.
       -2    1    3    3    0  502 -0.12941471985E+04 -0.14741249217E+04 -0.64786496208E+03  0.20658146735E+04  0.25500000920E-02 0.  1.
</event>
<event>
 5   0  0.1785559E-07  0.4013604E+04  0.7818609E-02  0.8001808E-01
       -2   -1    0    0    0  501  0.00000000000E+00  0.00000000000E+00  0.16624893098E+04  0.16624893098E+04  0.25500000920E-02 0. -1.
        2   -1    0    0  501    0  0.00000000000E+00  0.00000000000E+00 -0.24224244328E+04  0.24224244328E+04  0.25500000920E-02 0.  1.
    10030    2    1    2    0    0  0.00000000000E+00  0.00000000000E+00 -0.75993512301E+03  0.40849137427E+04  0.40136042274E+04 0.  0.
        2    1    3    3  502    0 -0.14533157698E+04  0.52290671381E+03  0.92408407869E+03  0.17998582007E+04  0.25500000920E-02 0.  1.
       -2    1    3    3    0  502  0.14533157698E+04 -0.52290671381E+03 -0.16840192017E+04  0.22850555420E+04  0.25500000920E-02 0. -1.
</event>
<event>
 5   0  0.5515000E-08  0.3648275E+04  0.7818609E-02  0.8079522E-01
        3   -1    0    0  501    0  0.00000000000E+00  0.00000000000E+00  0.19944324801E+04  0.19944324826E+04  0.10100000352E+00 0. -1.
       -3   -1    0    0    0  501  0.00000000000E+00  0.00000000000E+00 -0.16683834949E+04  0.16683834980E+04  0.10100000352E+00 0.  1.
    10030    2    1    2    0    0  0.00000000000E+00  0.00000000000E+00  0.32604898515E+03  0.36628159806E+04  0.36482753415E+04 0.  0.
        4    1    3    3  502    0 -0.24323064799E+03 -0.93837860559E+03 -0.13883724327E+04  0.16933089442E+04  0.12699999809E+01 0.  1.
       -4    1    3    3    0  502  0.24323064799E+03  0.93837860559E+03  0.17144214179E+04  0.19695070364E+04  0.12699999809E+01 0. -1.
</event>
<event>
 5   0  0.5515000E-08  0.3557695E+04  0.7818609E-02  0.8100251E-01
       -1   -1    0    0    0  501  0.00000000000E+00  0.00000000000E+00  0.11460787824E+04  0.11460787824E+04  0.50400001928E-02 0. -1.
        1   -1    0    0  501    0  0.00000000000E+00  0.00000000000E+00 -0.27609782308E+04  0.27609782308E+04  0.50400001928E-02 0.  1.
    10030    2    1    2    0    0  0.00000000000E+00  0.00000000000E+00 -0.16148994484E+04  0.39070570132E+04  0.35576950791E+04 0.  0.
        4    1    3    3  502    0 -0.15383000940E+04 -0.50793925405E+03 -0.49578516840E+00  0.16199911493E+04  0.12699999809E+01 0. -1.
       -4    1    3    3    0  502  0.15383000940E+04  0.50793925405E+03 -0.16144036632E+04  0.22870658639E+04  0.12699999809E+01 0.  1.
</event>
<event>
 5   0  0.5515000E-08  0.3987222E+04  0.7818609E-02  0.8007129E-01
       -1   -1    0    0    0  501  0.00000000000E+00  0.00000000000E+00  0.16701547801E+04  0.16701547801E+04  0.50400001928E-02 0. -1.
        1   -1    0    0  501    0  0.00000000000E+00  0.00000000000E+00 -0.23797101916E+04  0.23797101916E+04  0.50400001928E-02 0.  1.
    10030    2    1    2    0    0  0.00000000000E+00  0.00000000000E+00 -0.70955541151E+03  0.40498649717E+04  0.39872217655E+04 0.  0.
        3    1    3    3  502    0  0.14527153570E+04 -0.11054752699E+04 -0.11686321721E+04  0.21675236203E+04  0.10100000352E+00 0.  1.
       -3    1    3    3    0  502 -0.14527153570E+04  0.11054752699E+04  0.45907676062E+03  0.18823413514E+04  0.10100000352E+00 0. -1.
</event>
<event>
 5   0  0.5515000E-08  0.4057518E+04  0.7818609E-02  0.7993043E-01
        1   -1    0    0  501    0  0.00000000000E+00  0.00000000000E+00  0.29247828927E+04  0.29247828927E+04  0.50400001928E-02 0.  1.
       -1   -1    0    0    0  501  0.00000000000E+00  0.00000000000E+00 -0.14072369620E+04  0.14072369620E+04  0.50400001928E-02 0. -1.
    10030    2    1    2    0    0  0.00000000000E+00  0.00000000000E+00  0.15175459306E+04  0.43320198547E+04  0.40575177597E+04 0.  0.
        5    1    3    3  502    0  0.68746310641E+03  0.16925955446E+03 -0.12710553250E+04  0.14549426273E+04  0.46999998093E+01 0. -1.
       -5    1    3    3    0  502 -0.68746310641E+03 -0.16925955446E+03  0.27886012557E+04  0.28770772274E+04  0.46999998093E+01 0.  1.
</event>
<event>
 5   0  0.1785559E-07  0.4013364E+04  0.7818609E-02  0.8001856E-01
        2   -1    0    0  501    0  0.00000000000E+00  0.00000000000E+00  0.27952612499E+04  0.27952612499E+04  0.25500000920E-02 0. -1.
       -2   -1    0    0    0  501  0.00000000000E+00  0.00000000000E+00 -0.14405713606E+04  0.14405713606E+04  0.25500000920E-02 0.  1.
    10030    2    1    2    0    0  0.00000000000E+00  0.00000000000E+00  0.13546898893E+04  0.42358326106E+04  0.40133643254E+04 0.  0.
        2    1    3    3  502    0  0.11817301098E+04 -0.11915429627E+04 -0.48387600927E+03  0.17465384842E+04  0.25500000920E-02 0.  1.
       -2    1    3    3    0  502 -0.11817301098E+04  0.11915429627E+04  0.18385658986E+04  0.24892941264E+04  0.25500000920E-02 0. -1.
</event>
<event>
 5   0  0.1785559E-07  0.4084495E+04  0.7818609E-02  0.7987715E-01
       -2   -1    0    0    0  501  0.00000000000E+00  0.00000000000E+00  0.15927867208E+04  0.15927867208E+04  0.25500000920E-02 0.  1.
        2   -1    0    0  501    0  0.00000000000E+00  0.00000000000E+00 -0.26185397249E+04  0.26185397249E+04  0.25500000920E-02 0. -1.
    10030    2    1    2    0    0  0.00000000000E+00  0.00000000000E+00 -0.10257530040E+04  0.42113264457E+04  0.40844952206E+04 0.  0.
        2    1    3    3  502    0  0.13325121729E+04  0.13727990199E+04  0.22388164089E+03  0.19262110032E+04  0.25500000920E-02 0.  1.
       -2    1    3    3    0  502 -0.13325121729E+04 -0.13727990199E+04 -0.12496346449E+04  0.22851154425E+04  0.25500000920E-02 0. -1.
</event>
<event>
 5   0  0.5515000E-08  0.3957805E+04  0.7818609E-02  0.8013113E-01
        1   -1    0    0  501    0  0.00000000000E+00  0.00000000000E+00  0.17277533548E+04  0.17277533548E+04  0.50400001928E-02 0. -1.
       -1   -1    0    0    0  501  0.00000000000E+00  0.00000000000E+00 -0.22665591631E+04  0.22665591631E+04  0.50400001928E-02 0.  1.
    10030    2    1    2    0    0  0.00000000000E+00  0.00000000000E+00 -0.53880580832E+03  0.39943125180E+04  0.39578050473E+04 0.  0.
        1    1    3    3  502    0  0.18832109478E+04 -0.60308983773E+03 -0.34662254618E+03  0.20075726677E+04  0.50400001928E-02 0. -1.
       -1    1    3    3    0  502 -0.18832109478E+04  0.60308983773E+03 -0.19218326214E+03  0.19867398503E+04  0.50400001928E-02 0.  1.
</event>
<event>
 5   0  0.5515000E-08  0.3631797E+04  0.7818609E-02  0.8083247E-01
        1   -1    0    0  501    0  0.00000000000E+00  0.00000000000E+00  0.21824437109E+04  0.21824437109E+04  0.50400001928E-02 0.  1.
       -1   -1    0    0    0  501  0.00000000000E+00  0.00000000000E+00 -0.15109149858E+04  0.15109149859E+04  0.50400001928E-02 0. -1.
    10030    2    1    2    0    0  0.00000000000E+00  0.00000000000E+00  0.67152872509E+03  0.36933586968E+04  0.36317967502E+04 0.  0.
        3    1    3    3  502    0 -0.12517724560E+04 -0.43420535472E+03 -0.92706514193E+03  0.16170709197E+04  0.10100000352E+00 0. -1.
       -3    1    3    3    0  502  0.12517724560E+04  0.43420535472E+03  0.15985938670E+04  0.20762877771E+04  0.10100000352E+00 0.  1.
</event>
<event>
 5   0  0.5515000E-08  0.3999364E+04  0.7818609E-02  0.8004675E-01
       -1   -1    0    0    0  501  0.00000000000E+00  0.00000000000E+00  0.19649545699E+04  0.19649545699E+04  0.50400001928E-02 0.  1.
        1   -1    0    0  501    0  0.00000000000E+00  0.00000000000E+00 -0.20350232436E+04  0.20350232436E+04  0.50400001928E-02 0. -1.
    10030    2    1    2    0    0  0.00000000000E+00  0.00000000000E+00 -0.70068673684E+02  0.39999778135E+04  0.39993640606E+04 0.  0.
        1    1    3    3  502    0  0.44451688208E+02  0.19956975384E+04  0.83066826092E+02  0.19979200973E+04  0.50400001928E-02 0.  1.
       -1    1    3    3    0  502 -0.44451688208E+02 -0.19956975384E+04 -0.15313549978E+03  0.20020577162E+04  0.50400001928E-02 0. -1.
</event>
<event>
 5   0  0.5515000E-08  0.4005531E+04  0.7818609E-02  0.8003432E-01
        1   -1    0    0  501    0  0.00000000000E+00  0.00000000000E+00  0.25094525416E+04  0.25094525416E+04  0.50400001928E-02 0. -1.
       -1   -1    0    0    0  501  0.00000000000E+00  0.00000000000E+00 -0.15983839769E+04  0.15983839769E+04  0.50400001928E-02 0.  1.
    10030    2    1    2    0    0  0.00000000000E+00  0.00000000000E+00  0.91106856470E+03  0.41078365186E+04  0.40055305433E+04 0.  0.
        5    1    3    3  502    0 -0.75863915227E+03 -0.54964020702E+02 -0.14444844625E+04  0.16325170319E+04  0.46999998093E+01 0.  1.
       -5    1    3    3    0  502  0.75863915227E+03  0.54964020702E+02  0.23555530272E+04  0.24753194867E+04  0.46999998093E+01 0. -1.
</event>
<event>
 5   0  0.1819906E-07  0.4016078E+04  0.7818609E-02  0.8001311E-01
       -2   -1    0    0    0  501  0.00000000000E+00  0.00000000000E+00  0.11847155821E+04  0.11847155821E+04  0.25500000920E-02 0. -1.
        2   -1    0    0  501    0  0.00000000000E+00  0.00000000000E+00 -0.34035341850E+04  0.34035341850E+04  0.25500000920E-02 0.  1.
    10030    2    1    2    0    0  0.00000000000E+00  0.00000000000E+00 -0.22188186029E+04  0.45882497672E+04  0.40160776802E+04 0.  0.
        1    1    3    3  502    0  0.16373188483E+04 -0.49922258679E+03  0.90012544622E+02  0.17140998981E+04  0.50400001928E-02 0. -1.
       -1    1    3    3    0  502 -0.16373188483E+04  0.49922258679E+03 -0.23088311475E+04  0.28741498691E+04  0.50400001928E-02 0.  1.
</event>
<event>
 5   0  0.1773903E-07  0.4143941E+04  0.7818609E-02  0.7976122E-01
        2   -1    0    0  501    0  0.00000000000E+00  0.00000000000E+00  0.25790322464E+04  0.25790322464E+04  0.25500000920E-02 0.  1.
       -2   -1    0    0    0  501  0.00000000000E+00  0.00000000000E+00 -0.16646019995E+04  0.16646019995E+04  0.25500000920E-02 0. -1.
    10030    2    1    2    0    0  0.00000000000E+00  0.00000000000E+00  0.91443024687E+03  0.42436342459E+04  0.41439412323E+04 0.  0.
        3    1    3    3  502    0 -0.13406107240E+04 -0.15713610588E+04  0.29004095866E+03  0.20857939636E+04  0.10100000352E+00 0. -1.
       -3    1    3    3    0  502  0.13406107240E+04  0.15713610588E+04  0.62438928821E+03  0.21578402823E+04  0.10100000352E+00 0.  1.
</event>
<event>
 5   0  0.1819906E-07  0.3950150E+04  0.7818609E-02  0.8014679E-01
        2   -1    0    0  501    0  0.00000000000E+00  0.00000000000E+00  0.21071562566E+04  0.21071562566E+04  0.25500000920E-02 0. -1.
       -2   -1    0    0    0  501  0.00000000000E+00  0.00000000000E+00 -0.18512729821E+04  0.18512729821E+04  0.25500000920E-02 0.  1.
    10030    2    1    2    0    0  0.00000000000E+00  0.00000000000E+00  0.25588327457E+03  0.39584292387E+04  0.39501500968E+04 0.  0.
        1    1    3    3  502    0  0.10157319326E+04 -0.16854539755E+04  0.29698124000E+03  0.19901417838E+04  0.50400001928E-02 0. -1.
       -1    1    3    3    0  502 -0.10157319326E+04  0.16854539755E+04 -0.41097965428E+02  0.19682874549E+04  0.50400001928E-02 0.  1.
</event>
<event>
 5   0  0.1773903E-07  0.3718255E+04  0.7818609E-02  0.8063928E-01
       -2   -1    0    0    0  501  0.00000000000E+00  0.00000000000E+00  0.23336614276E+04  0.23336614276E+04  0.25500000920E-02 0.  1.
        2   -1    0    0  501    0  0.00000000000E+00  0.00000000000E+00 -0.14810868188E+04  0.14810868188E+04  0.25500000920E-02 0. -1.
    10030    2    1    2    0    0  0.00000000000E+00  0.00000000000E+00  0.85257460871E+03  0.38147482464E+04  0.37182550639E+04 0.  0.
        3    1    3    3  502    0 -0.13994581643E+04  0.11728517455E+04  0.78506347960E+03  0.19875585646E+04  0.10100000352E+00 0.  1.
       -3    1    3    3    0  502  0.13994581643E+04 -0.11728517455E+04  0.67511129108E+02  0.18271896818E+04  0.10100000352E+00 0. -1.
</event>
<event>
 5   0  0.1821433E-07  0.3939929E+04  0.7818609E-02  0.8016776E-01
        2   -1    0    0  501    0  0.00000000000E+00  0.00000000000E+00  0.20287172961E+04  0.20287172961E+04  0.25500000920E-02 0. -1.
       -2   -1    0    0    0  501  0.00000000000E+00  0.00000000000E+00 -0.19129131919E+04  0.19129131919E+04  0.25500000920E-02 0.  1.
    10030    2    1    2    0    0  0.00000000000E+00  0.00000000000E+00  0.11580410418E+03  0.39416304880E+04  0.39399289731E+04 0.  0.
        5    1    3    3  502    0  0.12656396818E+04 -0.10732219796E+04  0.11200049077E+04  0.20020195566E+04  0.46999998093E+01 0. -1.
       -5    1    3    3    0  502 -0.12656396818E+04  0.10732219796E+04 -0.10042008035E+04  0.19396109314E+04  0.46999998093E+01 0.  1.
</event>
<event>
 5   0  0.5515000E-08  0.4204451E+04  0.7818609E-02  0.7964526E-01
        1   -1    0    0  501    0  0.00000000000E+00  0.00000000000E+00  0.26414510895E+04  0.26414510895E+04  0.50400001928E-02 0. -1.
       -1   -1    0    0    0  501  0.00000000000E+00  0.00000000000E+00 -0.16730774288E+04  0.16730774288E+04  0.50400001928E-02 0.  1.
    10030    2    1    2    0    0  0.00000000000E+00  0.00000000000E+00  0.96837366066E+03  0.43145285183E+04  0.42044510687E+04 0.  0.
        2    1    3    3  502    0 -0.20073620607E+04 -0.49667052580E+03  0.87246881243E+03  0.22444121463E+04  0.25500000920E-02 0. -1.
       -2    1    3    3    0  502  0.20073620607E+04  0.49667052580E+03  0.95904848234E+02  0.20701163720E+04  0.25500000920E-02 0.  1.
</event>
<event>
 5   0  0.5515000E-08  0.3858347E+04  0.7818609E-02  0.8033748E-01
       -1   -1    0    0    0  501  0.00000000000E+00  0.00000000000E+00  0.16654480034E+04  0.16654480034E+04  0.50400001928E-02 0. -1.
        1   -1    0    0  501    0  0.00000000000E+00  0.00000000000E+00 -0.22346598932E+04  0.22346598932E+04  0.50400001928E-02 0.  1.
    10030    2    1    2    0    0  0.00000000000E+00  0.00000000000E+00 -0.56921188978E+03  0.39001078967E+04  0.38583467224E+04 0.  0.
        3    1    3    3  502    0  0.64869959737E+03 -0.38945695732E+03  0.15092063873E+04  0.16882511125E+04  0.10100000352E+00 0. -1.
       -3    1    3    3    0  502 -0.64869959737E+03  0.38945695732E+03 -0.20784182770E+04  0.22118567842E+04  0.10100000352E+00 0.  1.
</event>
<event>
 5   0  0.1819906E-07  0.3836568E+04  0.7818609E-02  0.8038353E-01
       -2   -1    0    0    0  501  0.00000000000E+00  0.00000000000E+00  0.13515778555E+04  0.13515778555E+04  0.25500000920E-02 0.  1.
        2   -1    0    0  501    0  0.00000000000E+00  0.00000000000E+00 -0.27226052987E+04  0.27226052987E+04  0.25500000920E-02 0. -1.
    10030    2    1    2    0    0  0.00000000000E+00  0.00000000000E+00 -0.13710274432E+04  0.40741831542E+04  0.38365677531E+04 0.  0.
        1    1    3    3  502    0  0.18054976835E+04  0.59737652004E+03 -0.95233715027E+03  0.21268819054E+04  0.50400001928E-02 0. -1.
       -1    1    3    3    0  502 -0.18054976835E+04 -0.59737652004E+03 -0.41869029296E+03  0.19473012487E+04  0.50400001928E-02 0.  1.
</event>
<event>
 5   0  0.5515000E-08  0.3296017E+04  0.7818609E-02  0.8163910E-01
        1   -1    0    0  501    0  0.00000000000E+00  0.00000000000E+00  0.21986996232E+04  0.21986996232E+04  0.50400001928E-02 0. -1.
       -1   -1    0    0    0  501  0.00000000000E+00  0.00000000000E+00 -0.12352443563E+04  0.12352443563E+04  0.50400001928E-02 0.  1.
    10030    2    1    2    0    0  0.00000000000E+00  0.00000000000E+00  0.96345526694E+03  0.34339439795E+04  0.32960165660E+04 0.  0.
        5    1    3    3  502    0 -0.10910987264E+04 -0.75842614837E+03  0.14973024373E+04  0.20019099211E+04  0.46999998093E+01 0. -1.
       -5    1    3    3    0  502  0.10910987264E+04  0.75842614837E+03 -0.53384717040E+03  0.14320340585E+04  0.46999998093E+01 0.  1.
</event>
<event>
 5   0  0.5515000E-08  0.3979814E+04  0.7818609E-02  0.8008631E-01
       -1   -1    0    0    0  501  0.00000000000E+00  0.00000000000E+00  0.17583418624E+04  0.17583418625E+04  0.50400001928E-02 0.  1.
        1   -1    0    0  501    0  0.00000000000E+00  0.00000000000E+00 -0.22519685369E+04  0.22519685369E+04  0.50400001928E-02 0. -1.
    10030    2    1    2    0    0  0.00000000000E+00  0.00000000000E+00 -0.49362667442E+03  0.40103103993E+04  0.39798143431E+04 0.  0.
        2    1    3    3  502    0  0.32784864308E+03  0.11099624873E+04  0.13843025131E+04  0.18043821391E+04  0.25500000920E-02 0.  1.
       -2    1    3    3    0  502 -0.32784864308E+03 -0.11099624873E+04 -0.18779291876E+04  0.22059282603E+04  0.25500000920E-02 0. -1.
</event>
<event>
 5   0  0.5515000E-08  0.4008607E+04  0.7818609E-02  0.8002812E-01
        1   -1    0    0  501    0  0.00000000000E+00  0.00000000000E+00  0.13493194015E+04  0.13493194015E+04  0.50400001928E-02 0.  1.
       -1   -1    0    0    0  501  0.00000000000E+00  0.00000000000E+00 -0.29772294586E+04  0.29772294587E+04  0.50400001928E-02 0. -1.
    10030    2    1    2    0    0  0.00000000000E+00  0.00000000000E+00 -0.16279100572E+04  0.43265488602E+04  0.40086074746E+04 0.  0.
        4    1    3    3  502    0  0.95607428053E+03 -0.16008112042E+04 -0.20414785988E+02  0.18646964680E+04  0.12699999809E+01 0.  1.
       -4    1    3    3    0  502 -0.95607428053E+03  0.16008112042E+04 -0.16074952712E+04  0.24618523922E+04  0.12699999809E+01 0. -1.
</event>
<event>
 5   0  0.1776653E-07  0.4004579E+04  0.7818609E-02  0.8003623E-01
       -2   -1    0    0    0  501  0.00000000000E+00  0.00000000000E+00  0.16596476786E+04  0.16596476786E+04  0.25500000920E-02 0.  1.
        2   -1    0    0  501    0  0.00000000000E+00  0.00000000000E+00 -0.24156711588E+04  0.24156711588E+04  0.25500000920E-02 0. -1.
    10030    2    1    2    0    0  0.00000000000E+00  0.00000000000E+00 -0.75602348020E+03  0.40753188373E+04  0.40045788946E+04 0.  0.
        4    1    3    3  502    0 -0.75049484619E+02  0.19963303231E+04 -0.24074300822E+03  0.20121943229E+04  0.12699999809E+01 0. -1.
       -4    1    3    3    0  502  0.75049484619E+02 -0.19963303231E+04 -0.51528047197E+03  0.20631245144E+04  0.12699999809E+01 0.  1.
</event>
<event>
 5   0  0.5515000E-08  0.4032337E+04  0.7818609E-02  0.7998055E-01
       -1   -1    0    0    0  501  0.00000000000E+00  0.00000000000E+00  0.15282883703E+04  0.15282883703E+04  0.50400001928E-02 0. -1.
        1   -1    0    0  501    0  0.00000000000E+00  0.00000000000E+00 -0.26597960187E+04  0.26597960187E+04  0.50400001928E-02 0.  1.
    10030    2    1    2    0    0  0.00000000000E+00  0.00000000000E+00 -0.11315076483E+04  0.41880843890E+04  0.40323369516E+04 0.  0.
        5    1    3    3  502    0  0.95024927772E+03 -0.13028929202E+04  0.69111481276E+03  0.17544701268E+04  0.46999998093E+01 0. -1.
       -5    1    3    3    0  502 -0.95024927772E+03  0.13028929202E+04 -0.18226224611E+04  0.24336142622E+04  0.46999998093E+01 0.  1.
</event>
<event>
 5   0  0.5515000E-08  0.4034495E+04  0.7818609E-02  0.7997624E-01
        3   -1    0    0  501    0  0.00000000000E+00  0.00000000000E+00  0.22414972620E+04  0.22414972643E+04  0.10100000352E+00 0.  1.
       -3   -1    0    0    0  501  0.00000000000E+00  0.00000000000E+00 -0.18154327658E+04  0.18154327686E+04  0.10100000352E+00 0. -1.
    10030    2    1    2    0    0  0.00000000000E+00  0.00000000000E+00  0.42606449621E+03  0.40569300328E+04  0.40344950535E+04 0.  0.
        4    1    3    3  502    0  0.87940326443E+03  0.76263942276E+03 -0.14436476868E+04  0.18544781603E+04  0.12699999809E+01 0. -1.
       -4    1    3    3    0  502 -0.87940326443E+03 -0.76263942276E+03  0.18697121830E+04  0.22024518725E+04  0.12699999809E+01 0.  1.
</event>
<event>
 5   0  0.1821433E-07  0.3966431E+04  0.7818609E-02  0.8011353E-01
        2   -1    0    0  501    0  0.00000000000E+00  0.00000000000E+00  0.14827724072E+04  0.14827724072E+04  0.25500000920E-02 0. -1.
       -2   -1    0    0    0  501  0.00000000000E+00  0.00000000000E+00 -0.26525609539E+04  0.26525609539E+04  0.25500000920E-02 0.  1.
    10030    2    1    2    0    0  0.00000000000E+00  0.00000000000E+00 -0.11697885467E+04  0.41353333612E+04  0.39664312378E+04 0.  0.
        5    1    3    3  502    0 -0.16636213211E+04 -0.61879696002E+03  0.33740953701E+03  0.18067686248E+04  0.46999998093E+01 0.  1.
       -5    1    3    3    0  502  0.16636213211E+04  0.61879696002E+03 -0.15071980837E+04  0.23285647364E+04  0.46999998093E+01 0. -1.
</event>
<event>
 5   0  0.1819906E-07  0.4003957E+04  0.7818609E-02  0.8003749E-01
        2   -1    0    0  501    0  0.00000000000E+00  0.00000000000E+00  0.19232456156E+04  0.19232456156E+04  0.25500000920E-02 0. -1.
       -2   -1    0    0    0  501  0.00000000000E+00  0.00000000000E+00 -0.20839345398E+04  0.20839345398E+04  0.25500000920E-02 0.  1.
    10030    2    1    2    0    0  0.00000000000E+00  0.00000000000E+00 -0.16068892421E+03  0.40071801555E+04  0.40039570263E+04 0.  0.
        1    1    3    3  502    0 -0.11742791429E+04 -0.15746322042E+04  0.30664481771E+03  0.19880717111E+04  0.50400001928E-02 0. -1.
       -1    1    3    3    0  502  0.11742791429E+04  0.15746322042E+04 -0.46733374191E+03  0.20191084444E+04  0.50400001928E-02 0.  1.
</event>
<event>
 5   0  0.5515000E-08  0.4028810E+04  0.7818609E-02  0.7998760E-01
        1   -1    0    0  501    0  0.00000000000E+00  0.00000000000E+00  0.23798609458E+04  0.23798609458E+04  0.50400001928E-02 0.  1.
       -1   -1    0    0    0  501  0.00000000000E+00  0.00000000000E+00 -0.17050688076E+04  0.17050688076E+04  0.50400001928E-02 0. -1.
    10030    2    1    2    0    0  0.00000000000E+00  0.00000000000E+00  0.67479213826E+03  0.40849297534E+04  0.40288095835E+04 0.  0.
        2    1    3    3  502    0  0.16665819687E+04 -0.99232378463E+03  0.88868366323E+03  0.21335324242E+04  0.25500000920E-02 0.  1.
       -2    1    3    3    0  502 -0.16665819687E+04  0.99232378463E+03 -0.21389152497E+03  0.19513973292E+04  0.25500000920E-02 0. -1.
</event>
<event>
 5   0  0.5515000E-08  0.3857473E+04  0.7818609E-02  0.8033933E-01
       -1   -1    0    0    0  501  0.00000000000E+00  0.00000000000E+00  0.14524258061E+04  0.14524258061E+04  0.50400001928E-02 0. -1.
        1   -1    0    0  501    0  0.00000000000E+00  0.00000000000E+00 -0.25612488406E+04  0.25612488406E+04  0.50400001928E-02 0.  1.
    10030    2    1    2    0    0  0.00000000000E+00  0.00000000000E+00 -0.11088230345E+04  0.40136746467E+04  0.38574727021E+04 0.  0.
        2    1    3    3  502    0  0.10612358618E+04 -0.44487385656E+03 -0.21649559309E+04  0.24517684404E+04  0.25500000920E-02 0.  1.
       -2    1    3    3    0  502 -0.10612358618E+04  0.44487385656E+03  0.10561328963E+04  0.15619062063E+04  0.25500000920E-02 0. -1.
</event>
<event>
 5   0  0.1819906E-07  0.3992116E+04  0.7818609E-02  0.8006139E-01
        2   -1    0    0  501    0  0.00000000000E+00  0.00000000000E+00  0.26495007793E+04  0.26495007794E+04  0.25500000920E-02 0.  1.
       -2   -1    0    0    0  501  0.00000000000E+00  0.00000000000E+00 -0.15037730971E+04  0.15037730971E+04  0.25500000920E-02 0. -1.
    10030    2    1    2    0    0  0.00000000000E+00  0.00000000000E+00  0.11457276822E+04  0.41532738765E+04  0.39921162272E+04 0.  0.
        1    1    3    3  502    0  0.36471203540E+03  0.18875271514E+04  0.14083632633E+02  0.19224910831E+04  0.50400001928E-02 0. -1.
       -1    1    3    3    0  502 -0.36471203540E+03 -0.18875271514E+04  0.11316440496E+04  0.22307827933E+04  0.50400001928E-02 0.  1.
</event>
<event>
 5   0  0.1819906E-07  0.4009307E+04  0.7818609E-02  0.8002672E-01
       -2   -1    0    0    0  501  0.00000000000E+00  0.00000000000E+00  0.12100679582E+04  0.12100679582E+04  0.25500000920E-02 0. -1.
        2   -1    0    0  501    0  0.00000000000E+00  0.00000000000E+00 -0.33210000277E+04  0.33210000277E+04  0.25500000920E-02 0.  1.
    10030    2    1    2    0    0  0.00000000000E+00  0.00000000000E+00 -0.21109320695E+04  0.45310679860E+04  0.40093070338E+04 0.  0.
        1    1    3    3  502    0  0.31647550729E+03 -0.10075744769E+03  0.11787579219E+04  0.12246546650E+04  0.50400001928E-02 0. -1.
       -1    1    3    3    0  502 -0.31647550729E+03  0.10075744769E+03 -0.32896899914E+04  0.33064133210E+04  0.50400001928E-02 0.  1.
</event>
<event>
 5   0  0.1773903E-07  0.3871864E+04  0.7818609E-02  0.8030907E-01
       -2   -1    0    0    0  501  0.00000000000E+00  0.00000000000E+00  0.21790051286E+04  0.21790051286E+04  0.25500000920E-02 0. -1.
        2   -1    0    0  501    0  0.00000000000E+00  0.00000000000E+00 -0.17199740602E+04  0.17199740603E+04  0.25500000920E-02 0.  1.
    10030    2    1    2    0    0  0.00000000000E+00  0.00000000000E+00  0.45903106833E+03  0.38989791888E+04  0.38718637881E+04 0.  0.
        3    1    3    3  502    0  0.20536404560E+03  0.10837020011E+04 -0.13726160576E+04  0.17608688964E+04  0.10100000352E+00 0.  1.
       -3    1    3    3    0  502 -0.20536404560E+03 -0.10837020011E+04  0.18316471260E+04  0.21381102924E+04  0.10100000352E+00 0. -1.
</event>
<event>
 5   0  0.5515000E-08  0.3880216E+04  0.7818609E-02  0.8029156E-01
       -1   -1    0    0    0  501  0.00000000000E+00  0.00000000000E+00  0.19190935532E+04  0.19190935532E+04  0.50400001928E-02 0.  1.
        1   -1    0    0  501    0  0.00000000000E+00  0.00000000000E+00 -0.19613530184E+04  0.19613530184E+04  0.50400001928E-02 0. -1.
    10030    2    1    2    0    0  0.00000000000E+00  0.00000000000E+00 -0.42259465180E+02  0.38804465716E+04  0.38802164543E+04 0.  0.
        1    1    3    3  502    0 -0.87734066121E+03 -0.15576243550E+04  0.73263883310E+03  0.19320144738E+04  0.50400001928E-02 0.  1.
       -1    1    3    3    0  502  0.87734066121E+03  0.15576243550E+04 -0.77489829828E+03  0.19484320978E+04  0.50400001928E-02 0. -1.
</event>
<event>
 5   0  0.5515000E-08  0.3782973E+04  0.7818609E-02  0.8049819E-01
       -1   -1    0    0    0  501  0.00000000000E+00  0.00000000000E+00  0.16563054863E+04  0.16563054863E+04  0.50400001928E-02 0.  1.
        1   -1    0    0  501    0  0.00000000000E+00  0.00000000000E+00 -0.21600617234E+04  0.21600617234E+04  0.50400001928E-02 0. -1.
    10030    2    1    2    0    0  0.00000000000E+00  0.00000000000E+00 -0.50375623711E+03  0.38163672097E+04  0.37829734777E+04 0.  0.
        4    1    3    3  502    0  0.12746119967E+04  0.79383481381E+03  0.90845363103E+03  0.17550211014E+04  0.12699999809E+01 0.  1.
       -4    1    3    3    0  502 -0.12746119967E+04 -0.79383481381E+03 -0.14122098681E+04  0.20613461083E+04  0.12699999809E+01 0. -1.
</event>
<event>
 5   0  0.5515000E-08  0.4008584E+04  0.7818609E-02  0.8002817E-01
        1   -1    0    0  501    0  0.00000000000E+00  0.00000000000E+00  0.22065090538E+04  0.22065090539E+04  0.50400001928E-02 0.  1.
       -1   -1    0    0    0  501  0.00000000000E+00  0.00000000000E+00 -0.18206070450E+04  0.18206070450E+04  0.50400001928E-02 0. -1.
    10030    2    1    2    0    0  0.00000000000E+00  0.00000000000E+00  0.38590200884E+03  0.40271160989E+04  0.40085837541E+04 0.  0.
        3    1    3    3  502    0 -0.75337398828E+03  0.18566075106E+04  0.14150778940E+03  0.20086284573E+04  0.10100000352E+00 0.  1.
       -3    1    3    3    0  502  0.75337398828E+03 -0.18566075106E+04  0.24439421944E+03  0.20184876416E+04  0.10100000352E+00 0. -1.
</event>
<event>
 5   0  0.1821433E-07  0.3948457E+04  0.7818609E-02  0.8015026E-01
        2   -1    0    0  501    0  0.00000000000E+00  0.00000000000E+00  0.16130321351E+04  0.16130321351E+04  0.25500000920E-02 0. -1.
       -2   -1    0    0    0  501  0.00000000000E+00  0.00000000000E+00 -0.24163053562E+04  0.24163053562E+04  0.25500000920E-02 0.  1.
    10030    2    1    2    0    0  0.00000000000E+00  0.00000000000E+00 -0.80327322105E+03  0.40293374913E+04  0.39484570089E+04 0.  0.
        5    1    3    3  502    0 -0.88346917323E+03 -0.11572924079E+04 -0.17622570991E+04  0.22859168118E+04  0.46999998093E+01 0.  1.
       -5    1    3    3    0  502  0.88346917323E+03  0.11572924079E+04  0.95898387801E+03  0.17434206795E+04  0.46999998093E+01 0. -1.
</event>
<event>
 5   0  0.5515000E-08  0.3994843E+04  0.7818609E-02  0.8005588E-01
       -1   -1    0    0    0  501  0.00000000000E+00  0.00000000000E+00  0.28509766589E+04  0.28509766589E+04  0.50400001928E-02 0.  1.
        1   -1    0    0  501    0  0.00000000000E+00  0.00000000000E+00 -0.13994123218E+04  0.13994123218E+04  0.50400001928E-02 0. -1.
    10030    2    1    2    0    0  0.00000000000E+00  0.00000000000E+00  0.14515643371E+04  0.42503889807E+04  0.39948426080E+04 0.  0.
        3    1    3    3  502    0  0.13952116522E+04 -0.73361587434E+03  0.20309925615E+04  0.25709411896E+04  0.10100000352E+00 0.  1.
       -3    1    3    3    0  502 -0.13952116522E+04  0.73361587434E+03 -0.57942822447E+03  0.16794477911E+04  0.10100000352E+00 0. -1.
</event>
<event>
 5   0  0.1821433E-07  0.4059780E+04  0.7818609E-02  0.7992595E-01
       -2   -1    0    0    0  501  0.00000000000E+00  0.00000000000E+00  0.25971359463E+04  0.25971359463E+04  0.25500000920E-02 0. -1.
        2   -1    0    0  501    0  0.00000000000E+00  0.00000000000E+00 -0.15865370653E+04  0.15865370653E+04  0.25500000920E-02 0.  1.
    10030    2    1    2    0    0  0.00000000000E+00  0.00000000000E+00  0.10105988810E+04  0.41836730117E+04  0.40597795224E+04 0.  0.
        5    1    3    3  502    0  0.57567849833E+03 -0.15599446086E+04 -0.69453315036E+03  0.18020075755E+04  0.46999998093E+01 0.  1.
       -5    1    3    3    0  502 -0.57567849833E+03  0.15599446086E+04  0.17051320314E+04  0.23816654361E+04  0.46999998093E+01 0. -1.
</event>
<event>
 5   0  0.1819906E-07  0.4018388E+04  0.7818609E-02  0.8000847E-01
        2   -1    0    0  501    0  0.00000000000E+00  0.00000000000E+00  0.21164327672E+04  0.21164327672E+04  0.25500000920E-02 0. -1.
       -2   -1    0    0    0  501  0.00000000000E+00  0.00000000000E+00 -0.19073886091E+04  0.19073886091E+04  0.25500000920E-02 0.  1.
    10030    2    1    2    0    0  0.00000000000E+00  0.00000000000E+00  0.20904415816E+03  0.40238213763E+04  0.40183876130E+04 0.  0.
        1    1    3    3  502    0 -0.12609098352E+03  0.75483490808E+03  0.19647707033E+04  0.21085536728E+04  0.50400001928E-02 0. -1.
       -1    1    3    3    0  502  0.12609098352E+03 -0.75483490808E+03 -0.17557265451E+04  0.19152677035E+04  0.50400001928E-02 0.  1.
</event>
<event>
 5   0  0.1776653E-07  0.4019168E+04  0.7818609E-02  0.8000691E-01
       -2   -1    0    0    0  501  0.00000000000E+00  0.00000000000E+00  0.19273086182E+04  0.19273086182E+04  0.25500000920E-02 0. -1.
        2   -1    0    0  501    0  0.00000000000E+00  0.00000000000E+00 -0.20953719016E+04  0.20953719016E+04  0.25500000920E-02 0.  1.
    10030    2    1    2    0    0  0.00000000000E+00  0.00000000000E+00 -0.16806328341E+03  0.40226805198E+04  0.40191682345E+04 0.  0.
        4    1    3    3  502    0 -0.80881529180E+02  0.15849059266E+04 -0.13179748280E+04  0.20628930845E+04  0.12699999809E+01 0.  1.
       -4    1    3    3    0  502  0.80881529180E+02 -0.15849059266E+04  0.11499115446E+04  0.19597874352E+04  0.12699999809E+01 0. -1.
</event>
<event>
 5   0  0.1821433E-07  0.4106443E+04  0.7818609E-02  0.7983411E-01
        2   -1    0    0  501    0  0.00000000000E+00  0.00000000000E+00  0.21272042359E+04  0.21272042359E+04  0.25500000920E-02 0.  1.
       -2   -1    0    0    0  501  0.00000000000E+00  0.00000000000E+00 -0.19818114155E+04  0.19818114155E+04  0.25500000920E-02 0. -1.
    10030    2    1    2    0    0  0.00000000000E+00  0.00000000000E+00  0.14539282032E+03  0.41090156514E+04  0.41064425664E+04 0.  0.
        5    1    3    3  502    0  0.50395069609E+03 -0.12998013834E+04  0.15810379048E+04  0.21078787648E+04  0.46999998093E+01 0.  1.
       -5    1    3    3    0  502 -0.50395069609E+03  0.12998013834E+04 -0.14356450845E+04  0.20011368867E+04  0.46999998093E+01 0. -1.
</event>
<event>
 5   0  0.5515000E-08  0.4035308E+04  0.7818609E-02  0.7997462E-01
       -1   -1    0    0    0  501  0.00000000000E+00  0.00000000000E+00  0.15470681423E+04  0.15470681423E+04  0.50400001928E-02 0.  1.
        1   -1    0    0  501    0  0.00000000000E+00  0.00000000000E+00 -0.26313817669E+04  0.26313817669E+04  0.50400001928E-02 0. -1.
    10030    2    1    2    0    0  0.00000000000E+00  0.00000000000E+00 -0.10843136246E+04  0.41784499092E+04  0.40353076224E+04 0.  0.
        4    1    3    3  502    0  0.44187066199E+03 -0.84504845053E+03 -0.23833097523E+04  0.25670067304E+04  0.12699999809E+01 0. -1.
       -4    1    3    3    0  502 -0.44187066199E+03  0.84504845053E+03  0.12989961277E+04  0.16114431788E+04  0.12699999809E+01 0.  1.
</event>
<event>
 5   0  0.1819906E-07  0.4030456E+04  0.7818609E-02  0.7998431E-01
        2   -1    0    0  501    0  0.00000000000E+00  0.00000000000E+00  0.18001857608E+04  0.18001857608E+04  0.25500000920E-02 0. -1.
       -2   -1    0    0    0  501  0.00000000000E+00  0.00000000000E+00 -0.22559580129E+04  0.22559580129E+04  0.25500000920E-02 0.  1.
    10030    2    1    2    0    0  0.00000000000E+00  0.00000000000E+00 -0.45577225204E+03  0.40561437737E+04  0.40304558014E+04 0.  0.
        1    1    3    3  502    0  0.12860886630E+04 -0.10722340087E+04  0.90061428278E+03  0.19012669210E+04  0.50400001928E-02 0. -1.
       -1    1    3    3    0  502 -0.12860886630E+04  0.10722340087E+04 -0.13563865348E+04  0.21548768527E+04  0.50400001928E-02 0.  1.
</event>
<event>
 5   0  0.5515000E-08  0.3968686E+04  0.7818609E-02  0.8010893E-01
       -1   -1    0    0    0  501  0.00000000000E+00  0.00000000000E+00  0.25297758217E+04  0.25297758217E+04  0.50400001928E-02 0. -1.
        1   -1    0    0  501    0  0.00000000000E+00  0.00000000000E+00 -0.15565084589E+04  0.15565084589E+04  0.50400001928E-02 0.  1.
    10030    2    1    2    0    0  0.00000000000E+00  0.00000000000E+00  0.97326736274E+03  0.40862842806E+04  0.39686861633E+04 0.  0.
        1    1    3    3  502    0  0.58860975110E+02 -0.16777927552E+04  0.15758866403E+04  0.23025793899E+04  0.50400001928E-02 0. -1.
       -1    1    3    3    0  502 -0.58860975110E+02  0.16777927552E+04 -0.60261927751E+03  0.17837048907E+04  0.50400001928E-02 0.  1.
</event>
<event>
 5   0  0.5515000E-08  0.3804668E+04  0.7818609E-02  0.8045154E-01
       -1   -1    0    0    0  501  0.00000000000E+00  0.00000000000E+00  0.29295731989E+04  0.29295731989E+04  0.50400001928E-02 0.  1.
        1   -1    0    0  501    0  0.00000000000E+00  0.00000000000E+00 -0.12352905387E+04  0.12352905387E+04  0.50400001928E-02 0. -1.
    10030    2    1    2    0    0  0.00000000000E+00  0.00000000000E+00  0.16942826602E+04  0.41648637376E+04  0.38046676885E+04 0.  0.
        4    1    3    3  502    0 -0.88700136295E+03  0.43820324629E+03  0.26257996299E+04  0.28059969373E+04  0.12699999809E+01 0.  1.
       -4    1    3    3    0  502  0.88700136295E+03 -0.43820324629E+03 -0.93151696977E+03  0.13588668002E+04  0.12699999809E+01 0. -1.
</event>
<event>
 5   0  0.5515000E-08  0.4046449E+04  0.7818609E-02  0.7995241E-01
       -1   -1    0    0    0  501  0.00000000000E+00  0.00000000000E+00  0.20350332659E+04  0.20350332659E+04  0.50400001928E-02 0.  1.
        1   -1    0    0  501    0  0.00000000000E+00  0.00000000000E+00 -0.20114841003E+04  0.20114841003E+04  0.50400001928E-02 0. -1.
    10030    2    1    2    0    0  0.00000000000E+00  0.00000000000E+00  0.23549165611E+02  0.40465173661E+04  0.40464488420E+04 0.  0.
        2    1    3    3  502    0 -0.60931933433E+02  0.13401238453E+04 -0.15027781977E+04  0.20144445718E+04  0.25500000920E-02 0. -1.
       -2    1    3    3    0  502  0.60931933433E+02 -0.13401238453E+04  0.15263273633E+04  0.20320727943E+04  0.25500000920E-02 0.  1.
</event>
<event>
 5   0  0.5515000E-08  0.3521899E+04  0.7818609E-02  0.8108620E-01
       -1   -1    0    0    0  501  0.00000000000E+00  0.00000000000E+00  0.17743622417E+04  0.17743622417E+04  0.50400001928E-02 0. -1.
        1   -1    0    0  501    0  0.00000000000E+00  0.00000000000E+00 -0.17476376937E+04  0.17476376937E+04  0.50400001928E-02 0.  1.
    10030    2    1    2    0    0  0.00000000000E+00  0.00000000000E+00  0.26724548088E+02  0.35219999354E+04  0.35218985425E+04 0.  0.
        1    1    3    3  502    0  0.22463087831E+03  0.17177309008E+04 -0.30269089898E+03  0.17586017910E+04  0.50400001928E-02 0. -1.
       -1    1    3    3    0  502 -0.22463087831E+03 -0.17177309008E+04  0.32941544706E+03  0.17633981444E+04  0.50400001928E-02 0.  1.
</event>
<event>
 5   0  0.5515000E-08  0.3999004E+04  0.7818609E-02  0.8004748E-01
        1   -1    0    0  501    0  0.00000000000E+00  0.00000000000E+00  0.22694603895E+04  0.22694603895E+04  0.50400001928E-02 0.  1.
       -1   -1    0    0    0  501  0.00000000000E+00  0.00000000000E+00 -0.17616555357E+04  0.17616555357E+04  0.50400001928E-02 0. -1.
    10030    2    1    2    0    0  0.00000000000E+00  0.00000000000E+00  0.50780485377E+03  0.40311159253E+04  0.39990036051E+04 0.  0.
        1    1    3    3  502    0 -0.73159927956E+03 -0.54530908831E+03 -0.15395437037E+04  0.17896352487E+04  0.50400001928E-02 0. -1.
       -1    1    3    3    0  502  0.73159927956E+03  0.54530908831E+03  0.20473485575E+04  0.22414806766E+04  0.50400001928E-02 0.  1.
</event>
<event>
 5   0  0.1776653E-07  0.3975223E+04  0.7818609E-02  0.8009564E-01
       -2   -1    0    0    0  501  0.00000000000E+00  0.00000000000E+00  0.15874651570E+04  0.15874651570E+04  0.25500000920E-02 0.  1.
        2   -1    0    0  501    0  0.00000000000E+00  0.00000000000E+00 -0.24886211701E+04  0.24886211701E+04  0.25500000920E-02 0. -1.
    10030    2    1    2    0    0  0.00000000000E+00  0.00000000000E+00 -0.90115601311E+03  0.40760863270E+04  0.39752229605E+04 0.  0.
        4    1    3    3  502    0  0.94801377747E+03  0.17326503416E+04 -0.22177858189E+03  0.19874593533E+04  0.12699999809E+01 0. -1.
       -4    1    3    3    0  502 -0.94801377747E+03 -0.17326503416E+04 -0.67937743122E+03  0.20886269738E+04  0.12699999809E+01 0.  1.
</event>
<event>
 5   0  0.1776653E-07  0.3994029E+04  0.7818609E-02  0.8005752E-01
       -2   -1    0    0    0  501  0.00000000000E+00  0.00000000000E+00  0.12759698700E+04  0.12759698700E+04  0.25500000920E-02 0.  1.
        2   -1    0    0  501    0  0.00000000000E+00  0.00000000000E+00 -0.31255184036E+04  0.31255184036E+04  0.25500000920E-02 0. -1.
    10030    2    1    2    0    0  0.00000000000E+00  0.00000000000E+00 -0.18495485336E+04  0.44014882736E+04  0.39940291992E+04 0.  0.
        4    1    3    3  502    0  0.18509059978E+04 -0.68811409792E+01 -0.17510411467E+04  0.25479495821E+04  0.12699999809E+01 0. -1.
       -4    1    3    3    0  502 -0.18509059978E+04  0.68811409792E+01 -0.98507386984E+02  0.18535386915E+04  0.12699999809E+01 0.  1.
</event>
<event>
 5   0  0.5515000E-08  0.4027174E+04  0.7818609E-02  0.7999087E-01
       -1   -1    0    0    0  501  0.00000000000E+00  0.00000000000E+00  0.22692785136E+04  0.22692785136E+04  0.50400001928E-02 0.  1.
        1   -1    0    0  501    0  0.00000000000E+00  0.00000000000E+00 -0.17867053179E+04  0.17867053179E+04  0.50400001928E-02 0. -1.
    10030    2    1    2    0    0  0.00000000000E+00  0.00000000000E+00  0.48257319571E+03  0.40559838315E+04  0.40271736928E+04 0.  0.
        5    1    3    3  502    0  0.57982852746E+03  0.16158334542E+04  0.13011413553E+04  0.21540914069E+04  0.46999998093E+01 0.  1.
       -5    1    3    3    0  502 -0.57982852746E+03 -0.16158334542E+04 -0.81856815957E+03  0.19018924246E+04  0.46999998093E+01 0. -1.
</event>
<event>
 5   0  0.1785559E-07  0.4036522E+04  0.7818609E-02  0.7997219E-01
        2   -1    0    0  501    0  0.00000000000E+00  0.00000000000E+00  0.15132525129E+04  0.15132525129E+04  0.25500000920E-02 0. -1.
       -2   -1    0    0    0  501  0.00000000000E+00  0.00000000000E+00 -0.26918030677E+04  0.26918030677E+04  0.25500000920E-02 0.  1.
    10030    2    1    2    0    0  0.00000000000E+00  0.00000000000E+00 -0.11785505548E+04  0.42050555806E+04  0.40365221448E+04 0.  0.
        2    1    3    3  502    0  0.60268543269E+03  0.15567796646E+04 -0.17709111312E+04  0.24337047663E+04  0.25500000920E-02 0.  1.
       -2    1    3    3    0  502 -0.60268543269E+03 -0.15567796646E+04  0.59236057639E+03  0.17713508143E+04  0.25500000920E-02 0. -1.
</event>
<event>
 5   0  0.1819906E-07  0.3460757E+04  0.7818609E-02  0.8123153E-01
       -2   -1    0    0    0  501  0.00000000000E+00  0.00000000000E+00  0.20575143651E+04  0.20575143651E+04  0.25500000920E-02 0.  1.
        2   -1    0    0  501    0  0.00000000000E+00  0.00000000000E+00 -0.14552561014E+04  0.14552561014E+04  0.25500000920E-02 0. -1.
    10030    2    1    2    0    0  0.00000000000E+00  0.00000000000E+00  0.60225826371E+03  0.35127704666E+04  0.34607573354E+04 0.  0.
        1    1    3    3  502    0 -0.11742109576E+04  0.79854447772E+03  0.13048108621E+04  0.19284646851E+04  0.50400001928E-02 0.  1.
       -1    1    3    3    0  502  0.11742109576E+04 -0.79854447772E+03 -0.70255259835E+03  0.15843057815E+04  0.50400001928E-02 0. -1.
</event>
<event>
 5   0  0.1776653E-07  0.3966197E+04  0.7818609E-02  0.8011401E-01
       -2   -1    0    0    0  501  0.00000000000E+00  0.00000000000E+00  0.15043229995E+04  0.15043229995E+04  0.25500000920E-02 0. -1.
        2   -1    0    0  501    0  0.00000000000E+00  0.00000000000E+00 -0.26142522383E+04  0.26142522383E+04  0.25500000920E-02 0.  1.
    10030    2    1    2    0    0  0.00000000000E+00  0.00000000000E+00 -0.11099292388E+04  0.41185752378E+04  0.39661970544E+04 0.  0.
        4    1    3    3  502    0 -0.14292969899E+04  0.13159217161E+04 -0.96790871371E+03  0.21705733665E+04  0.12699999809E+01 0.  1.
       -4    1    3    3    0  502  0.14292969899E+04 -0.13159217161E+04 -0.14202052508E+03  0.19480018714E+04  0.12699999809E+01 0. -1.
</event>
<event>
 5   0  0.5515000E-08  0.4052130E+04  0.7818609E-02  0.7994112E-01
        1   -1    0    0  501    0  0.00000000000E+00  0.00000000000E+00  0.14267522729E+04  0.14267522729E+04  0.50400001928E-02 0.  1.
       -1   -1    0    0    0  501  0.00000000000E+00  0.00000000000E+00 -0.28771218151E+04  0.28771218151E+04  0.50400001928E-02 0. -1.
    10030    2    1    2    0    0  0.00000000000E+00  0.00000000000E+00 -0.14503695422E+04  0.43038740880E+04  0.40521303479E+04 0.  0.
        5    1    3    3  502    0  0.47474566488E+03  0.40735916934E+03 -0.27719748626E+04  0.28416881722E+04  0.46999998093E+01 0. -1.
       -5    1    3    3    0  502 -0.47474566488E+03 -0.40735916934E+03  0.13216053205E+04  0.14621859158E+04  0.46999998093E+01 0.  1.
</event>
<event>
 5   0  0.1776653E-07  0.3964120E+04  0.7818609E-02  0.8011824E-01
        2   -1    0    0  501    0  0.00000000000E+00  0.00000000000E+00  0.25851916254E+04  0.25851916254E+04  0.25500000920E-02 0. -1.
       -2   -1    0    0    0  501  0.00000000000E+00  0.00000000000E+00 -0.15196407682E+04  0.15196407682E+04  0.25500000920E-02 0.  1.
    10030    2    1    2    0    0  0.00000000000E+00  0.00000000000E+00  0.10655508572E+04  0.41048323935E+04  0.39641203753E+04 0.  0.
        4    1    3    3  502    0 -0.16124459252E+04  0.11299012261E+04  0.29686777499E+03  0.19911782269E+04  0.12699999809E+01 0. -1.
       -4    1    3    3    0  502  0.16124459252E+04 -0.11299012261E+04  0.76868308220E+03  0.21136541667E+04  0.12699999809E+01 0.  1.
</event>
<event>
 5   0  0.1821433E-07  0.3990579E+04  0.7818609E-02  0.8006450E-01
        2   -1    0    0  501    0  0.00000000000E+00  0.00000000000E+00  0.29289194898E+04  0.29289194898E+04  0.25500000920E-02 0.  1.
       -2   -1    0    0    0  501  0.00000000000E+00  0.00000000000E+00 -0.13592656076E+04  0.13592656076E+04  0.25500000920E-02 0. -1.
    10030    2    1    2    0    0  0.00000000000E+00  0.00000000000E+00  0.15696538822E+04  0.42881850974E+04  0.39905786698E+04 0.  0.
        5    1    3    3  502    0  0.10701492308E+04 -0.92936798126E+03  0.22939149875E+04  0.26964814630E+04  0.46999998093E+01 0.  1.
       -5    1    3    3    0  502 -0.10701492308E+04  0.92936798126E+03 -0.72426110531E+03  0.15917036343E+04  0.46999998093E+01 0. -1.
</event>
<event>
 5   0  0.1819906E-07  0.3977697E+04  0.7818609E-02  0.8009061E-01
       -2   -1    0    0    0  501  0.00000000000E+00  0.00000000000E+00  0.16802384187E+04  0.16802384187E+04  0.25500000920E-02 0.  1.
        2   -1    0    0  501    0  0.00000000000E+00  0.00000000000E+00 -0.23541413594E+04  0.23541413594E+04  0.25500000920E-02 0. -1.
    10030    2    1    2    0    0  0.00000000000E+00  0.00000000000E+00 -0.67390294065E+03  0.40343797781E+04  0.39776972007E+04 0.  0.
        1    1    3    3  502    0 -0.38789423771E+03  0.32918431296E+03  0.16131258862E+04  0.16914488985E+04  0.50400001928E-02 0.  1.
       -1    1    3    3    0  502  0.38789423771E+03 -0.32918431296E+03 -0.22870288268E+04  0.23429308796E+04  0.50400001928E-02 0. -1.
</event>
<event>
 5   0  0.5515000E-08  0.3689137E+04  0.7818609E-02  0.8070373E-01
       -1   -1    0    0    0  501  0.00000000000E+00  0.00000000000E+00  0.17330290757E+04  0.17330290757E+04  0.50400001928E-02 0. -1.
        1   -1    0    0  501    0  0.00000000000E+00  0.00000000000E+00 -0.19632866548E+04  0.19632866548E+04  0.50400001928E-02 0.  1.
    10030    2    1    2    0    0  0.00000000000E+00  0.00000000000E+00 -0.23025757908E+03  0.36963157305E+04  0.36891369488E+04 0.  0.
        4    1    3    3  502    0  0.79571295107E+03 -0.96775793958E+03  0.12412842412E+04  0.17636617336E+04  0.12699999809E+01 0. -1.
       -4    1    3    3    0  502 -0.79571295107E+03  0.96775793958E+03 -0.14715418203E+04  0.19326539969E+04  0.12699999809E+01 0.  1.
</event>
<event>
 5   0  0.1819906E-07  0.3966231E+04  0.7818609E-02  0.8011394E-01
        2   -1    0    0  501    0  0.00000000000E+00  0.00000000000E+00  0.22057675737E+04  0.22057675737E+04  0.25500000920E-02 0.  1.
       -2   -1    0    0    0  501  0.00000000000E+00  0.00000000000E+00 -0.17829378075E+04  0.17829378075E+04  0.25500000920E-02 0. -1.
    10030    2    1    2    0    0  0.00000000000E+00  0.00000000000E+00  0.42282976620E+03  0.39887053812E+04  0.39662306548E+04 0.  0.
        1    1    3    3  502    0 -0.79166896759E+03  0.41654696909E+03 -0.15684998757E+04  0.18056696796E+04  0.50400001928E-02 0. -1.
       -1    1    3    3    0  502  0.79166896759E+03 -0.41654696909E+03  0.19913296419E+04  0.21830357016E+04  0.50400001928E-02 0.  1.
</event>
<event>
 5   0  0.5515000E-08  0.3350654E+04  0.7818609E-02  0.8150125E-01
       -1   -1    0    0    0  501  0.00000000000E+00  0.00000000000E+00  0.14564087101E+04  0.14564087101E+04  0.50400001928E-02 0. -1.
        1   -1    0    0  501    0  0.00000000000E+00  0.00000000000E+00 -0.19271519162E+04  0.19271519162E+04  0.50400001928E-02 0.  1.
    10030    2    1    2    0    0  0.00000000000E+00  0.00000000000E+00 -0.47074320611E+03  0.33835606262E+04  0.33506541668E+04 0.  0.
        4    1    3    3  502    0  0.15638590296E+04 -0.56910686817E+03 -0.43009045237E+03  0.17188708800E+04  0.12699999809E+01 0. -1.
       -4    1    3    3    0  502 -0.15638590296E+04  0.56910686817E+03 -0.40652753738E+02  0.16646897463E+04  0.12699999809E+01 0.  1.
</event>
<event>
 5   0  0.1773903E-07  0.4000233E+04  0.7818609E-02  0.8004499E-01
       -2   -1    0    0    0  501  0.00000000000E+00  0.00000000000E+00  0.19296331208E+04  0.19296331208E+04  0.25500000920E-02 0. -1.
        2   -1    0    0  501    0  0.00000000000E+00  0.00000000000E+00 -0.20731748132E+04  0.20731748132E+04  0.25500000920E-02 0.  1.
    10030    2    1    2    0    0  0.00000000000E+00  0.00000000000E+00 -0.14354169236E+03  0.40028079340E+04  0.40002333856E+04 0.  0.
        3    1    3    3  502    0  0.13115298731E+04  0.51134094041E+03  0.13500189254E+04  0.19504182307E+04  0.10100000352E+00 0. -1.
       -3    1    3    3    0  502 -0.13115298731E+04 -0.51134094041E+03 -0.14935606177E+04  0.20523897034E+04  0.10100000352E+00 0.  1.
</event>
<event>
 5   0  0.5515000E-08  0.3938919E+04  0.7818609E-02  0.8016983E-01
       -1   -1    0    0    0  501  0.00000000000E+00  0.00000000000E+00  0.21932487034E+04  0.21932487034E+04  0.50400001928E-02 0.  1.
        1   -1    0    0  501    0  0.00000000000E+00  0.00000000000E+00 -0.17685046873E+04  0.17685046873E+04  0.50400001928E-02 0. -1.
    10030    2    1    2    0    0  0.00000000000E+00  0.00000000000E+00  0.42474401614E+03  0.39617533907E+04  0.39389189443E+04 0.  0.
        4    1    3    3  502    0  0.13015024729E+04  0.96265158986E+03 -0.91580882206E+03  0.18599231656E+04  0.12699999809E+01 0. -1.
       -4    1    3    3    0  502 -0.13015024729E+04 -0.96265158986E+03  0.13405528382E+04  0.21018302252E+04  0.12699999809E+01 0.  1.
</event>
<event>
 5   0  0.5515000E-08  0.4013943E+04  0.7818609E-02  0.8001740E-01
       -1   -1    0    0    0  501  0.00000000000E+00  0.00000000000E+00  0.36312250203E+04  0.36312250203E+04  0.50400001928E-02 0.  1.
        1   -1    0    0  501    0  0.00000000000E+00  0.00000000000E+00 -0.11092492896E+04  0.11092492897E+04  0.50400001928E-02 0. -1.
    10030    2    1    2    0    0  0.00000000000E+00  0.00000000000E+00  0.25219757306E+04  0.47404743099E+04  0.40139425877E+04 0.  0.
        1    1    3    3  502    0  0.52675891786E+03  0.25611527950E+03  0.35280392288E+04  0.35763292346E+04  0.50400001928E-02 0.  1.
       -1    1    3    3    0  502 -0.52675891786E+03 -0.25611527950E+03 -0.10060634982E+04  0.11641450753E+04  0.50400001928E-02 0. -1.
</event>
<event>
 5   0  0.1819906E-07  0.4237106E+04  0.7818609E-02  0.7958351E-01
       -2   -1    0    0    0  501  0.00000000000E+00  0.00000000000E+00  0.24601982807E+04  0.24601982807E+04  0.25500000920E-02 0. -1.
        2   -1    0    0  501    0  0.00000000000E+00  0.00000000000E+00 -0.18243520133E+04  0.18243520133E+04  0.25500000920E-02 0.  1.
    10030    2    1    2    0    0  0.00000000000E+00  0.00000000000E+00  0.63584626737E+03  0.42845502940E+04  0.42371064119E+04 0.  0.
        1    1    3    3  502    0 -0.32097317442E+03 -0.54037483934E+03  0.23637525673E+04  0.24458853090E+04  0.50400001928E-02 0. -1.
       -1    1    3    3    0  502  0.32097317442E+03  0.54037483934E+03 -0.17279062999E+04  0.18386649850E+04  0.50400001928E-02 0.  1.
</event>
<event>
 5   0  0.1776653E-07  0.4009511E+04  0.7818609E-02  0.8002631E-01
       -2   -1    0    0    0  501  0.00000000000E+00  0.00000000000E+00  0.13386172154E+04  0.13386172154E+04  0.25500000920E-02 0. -1.
        2   -1    0    0  501    0  0.00000000000E+00  0.00000000000E+00 -0.30023856599E+04  0.30023856599E+04  0.25500000920E-02 0.  1.
    10030    2    1    2    0    0  0.00000000000E+00  0.00000000000E+00 -0.16637684445E+04  0.43410028754E+04  0.40095112579E+04 0.  0.
        4    1    3    3  502    0  0.24800705422E+03  0.12294152778E+04  0.86141395307E+03  0.15215140603E+04  0.12699999809E+01 0. -1.
       -4    1    3    3    0  502 -0.24800705422E+03 -0.12294152778E+04 -0.25251823976E+04  0.28194888151E+04  0.12699999809E+01 0.  1.
</event>
<event>
 5   0  0.1819906E-07  0.4078612E+04  0.7818609E-02  0.7988873E-01
        2   -1    0    0  501    0  0.00000000000E+00  0.00000000000E+00  0.26236097214E+04  0.26236097214E+04  0.25500000920E-02 0.  1.
       -2   -1    0    0    0  501  0.00000000000E+00  0.00000000000E+00 -0.15851327215E+04  0.15851327215E+04  0.25500000920E-02 0. -1.
    10030    2    1    2    0    0  0.00000000000E+00  0.00000000000E+00  0.10384769999E+04  0.42087424430E+04  0.40786123219E+04 0.  0.
        1    1    3    3  502    0 -0.11675492915E+04 -0.57032265568E+03 -0.11026367209E+04  0.17041851478E+04  0.50400001928E-02 0. -1.
       -1    1    3    3    0  502  0.11675492915E+04  0.57032265568E+03  0.21411137208E+04  0.25045572952E+04  0.50400001928E-02 0.  1.
</event>
<event>
 5   0  0.1773903E-07  0.3986900E+04  0.7818609E-02  0.8007194E-01
       -2   -1    0    0    0  501  0.00000000000E+00  0.00000000000E+00  0.12925091155E+04  0.12925091155E+04  0.25500000920E-02 0. -1.
        2   -1    0    0  501    0  0.00000000000E+00  0.00000000000E+00 -0.30745181753E+04  0.30745181753E+04  0.25500000920E-02 0.  1.
    10030    2    1    2    0    0  0.00000000000E+00  0.00000000000E+00 -0.17820090598E+04  0.43670272908E+04  0.39868999322E+04 0.  0.
        3    1    3    3  502    0  0.14083384169E+03  0.25021151596E+03 -0.30517502587E+04  0.30652274998E+04  0.10100000352E+00 0.  1.
       -3    1    3    3    0  502 -0.14083384169E+03 -0.25021151596E+03  0.12697411988E+04  0.13017997910E+04  0.10100000352E+00 0. -1.
</event>
<event>
 5   0  0.5515000E-08  0.3993239E+04  0.7818609E-02  0.8005912E-01
       -1   -1    0    0    0  501  0.00000000000E+00  0.00000000000E+00  0.20662220408E+04  0.20662220408E+04  0.50400001928E-02 0. -1.
        1   -1    0    0  501    0  0.00000000000E+00  0.00000000000E+00 -0.19293619972E+04  0.19293619972E+04  0.50400001928E-02 0.  1.
    10030    2    1    2    0    0  0.00000000000E+00  0.00000000000E+00  0.13686004364E+03  0.39955840380E+04  0.39932394285E+04 0.  0.
        1    1    3    3  502    0 -0.12538532120E+04  0.15524681562E+04  0.13315981339E+03  0.20000091973E+04  0.50400001928E-02 0.  1.
       -1    1    3    3    0  502  0.12538532120E+04 -0.15524681562E+04  0.37002302415E+01  0.19955748407E+04  0.50400001928E-02 0. -1.
</event>
<event>
 5   0  0.5515000E-08  0.3938040E+04  0.7818609E-02  0.8017164E-01
        1   -1    0    0  501    0  0.00000000000E+00  0.00000000000E+00  0.18875080989E+04  0.18875080989E+04  0.50400001928E-02 0. -1.
       -1   -1    0    0    0  501  0.00000000000E+00  0.00000000000E+00 -0.20540524271E+04  0.20540524271E+04  0.50400001928E-02 0.  1.
    10030    2    1    2    0    0  0.00000000000E+00  0.00000000000E+00 -0.16654432820E+03  0.39415605260E+04  0.39380404222E+04 0.  0.
        1    1    3    3  502    0  0.24677277815E+03  0.91171339275E+03 -0.18125093193E+04  0.20438464099E+04  0.50400001928E-02 0.  1.
       -1    1    3    3    0  502 -0.24677277815E+03 -0.91171339275E+03  0.16459649911E+04  0.18977141161E+04  0.50400001928E-02 0. -1.
</event>
<event>
 5   0  0.5515000E-08  0.4023485E+04  0.7818609E-02  0.7999826E-01
        1   -1    0    0  501    0  0.00000000000E+00  0.00000000000E+00  0.20280116653E+04  0.20280116653E+04  0.50400001928E-02 0. -1.
       -1   -1    0    0    0  501  0.00000000000E+00  0.00000000000E+00 -0.19956034264E+04  0.19956034264E+04  0.50400001928E-02 0.  1.
    10030    2    1    2    0    0  0.00000000000E+00  0.00000000000E+00  0.32408238919E+02  0.40236150917E+04  0.40234845734E+04 0.  0.
        3    1    3    3  502    0  0.18796014995E+04  0.68603661765E+03  0.22491877240E+03  0.20134886397E+04  0.10100000352E+00 0. -1.
       -3    1    3    3    0  502 -0.18796014995E+04 -0.68603661765E+03 -0.19251053348E+03  0.20101264521E+04  0.10100000352E+00 0.  1.
</event>
<event>
 5   0  0.5515000E-08  0.3986964E+04  0.7818609E-02  0.8007182E-01
        1   -1    0    0  501    0  0.00000000000E+00  0.00000000000E+00  0.16908503915E+04  0.16908503915E+04  0.50400001928E-02 0. -1.
       -1   -1    0    0    0  501  0.00000000000E+00  0.00000000000E+00 -0.23502787676E+04  0.23502787676E+04  0.50400001928E-02 0.  1.
    10030    2    1    2    0    0  0.00000000000E+00  0.00000000000E+00 -0.65942837613E+03  0.40411291591E+04  0.39869636438E+04 0.  0.
        5    1    3    3  502    0 -0.12671705142E+04  0.56565179247E+03 -0.17803336095E+04  0.22572755511E+04  0.46999998093E+01 0.  1.
       -5    1    3    3    0  502  0.12671705142E+04 -0.56565179247E+03  0.11209052334E+04  0.17838536080E+04  0.46999998093E+01 0. -1.
</event>
<event>
 5   0  0.5515000E-08  0.4001180E+04  0.7818609E-02  0.8004309E-01
        1   -1    0    0  501    0  0.00000000000E+00  0.00000000000E+00  0.14875354896E+04  0.14875354896E+04  0.50400001928E-02 0. -1.
       -1   -1    0    0    0  501  0.00000000000E+00  0.00000000000E+00 -0.26905982455E+04  0.26905982455E+04  0.50400001928E-02 0.  1.
    10030    2    1    2    0    0  0.00000000000E+00  0.00000000000E+00 -0.12030627559E+04  0.41781337351E+04  0.40011800152E+04 0.  0.
        5    1    3    3  502    0 -0.13308467001E+04 -0.68952571938E+03 -0.19851751805E+04  0.24874768831E+04  0.46999998093E+01 0.  1.
       -5    1    3    3    0  502  0.13308467001E+04  0.68952571938E+03  0.78211242458E+03  0.16906568521E+04  0.46999998093E+01 0. -1.
</event>
<event>
 5   0  0.1776653E-07  0.3991820E+04  0.7818609E-02  0.8006199E-01
       -2   -1    0    0    0  501  0.00000000000E+00  0.00000000000E+00  0.16245146223E+04  0.16245146223E+04  0.25500000920E-02 0. -1.
        2   -1    0    0  501    0  0.00000000000E+00  0.00000000000E+00 -0.24522137599E+04  0.24522137599E+04  0.25500000920E-02 0.  1.
    10030    2    1    2    0    0  0.00000000000E+00  0.00000000000E+00 -0.82769913759E+03  0.40767283823E+04  0.39918201914E+04 0.  0.
        4    1    3    3  502    0  0.19257947710E+04  0.44544402241E+03 -0.13128849901E+03  0.19809957496E+04  0.12699999809E+01 0. -1.
       -4    1    3    3    0  502 -0.19257947710E+04 -0.44544402241E+03 -0.69641063857E+03  0.20957326327E+04  0.12699999809E+01 0.  1.
</event>
<event>
 5   0  0.1819906E-07  0.4073321E+04  0.7818609E-02  0.7989917E-01
       -2   -1    0    0    0  501  0.00000000000E+00  0.00000000000E+00  0.27193135994E+04  0.27193135994E+04  0.25500000920E-02 0. -1.
        2   -1    0    0  501    0  0.00000000000E+00  0.00000000000E+00 -0.15253798331E+04  0.15253798331E+04  0.25500000920E-02 0.  1.
    10030    2    1    2    0    0  0.00000000000E+00  0.00000000000E+00  0.11939337663E+04  0.42446934326E+04  0.40733210649E+04 0.  0.
        1    1    3    3  502    0 -0.42701990292E+03 -0.38002925180E+03 -0.14400685700E+04  0.15493759118E+04  0.50400001928E-02 0.  1.
       -1    1    3    3    0  502  0.42701990292E+03  0.38002925180E+03  0.26340023363E+04  0.26953175207E+04  0.50400001928E-02 0. -1.
</event>
<event>
 5   0  0.5515000E-08  0.3998392E+04  0.7818609E-02  0.8004871E-01
       -1   -1    0    0    0  501  0.00000000000E+00  0.00000000000E+00  0.15251565883E+04  0.15251565883E+04  0.50400001928E-02 0. -1.
        1   -1    0    0  501    0  0.00000000000E+00  0.00000000000E+00 -0.26205726875E+04  0.26205726875E+04  0.50400001928E-02 0.  1.
    10030    2    1    2    0    0  0.00000000000E+00  0.00000000000E+00 -0.10954160992E+04  0.41457292758E+04  0.39983915263E+04 0.  0.
        4    1    3    3  502    0  0.11722836105E+04  0.56834575047E+03 -0.21200024551E+04  0.24883082161E+04  0.12699999809E+01 0.  1.
       -4    1    3    3    0  502 -0.11722836105E+04 -0.56834575047E+03  0.10245863559E+04  0.16574210597E+04  0.12699999809E+01 0. -1.
</event>
<event>
 5   0  0.1821433E-07  0.3974836E+04  0.7818609E-02  0.8009642E-01
        2   -1    0    0  501    0  0.00000000000E+00  0.00000000000E+00  0.17016263143E+04  0.17016263143E+04  0.25500000920E-02 0.  1.
       -2   -1    0    0    0  501  0.00000000000E+00  0.00000000000E+00 -0.23212094410E+04  0.23212094410E+04  0.25500000920E-02 0. -1.
    10030    2    1    2    0    0  0.00000000000E+00  0.00000000000E+00 -0.61958312670E+03  0.40228357554E+04  0.39748363820E+04 0.  0.
        5    1    3    3  502    0  0.25262205353E+03 -0.19079965339E+04  0.19171247786E+03  0.19341779751E+04  0.46999998093E+01 0.  1.
       -5    1    3    3    0  502 -0.25262205353E+03  0.19079965339E+04 -0.81129560456E+03  0.20886577803E+04  0.46999998093E+01 0. -1.
</event>
<event>
 5   0  0.5515000E-08  0.3984913E+04  0.7818609E-02  0.8007597E-01
        1   -1    0    0  501    0  0.00000000000E+00  0.00000000000E+00  0.27842958939E+04  0.27842958939E+04  0.50400001928E-02 0. -1.
       -1   -1    0    0    0  501  0.00000000000E+00  0.00000000000E+00 -0.14258118886E+04  0.14258118886E+04  0.50400001928E-02 0.  1.
    10030    2    1    2    0    0  0.00000000000E+00  0.00000000000E+00  0.13584840054E+04  0.42101077825E+04  0.39849126399E+04 0.  0.
        2    1    3    3  502    0  0.12322824594E+04 -0.42855117743E+03  0.22702332317E+04  0.26184222535E+04  0.25500000920E-02 0. -1.
       -2    1    3    3    0  502 -0.12322824594E+04  0.42855117743E+03 -0.91174922635E+03  0.15916855290E+04  0.25500000920E-02 0.  1.
</event>
<event>
 5   0  0.1785559E-07  0.4037533E+04  0.7818609E-02  0.7997017E-01
        2   -1    0    0  501    0  0.00000000000E+00  0.00000000000E+00  0.26126731500E+04  0.26126731500E+04  0.25500000920E-02 0. -1.
       -2   -1    0    0    0  501  0.00000000000E+00  0.00000000000E+00 -0.15598656130E+04  0.15598656130E+04  0.25500000920E-02 0.  1.
    10030    2    1    2    0    0  0.00000000000E+00  0.00000000000E+00  0.10528075370E+04  0.41725387630E+04  0.40375334078E+04 0.  0.
        2    1    3    3  502    0  0.11961949621E+04  0.12886396561E+04  0.15515115783E+04  0.23449227553E+04  0.25500000920E-02 0. -1.
       -2    1    3    3    0  502 -0.11961949621E+04 -0.12886396561E+04 -0.49870404136E+03  0.18276160077E+04  0.25500000920E-02 0.  1.
</event>
<event>
 5   0  0.1773903E-07  0.3946994E+04  0.7818609E-02  0.8015326E-01
        2   -1    0    0  501    0  0.00000000000E+00  0.00000000000E+00  0.14989766204E+04  0.14989766204E+04  0.25500000920E-02 0. -1.
       -2   -1    0    0    0  501  0.00000000000E+00  0.00000000000E+00 -0.25982332595E+04  0.25982332595E+04  0.25500000920E-02 0.  1.
    10030    2    1    2    0    0  0.00000000000E+00  0.00000000000E+00 -0.10992566391E+04  0.40972098800E+04  0.39469942541E+04 0.  0.
        3    1    3    3  502    0  0.10496081841E+03 -0.13333188929E+04 -0.20560417660E+04  0.24527665599E+04  0.10100000352E+00 0.  1.
       -3    1    3    3    0  502 -0.10496081841E+03  0.13333188929E+04  0.95678512688E+03  0.16444433201E+04  0.10100000352E+00 0. -1.
</event>
<event>
 5   0  0.1819906E-07  0.4020486E+04  0.7818609E-02  0.8000427E-01
       -2   -1    0    0    0  501  0.00000000000E+00  0.00000000000E+00  0.18022652461E+04  0.18022652461E+04  0.25500000920E-02 0. -1.
        2   -1    0    0  501    0  0.00000000000E+00  0.00000000000E+00 -0.22422207508E+04  0.22422207508E+04  0.25500000920E-02 0.  1.
    10030    2    1    2    0    0  0.00000000000E+00  0.00000000000E+00 -0.43995550471E+03  0.40444859969E+04  0.40204858080E+04 0.  0.
        1    1    3    3  502    0 -0.39686173194E+03  0.14341191586E+04  0.11397117934E+04  0.18743372075E+04  0.50400001928E-02 0. -1.
       -1    1    3    3    0  502  0.39686173194E+03 -0.14341191586E+04 -0.15796672981E+04  0.21701487894E+04  0.50400001928E-02 0.  1.
</event>
<event>
 5   0  0.1776653E-07  0.4016582E+04  0.7818609E-02  0.8001210E-01
       -2   -1    0    0    0  501  0.00000000000E+00  0.00000000000E+00  0.21757776923E+04  0.21757776923E+04  0.25500000920E-02 0. -1.
        2   -1    0    0  501    0  0.00000000000E+00  0.00000000000E+00 -0.18536966824E+04  0.18536966824E+04  0.25500000920E-02 0.  1.
    10030    2    1    2    0    0  0.00000000000E+00  0.00000000000E+00  0.32208100990E+03  0.40294743747E+04  0.40165815764E+04 0.  0.
        4    1    3    3  502    0 -0.32126517787E+03  0.97158990353E+03  0.18946011404E+04  0.21533028930E+04  0.12699999809E+01 0. -1.
       -4    1    3    3    0  502  0.32126517787E+03 -0.97158990353E+03 -0.15725201305E+04  0.18761714817E+04  0.12699999809E+01 0.  1.
</event>
<event>
 5   0  0.5515000E-08  0.3984478E+04  0.7818609E-02  0.8007685E-01
        1   -1    0    0  501    0  0.00000000000E+00  0.00000000000E+00  0.21817230978E+04  0.21817230978E+04  0.50400001928E-02 0. -1.
       -1   -1    0    0    0  501  0.00000000000E+00  0.00000000000E+00 -0.18192118744E+04  0.18192118744E+04  0.50400001928E-02 0.  1.
    10030    2    1    2    0    0  0.00000000000E+00  0.00000000000E+00  0.36251122335E+03  0.40009349722E+04  0.39844781672E+04 0.  0.
        5    1    3    3  502    0 -0.18495162438E+04 -0.21876034094E+03  0.89158676994E+03  0.20648281965E+04  0.46999998093E+01 0. -1.
       -5    1    3    3    0  502  0.18495162438E+04  0.21876034094E+03 -0.52907554659E+03  0.19361067757E+04  0.46999998093E+01 0.  1.
</event>
<event>
 5   0  0.5515000E-08  0.4053293E+04  0.7818609E-02  0.7993881E-01
       -1   -1    0    0    0  501  0.00000000000E+00  0.00000000000E+00  0.21519606277E+04  0.21519606277E+04  0.50400001928E-02 0.  1.
        1   -1    0    0  501    0  0.00000000000E+00  0.00000000000E+00 -0.19086301424E+04  0.19086301424E+04  0.50400001928E-02 0. -1.
    10030    2    1    2    0    0  0.00000000000E+00  0.00000000000E+00  0.24333048536E+03  0.40605907701E+04  0.40532934358E+04 0.  0.
        4    1    3    3  502    0 -0.15765009054E+03  0.19791405499E+04 -0.28581566475E+03  0.20058771335E+04  0.12699999809E+01 0.  1.
       -4    1    3    3    0  502  0.15765009054E+03 -0.19791405499E+04  0.52914615011E+03  0.20547136366E+04  0.12699999809E+01 0. -1.
</event>
<event>
 5   0  0.1773903E-07  0.4007135E+04  0.7818609E-02  0.8003109E-01
        2   -1    0    0  501    0  0.00000000000E+00  0.00000000000E+00  0.18282342714E+04  0.18282342714E+04  0.25500000920E-02 0.  1.
       -2   -1    0    0    0  501  0.00000000000E+00  0.00000000000E+00 -0.21957156275E+04  0.21957156275E+04  0.25500000920E-02 0. -1.
    10030    2    1    2    0    0  0.00000000000E+00  0.00000000000E+00 -0.36748135611E+03  0.40239498990E+04  0.40071349169E+04 0.  0.
        3    1    3    3  502    0  0.62674942062E+03  0.10090852916E+04  0.14364778136E+04  0.18640108586E+04  0.10100000352E+00 0.  1.
       -3    1    3    3    0  502 -0.62674942062E+03 -0.10090852916E+04 -0.18039591697E+04  0.21599390404E+04  0.10100000352E+00 0. -1.
</event>
<event>
 5   0  0.1785559E-07  0.3283989E+04  0.7818609E-02  0.8166981E-01
        2   -1    0    0  501    0  0.00000000000E+00  0.00000000000E+00  0.11920750749E+04  0.11920750749E+04  0.25500000920E-02 0.  1.
       -2   -1    0    0    0  501  0.00000000000E+00  0.00000000000E+00 -0.22617246763E+04  0.22617246763E+04  0.25500000920E-02 0. -1.
    10030    2    1    2    0    0  0.00000000000E+00  0.00000000000E+00 -0.10696496014E+04  0.34537997513E+04  0.32839888021E+04 0.  0.
        2    1    3    3  502    0  0.53941464489E+03 -0.57431819142E+03 -0.20499192369E+04  0.21961280523E+04  0.25500000920E-02 0. -1.
       -2    1    3    3    0  502 -0.53941464489E+03  0.57431819142E+03  0.98026963553E+03  0.12576716990E+04  0.25500000920E-02 0.  1.
</event>
<event>
 5   0  0.1821433E-07  0.3978591E+04  0.7818609E-02  0.8008879E-01
        2   -1    0    0  501    0  0.00000000000E+00  0.00000000000E+00  0.28708200152E+04  0.28708200152E+04  0.25500000920E-02 0.  1.
       -2   -1    0    0    0  501  0.00000000000E+00  0.00000000000E+00 -0.13784552851E+04  0.13784552851E+04  0.25500000920E-02 0. -1.
    10030    2    1    2    0    0  0.00000000000E+00  0.00000000000E+00  0.14923647302E+04  0.42492753003E+04  0.39785912193E+04 0.  0.
        5    1    3    3  502    0 -0.14130808781E+03 -0.45737679797E+03  0.28083791591E+04  0.28488905038E+04  0.46999998093E+01 0.  1.
       -5    1    3    3    0  502  0.14130808781E+03  0.45737679797E+03 -0.13160144290E+04  0.14003847965E+04  0.46999998093E+01 0. -1.
</event>
<event>
 5   0  0.5515000E-08  0.4009366E+04  0.7818609E-02  0.8002660E-01
       -1   -1    0    0    0  501  0.00000000000E+00  0.00000000000E+00  0.15660408729E+04  0.15660408729E+04  0.50400001928E-02 0.  1.
        1   -1    0    0  501    0  0.00000000000E+00  0.00000000000E+00 -0.25661875197E+04  0.25661875197E+04  0.50400001928E-02 0. -1.
    10030    2    1    2    0    0  0.00000000000E+00  0.00000000000E+00 -0.10001466467E+04  0.41322283926E+04  0.40093663057E+04 0.  0.
        4    1    3    3  502    0  0.62732551220E+03  0.11436047820E+04  0.10688710945E+04  0.16863736908E+04  0.12699999809E+01 0.  1.
       -4    1    3    3    0  502 -0.62732551220E+03 -0.11436047820E+04 -0.20690177412E+04  0.24458547017E+04  0.12699999809E+01 0. -1.
</event>
<event>
 5   0  0.5515000E-08  0.4018316E+04  0.7818609E-02  0.8000862E-01
        1   -1    0    0  501    0  0.00000000000E+00  0.00000000000E+00  0.25536648929E+04  0.25536648929E+04  0.50400001928E-02 0.  1.
       -1   -1    0    0    0  501  0.00000000000E+00  0.00000000000E+00 -0.15807537137E+04  0.15807537137E+04  0.50400001928E-02 0. -1.
    10030    2    1    2    0    0  0.00000000000E+00  0.00000000000E+00  0.97291117924E+03  0.41344186066E+04  0.40183156984E+04 0.  0.
        3    1    3    3  502    0  0.85458989452E+03 -0.92503967181E+03  0.20971562806E+04  0.24462393091E+04  0.10100000352E+00 0.  1.
       -3    1    3    3    0  502 -0.85458989452E+03  0.92503967181E+03 -0.11242451013E+04  0.16881792974E+04  0.10100000352E+00 0. -1.
</event>
<event>
 5   0  0.1785559E-07  0.3991353E+04  0.7818609E-02  0.8006293E-01
        2   -1    0    0  501    0  0.00000000000E+00  0.00000000000E+00  0.15352890651E+04  0.15352890651E+04  0.25500000920E-02 0.  1.
       -2   -1    0    0    0  501  0.00000000000E+00  0.00000000000E+00 -0.25941206277E+04  0.25941206277E+04  0.25500000920E-02 0. -1.
    10030    2    1    2    0    0  0.00000000000E+00  0.00000000000E+00 -0.10588315627E+04  0.41294096928E+04  0.39913531706E+04 0.  0.
        2    1    3    3  502    0  0.15702574066E+04  0.28404867617E+03 -0.17693407158E+04  0.23826368884E+04  0.25500000920E-02 0. -1.
       -2    1    3    3    0  502 -0.15702574066E+04 -0.28404867617E+03  0.71050915310E+03  0.17467728044E+04  0.25500000920E-02 0.  1.
</event>
<event>
 5   0  0.5515000E-08  0.4007017E+04  0.7818609E-02  0.8003133E-01
        1   -1    0    0  501    0  0.00000000000E+00  0.00000000000E+00  0.23583692477E+04  0.23583692477E+04  0.50400001928E-02 0. -1.
       -1   -1    0    0    0  501  0.00000000000E+00  0.00000000000E+00 -0.17020427778E+04  0.17020427778E+04  0.50400001928E-02 0.  1.
    10030    2    1    2    0    0  0.00000000000E+00  0.00000000000E+00  0.65632646991E+03  0.40604120255E+04  0.40070165188E+04 0.  0.
        1    1    3    3  502    0 -0.10359066527E+04  0.16333664115E+04  0.85767493980E+03  0.21157964764E+04  0.50400001928E-02 0. -1.
       -1    1    3    3    0  502  0.10359066527E+04 -0.16333664115E+04 -0.20134846989E+03  0.19446155491E+04  0.50400001928E-02 0.  1.
</event>
<event>
 5   0  0.1776653E-07  0.4034782E+04  0.7818609E-02  0.7997566E-01
        2   -1    0    0  501    0  0.00000000000E+00  0.00000000000E+00  0.25401792037E+04  0.25401792037E+04  0.25500000920E-02 0. -1.
       -2   -1    0    0    0  501  0.00000000000E+00  0.00000000000E+00 -0.16021964235E+04  0.16021964235E+04  0.25500000920E-02 0.  1.
    10030    2    1    2    0    0  0.00000000000E+00  0.00000000000E+00  0.93798278022E+03  0.41423756272E+04  0.40347817959E+04 0.  0.
        4    1    3    3  502    0 -0.12447416588E+04 -0.15875248793E+04  0.45284356486E+03  0.20675313654E+04  0.12699999809E+01 0. -1.
       -4    1    3    3    0  502  0.12447416588E+04  0.15875248793E+04  0.48513921536E+03  0.20748442618E+04  0.12699999809E+01 0.  1.
</event>
<event>
 5   0  0.5515000E-08  0.3946864E+04  0.7818609E-02  0.8015352E-01
       -1   -1    0    0    0  501  0.00000000000E+00  0.00000000000E+00  0.26776421164E+04  0.26776421164E+04  0.50400001928E-02 0.  1.
        1   -1    0    0  501    0  0.00000000000E+00  0.00000000000E+00 -0.14544266602E+04  0.14544266603E+04  0.50400001928E-02 0. -1.
    10030    2    1    2    0    0  0.00000000000E+00  0.00000000000E+00  0.12232154561E+04  0.41320687766E+04  0.39468641125E+04 0.  0.
        5    1    3    3  502    0 -0.17229858718E+04 -0.40422009062E+03  0.15256980126E+04  0.23366323441E+04  0.46999998093E+01 0.  1.
       -5    1    3    3    0  502  0.17229858718E+04  0.40422009062E+03 -0.30248255643E+03  0.17954364325E+04  0.46999998093E+01 0. -1.
</event>
<event>
 5   0  0.1821433E-07  0.3915257E+04  0.7818609E-02  0.8021863E-01
        2   -1    0    0  501    0  0.00000000000E+00  0.00000000000E+00  0.17687489453E+04  0.17687489453E+04  0.25500000920E-02 0. -1.
       -2   -1    0    0    0  501  0.00000000000E+00  0.00000000000E+00 -0.21666784899E+04  0.21666784899E+04  0.25500000920E-02 0.  1.
    10030    2    1    2    0    0  0.00000000000E+00  0.00000000000E+00 -0.39792954462E+03  0.39354274351E+04  0.39152574851E+04 0.  0.
        5    1    3    3  502    0  0.10040004390E+03 -0.17240797206E+04 -0.11255363935E+04  0.20614037244E+04  0.46999998093E+01 0. -1.
       -5    1    3    3    0  502 -0.10040004390E+03  0.17240797206E+04  0.72760684885E+03  0.18740237107E+04  0.46999998093E+01 0.  1.
</event>
<event>
 5   0  0.1819906E-07  0.3678948E+04  0.7818609E-02  0.8072643E-01
       -2   -1    0    0    0  501  0.00000000000E+00  0.00000000000E+00  0.13787322777E+04  0.13787322777E+04  0.25500000920E-02 0.  1.
        2   -1    0    0  501    0  0.00000000000E+00  0.00000000000E+00 -0.24541859433E+04  0.24541859433E+04  0.25500000920E-02 0. -1.
    10030    2    1    2    0    0  0.00000000000E+00  0.00000000000E+00 -0.10754536656E+04  0.38329182210E+04  0.36789484234E+04 0.  0.
        1    1    3    3  502    0 -0.11263063536E+04  0.96583045093E+03 -0.16705558280E+04  0.22343122514E+04  0.50400001928E-02 0. -1.
       -1    1    3    3    0  502  0.11263063536E+04 -0.96583045093E+03  0.59510216242E+03  0.15986059696E+04  0.50400001928E-02 0.  1.
</event>
<event>
 5   0  0.5515000E-08  0.3880974E+04  0.7818609E-02  0.8028998E-01
       -1   -1    0    0    0  501  0.00000000000E+00  0.00000000000E+00  0.25250857262E+04  0.25250857262E+04  0.50400001928E-02 0. -1.
        1   -1    0    0  501    0  0.00000000000E+00  0.00000000000E+00 -0.14912322505E+04  0.14912322505E+04  0.50400001928E-02 0.  1.
    10030    2    1    2    0    0  0.00000000000E+00  0.00000000000E+00  0.10338534757E+04  0.40163179768E+04  0.38809737285E+04 0.  0.
        3    1    3    3  502    0 -0.13156485216E+04  0.38599719883E+03 -0.90411904496E+03  0.16423629707E+04  0.10100000352E+00 0.  1.
       -3    1    3    3    0  502  0.13156485216E+04 -0.38599719883E+03  0.19379725206E+04  0.23739550061E+04  0.10100000352E+00 0. -1.
</event>
<event>
 5   0  0.5515000E-08  0.4011295E+04  0.7818609E-02  0.8002272E-01
        1   -1    0    0  501    0  0.00000000000E+00  0.00000000000E+00  0.24193167201E+04  0.24193167201E+04  0.50400001928E-02 0. -1.
       -1   -1    0    0    0  501  0.00000000000E+00  0.00000000000E+00 -0.16627102221E+04  0.16627102221E+04  0.50400001928E-02 0.  1.
    10030    2    1    2    0    0  0.00000000000E+00  0.00000000000E+00  0.75660649797E+03  0.40820269423E+04  0.40112953724E+04 0.  0.
        4    1    3    3  502    0 -0.14110402966E+04 -0.64732066631E+03  0.16705619668E+04  0.22805345122E+04  0.12699999809E+01 0. -1.
       -4    1    3    3    0  502  0.14110402966E+04  0.64732066631E+03 -0.91395546879E+03  0.18014924300E+04  0.12699999809E+01 0.  1.
</event>
<event>
 5   0  0.5515000E-08  0.4011270E+04  0.7818609E-02  0.8002277E-01
        1   -1    0    0  501    0  0.00000000000E+00  0.00000000000E+00  0.13115781957E+04  0.13115781957E+04  0.50400001928E-02 0.  1.
       -1   -1    0    0    0  501  0.00000000000E+00  0.00000000000E+00 -0.30669704560E+04  0.30669704560E+04  0.50400001928E-02 0. -1.
    10030    2    1    2    0    0  0.00000000000E+00  0.00000000000E+00 -0.17553922603E+04  0.43785486517E+04  0.40112699121E+04 0.  0.
        1    1    3    3  502    0  0.77964958361E+02 -0.10864928155E+04  0.96054901931E+03  0.14523083665E+04  0.50400001928E-02 0.  1.
       -1    1    3    3    0  502 -0.77964958361E+02  0.10864928155E+04 -0.27159412796E+04  0.29262402852E+04  0.50400001928E-02 0. -1.
</event>
<event>
 5   0  0.5515000E-08  0.4006003E+04  0.7818609E-02  0.8003337E-01
       -1   -1    0    0    0  501  0.00000000000E+00  0.00000000000E+00  0.31250693299E+04  0.31250693299E+04  0.50400001928E-02 0.  1.
        1   -1    0    0  501    0  0.00000000000E+00  0.00000000000E+00 -0.12838165414E+04  0.12838165414E+04  0.50400001928E-02 0. -1.
    10030    2    1    2    0    0  0.00000000000E+00  0.00000000000E+00  0.18412527885E+04  0.44088858713E+04  0.40060033444E+04 0.  0.
        4    1    3    3  502    0  0.11601733001E+04  0.14701010826E+04  0.13866809804E+03  0.18778790519E+04  0.12699999809E+01 0. -1.
       -4    1    3    3    0  502 -0.11601733001E+04 -0.14701010826E+04  0.17025846904E+04  0.25310068195E+04  0.12699999809E+01 0.  1.
</event>
<event>
 5   0  0.5515000E-08  0.3892199E+04  0.7818609E-02  0.8026654E-01
        1   -1    0    0  501    0  0.00000000000E+00  0.00000000000E+00  0.30167470217E+04  0.30167470217E+04  0.50400001928E-02 0. -1.
       -1   -1    0    0    0  501  0.00000000000E+00  0.00000000000E+00 -0.12554259529E+04  0.12554259529E+04  0.50400001928E-02 0.  1.
    10030    2    1    2    0    0  0.00000000000E+00  0.00000000000E+00  0.17613210689E+04  0.42721729746E+04  0.38921986097E+04 0.  0.
        3    1    3    3  502    0 -0.16213706643E+04 -0.10502735749E+04  0.11389758955E+04  0.22425841152E+04  0.10100000352E+00 0.  1.
       -3    1    3    3    0  502  0.16213706643E+04  0.10502735749E+04  0.62234517337E+03  0.20295888594E+04  0.10100000352E+00 0. -1.
</event>
<event>
 5   0  0.1821433E-07  0.3981513E+04  0.7818609E-02  0.8008286E-01
        2   -1    0    0  501    0  0.00000000000E+00  0.00000000000E+00  0.33863274904E+04  0.33863274904E+04  0.25500000920E-02 0.  1.
       -2   -1    0    0    0  501  0.00000000000E+00  0.00000000000E+00 -0.11703270641E+04  0.11703270641E+04  0.25500000920E-02 0. -1.
    10030    2    1    2    0    0  0.00000000000E+00  0.00000000000E+00  0.22160004263E+04  0.45566545544E+04  0.39815126320E+04 0.  0.
        5    1    3    3  502    0 -0.69761854630E+03  0.17914180706E+04  0.51637409083E+03  0.19906065989E+04  0.46999998093E+01 0. -1.
       -5    1    3    3    0  502  0.69761854630E+03 -0.17914180706E+04  0.16996263355E+04  0.25660479555E+04  0.46999998093E+01 0.  1.
</event>
<event>
 5   0  0.1785559E-07  0.3970411E+04  0.7818609E-02  0.8010542E-01
       -2   -1    0    0    0  501  0.00000000000E+00  0.00000000000E+00  0.12811179618E+04  0.12811179618E+04  0.25500000920E-02 0.  1.
        2   -1    0    0  501    0  0.00000000000E+00  0.00000000000E+00 -0.30762517210E+04  0.30762517210E+04  0.25500000920E-02 0. -1.
    10030    2    1    2    0    0  0.00000000000E+00  0.00000000000E+00 -0.17951337592E+04  0.43573696828E+04  0.39704112305E+04 0.  0.
        2    1    3    3  502    0  0.15647783064E+04 -0.11874187009E+04 -0.58225552921E+03  0.20487839858E+04  0.25500000920E-02 0. -1.
       -2    1    3    3    0  502 -0.15647783064E+04  0.11874187009E+04 -0.12128782300E+04  0.23085856969E+04  0.25500000920E-02 0.  1.
</event>
<event>
 5   0  0.5515000E-08  0.4024724E+04  0.7818609E-02  0.7999578E-01
        1   -1    0    0  501    0  0.00000000000E+00  0.00000000000E+00  0.21576470674E+04  0.21576470674E+04  0.50400001928E-02 0. -1.
       -1   -1    0    0    0  501  0.00000000000E+00  0.00000000000E+00 -0.18768592831E+04  0.18768592831E+04  0.50400001928E-02 0.  1.
    10030    2    1    2    0    0  0.00000000000E+00  0.00000000000E+00  0.28078778432E+03  0.40345063506E+04  0.40247235573E+04 0.  0.
        2    1    3    3  502    0 -0.10290811874E+04 -0.17224824561E+04 -0.13752524290E+02  0.20065251142E+04  0.25500000920E-02 0.  1.
       -2    1    3    3    0  502  0.10290811874E+04  0.17224824561E+04  0.29454030861E+03  0.20279812364E+04  0.25500000920E-02 0. -1.
</event>
<event>
 5   0  0.5515000E-08  0.4040294E+04  0.7818609E-02  0.7996467E-01
        1   -1    0    0  501    0  0.00000000000E+00  0.00000000000E+00  0.12691069699E+04  0.12691069699E+04  0.50400001928E-02 0.  1.
       -1   -1    0    0    0  501  0.00000000000E+00  0.00000000000E+00 -0.32156425347E+04  0.32156425347E+04  0.50400001928E-02 0. -1.
    10030    2    1    2    0    0  0.00000000000E+00  0.00000000000E+00 -0.19465355648E+04  0.44847495046E+04  0.40402942237E+04 0.  0.
        1    1    3    3  502    0 -0.95445163813E+03 -0.47781063153E+03 -0.28770855655E+04  0.30686971634E+04  0.50400001928E-02 0. -1.
       -1    1    3    3    0  502  0.95445163813E+03  0.47781063153E+03  0.93055000077E+03  0.14160523412E+04  0.50400001928E-02 0.  1.
</event>
<event>
 5   0  0.5515000E-08  0.4073441E+04  0.7818609E-02  0.7989893E-01
        1   -1    0    0  501    0  0.00000000000E+00  0.00000000000E+00  0.16853502813E+04  0.16853502813E+04  0.50400001928E-02 0. -1.
       -1   -1    0    0    0  501  0.00000000000E+00  0.00000000000E+00 -0.24613457449E+04  0.24613457449E+04  0.50400001928E-02 0.  1.
    10030    2    1    2    0    0  0.00000000000E+00  0.00000000000E+00 -0.77599546364E+03  0.41466960262E+04  0.40734406801E+04 0.  0.
        3    1    3    3  502    0 -0.17653492833E+04  0.81754445446E+03  0.22566381074E+03  0.19585099420E+04  0.10100000352E+00 0. -1.
       -3    1    3    3    0  502  0.17653492833E+04 -0.81754445446E+03 -0.10016592744E+04  0.21881860842E+04  0.10100000352E+00 0.  1.
</event>
<event>
 5   0  0.5515000E-08  0.3972493E+04  0.7818609E-02  0.8010119E-01
        1   -1    0    0  501    0  0.00000000000E+00  0.00000000000E+00  0.19716934305E+04  0.19716934305E+04  0.50400001928E-02 0.  1.
       -1   -1    0    0    0  501  0.00000000000E+00  0.00000000000E+00 -0.20009069538E+04  0.20009069538E+04  0.50400001928E-02 0. -1.
    10030    2    1    2    0    0  0.00000000000E+00  0.00000000000E+00 -0.29213523290E+02  0.39726003844E+04  0.39724929684E+04 0.  0.
        1    1    3    3  502    0 -0.83240269720E+03 -0.13942765193E+04 -0.11584356761E+04  0.19947116279E+04  0.50400001928E-02 0. -1.
       -1    1    3    3    0  502  0.83240269720E+03  0.13942765193E+04  0.11292221528E+04  0.19778887565E+04  0.50400001928E-02 0.  1.
</event>
<event>
 5   0  0.5515000E-08  0.4027193E+04  0.7818609E-02  0.7999083E-01
        1   -1    0    0  501    0  0.00000000000E+00  0.00000000000E+00  0.13680909077E+04  0.13680909077E+04  0.50400001928E-02 0.  1.
       -1   -1    0    0    0  501  0.00000000000E+00  0.00000000000E+00 -0.29636701390E+04  0.29636701390E+04  0.50400001928E-02 0. -1.
    10030    2    1    2    0    0  0.00000000000E+00  0.00000000000E+00 -0.15955792314E+04  0.43317610467E+04  0.40271926552E+04 0.  0.
        4    1    3    3  502    0 -0.27154044847E+03 -0.13024394490E+04  0.82796995452E+03  0.15670413498E+04  0.12699999809E+01 0.  1.
       -4    1    3    3    0  502  0.27154044847E+03  0.13024394490E+04 -0.24235491859E+04  0.27647196969E+04  0.12699999809E+01 0. -1.
</event>
<event>
 5   0  0.5515000E-08  0.4016786E+04  0.7818609E-02  0.8001169E-01
        1   -1    0    0  501    0  0.00000000000E+00  0.00000000000E+00  0.19807879852E+04  0.19807879852E+04  0.50400001928E-02 0. -1.
       -1   -1    0    0    0  501  0.00000000000E+00  0.00000000000E+00 -0.20363825428E+04  0.20363825428E+04  0.50400001928E-02 0.  1.
    10030    2    1    2    0    0  0.00000000000E+00  0.00000000000E+00 -0.55594557593E+02  0.40171705280E+04  0.40167858166E+04 0.  0.
        1    1    3    3  502    0 -0.11355864926E+04  0.11475770645E+04  0.11669519248E+04  0.19920508518E+04  0.50400001928E-02 0. -1.
       -1    1    3    3    0  502  0.11355864926E+04 -0.11475770645E+04 -0.12225464824E+04  0.20251196762E+04  0.50400001928E-02 0.  1.
</event>
<event>
 5   0  0.5515000E-08  0.4038009E+04  0.7818609E-02  0.7996922E-01
        1   -1    0    0  501    0  0.00000000000E+00  0.00000000000E+00  0.27517460800E+04  0.27517460800E+04  0.50400001928E-02 0. -1.
       -1   -1    0    0    0  501  0.00000000000E+00  0.00000000000E+00 -0.14813794460E+04  0.14813794460E+04  0.50400001928E-02 0.  1.
    10030    2    1    2    0    0  0.00000000000E+00  0.00000000000E+00  0.12703666339E+04  0.42331255260E+04  0.40380094520E+04 0.  0.
        3    1    3    3  502    0  0.55306012596E+03 -0.42978743098E+02  0.26702898333E+04  0.27273009514E+04  0.10100000352E+00 0. -1.
       -3    1    3    3    0  502 -0.55306012596E+03  0.42978743098E+02 -0.13999231994E+04  0.15058245746E+04  0.10100000352E+00 0.  1.
</event>
<event>
 5   0  0.1785559E-07  0.3972869E+04  0.7818609E-02  0.8010042E-01
       -2   -1    0    0    0  501  0.00000000000E+00  0.00000000000E+00  0.17799449491E+04  0.17799449491E+04  0.25500000920E-02 0. -1.
        2   -1    0    0  501    0  0.00000000000E+00  0.00000000000E+00 -0.22168789757E+04  0.22168789757E+04  0.25500000920E-02 0.  1.
    10030    2    1    2    0    0  0.00000000000E+00  0.00000000000E+00 -0.43693402659E+03  0.39968239248E+04  0.39728692582E+04 0.  0.
        2    1    3    3  502    0 -0.42206190382E+03  0.94724094570E+03  0.14860098009E+04  0.18120780304E+04  0.25500000920E-02 0. -1.
       -2    1    3    3    0  502  0.42206190382E+03 -0.94724094570E+03 -0.19229438275E+04  0.21847458945E+04  0.25500000920E-02 0.  1.
</event>
<event>
 5   0  0.1819906E-07  0.4001884E+04  0.7818609E-02  0.8004167E-01
        2   -1    0    0  501    0  0.00000000000E+00  0.00000000000E+00  0.22680568519E+04  0.22680568519E+04  0.25500000920E-02 0. -1.
       -2   -1    0    0    0  501  0.00000000000E+00  0.00000000000E+00 -0.17652856792E+04  0.17652856792E+04  0.25500000920E-02 0.  1.
    10030    2    1    2    0    0  0.00000000000E+00  0.00000000000E+00  0.50277117267E+03  0.40333425311E+04  0.40018836966E+04 0.  0.
        1    1    3    3  502    0 -0.10263616491E+03 -0.72172960231E+03 -0.16266844968E+04  0.17825628330E+04  0.50400001928E-02 0.  1.
       -1    1    3    3    0  502  0.10263616491E+03  0.72172960231E+03  0.21294556695E+04  0.22507796981E+04  0.50400001928E-02 0. -1.
</event>
<event>
 5   0  0.5515000E-08  0.3359269E+04  0.7818609E-02  0.8147976E-01
       -1   -1    0    0    0  501  0.00000000000E+00  0.00000000000E+00  0.19131231671E+04  0.19131231671E+04  0.50400001928E-02 0.  1.
        1   -1    0    0  501    0  0.00000000000E+00  0.00000000000E+00 -0.14746421442E+04  0.14746421443E+04  0.50400001928E-02 0. -1.
    10030    2    1    2    0    0  0.00000000000E+00  0.00000000000E+00  0.43848102283E+03  0.33877653113E+04  0.33592689975E+04 0.  0.
        3    1    3    3  502    0  0.38900177929E+02 -0.53897789750E+03  0.18230649548E+04  0.19014668647E+04  0.10100000352E+00 0.  1.
       -3    1    3    3    0  502 -0.38900177929E+02  0.53897789750E+03 -0.13845839319E+04  0.14862984467E+04  0.10100000352E+00 0. -1.
</event>
<event>
 5   0  0.1819906E-07  0.3992101E+04  0.7818609E-02  0.8006142E-01
        2   -1    0    0  501    0  0.00000000000E+00  0.00000000000E+00  0.19790164472E+04  0.19790164473E+04  0.25500000920E-02 0. -1.
       -2   -1    0    0    0  501  0.00000000000E+00  0.00000000000E+00 -0.20132316128E+04  0.20132316128E+04  0.25500000920E-02 0.  1.
    10030    2    1    2    0    0  0.00000000000E+00  0.00000000000E+00 -0.34215165532E+02  0.39922480600E+04  0.39921014385E+04 0.  0.
        1    1    3    3  502    0 -0.77535909806E+03  0.12128157440E+04  0.13657355654E+04  0.19842725101E+04  0.50400001928E-02 0. -1.
       -1    1    3    3    0  502  0.77535909806E+03 -0.12128157440E+04 -0.13999507310E+04  0.20079755499E+04  0.50400001928E-02 0.  1.
</event>
<event>
 5   0  0.5515000E-08  0.4005447E+04  0.7818609E-02  0.8003449E-01
       -1   -1    0    0    0  501  0.00000000000E+00  0.00000000000E+00  0.19039853872E+04  0.19039853872E+04  0.50400001928E-02 0.  1.
        1   -1    0    0  501    0  0.00000000000E+00  0.00000000000E+00 -0.21065822458E+04  0.21065822458E+04  0.50400001928E-02 0. -1.
    10030    2    1    2    0    0  0.00000000000E+00  0.00000000000E+00 -0.20259685861E+03  0.40105676330E+04  0.40054471975E+04 0.  0.
        3    1    3    3  502    0 -0.81507397649E+03  0.13167354520E+04 -0.13728683300E+04  0.20695181322E+04  0.10100000352E+00 0. -1.
       -3    1    3    3    0  502  0.81507397649E+03 -0.13167354520E+04  0.11702714714E+04  0.19410495008E+04  0.10100000352E+00 0.  1.
</event>
<event>
 5   0  0.1821433E-07  0.3976427E+04  0.7818609E-02  0.8009319E-01
       -2   -1    0    0    0  501  0.00000000000E+00  0.00000000000E+00  0.26084819036E+04  0.26084819036E+04  0.25500000920E-02 0.  1.
        2   -1    0    0  501    0  0.00000000000E+00  0.00000000000E+00 -0.15154381934E+04  0.15154381934E+04  0.25500000920E-02 0. -1.
    10030    2    1    2    0    0  0.00000000000E+00  0.00000000000E+00  0.10930437101E+04  0.41239200970E+04  0.39764270915E+04 0.  0.
        5    1    3    3  502    0 -0.88254986728E+03  0.91607431882E+03  0.21312323250E+04  0.24819870546E+04  0.46999998093E+01 0. -1.
       -5    1    3    3    0  502  0.88254986728E+03 -0.91607431882E+03 -0.10381886149E+04  0.16419330424E+04  0.46999998093E+01 0.  1.
</event>
<event>
 5   0  0.5515000E-08  0.3905150E+04  0.7818609E-02  0.8023959E-01
        1   -1    0    0  501    0  0.00000000000E+00  0.00000000000E+00  0.16879786971E+04  0.16879786971E+04  0.50400001928E-02 0. -1.
       -1   -1    0    0    0  501  0.00000000000E+00  0.00000000000E+00 -0.22586474023E+04  0.22586474023E+04  0.50400001928E-02 0.  1.
    10030    2    1    2    0    0  0.00000000000E+00  0.00000000000E+00 -0.57066870522E+03  0.39466260994E+04  0.39051497791E+04 0.  0.
        2    1    3    3  502    0  0.14444301603E+04  0.58954236264E+03 -0.14719470807E+04  0.21448932126E+04  0.25500000920E-02 0.  1.
       -2    1    3    3    0  502 -0.14444301603E+04 -0.58954236264E+03  0.90127837545E+03  0.18017328868E+04  0.25500000920E-02 0. -1.
</event>
<event>
 5   0  0.1773903E-07  0.4014547E+04  0.7818609E-02  0.8001618E-01
        2   -1    0    0  501    0  0.00000000000E+00  0.00000000000E+00  0.25715953222E+04  0.25715953222E+04  0.25500000920E-02 0. -1.
       -2   -1    0    0    0  501  0.00000000000E+00  0.00000000000E+00 -0.15667891334E+04  0.15667891334E+04  0.25500000920E-02 0.  1.
    10030    2    1    2    0    0  0.00000000000E+00  0.00000000000E+00  0.10048061888E+04  0.41383844557E+04  0.40145473501E+04 0.  0.
        3    1    3    3  502    0 -0.47261045960E+03  0.13580171232E+04 -0.94136309843E+03  0.17186435485E+04  0.10100000352E+00 0.  1.
       -3    1    3    3    0  502  0.47261045960E+03 -0.13580171232E+04  0.19461692872E+04  0.24197409072E+04  0.10100000352E+00 0. -1.
</event>
<event>
 5   0  0.1785559E-07  0.4221593E+04  0.7818609E-02  0.7961277E-01
       -2   -1    0    0    0  501  0.00000000000E+00  0.00000000000E+00  0.24823489719E+04  0.24823489719E+04  0.25500000920E-02 0. -1.
        2   -1    0    0  501    0  0.00000000000E+00  0.00000000000E+00 -0.17948572013E+04  0.17948572013E+04  0.25500000920E-02 0.  1.
    10030    2    1    2    0    0  0.00000000000E+00  0.00000000000E+00  0.68749177060E+03  0.42772061732E+04  0.42215930303E+04 0.  0.
        2    1    3    3  502    0  0.78728299814E+03 -0.17602604082E+04  0.12136193273E+04  0.22784211848E+04  0.25500000920E-02 0.  1.
       -2    1    3    3    0  502 -0.78728299814E+03  0.17602604082E+04 -0.52612755672E+03  0.19987849884E+04  0.25500000920E-02 0. -1.
</event>
<event>
 5   0  0.5515000E-08  0.4063262E+04  0.7818609E-02  0.7991905E-01
       -1   -1    0    0    0  501  0.00000000000E+00  0.00000000000E+00  0.12303692119E+04  0.12303692119E+04  0.50400001928E-02 0.  1.
        1   -1    0    0  501    0  0.00000000000E+00  0.00000000000E+00 -0.33547031938E+04  0.33547031938E+04  0.50400001928E-02 0. -1.
    10030    2    1    2    0    0  0.00000000000E+00  0.00000000000E+00 -0.21243339819E+04  0.45850724057E+04  0.40632615100E+04 0.  0.
        2    1    3    3  502    0 -0.99197184815E+03 -0.53865030072E+03  0.84395443483E+03  0.14094010721E+04  0.25500000920E-02 0.  1.
       -2    1    3    3    0  502  0.99197184815E+03  0.53865030072E+03 -0.29682884167E+04  0.31756713336E+04  0.25500000920E-02 0. -1.
</event>
<event>
 5   0  0.1821433E-07  0.3976759E+04  0.7818609E-02  0.8009251E-01
        2   -1    0    0  501    0  0.00000000000E+00  0.00000000000E+00  0.23258042119E+04  0.23258042119E+04  0.25500000920E-02 0. -1.
       -2   -1    0    0    0  501  0.00000000000E+00  0.00000000000E+00 -0.16999078748E+04  0.16999078748E+04  0.25500000920E-02 0.  1.
    10030    2    1    2    0    0  0.00000000000E+00  0.00000000000E+00  0.62589633707E+03  0.40257120868E+04  0.39767589292E+04 0.  0.
        5    1    3    3  502    0  0.10084753888E+04 -0.17059096021E+04  0.47768001355E+03  0.20384676759E+04  0.46999998093E+01 0. -1.
       -5    1    3    3    0  502 -0.10084753888E+04  0.17059096021E+04  0.14821632352E+03  0.19872444109E+04  0.46999998093E+01 0.  1.
</event>
<event>
 5   0  0.1821433E-07  0.3972276E+04  0.7818609E-02  0.8010163E-01
       -2   -1    0    0    0  501  0.00000000000E+00  0.00000000000E+00  0.24607212604E+04  0.24607212604E+04  0.25500000920E-02 0.  1.
        2   -1    0    0  501    0  0.00000000000E+00  0.00000000000E+00 -0.16030847979E+04  0.16030847979E+04  0.25500000920E-02 0. -1.
    10030    2    1    2    0    0  0.00000000000E+00  0.00000000000E+00  0.85763646250E+03  0.40638060583E+04  0.39722763471E+04 0.  0.
        5    1    3    3  502    0  0.10606739407E+04  0.14640027487E+04 -0.41256130883E+03  0.18543360483E+04  0.46999998093E+01 0. -1.
       -5    1    3    3    0  502 -0.10606739407E+04 -0.14640027487E+04  0.12701977713E+04  0.22094700100E+04  0.46999998093E+01 0.  1.
</event>
<event>
 5   0  0.1773903E-07  0.3972137E+04  0.7818609E-02  0.8010191E-01
       -2   -1    0    0    0  501  0.00000000000E+00  0.00000000000E+00  0.15560588911E+04  0.15560588911E+04  0.25500000920E-02 0.  1.
        2   -1    0    0  501    0  0.00000000000E+00  0.00000000000E+00 -0.25349095099E+04  0.25349095099E+04  0.25500000920E-02 0. -1.
    10030    2    1    2    0    0  0.00000000000E+00  0.00000000000E+00 -0.97885061887E+03  0.40909684010E+04  0.39721371985E+04 0.  0.
        3    1    3    3  502    0 -0.92276778369E+03  0.17272903469E+04 -0.14871735050E+03  0.19639626233E+04  0.10100000352E+00 0.  1.
       -3    1    3    3    0  502  0.92276778369E+03 -0.17272903469E+04 -0.83013326837E+03  0.21270057777E+04  0.10100000352E+00 0. -1.
</event>
<event>
 5   0  0.1819906E-07  0.4022683E+04  0.7818609E-02  0.7999986E-01
        2   -1    0    0  501    0  0.00000000000E+00  0.00000000000E+00  0.21281017721E+04  0.21281017721E+04  0.25500000920E-02 0.  1.
       -2   -1    0    0    0  501  0.00000000000E+00  0.00000000000E+00 -0.19009877283E+04  0.19009877283E+04  0.25500000920E-02 0. -1.
    10030    2    1    2    0    0  0.00000000000E+00  0.00000000000E+00  0.22711404378E+03  0.40290895004E+04  0.40226833599E+04 0.  0.
        1    1    3    3  502    0  0.87560499210E+03  0.13805077919E+04 -0.10600638780E+04  0.19483894096E+04  0.50400001928E-02 0. -1.
       -1    1    3    3    0  502 -0.87560499210E+03 -0.13805077919E+04  0.12871779218E+04  0.20807000909E+04  0.50400001928E-02 0.  1.
</event>
<event>
 5   0  0.5515000E-08  0.4047384E+04  0.7818609E-02  0.7995055E-01
        1   -1    0    0  501    0  0.00000000000E+00  0.00000000000E+00  0.13111021734E+04  0.13111021734E+04  0.50400001928E-02 0.  1.
       -1   -1    0    0    0  501  0.00000000000E+00  0.00000000000E+00 -0.31235774056E+04  0.31235774056E+04  0.50400001928E-02 0. -1.
    10030    2    1    2    0    0  0.00000000000E+00  0.00000000000E+00 -0.18124752322E+04  0.44346795790E+04  0.40473839083E+04 0.  0.
        5    1    3    3  502    0 -0.17411738378E+04  0.44094187187E+02 -0.20352115842E+04  0.26787569716E+04  0.46999998093E+01 0. -1.
       -5    1    3    3    0  502  0.17411738378E+04 -0.44094187187E+02  0.22273635200E+03  0.17559226074E+04  0.46999998093E+01 0.  1.
</event>
<event>
 5   0  0.5515000E-08  0.3978426E+04  0.7818609E-02  0.8008913E-01
        1   -1    0    0  501    0  0.00000000000E+00  0.00000000000E+00  0.28464530750E+04  0.28464530751E+04  0.50400001928E-02 0.  1.
       -1   -1    0    0    0  501  0.00000000000E+00  0.00000000000E+00 -0.13901399293E+04  0.13901399293E+04  0.50400001928E-02 0. -1.
    10030    2    1    2    0    0  0.00000000000E+00  0.00000000000E+00  0.14563131458E+04  0.42365930043E+04  0.39784258577E+04 0.  0.
        3    1    3    3  502    0  0.80763662323E+03  0.10074051782E+04 -0.88325587054E+03  0.15643794461E+04  0.10100000352E+00 0. -1.
       -3    1    3    3    0  502 -0.80763662323E+03 -0.10074051782E+04  0.23395690163E+04  0.26722135582E+04  0.10100000352E+00 0.  1.
</event>
<event>
 5   0  0.1785559E-07  0.3987590E+04  0.7818609E-02  0.8007055E-01
       -2   -1    0    0    0  501  0.00000000000E+00  0.00000000000E+00  0.18709363474E+04  0.18709363474E+04  0.25500000920E-02 0.  1.
        2   -1    0    0  501    0  0.00000000000E+00  0.00000000000E+00 -0.21247208740E+04  0.21247208740E+04  0.25500000920E-02 0. -1.
    10030    2    1    2    0    0  0.00000000000E+00  0.00000000000E+00 -0.25378452661E+03  0.39956572213E+04  0.39875895030E+04 0.  0.
        2    1    3    3  502    0  0.63091701996E+03 -0.12993980485E+03 -0.20175793867E+04  0.21179157728E+04  0.25500000920E-02 0. -1.
       -2    1    3    3    0  502 -0.63091701996E+03  0.12993980485E+03  0.17637948601E+04  0.18777414485E+04  0.25500000920E-02 0.  1.
</event>
<event>
 5   0  0.5515000E-08  0.3388198E+04  0.7818609E-02  0.8140809E-01
       -1   -1    0    0    0  501  0.00000000000E+00  0.00000000000E+00  0.10819715228E+04  0.10819715229E+04  0.50400001928E-02 0. -1.
        1   -1    0    0  501    0  0.00000000000E+00  0.00000000000E+00 -0.26525394588E+04  0.26525394588E+04  0.50400001928E-02 0.  1.
    10030    2    1    2    0    0  0.00000000000E+00  0.00000000000E+00 -0.15705679360E+04  0.37345109817E+04  0.33881984344E+04 0.  0.
        2    1    3    3  502    0 -0.12073050314E+04  0.12942910227E+03 -0.20874033472E+04  0.24148685400E+04  0.25500000920E-02 0.  1.
       -2    1    3    3    0  502  0.12073050314E+04 -0.12942910227E+03  0.51683541128E+03  0.13196424416E+04  0.25500000920E-02 0. -1.
</event>
<event>
 5   0  0.1773903E-07  0.3707316E+04  0.7818609E-02  0.8066343E-01
       -2   -1    0    0    0  501  0.00000000000E+00  0.00000000000E+00  0.22956406953E+04  0.22956406953E+04  0.25500000920E-02 0.  1.
        2   -1    0    0  501    0  0.00000000000E+00  0.00000000000E+00 -0.14967704726E+04  0.14967704726E+04  0.25500000920E-02 0. -1.
    10030    2    1    2    0    0  0.00000000000E+00  0.00000000000E+00  0.79887022268E+03  0.37924111680E+04  0.37073155833E+04 0.  0.
        3    1    3    3  502    0  0.90059073857E+03  0.71501140431E+03  0.18866778950E+04  0.22094928097E+04  0.10100000352E+00 0.  1.
       -3    1    3    3    0  502 -0.90059073857E+03 -0.71501140431E+03 -0.10878076723E+04  0.15829183582E+04  0.10100000352E+00 0. -1.
</event>
<event>
 5   0  0.1821433E-07  0.3995883E+04  0.7818609E-02  0.8005378E-01
        2   -1    0    0  501    0  0.00000000000E+00  0.00000000000E+00  0.20959982784E+04  0.20959982784E+04  0.25500000920E-02 0. -1.
       -2   -1    0    0    0  501  0.00000000000E+00  0.00000000000E+00 -0.19044725192E+04  0.19044725192E+04  0.25500000920E-02 0.  1.
    10030    2    1    2    0    0  0.00000000000E+00  0.00000000000E+00  0.19152575918E+03  0.40004707976E+04  0.39958834425E+04 0.  0.
        5    1    3    3  502    0 -0.52844565285E+03  0.74959330428E+03 -0.16812689627E+04  0.19151585691E+04  0.46999998093E+01 0.  1.
       -5    1    3    3    0  502  0.52844565285E+03 -0.74959330428E+03  0.18727947219E+04  0.20853122285E+04  0.46999998093E+01 0. -1.
</event>
<event>
 5   0  0.5515000E-08  0.3981417E+04  0.7818609E-02  0.8008306E-01
        1   -1    0    0  501    0  0.00000000000E+00  0.00000000000E+00  0.25207955061E+04  0.25207955061E+04  0.50400001928E-02 0. -1.
       -1   -1    0    0    0  501  0.00000000000E+00  0.00000000000E+00 -0.15720908161E+04  0.15720908161E+04  0.50400001928E-02 0.  1.
    10030    2    1    2    0    0  0.00000000000E+00  0.00000000000E+00  0.94870469000E+03  0.40928863222E+04  0.39814165642E+04 0.  0.
        5    1    3    3  502    0  0.12461896091E+04  0.10822514191E+04  0.16184543228E+04  0.23116386312E+04  0.46999998093E+01 0. -1.
       -5    1    3    3    0  502 -0.12461896091E+04 -0.10822514191E+04 -0.66974963283E+03  0.17812476910E+04  0.46999998093E+01 0.  1.
</event>
<event>
 5   0  0.5515000E-08  0.3255945E+04  0.7818609E-02  0.8174196E-01
       -1   -1    0    0    0  501  0.00000000000E+00  0.00000000000E+00  0.13703617079E+04  0.13703617079E+04  0.50400001928E-02 0.  1.
        1   -1    0    0  501    0  0.00000000000E+00  0.00000000000E+00 -0.19340114291E+04  0.19340114291E+04  0.50400001928E-02 0. -1.
    10030    2    1    2    0    0  0.00000000000E+00  0.00000000000E+00 -0.56364972116E+03  0.33043731371E+04  0.32559454573E+04 0.  0.
        5    1    3    3  502    0 -0.74232184403E+03  0.41865092706E+03  0.11258757427E+04  0.14120653656E+04  0.46999998093E+01 0.  1.
       -5    1    3    3    0  502  0.74232184403E+03 -0.41865092706E+03 -0.16895254638E+04  0.18923077714E+04  0.46999998093E+01 0. -1.
</event>
<event>
 5   0  0.1819906E-07  0.4078705E+04  0.7818609E-02  0.7988855E-01
       -2   -1    0    0    0  501  0.00000000000E+00  0.00000000000E+00  0.32058902415E+04  0.32058902415E+04  0.25500000920E-02 0.  1.
        2   -1    0    0  501    0  0.00000000000E+00  0.00000000000E+00 -0.12972866289E+04  0.12972866289E+04  0.25500000920E-02 0. -1.
    10030    2    1    2    0    0  0.00000000000E+00  0.00000000000E+00  0.19086036126E+04  0.45031768704E+04  0.40787049630E+04 0.  0.
        1    1    3    3  502    0 -0.11802976924E+04  0.81251633217E+03 -0.64780767029E+03  0.15725584919E+04  0.50400001928E-02 0. -1.
       -1    1    3    3    0  502  0.11802976924E+04 -0.81251633217E+03  0.25564112829E+04  0.29306183785E+04  0.50400001928E-02 0.  1.
</event>
<event>
 5   0  0.1776653E-07  0.3497238E+04  0.7818609E-02  0.8114445E-01
       -2   -1    0    0    0  501  0.00000000000E+00  0.00000000000E+00  0.14711925093E+04  0.14711925093E+04  0.25500000920E-02 0. -1.
        2   -1    0    0  501    0  0.00000000000E+00  0.00000000000E+00 -0.20783610491E+04  0.20783610491E+04  0.25500000920E-02 0.  1.
    10030    2    1    2    0    0  0.00000000000E+00  0.00000000000E+00 -0.60716853988E+03  0.35495535584E+04  0.34972384574E+04 0.  0.
        4    1    3    3  502    0 -0.89669746931E+03 -0.13682895778E+04 -0.93038604893E+03  0.18819942967E+04  0.12699999809E+01 0. -1.
       -4    1    3    3    0  502  0.89669746931E+03  0.13682895778E+04  0.32321750905E+03  0.16675592616E+04  0.12699999809E+01 0.  1.
</event>
<event>
 5   0  0.5515000E-08  0.3958966E+04  0.7818609E-02  0.8012876E-01
        1   -1    0    0  501    0  0.00000000000E+00  0.00000000000E+00  0.29324888018E+04  0.29324888018E+04  0.50400001928E-02 0.  1.
       -1   -1    0    0    0  501  0.00000000000E+00  0.00000000000E+00 -0.13361867263E+04  0.13361867263E+04  0.50400001928E-02 0. -1.
    10030    2    1    2    0    0  0.00000000000E+00  0.00000000000E+00  0.15963020755E+04  0.42686755280E+04  0.39589658305E+04 0.  0.
        2    1    3    3  502    0  0.14875044792E+04  0.64271257104E+03  0.20240200566E+04  0.25927603464E+04  0.25500000920E-02 0.  1.
       -2    1    3    3    0  502 -0.14875044792E+04 -0.64271257104E+03 -0.42771798111E+03  0.16759151816E+04  0.25500000920E-02 0. -1.
</event>
<event>
 5   0  0.5515000E-08  0.3990109E+04  0.7818609E-02  0.8006545E-01
       -1   -1    0    0    0  501  0.00000000000E+00  0.00000000000E+00  0.18338236467E+04  0.18338236467E+04  0.50400001928E-02 0.  1.
        1   -1    0    0  501    0  0.00000000000E+00  0.00000000000E+00 -0.21704606821E+04  0.21704606821E+04  0.50400001928E-02 0. -1.
    10030    2    1    2    0    0  0.00000000000E+00  0.00000000000E+00 -0.33663703548E+03  0.40042843288E+04  0.39901088321E+04 0.  0.
        4    1    3    3  502    0 -0.54589250383E+03 -0.16411217875E+04 -0.11663167787E+04  0.20860430936E+04  0.12699999809E+01 0. -1.
       -4    1    3    3    0  502  0.54589250383E+03  0.16411217875E+04  0.82967974321E+03  0.19182412352E+04  0.12699999809E+01 0.  1.
</event>
<event>
 5   0  0.1821433E-07  0.3550206E+04  0.7818609E-02  0.8101994E-01
       -2   -1    0    0    0  501  0.00000000000E+00  0.00000000000E+00  0.15082717544E+04  0.15082717544E+04  0.25500000920E-02 0.  1.
        2   -1    0    0  501    0  0.00000000000E+00  0.00000000000E+00 -0.20891399352E+04  0.20891399352E+04  0.25500000920E-02 0. -1.
    10030    2    1    2    0    0  0.00000000000E+00  0.00000000000E+00 -0.58086818081E+03  0.35974116895E+04  0.35502060532E+04 0.  0.
        5    1    3    3  502    0  0.73354900359E+03  0.15206349314E+04 -0.84594240252E+03  0.18884028632E+04  0.46999998093E+01 0. -1.
       -5    1    3    3    0  502 -0.73354900359E+03 -0.15206349314E+04  0.26507422171E+03  0.17090088263E+04  0.46999998093E+01 0.  1.
</event>
<event>
 5   0  0.5515000E-08  0.3513487E+04  0.7818609E-02  0.8110601E-01
        1   -1    0    0  501    0  0.00000000000E+00  0.00000000000E+00  0.17532913713E+04  0.17532913713E+04  0.50400001928E-02 0.  1.
       -1   -1    0    0    0  501  0.00000000000E+00  0.00000000000E+00 -0.17602020719E+04  0.17602020719E+04  0.50400001928E-02 0. -1.
    10030    2    1    2    0    0  0.00000000000E+00  0.00000000000E+00 -0.69107006197E+01  0.35134934433E+04  0.35134866469E+04 0.  0.
        1    1    3    3  502    0 -0.33443321019E+03  0.89601816638E+03  0.14701325767E+04  0.17538483172E+04  0.50400001928E-02 0.  1.
       -1    1    3    3    0  502  0.33443321019E+03 -0.89601816638E+03 -0.14770432773E+04  0.17596451261E+04  0.50400001928E-02 0. -1.
</event>
<event>
 5   0  0.1821433E-07  0.4058061E+04  0.7818609E-02  0.7992935E-01
        2   -1    0    0  501    0  0.00000000000E+00  0.00000000000E+00  0.26832367305E+04  0.26832367305E+04  0.25500000920E-02 0. -1.
       -2   -1    0    0    0  501  0.00000000000E+00  0.00000000000E+00 -0.15343280307E+04  0.15343280307E+04  0.25500000920E-02 0.  1.
    10030    2    1    2    0    0  0.00000000000E+00  0.00000000000E+00  0.11489086998E+04  0.42175647613E+04  0.40580612754E+04 0.  0.
        5    1    3    3  502    0 -0.27570823957E+03  0.36684749301E+03  0.26285884778E+04  0.26683499756E+04  0.46999998093E+01 0. -1.
       -5    1    3    3    0  502  0.27570823957E+03 -0.36684749301E+03 -0.14796797781E+04  0.15492147857E+04  0.46999998093E+01 0.  1.
</event>
<event>
 5   0  0.5515000E-08  0.3611073E+04  0.7818609E-02  0.8087960E-01
       -1   -1    0    0    0  501  0.00000000000E+00  0.00000000000E+00  0.15809800348E+04  0.15809800349E+04  0.50400001928E-02 0.  1.
        1   -1    0    0  501    0  0.00000000000E+00  0.00000000000E+00 -0.20619884721E+04  0.20619884721E+04  0.50400001928E-02 0. -1.
    10030    2    1    2    0    0  0.00000000000E+00  0.00000000000E+00 -0.48100843726E+03  0.36429685070E+04  0.36110733067E+04 0.  0.
        2    1    3    3  502    0 -0.57370220610E+03  0.13855088541E+04 -0.12549673501E+04  0.19554314245E+04  0.25500000920E-02 0. -1.
       -2    1    3    3    0  502  0.57370220610E+03 -0.13855088541E+04  0.77395891287E+03  0.16875370825E+04  0.25500000920E-02 0.  1.
</event>
<event>
 5   0  0.1819906E-07  0.4040067E+04  0.7818609E-02  0.7996512E-01
        2   -1    0    0  501    0  0.00000000000E+00  0.00000000000E+00  0.17216706598E+04  0.17216706598E+04  0.25500000920E-02 0. -1.
       -2   -1    0    0    0  501  0.00000000000E+00  0.00000000000E+00 -0.23701020240E+04  0.23701020240E+04  0.25500000920E-02 0.  1.
    10030    2    1    2    0    0  0.00000000000E+00  0.00000000000E+00 -0.64843136420E+03  0.40917726838E+04  0.40400668883E+04 0.  0.
        1    1    3    3  502    0  0.55647233054E+03  0.69573845572E+00  0.16425105319E+04  0.17342153229E+04  0.50400001928E-02 0. -1.
       -1    1    3    3    0  502 -0.55647233054E+03 -0.69573845572E+00 -0.22909418961E+04  0.23575573609E+04  0.50400001928E-02 0.  1.
</event>
<event>
 5   0  0.1785559E-07  0.3950667E+04  0.7818609E-02  0.8014573E-01
        2   -1    0    0  501    0  0.00000000000E+00  0.00000000000E+00  0.15225187053E+04  0.15225187053E+04  0.25500000920E-02 0. -1.
       -2   -1    0    0    0  501  0.00000000000E+00  0.00000000000E+00 -0.25628200864E+04  0.25628200864E+04  0.25500000920E-02 0.  1.
    10030    2    1    2    0    0  0.00000000000E+00  0.00000000000E+00 -0.10403013811E+04  0.40853387917E+04  0.39506665361E+04 0.  0.
        2    1    3    3  502    0 -0.20627997942E+03 -0.19526596195E+04 -0.74316524617E+03  0.20994584070E+04  0.25500000920E-02 0. -1.
       -2    1    3    3    0  502  0.20627997942E+03  0.19526596195E+04 -0.29713613492E+03  0.19858803847E+04  0.25500000920E-02 0.  1.
</event>
<event>
 5   0  0.5515000E-08  0.3963461E+04  0.7818609E-02  0.8011958E-01
        1   -1    0    0  501    0  0.00000000000E+00  0.00000000000E+00  0.15465472203E+04  0.15465472203E+04  0.50400001928E-02 0.  1.
       -1   -1    0    0    0  501  0.00000000000E+00  0.00000000000E+00 -0.25393705928E+04  0.25393705928E+04  0.50400001928E-02 0. -1.
    10030    2    1    2    0    0  0.00000000000E+00  0.00000000000E+00 -0.99282337246E+03  0.40859178131E+04  0.39634613820E+04 0.  0.
        4    1    3    3  502    0 -0.79689360001E+03  0.17998750785E+04 -0.25983229542E+03  0.19854732792E+04  0.12699999809E+01 0. -1.
       -4    1    3    3    0  502  0.79689360001E+03 -0.17998750785E+04 -0.73299107704E+03  0.21004445339E+04  0.12699999809E+01 0.  1.
</event>
<event>
 5   0  0.1776653E-07  0.3973463E+04  0.7818609E-02  0.8009921E-01
       -2   -1    0    0    0  501  0.00000000000E+00  0.00000000000E+00  0.16957819029E+04  0.16957819029E+04  0.25500000920E-02 0.  1.
        2   -1    0    0  501    0  0.00000000000E+00  0.00000000000E+00 -0.23275997047E+04  0.23275997047E+04  0.25500000920E-02 0. -1.
    10030    2    1    2    0    0  0.00000000000E+00  0.00000000000E+00 -0.63181780176E+03  0.40233816076E+04  0.39734626997E+04 0.  0.
        4    1    3    3  502    0  0.16642264565E+04  0.86204748708E+03  0.35140341071E+03  0.19068984080E+04  0.12699999809E+01 0.  1.
       -4    1    3    3    0  502 -0.16642264565E+04 -0.86204748708E+03 -0.98322121246E+03  0.21164831996E+04  0.12699999809E+01 0. -1.
</event>
<event>
 5   0  0.1821433E-07  0.4008024E+04  0.7818609E-02  0.8002930E-01
        2   -1    0    0  501    0  0.00000000000E+00  0.00000000000E+00  0.28721813536E+04  0.28721813536E+04  0.25500000920E-02 0.  1.
       -2   -1    0    0    0  501  0.00000000000E+00  0.00000000000E+00 -0.13982629408E+04  0.13982629408E+04  0.25500000920E-02 0. -1.
    10030    2    1    2    0    0  0.00000000000E+00  0.00000000000E+00  0.14739184128E+04  0.42704442944E+04  0.40080243243E+04 0.  0.
        5    1    3    3  502    0  0.13319475755E+04  0.78017527514E+03 -0.62471646986E+03  0.16652478979E+04  0.46999998093E+01 0. -1.
       -5    1    3    3    0  502 -0.13319475755E+04 -0.78017527514E+03  0.20986348826E+04  0.26051963965E+04  0.46999998093E+01 0.  1.
</event>
<event>
 5   0  0.5515000E-08  0.4016107E+04  0.7818609E-02  0.8001305E-01
        1   -1    0    0  501    0  0.00000000000E+00  0.00000000000E+00  0.16872908325E+04  0.16872908325E+04  0.50400001928E-02 0. -1.
       -1   -1    0    0    0  501  0.00000000000E+00  0.00000000000E+00 -0.23897952139E+04  0.23897952139E+04  0.50400001928E-02 0.  1.
    10030    2    1    2    0    0  0.00000000000E+00  0.00000000000E+00 -0.70250438136E+03  0.40770860464E+04  0.40161073472E+04 0.  0.
        1    1    3    3  502    0 -0.38923088348E+03 -0.16365063647E+04 -0.14645460710E+04  0.22303696905E+04  0.50400001928E-02 0.  1.
       -1    1    3    3    0  502  0.38923088348E+03  0.16365063647E+04  0.76204168962E+03  0.18467163559E+04  0.50400001928E-02 0. -1.
</event>
<event>
 5   0  0.1776653E-07  0.3781587E+04  0.7818609E-02  0.8050118E-01
       -2   -1    0    0    0  501  0.00000000000E+00  0.00000000000E+00  0.16554662909E+04  0.16554662909E+04  0.25500000920E-02 0.  1.
        2   -1    0    0  501    0  0.00000000000E+00  0.00000000000E+00 -0.21595727686E+04  0.21595727686E+04  0.25500000920E-02 0. -1.
    10030    2    1    2    0    0  0.00000000000E+00  0.00000000000E+00 -0.50410647770E+03  0.38150390595E+04  0.37815869268E+04 0.  0.
        4    1    3    3  502    0 -0.87850610604E+03  0.41912698007E+03 -0.18873979573E+04  0.21236085011E+04  0.12699999809E+01 0. -1.
       -4    1    3    3    0  502  0.87850610604E+03 -0.41912698007E+03  0.13832914796E+04  0.16914305585E+04  0.12699999809E+01 0.  1.
</event>
<event>
 5   0  0.5515000E-08  0.3212944E+04  0.7818609E-02  0.8185407E-01
        1   -1    0    0  501    0  0.00000000000E+00  0.00000000000E+00  0.94071475427E+03  0.94071475428E+03  0.50400001928E-02 0. -1.
       -1   -1    0    0    0  501  0.00000000000E+00  0.00000000000E+00 -0.27433951667E+04  0.27433951668E+04  0.50400001928E-02 0.  1.
    10030    2    1    2    0    0  0.00000000000E+00  0.00000000000E+00 -0.18026804125E+04  0.36841099210E+04  0.32129440146E+04 0.  0.
        5    1    3    3  502    0  0.12280192212E+04  0.25821229075E+03  0.24875528248E+03  0.12792990563E+04  0.46999998093E+01 0. -1.
       -5    1    3    3    0  502 -0.12280192212E+04 -0.25821229075E+03 -0.20514356950E+04  0.24048108648E+04  0.46999998093E+01 0.  1.
</event>
<event>
 5   0  0.5515000E-08  0.3788099E+04  0.7818609E-02  0.8048714E-01
        1   -1    0    0  501    0  0.00000000000E+00  0.00000000000E+00  0.16557978941E+04  0.16557978941E+04  0.50400001928E-02 0.  1.
       -1   -1    0    0    0  501  0.00000000000E+00  0.00000000000E+00 -0.21665829361E+04  0.21665829361E+04  0.50400001928E-02 0. -1.
    10030    2    1    2    0    0  0.00000000000E+00  0.00000000000E+00 -0.51078504194E+03  0.38223808302E+04  0.37880989760E+04 0.  0.
        2    1    3    3  502    0 -0.17873825168E+04  0.23876971536E+03 -0.84001152356E+03  0.19893130970E+04  0.25500000920E-02 0.  1.
       -2    1    3    3    0  502  0.17873825168E+04 -0.23876971536E+03  0.32922648162E+03  0.18330677332E+04  0.25500000920E-02 0. -1.
</event>
<event>
 5   0  0.5515000E-08  0.4079229E+04  0.7818609E-02  0.7988752E-01
       -1   -1    0    0    0  501  0.00000000000E+00  0.00000000000E+00  0.19013261206E+04  0.19013261206E+04  0.50400001928E-02 0. -1.
        1   -1    0    0  501    0  0.00000000000E+00  0.00000000000E+00 -0.21879608004E+04  0.21879608004E+04  0.50400001928E-02 0.  1.
    10030    2    1    2    0    0  0.00000000000E+00  0.00000000000E+00 -0.28663467983E+03  0.40892869210E+04  0.40792288588E+04 0.  0.
        2    1    3    3  502    0  0.57623928558E+03 -0.32413602314E+03 -0.20775595103E+04  0.21802223269E+04  0.25500000920E-02 0.  1.
       -2    1    3    3    0  502 -0.57623928558E+03  0.32413602314E+03  0.17909248305E+04  0.19090645940E+04  0.25500000920E-02 0. -1.
</event>
<event>
 5   0  0.5515000E-08  0.3950012E+04  0.7818609E-02  0.8014707E-01
        1   -1    0    0  501    0  0.00000000000E+00  0.00000000000E+00  0.25882052756E+04  0.25882052756E+04  0.50400001928E-02 0. -1.
       -1   -1    0    0    0  501  0.00000000000E+00  0.00000000000E+00 -0.15070860038E+04  0.15070860039E+04  0.50400001928E-02 0.  1.
    10030    2    1    2    0    0  0.00000000000E+00  0.00000000000E+00  0.10811192717E+04  0.40952912794E+04  0.39500116182E+04 0.  0.
        3    1    3    3  502    0 -0.16015686896E+03 -0.60005198296E+03 -0.14032113405E+04  0.15345079606E+04  0.10100000352E+00 0.  1.
       -3    1    3    3    0  502  0.16015686896E+03  0.60005198296E+03  0.24843306122E+04  0.25607833188E+04  0.10100000352E+00 0. -1.
</event>
<event>
 5   0  0.5515000E-08  0.4011883E+04  0.7818609E-02  0.8002154E-01
        3   -1    0    0  501    0  0.00000000000E+00  0.00000000000E+00  0.22690725599E+04  0.22690725622E+04  0.10100000352E+00 0.  1.
       -3   -1    0    0    0  501  0.00000000000E+00  0.00000000000E+00 -0.17733238628E+04  0.17733238657E+04  0.10100000352E+00 0. -1.
    10030    2    1    2    0    0  0.00000000000E+00  0.00000000000E+00  0.49574869710E+03  0.40423964279E+04  0.40118826141E+04 0.  0.
        1    1    3    3  502    0 -0.67942573990E+03  0.14191175924E+04 -0.10058912253E+04  0.18674397539E+04  0.50400001928E-02 0. -1.
       -1    1    3    3    0  502  0.67942573990E+03 -0.14191175924E+04  0.15016399224E+04  0.21749566740E+04  0.50400001928E-02 0.  1.
</event>
<event>
 5   0  0.5515000E-08  0.3564588E+04  0.7818609E-02  0.8098652E-01
       -1   -1    0    0    0  501  0.00000000000E+00  0.00000000000E+00  0.15650502840E+04  0.15650502840E+04  0.50400001928E-02 0. -1.
        1   -1    0    0  501    0  0.00000000000E+00  0.00000000000E+00 -0.20296931335E+04  0.20296931335E+04  0.50400001928E-02 0.  1.
    10030    2    1    2    0    0  0.00000000000E+00  0.00000000000E+00 -0.46464284946E+03  0.35947434175E+04  0.35645879509E+04 0.  0.
        2    1    3    3  502    0  0.92307699198E+03  0.10285608744E+04 -0.13672590573E+04  0.19440694266E+04  0.25500000920E-02 0.  1.
       -2    1    3    3    0  502 -0.92307699198E+03 -0.10285608744E+04  0.90261620787E+03  0.16506739909E+04  0.25500000920E-02 0. -1.
</event>
<event>
 5   0  0.1776653E-07  0.3997966E+04  0.7818609E-02  0.8004957E-01
       -2   -1    0    0    0  501  0.00000000000E+00  0.00000000000E+00  0.13488620115E+04  0.13488620115E+04  0.25500000920E-02 0. -1.
        2   -1    0    0  501    0  0.00000000000E+00  0.00000000000E+00 -0.29624476167E+04  0.29624476167E+04  0.25500000920E-02 0.  1.
    10030    2    1    2    0    0  0.00000000000E+00  0.00000000000E+00 -0.16135856052E+04  0.43113096282E+04  0.39979660085E+04 0.  0.
        4    1    3    3  502    0 -0.11762369879E+04  0.14756130728E+04 -0.95584534877E+02  0.18894722566E+04  0.12699999809E+01 0. -1.
       -4    1    3    3    0  502  0.11762369879E+04 -0.14756130728E+04 -0.15180010703E+04  0.24218373716E+04  0.12699999809E+01 0.  1.
</event>
<event>
 5   0  0.1776653E-07  0.3991874E+04  0.7818609E-02  0.8006188E-01
        2   -1    0    0  501    0  0.00000000000E+00  0.00000000000E+00  0.16609086436E+04  0.16609086436E+04  0.25500000920E-02 0. -1.
       -2   -1    0    0    0  501  0.00000000000E+00  0.00000000000E+00 -0.23985449097E+04  0.23985449097E+04  0.25500000920E-02 0.  1.
    10030    2    1    2    0    0  0.00000000000E+00  0.00000000000E+00 -0.73763626614E+03  0.40594535533E+04  0.39918737318E+04 0.  0.
        4    1    3    3  502    0  0.91465602003E+03  0.17236094582E+04 -0.79585237717E+03  0.21073224287E+04  0.12699999809E+01 0. -1.
       -4    1    3    3    0  502 -0.91465602003E+03 -0.17236094582E+04  0.58216111026E+02  0.19521311246E+04  0.12699999809E+01 0.  1.
</event>
<event>
 5   0  0.1819906E-07  0.3977144E+04  0.7818609E-02  0.8009173E-01
       -2   -1    0    0    0  501  0.00000000000E+00  0.00000000000E+00  0.16841038877E+04  0.16841038877E+04  0.25500000920E-02 0. -1.
        2   -1    0    0  501    0  0.00000000000E+00  0.00000000000E+00 -0.23480845249E+04  0.23480845249E+04  0.25500000920E-02 0.  1.
    10030    2    1    2    0    0  0.00000000000E+00  0.00000000000E+00 -0.66398063721E+03  0.40321884127E+04  0.39771438381E+04 0.  0.
        1    1    3    3  502    0 -0.93154467765E+03 -0.49056759465E+03 -0.20423439581E+04  0.22977382128E+04  0.50400001928E-02 0.  1.
       -1    1    3    3    0  502  0.93154467765E+03  0.49056759465E+03  0.13783633209E+04  0.17344501999E+04  0.50400001928E-02 0. -1.
</event>
<event>
 5   0  0.5515000E-08  0.3949287E+04  0.7818609E-02  0.8014856E-01
       -1   -1    0    0    0  501  0.00000000000E+00  0.00000000000E+00  0.12794943079E+04  0.12794943079E+04  0.50400001928E-02 0.  1.
        1   -1    0    0  501    0  0.00000000000E+00  0.00000000000E+00 -0.30474676792E+04  0.30474676792E+04  0.50400001928E-02 0. -1.
    10030    2    1    2    0    0  0.00000000000E+00  0.00000000000E+00 -0.17679733713E+04  0.43269619871E+04  0.39492873023E+04 0.  0.
        4    1    3    3  502    0 -0.56496237744E+03 -0.45813428676E+03  0.11273683451E+04  0.13416521572E+04  0.12699999809E+01 0.  1.
       -4    1    3    3    0  502  0.56496237744E+03  0.45813428676E+03 -0.28953417164E+04  0.29853098299E+04  0.12699999809E+01 0. -1.
</event>
<event>
 5   0  0.5515000E-08  0.4123788E+04  0.7818609E-02  0.7980030E-01
       -1   -1    0    0    0  501  0.00000000000E+00  0.00000000000E+00  0.14940390736E+04  0.14940390736E+04  0.50400001928E-02 0. -1.
        1   -1    0    0  501    0  0.00000000000E+00  0.00000000000E+00 -0.28455800527E+04  0.28455800527E+04  0.50400001928E-02 0.  1.
    10030    2    1    2    0    0  0.00000000000E+00  0.00000000000E+00 -0.13515409791E+04  0.43396191263E+04  0.41237884455E+04 0.  0.
        4    1    3    3  502    0 -0.46801700706E+02 -0.27351436282E+03 -0.28258403081E+04  0.28394322612E+04  0.12699999809E+01 0.  1.
       -4    1    3    3    0  502  0.46801700706E+02  0.27351436282E+03  0.14742993290E+04  0.15001868651E+04  0.12699999809E+01 0. -1.
</event>
<event>
 5   0  0.1821433E-07  0.3985506E+04  0.7818609E-02  0.8007477E-01
       -2   -1    0    0    0  501  0.00000000000E+00  0.00000000000E+00  0.15343101205E+04  0.15343101205E+04  0.25500000920E-02 0.  1.
        2   -1    0    0  501    0  0.00000000000E+00  0.00000000000E+00 -0.25881763010E+04  0.25881763010E+04  0.25500000920E-02 0. -1.
    10030    2    1    2    0    0  0.00000000000E+00  0.00000000000E+00 -0.10538661805E+04  0.41224864215E+04  0.39855062876E+04 0.  0.
        5    1    3    3  502    0  0.18749624339E+04 -0.29195298966E+03  0.10252335202E+03  0.19003299199E+04  0.46999998093E+01 0. -1.
       -5    1    3    3    0  502 -0.18749624339E+04  0.29195298966E+03 -0.11563895326E+04  0.22221565016E+04  0.46999998093E+01 0.  1.
</event>
<event>
 5   0  0.5515000E-08  0.4108865E+04  0.7818609E-02  0.7982938E-01
       -3   -1    0    0    0  501  0.00000000000E+00  0.00000000000E+00  0.20603416244E+04  0.20603416269E+04  0.10100000352E+00 0. -1.
        3   -1    0    0  501    0  0.00000000000E+00  0.00000000000E+00 -0.20485407182E+04  0.20485407207E+04  0.10100000352E+00 0.  1.
    10030    2    1    2    0    0  0.00000000000E+00  0.00000000000E+00  0.11800906233E+02  0.41088823475E+04  0.41088654011E+04 0.  0.
        4    1    3    3  502    0 -0.13570537757E+04  0.52938196166E+03 -0.14428470092E+04  0.20502803019E+04  0.12699999809E+01 0.  1.
       -4    1    3    3    0  502  0.13570537757E+04 -0.52938196166E+03  0.14546479154E+04  0.20586020456E+04  0.12699999809E+01 0. -1.
</event>
<event>
 5   0  0.1785559E-07  0.3443699E+04  0.7818609E-02  0.8127264E-01
        2   -1    0    0  501    0  0.00000000000E+00  0.00000000000E+00  0.18776911471E+04  0.18776911471E+04  0.25500000920E-02 0.  1.
       -2   -1    0    0    0  501  0.00000000000E+00  0.00000000000E+00 -0.15789420361E+04  0.15789420361E+04  0.25500000920E-02 0. -1.
    10030    2    1    2    0    0  0.00000000000E+00  0.00000000000E+00  0.29874911098E+03  0.34566331832E+04  0.34436988736E+04 0.  0.
        2    1    3    3  502    0 -0.10391713927E+04 -0.12753444064E+03 -0.12227356742E+04  0.16097281590E+04  0.25500000920E-02 0. -1.
       -2    1    3    3    0  502  0.10391713927E+04  0.12753444064E+03  0.15214847851E+04  0.18469050242E+04  0.25500000920E-02 0.  1.
</event>
<event>
 5   0  0.5515000E-08  0.3981924E+04  0.7818609E-02  0.8008203E-01
        1   -1    0    0  501    0  0.00000000000E+00  0.00000000000E+00  0.25747314957E+04  0.25747314957E+04  0.50400001928E-02 0.  1.
       -1   -1    0    0    0  501  0.00000000000E+00  0.00000000000E+00 -0.15395510490E+04  0.15395510490E+04  0.50400001928E-02 0. -1.
    10030    2    1    2    0    0  0.00000000000E+00  0.00000000000E+00  0.10351804467E+04  0.41142825447E+04  0.39819244468E+04 0.  0.
        3    1    3    3  502    0  0.14828313332E+03 -0.75813270205E+03  0.24135717521E+04  0.25341826482E+04  0.10100000352E+00 0.  1.
       -3    1    3    3    0  502 -0.14828313332E+03  0.75813270205E+03 -0.13783913055E+04  0.15800998964E+04  0.10100000352E+00 0. -1.
</event>
<event>
 5   0  0.1773903E-07  0.4062317E+04  0.7818609E-02  0.7992092E-01
        2   -1    0    0  501    0  0.00000000000E+00  0.00000000000E+00  0.20929712013E+04  0.20929712013E+04  0.25500000920E-02 0. -1.
       -2   -1    0    0    0  501  0.00000000000E+00  0.00000000000E+00 -0.19711712516E+04  0.19711712516E+04  0.25500000920E-02 0.  1.
    10030    2    1    2    0    0  0.00000000000E+00  0.00000000000E+00  0.12179994976E+03  0.40641424529E+04  0.40623169066E+04 0.  0.
        3    1    3    3  502    0  0.17304987977E+04  0.47084361623E+03 -0.89309283171E+03  0.20034806253E+04  0.10100000352E+00 0.  1.
       -3    1    3    3    0  502 -0.17304987977E+04 -0.47084361623E+03  0.10148927815E+04  0.20606618276E+04  0.10100000352E+00 0. -1.
</event>
<event>
 5   0  0.1776653E-07  0.3692551E+04  0.7818609E-02  0.8069615E-01
        2   -1    0    0  501    0  0.00000000000E+00  0.00000000000E+00  0.20532124657E+04  0.20532124658E+04  0.25500000920E-02 0. -1.
       -2   -1    0    0    0  501  0.00000000000E+00  0.00000000000E+00 -0.16601948218E+04  0.16601948218E+04  0.25500000920E-02 0.  1.
    10030    2    1    2    0    0  0.00000000000E+00  0.00000000000E+00  0.39301764398E+03  0.37134072875E+04  0.36925507193E+04 0.  0.
        4    1    3    3  502    0 -0.54748023280E+03  0.10475009677E+04  0.16228776799E+04  0.20076669194E+04  0.12699999809E+01 0. -1.
       -4    1    3    3    0  502  0.54748023280E+03 -0.10475009677E+04 -0.12298600359E+04  0.17057403681E+04  0.12699999809E+01 0.  1.
</event>
<event>
 5   0  0.1776653E-07  0.3855697E+04  0.7818609E-02  0.8034307E-01
        2   -1    0    0  501    0  0.00000000000E+00  0.00000000000E+00  0.18706227369E+04  0.18706227369E+04  0.25500000920E-02 0. -1.
       -2   -1    0    0    0  501  0.00000000000E+00  0.00000000000E+00 -0.19868252567E+04  0.19868252567E+04  0.25500000920E-02 0.  1.
    10030    2    1    2    0    0  0.00000000000E+00  0.00000000000E+00 -0.11620251989E+03  0.38574479936E+04  0.38556973426E+04 0.  0.
        4    1    3    3  502    0 -0.94786729892E+03 -0.34275541171E+03 -0.17022174934E+04  0.19782516767E+04  0.12699999809E+01 0.  1.
       -4    1    3    3    0  502  0.94786729892E+03  0.34275541171E+03  0.15860149735E+04  0.18791963169E+04  0.12699999809E+01 0. -1.
</event>
<event>
 5   0  0.5515000E-08  0.4002339E+04  0.7818609E-02  0.8004075E-01
       -1   -1    0    0    0  501  0.00000000000E+00  0.00000000000E+00  0.17999160579E+04  0.17999160579E+04  0.50400001928E-02 0.  1.
        1   -1    0    0  501    0  0.00000000000E+00  0.00000000000E+00 -0.22249258808E+04  0.22249258808E+04  0.50400001928E-02 0. -1.
    10030    2    1    2    0    0  0.00000000000E+00  0.00000000000E+00 -0.42500982292E+03  0.40248419387E+04  0.40023392262E+04 0.  0.
        4    1    3    3  502    0  0.19403232569E+04  0.45550751664E+03 -0.39334022485E+03  0.20315165725E+04  0.12699999809E+01 0. -1.
       -4    1    3    3    0  502 -0.19403232569E+04 -0.45550751664E+03 -0.31669598063E+02  0.19933253662E+04  0.12699999809E+01 0.  1.
</event>
<event>
 5   0  0.1819906E-07  0.4008350E+04  0.7818609E-02  0.8002864E-01
        2   -1    0    0  501    0  0.00000000000E+00  0.00000000000E+00  0.15284911556E+04  0.15284911556E+04  0.25500000920E-02 0. -1.
       -2   -1    0    0    0  501  0.00000000000E+00  0.00000000000E+00 -0.26278971379E+04  0.26278971379E+04  0.25500000920E-02 0.  1.
    10030    2    1    2    0    0  0.00000000000E+00  0.00000000000E+00 -0.10994059823E+04  0.41563882935E+04  0.40083500511E+04 0.  0.
        1    1    3    3  502    0  0.91060349031E+03  0.14834487341E+04  0.48041448021E+03  0.18057178451E+04  0.50400001928E-02 0. -1.
       -1    1    3    3    0  502 -0.91060349031E+03 -0.14834487341E+04 -0.15798204625E+04  0.23506704484E+04  0.50400001928E-02 0.  1.
</event>
<event>
 5   0  0.5515000E-08  0.3985117E+04  0.7818609E-02  0.8007556E-01
       -1   -1    0    0    0  501  0.00000000000E+00  0.00000000000E+00  0.18011250195E+04  0.18011250195E+04  0.50400001928E-02 0. -1.
        1   -1    0    0  501    0  0.00000000000E+00  0.00000000000E+00 -0.22043388560E+04  0.22043388560E+04  0.50400001928E-02 0.  1.
    10030    2    1    2    0    0  0.00000000000E+00  0.00000000000E+00 -0.40321383652E+03  0.40054638755E+04  0.39851172455E+04 0.  0.
        3    1    3    3  502    0  0.73596396197E+03 -0.12845048400E+04  0.11388793288E+04  0.18677906128E+04  0.10100000352E+00 0. -1.
       -3    1    3    3    0  502 -0.73596396197E+03  0.12845048400E+04 -0.15420931654E+04  0.21376732627E+04  0.10100000352E+00 0.  1.
</event>
<event>
 5   0  0.1819906E-07  0.4012552E+04  0.7818609E-02  0.8002019E-01
       -2   -1    0    0    0  501  0.00000000000E+00  0.00000000000E+00  0.19296681791E+04  0.19296681791E+04  0.25500000920E-02 0.  1.
        2   -1    0    0  501    0  0.00000000000E+00  0.00000000000E+00 -0.20859252858E+04  0.20859252858E+04  0.25500000920E-02 0. -1.
    10030    2    1    2    0    0  0.00000000000E+00  0.00000000000E+00 -0.15625710675E+03  0.40155934649E+04  0.40125521295E+04 0.  0.
        1    1    3    3  502    0  0.19100448849E+04  0.59738448508E+03 -0.21967112036E+03  0.20133045191E+04  0.50400001928E-02 0.  1.
       -1    1    3    3    0  502 -0.19100448849E+04 -0.59738448508E+03  0.63414013613E+02  0.20022889458E+04  0.50400001928E-02 0. -1.
</event>
<event>
 5   0  0.5515000E-08  0.3221287E+04  0.7818609E-02  0.8183218E-01
        1   -1    0    0  501    0  0.00000000000E+00  0.00000000000E+00  0.12547926254E+04  0.12547926254E+04  0.50400001928E-02 0.  1.
       -1   -1    0    0    0  501  0.00000000000E+00  0.00000000000E+00 -0.20674119502E+04  0.20674119502E+04  0.50400001928E-02 0. -1.
    10030    2    1    2    0    0  0.00000000000E+00  0.00000000000E+00 -0.81261932479E+03  0.33222045757E+04  0.32212874872E+04 0.  0.
        5    1    3    3  502    0 -0.15643089601E+04 -0.35365051348E+03 -0.25326955827E+03  0.16236683059E+04  0.46999998093E+01 0. -1.
       -5    1    3    3    0  502  0.15643089601E+04  0.35365051348E+03 -0.55934976652E+03  0.16985362698E+04  0.46999998093E+01 0.  1.
</event>
<event>
 5   0  0.5515000E-08  0.4129746E+04  0.7818609E-02  0.7978872E-01
       -1   -1    0    0    0  501  0.00000000000E+00  0.00000000000E+00  0.20337971727E+04  0.20337971727E+04  0.50400001928E-02 0. -1.
        1   -1    0    0  501    0  0.00000000000E+00  0.00000000000E+00 -0.20964232184E+04  0.20964232184E+04  0.50400001928E-02 0.  1.
    10030    2    1    2    0    0  0.00000000000E+00  0.00000000000E+00 -0.62626045714E+02  0.41302203912E+04  0.41297455682E+04 0.  0.
        5    1    3    3  502    0 -0.12959992202E+04 -0.10903392440E+04  0.11500187394E+04  0.20471978011E+04  0.46999998093E+01 0. -1.
       -5    1    3    3    0  502  0.12959992202E+04  0.10903392440E+04 -0.12126447851E+04  0.20830225901E+04  0.46999998093E+01 0.  1.
</event>
<event>
 5   0  0.5515000E-08  0.4078243E+04  0.7818609E-02  0.7988946E-01
        1   -1    0    0  501    0  0.00000000000E+00  0.00000000000E+00  0.17788783772E+04  0.17788783772E+04  0.50400001928E-02 0. -1.
       -1   -1    0    0    0  501  0.00000000000E+00  0.00000000000E+00 -0.23374375954E+04  0.23374375954E+04  0.50400001928E-02 0.  1.
    10030    2    1    2    0    0  0.00000000000E+00  0.00000000000E+00 -0.55855921819E+03  0.41163159727E+04  0.40782433457E+04 0.  0.
        1    1    3    3  502    0  0.10707053198E+04  0.16480752809E+04 -0.82791191200E+03  0.21326040765E+04  0.50400001928E-02 0. -1.
       -1    1    3    3    0  502 -0.10707053198E+04 -0.16480752809E+04  0.26935269381E+03  0.19837118961E+04  0.50400001928E-02 0.  1.
</event>
<event>
 5   0  0.1821433E-07  0.4080618E+04  0.7818609E-02  0.7988478E-01
       -2   -1    0    0    0  501  0.00000000000E+00  0.00000000000E+00  0.17186179841E+04  0.17186179841E+04  0.25500000920E-02 0.  1.
        2   -1    0    0  501    0  0.00000000000E+00  0.00000000000E+00 -0.24222147412E+04  0.24222147412E+04  0.25500000920E-02 0. -1.
    10030    2    1    2    0    0  0.00000000000E+00  0.00000000000E+00 -0.70359675717E+03  0.41408327253E+04  0.40806184902E+04 0.  0.
        5    1    3    3  502    0 -0.67122159752E+03  0.19255979433E+03 -0.22971740649E+04  0.24009682384E+04  0.46999998093E+01 0. -1.
       -5    1    3    3    0  502  0.67122159752E+03 -0.19255979433E+03  0.15935773077E+04  0.17398644870E+04  0.46999998093E+01 0.  1.
</event>
<event>
 5   0  0.1819906E-07  0.4027285E+04  0.7818609E-02  0.7999065E-01
       -2   -1    0    0    0  501  0.00000000000E+00  0.00000000000E+00  0.13996195242E+04  0.13996195242E+04  0.25500000920E-02 0.  1.
        2   -1    0    0  501    0  0.00000000000E+00  0.00000000000E+00 -0.28970420380E+04  0.28970420380E+04  0.25500000920E-02 0. -1.
    10030    2    1    2    0    0  0.00000000000E+00  0.00000000000E+00 -0.14974225138E+04  0.42966615623E+04  0.40272852389E+04 0.  0.
        1    1    3    3  502    0  0.12461465792E+04 -0.95254516774E+03 -0.20959219244E+04  0.26178449738E+04  0.50400001928E-02 0. -1.
       -1    1    3    3    0  502 -0.12461465792E+04  0.95254516774E+03  0.59849941060E+03  0.16788165885E+04  0.50400001928E-02 0.  1.
</event>
<event>
 5   0  0.5515000E-08  0.4009040E+04  0.7818609E-02  0.8002725E-01
       -1   -1    0    0    0  501  0.00000000000E+00  0.00000000000E+00  0.26469099177E+04  0.26469099177E+04  0.50400001928E-02 0. -1.
        1   -1    0    0  501    0  0.00000000000E+00  0.00000000000E+00 -0.15180343905E+04  0.15180343905E+04  0.50400001928E-02 0.  1.
    10030    2    1    2    0    0  0.00000000000E+00  0.00000000000E+00  0.11288755272E+04  0.41649443081E+04  0.40090399267E+04 0.  0.
        2    1    3    3  502    0 -0.19550817043E+04  0.44196943769E+03  0.58569893513E+03  0.20882348281E+04  0.25500000920E-02 0. -1.
       -2    1    3    3    0  502  0.19550817043E+04 -0.44196943769E+03  0.54317659205E+03  0.20767094801E+04  0.25500000920E-02 0.  1.
</event>
<event>
 5   0  0.5515000E-08  0.4007679E+04  0.7818609E-02  0.8002999E-01
       -1   -1    0    0    0  501  0.00000000000E+00  0.00000000000E+00  0.31953938040E+04  0.31953938040E+04  0.50400001928E-02 0.  1.
        1   -1    0    0  501    0  0.00000000000E+00  0.00000000000E+00 -0.12566129958E+04  0.12566129958E+04  0.50400001928E-02 0. -1.
    10030    2    1    2    0    0  0.00000000000E+00  0.00000000000E+00  0.19387808082E+04  0.44520067998E+04  0.40076793189E+04 0.  0.
        5    1    3    3  502    0  0.10695335989E+03 -0.74354620803E+03  0.30330523865E+04  0.31246966019E+04  0.46999998093E+01 0.  1.
       -5    1    3    3    0  502 -0.10695335989E+03  0.74354620803E+03 -0.10942715782E+04  0.13273101979E+04  0.46999998093E+01 0. -1.
</event>
<event>
 5   0  0.1773903E-07  0.4013291E+04  0.7818609E-02  0.8001871E-01
        2   -1    0    0  501    0  0.00000000000E+00  0.00000000000E+00  0.28625876553E+04  0.28625876553E+04  0.25500000920E-02 0.  1.
       -2   -1    0    0    0  501  0.00000000000E+00  0.00000000000E+00 -0.14066383894E+04  0.14066383894E+04  0.25500000920E-02 0. -1.
    10030    2    1    2    0    0  0.00000000000E+00  0.00000000000E+00  0.14559492659E+04  0.42692260447E+04  0.40132907639E+04 0.  0.
        3    1    3    3  502    0 -0.31880321771E+03 -0.16802784537E+04  0.18445067807E+04  0.25153879319E+04  0.10100000352E+00 0.  1.
       -3    1    3    3    0  502  0.31880321771E+03  0.16802784537E+04 -0.38855751472E+03  0.17538381128E+04  0.10100000352E+00 0. -1.
</event>
<event>
 5   0  0.1819906E-07  0.3946486E+04  0.7818609E-02  0.8015430E-01
        2   -1    0    0  501    0  0.00000000000E+00  0.00000000000E+00  0.16043231085E+04  0.16043231085E+04  0.25500000920E-02 0. -1.
       -2   -1    0    0    0  501  0.00000000000E+00  0.00000000000E+00 -0.24269976602E+04  0.24269976602E+04  0.25500000920E-02 0.  1.
    10030    2    1    2    0    0  0.00000000000E+00  0.00000000000E+00 -0.82267455172E+03  0.40313207688E+04  0.39464862502E+04 0.  0.
        1    1    3    3  502    0  0.18751148453E+04  0.61180105719E+03 -0.47030348604E+03  0.20276936616E+04  0.50400001928E-02 0.  1.
       -1    1    3    3    0  502 -0.18751148453E+04 -0.61180105719E+03 -0.35237106568E+03  0.20036271071E+04  0.50400001928E-02 0. -1.
</event>
<event>
 5   0  0.5515000E-08  0.4013734E+04  0.7818609E-02  0.8001782E-01
        1   -1    0    0  501    0  0.00000000000E+00  0.00000000000E+00  0.16877880303E+04  0.16877880303E+04  0.50400001928E-02 0.  1.
       -1   -1    0    0    0  501  0.00000000000E+00  0.00000000000E+00 -0.23862681383E+04  0.23862681383E+04  0.50400001928E-02 0. -1.
    10030    2    1    2    0    0  0.00000000000E+00  0.00000000000E+00 -0.69848010797E+03  0.40740561686E+04  0.40137338233E+04 0.  0.
        2    1    3    3  502    0 -0.84043269174E+03 -0.16695893884E+04  0.39225856947E+03  0.19099012070E+04  0.25500000920E-02 0.  1.
       -2    1    3    3    0  502  0.84043269174E+03  0.16695893884E+04 -0.10907386774E+04  0.21641549616E+04  0.25500000920E-02 0. -1.
</event>
<event>
 5   0  0.5515000E-08  0.3989693E+04  0.7818609E-02  0.8006629E-01
        1   -1    0    0  501    0  0.00000000000E+00  0.00000000000E+00  0.26374591223E+04  0.26374591223E+04  0.50400001928E-02 0.  1.
       -1   -1    0    0    0  501  0.00000000000E+00  0.00000000000E+00 -0.15088051485E+04  0.15088051485E+04  0.50400001928E-02 0. -1.
    10030    2    1    2    0    0  0.00000000000E+00  0.00000000000E+00  0.11286539737E+04  0.41462642708E+04  0.39896926712E+04 0.  0.
        5    1    3    3  502    0  0.10171509375E+04 -0.55767445512E+03  0.22509124573E+04  0.25322373127E+04  0.46999998093E+01 0.  1.
       -5    1    3    3    0  502 -0.10171509375E+04  0.55767445512E+03 -0.11222584836E+04  0.16140269581E+04  0.46999998093E+01 0. -1.
</event>
<event>
 5   0  0.5515000E-08  0.4029376E+04  0.7818609E-02  0.7998647E-01
        1   -1    0    0  501    0  0.00000000000E+00  0.00000000000E+00  0.25192070764E+04  0.25192070764E+04  0.50400001928E-02 0. -1.
       -1   -1    0    0    0  501  0.00000000000E+00  0.00000000000E+00 -0.16112086330E+04  0.16112086330E+04  0.50400001928E-02 0.  1.
    10030    2    1    2    0    0  0.00000000000E+00  0.00000000000E+00  0.90799844344E+03  0.41304157094E+04  0.40293762245E+04 0.  0.
        2    1    3    3  502    0 -0.14811217147E+03 -0.10951611518E+04 -0.12727751317E+04  0.16856072199E+04  0.25500000920E-02 0.  1.
       -2    1    3    3    0  502  0.14811217147E+03  0.10951611518E+04  0.21807735752E+04  0.24448084894E+04  0.25500000920E-02 0. -1.
</event>
<event>
 5   0  0.5515000E-08  0.4021791E+04  0.7818609E-02  0.8000165E-01
       -3   -1    0    0    0  501  0.00000000000E+00  0.00000000000E+00  0.15668276653E+04  0.15668276686E+04  0.10100000352E+00 0.  1.
        3   -1    0    0  501    0  0.00000000000E+00  0.00000000000E+00 -0.25808199687E+04  0.25808199707E+04  0.10100000352E+00 0. -1.
    10030    2    1    2    0    0  0.00000000000E+00  0.00000000000E+00 -0.10139923034E+04  0.41476476392E+04  0.40217907141E+04 0.  0.
        5    1    3    3  502    0 -0.74234817846E+03  0.15711405371E+04 -0.15506504706E+04  0.23289702397E+04  0.46999998093E+01 0. -1.
       -5    1    3    3    0  502  0.74234817846E+03 -0.15711405371E+04  0.53665816723E+03  0.18186773996E+04  0.46999998093E+01 0.  1.
</event>
<event>
 5   0  0.5515000E-08  0.4066211E+04  0.7818609E-02  0.7991321E-01
        1   -1    0    0  501    0  0.00000000000E+00  0.00000000000E+00  0.16867077143E+04  0.16867077143E+04  0.50400001928E-02 0.  1.
       -1   -1    0    0    0  501  0.00000000000E+00  0.00000000000E+00 -0.24506426315E+04  0.24506426315E+04  0.50400001928E-02 0. -1.
    10030    2    1    2    0    0  0.00000000000E+00  0.00000000000E+00 -0.76393491720E+03  0.41373503458E+04  0.40662109298E+04 0.  0.
        2    1    3    3  502    0 -0.11889694389E+04 -0.16472683892E+04 -0.30071831904E+03  0.20536730460E+04  0.25500000920E-02 0.  1.
       -2    1    3    3    0  502  0.11889694389E+04  0.16472683892E+04 -0.46321659817E+03  0.20836772997E+04  0.25500000920E-02 0. -1.
</event>
<event>
 5   0  0.1773903E-07  0.3964126E+04  0.7818609E-02  0.8011823E-01
        2   -1    0    0  501    0  0.00000000000E+00  0.00000000000E+00  0.16932033809E+04  0.16932033809E+04  0.25500000920E-02 0. -1.
       -2   -1    0    0    0  501  0.00000000000E+00  0.00000000000E+00 -0.23202017027E+04  0.23202017027E+04  0.25500000920E-02 0.  1.
    10030    2    1    2    0    0  0.00000000000E+00  0.00000000000E+00 -0.62699832178E+03  0.40134050837E+04  0.39641258141E+04 0.  0.
        3    1    3    3  502    0 -0.18264185612E+04 -0.35497489494E+03 -0.10051916235E+04  0.21147629056E+04  0.10100000352E+00 0.  1.
       -3    1    3    3    0  502  0.18264185612E+04  0.35497489494E+03  0.37819330172E+03  0.18986421781E+04  0.10100000352E+00 0. -1.
</event>
<event>
 5   0  0.1785559E-07  0.4038340E+04  0.7818609E-02  0.7996856E-01
        2   -1    0    0  501    0  0.00000000000E+00  0.00000000000E+00  0.17300531949E+04  0.17300531949E+04  0.25500000920E-02 0.  1.
       -2   -1    0    0    0  501  0.00000000000E+00  0.00000000000E+00 -0.23566026821E+04  0.23566026821E+04  0.25500000920E-02 0. -1.
    10030    2    1    2    0    0  0.00000000000E+00  0.00000000000E+00 -0.62654948713E+03  0.40866558770E+04  0.40383402528E+04 0.  0.
        2    1    3    3  502    0  0.18898442652E+04 -0.64730183998E+03 -0.61096596597E+03  0.20889687481E+04  0.25500000920E-02 0.  1.
       -2    1    3    3    0  502 -0.18898442652E+04  0.64730183998E+03 -0.15583521163E+02  0.19976871289E+04  0.25500000920E-02 0. -1.
</event>
<event>
 5   0  0.1819906E-07  0.3961947E+04  0.7818609E-02  0.8012267E-01
       -2   -1    0    0    0  501  0.00000000000E+00  0.00000000000E+00  0.22960334990E+04  0.22960334990E+04  0.25500000920E-02 0.  1.
        2   -1    0    0  501    0  0.00000000000E+00  0.00000000000E+00 -0.17091460956E+04  0.17091460956E+04  0.25500000920E-02 0. -1.
    10030    2    1    2    0    0  0.00000000000E+00  0.00000000000E+00  0.58688740335E+03  0.40051795946E+04  0.39619473445E+04 0.  0.
        1    1    3    3  502    0 -0.17899151790E+04 -0.76753978033E+03  0.65981108878E+03  0.20562743823E+04  0.50400001928E-02 0. -1.
       -1    1    3    3    0  502  0.17899151790E+04  0.76753978033E+03 -0.72923685425E+02  0.19489052123E+04  0.50400001928E-02 0.  1.
</event>
<event>
 5   0  0.5515000E-08  0.3950514E+04  0.7818609E-02  0.8014605E-01
        1   -1    0    0  501    0  0.00000000000E+00  0.00000000000E+00  0.23151924618E+04  0.23151924618E+04  0.50400001928E-02 0.  1.
       -1   -1    0    0    0  501  0.00000000000E+00  0.00000000000E+00 -0.16852334555E+04  0.16852334555E+04  0.50400001928E-02 0. -1.
    10030    2    1    2    0    0  0.00000000000E+00  0.00000000000E+00  0.62995900621E+03  0.40004259173E+04  0.39505137856E+04 0.  0.
        2    1    3    3  502    0  0.53822758870E+03 -0.93018455674E+03  0.19932380242E+04  0.22644933358E+04  0.25500000920E-02 0.  1.
       -2    1    3    3    0  502 -0.53822758870E+03  0.93018455674E+03 -0.13632790179E+04  0.17359325815E+04  0.25500000920E-02 0. -1.
</event>
<event>
 5   0  0.1776653E-07  0.3989764E+04  0.7818609E-02  0.8006615E-01
       -2   -1    0    0    0  501  0.00000000000E+00  0.00000000000E+00  0.21188158106E+04  0.21188158106E+04  0.25500000920E-02 0. -1.
        2   -1    0    0  501    0  0.00000000000E+00  0.00000000000E+00 -0.18781974485E+04  0.18781974485E+04  0.25500000920E-02 0.  1.
    10030    2    1    2    0    0  0.00000000000E+00  0.00000000000E+00  0.24061836206E+03  0.39970132591E+04  0.39897641280E+04 0.  0.
        4    1    3    3  502    0 -0.12908674416E+03 -0.21443514668E+03 -0.18624044788E+04  0.18791481780E+04  0.12699999809E+01 0.  1.
       -4    1    3    3    0  502  0.12908674416E+03  0.21443514668E+03  0.21030228408E+04  0.21178650811E+04  0.12699999809E+01 0. -1.
</event>
<event>
 5   0  0.5515000E-08  0.3904273E+04  0.7818609E-02  0.8024141E-01
       -1   -1    0    0    0  501  0.00000000000E+00  0.00000000000E+00  0.18157043653E+04  0.18157043653E+04  0.50400001928E-02 0. -1.
        1   -1    0    0  501    0  0.00000000000E+00  0.00000000000E+00 -0.20988199088E+04  0.20988199088E+04  0.50400001928E-02 0.  1.
    10030    2    1    2    0    0  0.00000000000E+00  0.00000000000E+00 -0.28311554355E+03  0.39145242741E+04  0.39042727725E+04 0.  0.
        1    1    3    3  502    0 -0.14464503113E+04 -0.12654295737E+04 -0.48495665621E+03  0.19820982487E+04  0.50400001928E-02 0. -1.
       -1    1    3    3    0  502  0.14464503113E+04  0.12654295737E+04  0.20184111265E+03  0.19324260254E+04  0.50400001928E-02 0.  1.
</event>
<event>
 5   0  0.5515000E-08  0.4011281E+04  0.7818609E-02  0.8002275E-01
        1   -1    0    0  501    0  0.00000000000E+00  0.00000000000E+00  0.22266498857E+04  0.22266498857E+04  0.50400001928E-02 0. -1.
       -1   -1    0    0    0  501  0.00000000000E+00  0.00000000000E+00 -0.18065681080E+04  0.18065681081E+04  0.50400001928E-02 0.  1.
    10030    2    1    2    0    0  0.00000000000E+00  0.00000000000E+00  0.42008177762E+03  0.40332179937E+04  0.40112814268E+04 0.  0.
        4    1    3    3  502    0  0.18471834065E+03  0.15039777638E+03  0.22123764172E+04  0.22251632256E+04  0.12699999809E+01 0. -1.
       -4    1    3    3    0  502 -0.18471834065E+03 -0.15039777638E+03 -0.17922946396E+04  0.18080547681E+04  0.12699999809E+01 0.  1.
</event>
<event>
 5   0  0.1773903E-07  0.3329664E+04  0.7818609E-02  0.8155388E-01
        2   -1    0    0  501    0  0.00000000000E+00  0.00000000000E+00  0.24403372237E+04  0.24403372237E+04  0.25500000920E-02 0. -1.
       -2   -1    0    0    0  501  0.00000000000E+00  0.00000000000E+00 -0.11357713624E+04  0.11357713624E+04  0.25500000920E-02 0.  1.
    10030    2    1    2    0    0  0.00000000000E+00  0.00000000000E+00  0.13045658613E+04  0.35761085861E+04  0.33296637268E+04 0.  0.
        3    1    3    3  502    0 -0.86633255375E+03 -0.29379692745E+03 -0.84164690867E+03  0.12430680823E+04  0.10100000352E+00 0.  1.
       -3    1    3    3    0  502  0.86633255375E+03  0.29379692745E+03  0.21462127699E+04  0.23330405038E+04  0.10100000352E+00 0. -1.
</event>
<event>
 5   0  0.5515000E-08  0.3976141E+04  0.7818609E-02  0.8009377E-01
       -1   -1    0    0    0  501  0.00000000000E+00  0.00000000000E+00  0.13668059087E+04  0.13668059087E+04  0.50400001928E-02 0. -1.
        1   -1    0    0  501    0  0.00000000000E+00  0.00000000000E+00 -0.28917231232E+04  0.28917231232E+04  0.50400001928E-02 0.  1.
    10030    2    1    2    0    0  0.00000000000E+00  0.00000000000E+00 -0.15249172144E+04  0.42585290319E+04  0.39761409689E+04 0.  0.
        5    1    3    3  502    0 -0.22607482195E+02  0.16787667021E+04  0.37788087121E+03  0.17209255595E+04  0.46999998093E+01 0. -1.
       -5    1    3    3    0  502  0.22607482195E+02 -0.16787667021E+04 -0.19027980856E+04  0.25376034724E+04  0.46999998093E+01 0.  1.
</event>
<event>
 5   0  0.1773903E-07  0.4034977E+04  0.7818609E-02  0.7997528E-01
        2   -1    0    0  501    0  0.00000000000E+00  0.00000000000E+00  0.19056898890E+04  0.19056898890E+04  0.25500000920E-02 0. -1.
       -2   -1    0    0    0  501  0.00000000000E+00  0.00000000000E+00 -0.21358459487E+04  0.21358459487E+04  0.25500000920E-02 0.  1.
    10030    2    1    2    0    0  0.00000000000E+00  0.00000000000E+00 -0.23015605965E+03  0.40415358377E+04  0.40349770899E+04 0.  0.
        3    1    3    3  502    0 -0.17125286833E+04 -0.46612336918E+03 -0.10759258831E+04  0.20754859678E+04  0.10100000352E+00 0.  1.
       -3    1    3    3    0  502  0.17125286833E+04  0.46612336918E+03  0.84576982350E+03  0.19660498699E+04  0.10100000352E+00 0. -1.
</event>
<event>
 5   0  0.5515000E-08  0.4001021E+04  0.7818609E-02  0.8004341E-01
       -1   -1    0    0    0  501  0.00000000000E+00  0.00000000000E+00  0.21136560322E+04  0.21136560322E+04  0.50400001928E-02 0. -1.
        1   -1    0    0  501    0  0.00000000000E+00  0.00000000000E+00 -0.18934219053E+04  0.18934219053E+04  0.50400001928E-02 0.  1.
    10030    2    1    2    0    0  0.00000000000E+00  0.00000000000E+00  0.22023412685E+03  0.40070779375E+04  0.40010211855E+04 0.  0.
        1    1    3    3  502    0 -0.16755232633E+04  0.86103270245E+03  0.78440225771E+03  0.20405985452E+04  0.50400001928E-02 0. -1.
       -1    1    3    3    0  502  0.16755232633E+04 -0.86103270245E+03 -0.56416813086E+03  0.19664793924E+04  0.50400001928E-02 0.  1.
</event>
<event>
 5   0  0.5515000E-08  0.3989930E+04  0.7818609E-02  0.8006581E-01
        3   -1    0    0  501    0  0.00000000000E+00  0.00000000000E+00  0.18600614615E+04  0.18600614642E+04  0.10100000352E+00 0.  1.
       -3   -1    0    0    0  501  0.00000000000E+00  0.00000000000E+00 -0.21396526654E+04  0.21396526678E+04  0.10100000352E+00 0. -1.
    10030    2    1    2    0    0  0.00000000000E+00  0.00000000000E+00 -0.27959120397E+03  0.39997141321E+04  0.39899300616E+04 0.  0.
        5    1    3    3  502    0 -0.10655945502E+04  0.13280273529E+04 -0.11819192638E+04  0.20727044245E+04  0.46999998093E+01 0.  1.
       -5    1    3    3    0  502  0.10655945502E+04 -0.13280273529E+04  0.90232805979E+03  0.19270097075E+04  0.46999998093E+01 0. -1.
</event>
<event>
 5   0  0.1821433E-07  0.3929639E+04  0.7818609E-02  0.8018893E-01
       -2   -1    0    0    0  501  0.00000000000E+00  0.00000000000E+00  0.18464911149E+04  0.18464911149E+04  0.25500000920E-02 0. -1.
        2   -1    0    0  501    0  0.00000000000E+00  0.00000000000E+00 -0.20907304931E+04  0.20907304931E+04  0.25500000920E-02 0.  1.
    10030    2    1    2    0    0  0.00000000000E+00  0.00000000000E+00 -0.24423937820E+03  0.39372216081E+04  0.39296388024E+04 0.  0.
        5    1    3    3  502    0 -0.14441811373E+04 -0.11144728643E+04 -0.85344890290E+03  0.20139776668E+04  0.46999998093E+01 0.  1.
       -5    1    3    3    0  502  0.14441811373E+04  0.11144728643E+04  0.60920952471E+03  0.19232439413E+04  0.46999998093E+01 0. -1.
</event>
<event>
 5   0  0.5515000E-08  0.3890920E+04  0.7818609E-02  0.8026920E-01
       -1   -1    0    0    0  501  0.00000000000E+00  0.00000000000E+00  0.18365657446E+04  0.18365657446E+04  0.50400001928E-02 0.  1.
        1   -1    0    0  501    0  0.00000000000E+00  0.00000000000E+00 -0.20608109446E+04  0.20608109446E+04  0.50400001928E-02 0. -1.
    10030    2    1    2    0    0  0.00000000000E+00  0.00000000000E+00 -0.22424520000E+03  0.38973766892E+04  0.38909200901E+04 0.  0.
        1    1    3    3  502    0 -0.55850861093E+03 -0.11461745200E+04 -0.15839713299E+04  0.20333747989E+04  0.50400001928E-02 0. -1.
       -1    1    3    3    0  502  0.55850861093E+03  0.11461745200E+04  0.13597261299E+04  0.18640018903E+04  0.50400001928E-02 0.  1.
</event>
<event>
 5   0  0.1821433E-07  0.3947807E+04  0.7818609E-02  0.8015159E-01
        2   -1    0    0  501    0  0.00000000000E+00  0.00000000000E+00  0.20981652886E+04  0.20981652887E+04  0.25500000920E-02 0. -1.
       -2   -1    0    0    0  501  0.00000000000E+00  0.00000000000E+00 -0.18570011592E+04  0.18570011592E+04  0.25500000920E-02 0.  1.
    10030    2    1    2    0    0  0.00000000000E+00  0.00000000000E+00  0.24116412941E+03  0.39551664479E+04  0.39478071753E+04 0.  0.
        5    1    3    3  502    0  0.12410334252E+04  0.14372898538E+04 -0.41922396843E+03  0.19446688438E+04  0.46999998093E+01 0. -1.
       -5    1    3    3    0  502 -0.12410334252E+04 -0.14372898538E+04  0.66038809784E+03  0.20104976041E+04  0.46999998093E+01 0.  1.
</event>
<event>
 5   0  0.5515000E-08  0.4005835E+04  0.7818609E-02  0.8003371E-01
       -1   -1    0    0    0  501  0.00000000000E+00  0.00000000000E+00  0.13485211833E+04  0.13485211834E+04  0.50400001928E-02 0. -1.
        1   -1    0    0  501    0  0.00000000000E+00  0.00000000000E+00 -0.29748723164E+04  0.29748723165E+04  0.50400001928E-02 0.  1.
    10030    2    1    2    0    0  0.00000000000E+00  0.00000000000E+00 -0.16263511331E+04  0.43233934998E+04  0.40058349125E+04 0.  0.
        2    1    3    3  502    0 -0.31143849632E+03  0.13746527731E+04 -0.23490147712E+04  0.27394405594E+04  0.25500000920E-02 0.  1.
       -2    1    3    3    0  502  0.31143849632E+03 -0.13746527731E+04  0.72266363807E+03  0.15839529404E+04  0.25500000920E-02 0. -1.
</event>
<event>
 5   0  0.5515000E-08  0.3969285E+04  0.7818609E-02  0.8010772E-01
       -1   -1    0    0    0  501  0.00000000000E+00  0.00000000000E+00  0.17157410699E+04  0.17157410699E+04  0.50400001928E-02 0. -1.
        1   -1    0    0  501    0  0.00000000000E+00  0.00000000000E+00 -0.22956878396E+04  0.22956878396E+04  0.50400001928E-02 0.  1.
    10030    2    1    2    0    0  0.00000000000E+00  0.00000000000E+00 -0.57994676973E+03  0.40114289095E+04  0.39692850288E+04 0.  0.
        3    1    3    3  502    0 -0.11184998232E+04 -0.88590059998E+02  0.13644527893E+04  0.17665280857E+04  0.10100000352E+00 0. -1.
       -3    1    3    3    0  502  0.11184998232E+04  0.88590059998E+02 -0.19443995590E+04  0.22449008238E+04  0.10100000352E+00 0.  1.
</event>
<event>
 5   0  0.5515000E-08  0.4011473E+04  0.7818609E-02  0.8002236E-01
       -1   -1    0    0    0  501  0.00000000000E+00  0.00000000000E+00  0.20782351621E+04  0.20782351621E+04  0.50400001928E-02 0.  1.
        1   -1    0    0  501    0  0.00000000000E+00  0.00000000000E+00 -0.19357668003E+04  0.19357668003E+04  0.50400001928E-02 0. -1.
    10030    2    1    2    0    0  0.00000000000E+00  0.00000000000E+00  0.14246836180E+03  0.40140019623E+04  0.40114728616E+04 0.  0.
        5    1    3    3  502    0 -0.11081782461E+04 -0.14490288491E+04  0.90555414528E+03  0.20366133729E+04  0.46999998093E+01 0.  1.
       -5    1    3    3    0  502  0.11081782461E+04  0.14490288491E+04 -0.76308578348E+03  0.19773885894E+04  0.46999998093E+01 0. -1.
</event>
<event>
 5   0  0.1785559E-07  0.4034331E+04  0.7818609E-02  0.7997657E-01
        2   -1    0    0  501    0  0.00000000000E+00  0.00000000000E+00  0.21437260153E+04  0.21437260153E+04  0.25500000920E-02 0. -1.
       -2   -1    0    0    0  501  0.00000000000E+00  0.00000000000E+00 -0.18980768058E+04  0.18980768058E+04  0.25500000920E-02 0.  1.
    10030    2    1    2    0    0  0.00000000000E+00  0.00000000000E+00  0.24564920952E+03  0.40418028212E+04  0.40343309868E+04 0.  0.
        2    1    3    3  502    0  0.16562345038E+04  0.35873138527E+03 -0.97334792304E+03  0.19542791811E+04  0.25500000920E-02 0.  1.
       -2    1    3    3    0  502 -0.16562345038E+04 -0.35873138527E+03  0.12189971326E+04  0.20875236400E+04  0.25500000920E-02 0. -1.
</event>
<event>
 5   0  0.1819906E-07  0.3987876E+04  0.7818609E-02  0.8006997E-01
       -2   -1    0    0    0  501  0.00000000000E+00  0.00000000000E+00  0.18584614269E+04  0.18584614269E+04  0.25500000920E-02 0.  1.
        2   -1    0    0  501    0  0.00000000000E+00  0.00000000000E+00 -0.21392906651E+04  0.21392906651E+04  0.25500000920E-02 0. -1.
    10030    2    1    2    0    0  0.00000000000E+00  0.00000000000E+00 -0.28082923823E+03  0.39977520921E+04  0.39878762178E+04 0.  0.
        1    1    3    3  502    0 -0.72342363470E+03 -0.51683083496E+03 -0.19295847185E+04  0.21245594963E+04  0.50400001928E-02 0. -1.
       -1    1    3    3    0  502  0.72342363470E+03  0.51683083496E+03  0.16487554803E+04  0.18731925958E+04  0.50400001928E-02 0.  1.
</event>
<event>
 5   0  0.5515000E-08  0.3280444E+04  0.7818609E-02  0.8167889E-01
        1   -1    0    0  501    0  0.00000000000E+00  0.00000000000E+00  0.18414069478E+04  0.18414069478E+04  0.50400001928E-02 0. -1.
       -1   -1    0    0    0  501  0.00000000000E+00  0.00000000000E+00 -0.14610177172E+04  0.14610177172E+04  0.50400001928E-02 0.  1.
    10030    2    1    2    0    0  0.00000000000E+00  0.00000000000E+00  0.38038923059E+03  0.33024246650E+04  0.32804439793E+04 0.  0.
        1    1    3    3  502    0 -0.81677435532E+03  0.14197743074E+04  0.10331021430E+03  0.16412045674E+04  0.50400001928E-02 0.  1.
       -1    1    3    3    0  502  0.81677435532E+03 -0.14197743074E+04  0.27707901629E+03  0.16612200977E+04  0.50400001928E-02 0. -1.
</event>
<event>
 5   0  0.5515000E-08  0.3957562E+04  0.7818609E-02  0.8013163E-01
       -1   -1    0    0    0  501  0.00000000000E+00  0.00000000000E+00  0.28457126150E+04  0.28457126150E+04  0.50400001928E-02 0. -1.
        1   -1    0    0  501    0  0.00000000000E+00  0.00000000000E+00 -0.13759557440E+04  0.13759557440E+04  0.50400001928E-02 0.  1.
    10030    2    1    2    0    0  0.00000000000E+00  0.00000000000E+00  0.14697568710E+04  0.42216683590E+04  0.39575621882E+04 0.  0.
        3    1    3    3  502    0  0.35653223446E+03  0.19462962522E+04  0.71380475228E+03  0.21034974614E+04  0.10100000352E+00 0.  1.
       -3    1    3    3    0  502 -0.35653223446E+03 -0.19462962522E+04  0.75595211877E+03  0.21181708976E+04  0.10100000352E+00 0. -1.
</event>
<event>
 5   0  0.5515000E-08  0.3551754E+04  0.7818609E-02  0.8101633E-01
        1   -1    0    0  501    0  0.00000000000E+00  0.00000000000E+00  0.16307895944E+04  0.16307895944E+04  0.50400001928E-02 0.  1.
       -1   -1    0    0    0  501  0.00000000000E+00  0.00000000000E+00 -0.19338725862E+04  0.19338725862E+04  0.50400001928E-02 0. -1.
    10030    2    1    2    0    0  0.00000000000E+00  0.00000000000E+00 -0.30308299175E+03  0.35646621806E+04  0.35517540965E+04 0.  0.
        3    1    3    3  502    0 -0.81429941127E+03  0.74229914297E+03 -0.15493153735E+04  0.19011758692E+04  0.10100000352E+00 0. -1.
       -3    1    3    3    0  502  0.81429941127E+03 -0.74229914297E+03  0.12462323817E+04  0.16634863114E+04  0.10100000352E+00 0.  1.
</event>
<event>
 5   0  0.5515000E-08  0.3984371E+04  0.7818609E-02  0.8007707E-01
        1   -1    0    0  501    0  0.00000000000E+00  0.00000000000E+00  0.19242547063E+04  0.19242547063E+04  0.50400001928E-02 0.  1.
       -1   -1    0    0    0  501  0.00000000000E+00  0.00000000000E+00 -0.20625144868E+04  0.20625144868E+04  0.50400001928E-02 0. -1.
    10030    2    1    2    0    0  0.00000000000E+00  0.00000000000E+00 -0.13825978051E+03  0.39867691932E+04  0.39843710711E+04 0.  0.
        4    1    3    3  502    0  0.27024422798E+03 -0.84864320508E+02 -0.20422619253E+04  0.20618121350E+04  0.12699999809E+01 0. -1.
       -4    1    3    3    0  502 -0.27024422798E+03  0.84864320508E+02  0.19040021448E+04  0.19249570582E+04  0.12699999809E+01 0.  1.
</event>
<event>
 5   0  0.1819906E-07  0.4021676E+04  0.7818609E-02  0.8000188E-01
        2   -1    0    0  501    0  0.00000000000E+00  0.00000000000E+00  0.23033598868E+04  0.23033598868E+04  0.25500000920E-02 0. -1.
       -2   -1    0    0    0  501  0.00000000000E+00  0.00000000000E+00 -0.17554661770E+04  0.17554661770E+04  0.25500000920E-02 0.  1.
    10030    2    1    2    0    0  0.00000000000E+00  0.00000000000E+00  0.54789370978E+03  0.40588260638E+04  0.40216764538E+04 0.  0.
        1    1    3    3  502    0  0.11852904918E+04  0.91471881637E+03  0.16286750971E+04  0.22122853873E+04  0.50400001928E-02 0. -1.
       -1    1    3    3    0  502 -0.11852904918E+04 -0.91471881637E+03 -0.10807813873E+04  0.18465406765E+04  0.50400001928E-02 0.  1.
</event>
<event>
 5   0  0.1773903E-07  0.3210605E+04  0.7818609E-02  0.8186022E-01
        2   -1    0    0  501    0  0.00000000000E+00  0.00000000000E+00  0.20048070942E+04  0.20048070942E+04  0.25500000920E-02 0. -1.
       -2   -1    0    0    0  501  0.00000000000E+00  0.00000000000E+00 -0.12854087317E+04  0.12854087317E+04  0.25500000920E-02 0.  1.
    10030    2    1    2    0    0  0.00000000000E+00  0.00000000000E+00  0.71939836248E+03  0.32902158258E+04  0.32106052664E+04 0.  0.
        3    1    3    3  502    0 -0.73391923707E+03 -0.37010757975E+02  0.18223203211E+04  0.19649067677E+04  0.10100000352E+00 0. -1.
       -3    1    3    3    0  502  0.73391923707E+03  0.37010757975E+02 -0.11029219586E+04  0.13253090582E+04  0.10100000352E+00 0.  1.
</event>
<event>
 5   0  0.5515000E-08  0.3923551E+04  0.7818609E-02  0.8020149E-01
       -1   -1    0    0    0  501  0.00000000000E+00  0.00000000000E+00  0.17243171121E+04  0.17243171121E+04  0.50400001928E-02 0. -1.
        1   -1    0    0  501    0  0.00000000000E+00  0.00000000000E+00 -0.22319350353E+04  0.22319350353E+04  0.50400001928E-02 0.  1.
    10030    2    1    2    0    0  0.00000000000E+00  0.00000000000E+00 -0.50761792314E+03  0.39562521474E+04  0.39235513375E+04 0.  0.
        3    1    3    3  502    0  0.10386985540E+04 -0.54340565416E+03 -0.18399352638E+04  0.21816384155E+04  0.10100000352E+00 0.  1.
       -3    1    3    3    0  502 -0.10386985540E+04  0.54340565416E+03  0.13323173406E+04  0.17746137319E+04  0.10100000352E+00 0. -1.
</event>
<event>
 5   0  0.1776653E-07  0.4011707E+04  0.7818609E-02  0.8002189E-01
       -2   -1    0    0    0  501  0.00000000000E+00  0.00000000000E+00  0.27678088807E+04  0.27678088807E+04  0.25500000920E-02 0.  1.
        2   -1    0    0  501    0  0.00000000000E+00  0.00000000000E+00 -0.14536582331E+04  0.14536582331E+04  0.25500000920E-02 0. -1.
    10030    2    1    2    0    0  0.00000000000E+00  0.00000000000E+00  0.13141506475E+04  0.42214671138E+04  0.40117069520E+04 0.  0.
        4    1    3    3  502    0 -0.18260515378E+04  0.37268436847E+03 -0.12338453323E+03  0.18677749364E+04  0.12699999809E+01 0. -1.
       -4    1    3    3    0  502  0.18260515378E+04 -0.37268436847E+03  0.14375351808E+04  0.23536921774E+04  0.12699999809E+01 0.  1.
</event>
<event>
 5   0  0.5515000E-08  0.4015340E+04  0.7818609E-02  0.8001459E-01
        1   -1    0    0  501    0  0.00000000000E+00  0.00000000000E+00  0.19891216060E+04  0.19891216060E+04  0.50400001928E-02 0.  1.
       -1   -1    0    0    0  501  0.00000000000E+00  0.00000000000E+00 -0.20263917204E+04  0.20263917204E+04  0.50400001928E-02 0. -1.
    10030    2    1    2    0    0  0.00000000000E+00  0.00000000000E+00 -0.37270114429E+02  0.40155133265E+04  0.40153403609E+04 0.  0.
        5    1    3    3  502    0 -0.95365372081E+03  0.61851471283E+03 -0.16736086355E+04  0.20231173530E+04  0.46999998093E+01 0. -1.
       -5    1    3    3    0  502  0.95365372081E+03 -0.61851471283E+03  0.16363385211E+04  0.19923959734E+04  0.46999998093E+01 0.  1.
</event>
<event>
 5   0  0.5515000E-08  0.4042583E+04  0.7818609E-02  0.7996011E-01
        1   -1    0    0  501    0  0.00000000000E+00  0.00000000000E+00  0.20988812477E+04  0.20988812477E+04  0.50400001928E-02 0. -1.
       -1   -1    0    0    0  501  0.00000000000E+00  0.00000000000E+00 -0.19465704342E+04  0.19465704342E+04  0.50400001928E-02 0.  1.
    10030    2    1    2    0    0  0.00000000000E+00  0.00000000000E+00  0.15231081352E+03  0.40454516819E+04  0.40425834223E+04 0.  0.
        5    1    3    3  502    0 -0.15943901730E+04  0.29553659259E+03  0.12837328456E+04  0.20681909995E+04  0.46999998093E+01 0. -1.
       -5    1    3    3    0  502  0.15943901730E+04 -0.29553659259E+03 -0.11314220321E+04  0.19772606824E+04  0.46999998093E+01 0.  1.
</event>
<event>
 5   0  0.1821433E-07  0.3965863E+04  0.7818609E-02  0.8011469E-01
        2   -1    0    0  501    0  0.00000000000E+00  0.00000000000E+00  0.29593568549E+04  0.29593568549E+04  0.25500000920E-02 0. -1.
       -2   -1    0    0    0  501  0.00000000000E+00  0.00000000000E+00 -0.13286731939E+04  0.13286731939E+04  0.25500000920E-02 0.  1.
    10030    2    1    2    0    0  0.00000000000E+00  0.00000000000E+00  0.16306836610E+04  0.42880300488E+04  0.39658633987E+04 0.  0.
        5    1    3    3  502    0  0.12462155673E+04  0.94667263945E+03  0.21319440360E+04  0.26447022118E+04  0.46999998093E+01 0. -1.
       -5    1    3    3    0  502 -0.12462155673E+04 -0.94667263945E+03 -0.50126037506E+03  0.16433278370E+04  0.46999998093E+01 0.  1.
</event>
<event>
 5   0  0.5515000E-08  0.4136141E+04  0.7818609E-02  0.7977632E-01
       -1   -1    0    0    0  501  0.00000000000E+00  0.00000000000E+00  0.26616380759E+04  0.26616380759E+04  0.50400001928E-02 0.  1.
        1   -1    0    0  501    0  0.00000000000E+00  0.00000000000E+00 -0.16068735997E+04  0.16068735997E+04  0.50400001928E-02 0. -1.
    10030    2    1    2    0    0  0.00000000000E+00  0.00000000000E+00  0.10547644762E+04  0.42685116756E+04  0.41361411756E+04 0.  0.
        4    1    3    3  502    0 -0.72207075848E+03  0.16138832491E+04  0.16345198808E+04  0.24078335025E+04  0.12699999809E+01 0.  1.
       -4    1    3    3    0  502  0.72207075848E+03 -0.16138832491E+04 -0.57975540465E+03  0.18606781731E+04  0.12699999809E+01 0. -1.
</event>
<event>
 5   0  0.5515000E-08  0.3987972E+04  0.7818609E-02  0.8006977E-01
       -1   -1    0    0    0  501  0.00000000000E+00  0.00000000000E+00  0.18466862411E+04  0.18466862412E+04  0.50400001928E-02 0.  1.
        1   -1    0    0  501    0  0.00000000000E+00  0.00000000000E+00 -0.21530349340E+04  0.21530349340E+04  0.50400001928E-02 0. -1.
    10030    2    1    2    0    0  0.00000000000E+00  0.00000000000E+00 -0.30634869284E+03  0.39997211751E+04  0.39879719103E+04 0.  0.
        5    1    3    3  502    0  0.66435901539E+03  0.12895350740E+04  0.12189514341E+04  0.18947660270E+04  0.46999998093E+01 0.  1.
       -5    1    3    3    0  502 -0.66435901539E+03 -0.12895350740E+04 -0.15253001270E+04  0.21049551481E+04  0.46999998093E+01 0. -1.
</event>
<event>
 5   0  0.1785559E-07  0.3982044E+04  0.7818609E-02  0.8008179E-01
       -2   -1    0    0    0  501  0.00000000000E+00  0.00000000000E+00  0.18405119747E+04  0.18405119747E+04  0.25500000920E-02 0. -1.
        2   -1    0    0  501    0  0.00000000000E+00  0.00000000000E+00 -0.21538401610E+04  0.21538401610E+04  0.25500000920E-02 0.  1.
    10030    2    1    2    0    0  0.00000000000E+00  0.00000000000E+00 -0.31332818622E+03  0.39943521357E+04  0.39820440017E+04 0.  0.
        2    1    3    3  502    0 -0.19501465604E+04 -0.23673678367E+03  0.16845606352E+03  0.19716727308E+04  0.25500000920E-02 0.  1.
       -2    1    3    3    0  502  0.19501465604E+04  0.23673678367E+03 -0.48178424974E+03  0.20226794049E+04  0.25500000920E-02 0. -1.
</event>
<event>
 5   0  0.5515000E-08  0.3639152E+04  0.7818609E-02  0.8081582E-01
       -1   -1    0    0    0  501  0.00000000000E+00  0.00000000000E+00  0.15486141968E+04  0.15486141968E+04  0.50400001928E-02 0.  1.
        1   -1    0    0  501    0  0.00000000000E+00  0.00000000000E+00 -0.21379485036E+04  0.21379485036E+04  0.50400001928E-02 0. -1.
    10030    2    1    2    0    0  0.00000000000E+00  0.00000000000E+00 -0.58933430680E+03  0.36865627004E+04  0.36391523215E+04 0.  0.
        1    1    3    3  502    0 -0.14908363577E+04 -0.42809337588E+02  0.76123240741E+03  0.16744851337E+04  0.50400001928E-02 0.  1.
       -1    1    3    3    0  502  0.14908363577E+04  0.42809337588E+02 -0.13505667142E+04  0.20120775667E+04  0.50400001928E-02 0. -1.
</event>
<event>
 5   0  0.1819906E-07  0.3992204E+04  0.7818609E-02  0.8006121E-01
       -2   -1    0    0    0  501  0.00000000000E+00  0.00000000000E+00  0.12941060790E+04  0.12941060790E+04  0.25500000920E-02 0. -1.
        2   -1    0    0  501    0  0.00000000000E+00  0.00000000000E+00 -0.30789003792E+04  0.30789003792E+04  0.25500000920E-02 0.  1.
    10030    2    1    2    0    0  0.00000000000E+00  0.00000000000E+00 -0.17847943002E+04  0.43730064583E+04  0.39922042521E+04 0.  0.
        1    1    3    3  502    0 -0.27346641122E+03 -0.56770116242E+03  0.11822992652E+04  0.13397387956E+04  0.50400001928E-02 0. -1.
       -1    1    3    3    0  502  0.27346641122E+03  0.56770116242E+03 -0.29670935654E+04  0.30332676627E+04  0.50400001928E-02 0.  1.
</event>
<event>
 5   0  0.5515000E-08  0.3970289E+04  0.7818609E-02  0.8010567E-01
       -1   -1    0    0    0  501  0.00000000000E+00  0.00000000000E+00  0.29194872424E+04  0.29194872424E+04  0.50400001928E-02 0.  1.
        1   -1    0    0  501    0  0.00000000000E+00  0.00000000000E+00 -0.13498256210E+04  0.13498256210E+04  0.50400001928E-02 0. -1.
    10030    2    1    2    0    0  0.00000000000E+00  0.00000000000E+00  0.15696616214E+04  0.42693128634E+04  0.39702889971E+04 0.  0.
        2    1    3    3  502    0  0.14337484831E+04  0.54968667026E+03  0.21377675475E+04  0.26320790709E+04  0.25500000920E-02 0.  1.
       -2    1    3    3    0  502 -0.14337484831E+04 -0.54968667026E+03 -0.56810592608E+03  0.16372337926E+04  0.25500000920E-02 0. -1.
</event>
<event>
 5   0  0.5515000E-08  0.4069826E+04  0.7818609E-02  0.7990607E-01
       -1   -1    0    0    0  501  0.00000000000E+00  0.00000000000E+00  0.24174725739E+04  0.24174725739E+04  0.50400001928E-02 0.  1.
        1   -1    0    0  501    0  0.00000000000E+00  0.00000000000E+00 -0.17128922657E+04  0.17128922657E+04  0.50400001928E-02 0. -1.
    10030    2    1    2    0    0  0.00000000000E+00  0.00000000000E+00  0.70458030822E+03  0.41303648396E+04  0.40698255856E+04 0.  0.
        1    1    3    3  502    0  0.13397744970E+04 -0.11458028815E+04 -0.67919957315E+03  0.18892252397E+04  0.50400001928E-02 0. -1.
       -1    1    3    3    0  502 -0.13397744970E+04  0.11458028815E+04  0.13837798814E+04  0.22411395999E+04  0.50400001928E-02 0.  1.
</event>
<event>
 5   0  0.1773903E-07  0.3997232E+04  0.7818609E-02  0.8005105E-01
        2   -1    0    0  501    0  0.00000000000E+00  0.00000000000E+00  0.26638156774E+04  0.26638156774E+04  0.25500000920E-02 0.  1.
       -2   -1    0    0    0  501  0.00000000000E+00  0.00000000000E+00 -0.14995279095E+04  0.14995279095E+04  0.25500000920E-02 0. -1.
    10030    2    1    2    0    0  0.00000000000E+00  0.00000000000E+00  0.11642877679E+04  0.41633435868E+04  0.39972320192E+04 0.  0.
        3    1    3    3  502    0  0.16873347287E+04 -0.10575113631E+04  0.40465953250E+03  0.20320379222E+04  0.10100000352E+00 0.  1.
       -3    1    3    3    0  502 -0.16873347287E+04  0.10575113631E+04  0.75962823538E+03  0.21313056646E+04  0.10100000352E+00 0. -1.
</event>
<event>
 5   0  0.5515000E-08  0.3955118E+04  0.7818609E-02  0.8013662E-01
        1   -1    0    0  501    0  0.00000000000E+00  0.00000000000E+00  0.16731330839E+04  0.16731330839E+04  0.50400001928E-02 0. -1.
       -1   -1    0    0    0  501  0.00000000000E+00  0.00000000000E+00 -0.23373752750E+04  0.23373752750E+04  0.50400001928E-02 0.  1.
    10030    2    1    2    0    0  0.00000000000E+00  0.00000000000E+00 -0.66424219113E+03  0.40105083588E+04  0.39551181535E+04 0.  0.
        3    1    3    3  502    0 -0.60870539947E+03 -0.49039136989E+03  0.15098356408E+04  0.17001792939E+04  0.10100000352E+00 0. -1.
       -3    1    3    3    0  502  0.60870539947E+03  0.49039136989E+03 -0.21740778319E+04  0.23103290650E+04  0.10100000352E+00 0.  1.
</event>
<event>
 5   0  0.1785559E-07  0.4037699E+04  0.7818609E-02  0.7996984E-01
        2   -1    0    0  501    0  0.00000000000E+00  0.00000000000E+00  0.17752582440E+04  0.17752582440E+04  0.25500000920E-02 0. -1.
       -2   -1    0    0    0  501  0.00000000000E+00  0.00000000000E+00 -0.22958653260E+04  0.22958653260E+04  0.25500000920E-02 0.  1.
    10030    2    1    2    0    0  0.00000000000E+00  0.00000000000E+00 -0.52060708200E+03  0.40711235699E+04  0.40376992691E+04 0.  0.
        2    1    3    3  502    0 -0.18920857701E+04  0.21655642650E+01  0.44962774899E+03  0.19447772016E+04  0.25500000920E-02 0.  1.
       -2    1    3    3    0  502  0.18920857701E+04 -0.21655642650E+01 -0.97023483098E+03  0.21263463684E+04  0.25500000920E-02 0. -1.
</event>
<event>
 5   0  0.1773903E-07  0.4022203E+04  0.7818609E-02  0.8000082E-01
       -2   -1    0    0    0  501  0.00000000000E+00  0.00000000000E+00  0.20830974380E+04  0.20830974380E+04  0.25500000920E-02 0. -1.
        2   -1    0    0  501    0  0.00000000000E+00  0.00000000000E+00 -0.19415940619E+04  0.19415940619E+04  0.25500000920E-02 0.  1.
    10030    2    1    2    0    0  0.00000000000E+00  0.00000000000E+00  0.14150337609E+03  0.40246914998E+04  0.40222031852E+04 0.  0.
        3    1    3    3  502    0 -0.14086110794E+04  0.11602545095E+04  0.91635076225E+03  0.20420760097E+04  0.10100000352E+00 0. -1.
       -3    1    3    3    0  502  0.14086110794E+04 -0.11602545095E+04 -0.77484738615E+03  0.19826154901E+04  0.10100000352E+00 0.  1.
</event>
<event>
 5   0  0.1785559E-07  0.3986354E+04  0.7818609E-02  0.8007305E-01
        2   -1    0    0  501    0  0.00000000000E+00  0.00000000000E+00  0.20094470208E+04  0.20094470208E+04  0.25500000920E-02 0. -1.
       -2   -1    0    0    0  501  0.00000000000E+00  0.00000000000E+00 -0.19770384919E+04  0.19770384919E+04  0.25500000920E-02 0.  1.
    10030    2    1    2    0    0  0.00000000000E+00  0.00000000000E+00  0.32408528956E+02  0.39864855127E+04  0.39863537763E+04 0.  0.
        2    1    3    3  502    0  0.12869470166E+04 -0.48613172020E+02 -0.15050817695E+04  0.19808753108E+04  0.25500000920E-02 0.  1.
       -2    1    3    3    0  502 -0.12869470166E+04  0.48613172020E+02  0.15374902984E+04  0.20056102019E+04  0.25500000920E-02 0. -1.
</event>
<event>
 5   0  0.1785559E-07  0.4061470E+04  0.7818609E-02  0.7992260E-01
        2   -1    0    0  501    0  0.00000000000E+00  0.00000000000E+00  0.20479948065E+04  0.20479948065E+04  0.25500000920E-02 0. -1.
       -2   -1    0    0    0  501  0.00000000000E+00  0.00000000000E+00 -0.20136206256E+04  0.20136206256E+04  0.25500000920E-02 0.  1.
    10030    2    1    2    0    0  0.00000000000E+00  0.00000000000E+00  0.34374180895E+02  0.40616154321E+04  0.40614699721E+04 0.  0.
        2    1    3    3  502    0 -0.14603002967E+04  0.98981319182E+03  0.10230449032E+04  0.20393204714E+04  0.25500000920E-02 0. -1.
       -2    1    3    3    0  502  0.14603002967E+04 -0.98981319182E+03 -0.98867072228E+03  0.20222949607E+04  0.25500000920E-02 0.  1.
</event>
<event>
 5   0  0.5515000E-08  0.4019953E+04  0.7818609E-02  0.8000533E-01
       -3   -1    0    0    0  501  0.00000000000E+00  0.00000000000E+00  0.14303209805E+04  0.14303209841E+04  0.10100000352E+00 0.  1.
        3   -1    0    0  501    0  0.00000000000E+00  0.00000000000E+00 -0.28245451018E+04  0.28245451036E+04  0.10100000352E+00 0. -1.
    10030    2    1    2    0    0  0.00000000000E+00  0.00000000000E+00 -0.13942241213E+04  0.42548660877E+04  0.40199532987E+04 0.  0.
        1    1    3    3  502    0  0.12795383973E+04  0.24529207850E+03  0.92289071173E+03  0.15965944944E+04  0.50400001928E-02 0.  1.
       -1    1    3    3    0  502 -0.12795383973E+04 -0.24529207850E+03 -0.23171148330E+04  0.26582715932E+04  0.50400001928E-02 0. -1.
</event>
<event>
 5   0  0.5515000E-08  0.4009002E+04  0.7818609E-02  0.8002733E-01
       -1   -1    0    0    0  501  0.00000000000E+00  0.00000000000E+00  0.19277169274E+04  0.19277169274E+04  0.50400001928E-02 0.  1.
        1   -1    0    0  501    0  0.00000000000E+00  0.00000000000E+00 -0.20843436022E+04  0.20843436022E+04  0.50400001928E-02 0. -1.
    10030    2    1    2    0    0  0.00000000000E+00  0.00000000000E+00 -0.15662667477E+03  0.40120605297E+04  0.40090020926E+04 0.  0.
        1    1    3    3  502    0 -0.17580892298E+04  0.75874909578E+03  0.51496817313E+03  0.19828691710E+04  0.50400001928E-02 0. -1.
       -1    1    3    3    0  502  0.17580892298E+04 -0.75874909578E+03 -0.67159484790E+03  0.20291913586E+04  0.50400001928E-02 0.  1.
</event>
<event>
 5   0  0.1785559E-07  0.3940754E+04  0.7818609E-02  0.8016606E-01
       -2   -1    0    0    0  501  0.00000000000E+00  0.00000000000E+00  0.28955571234E+04  0.28955571234E+04  0.25500000920E-02 0.  1.
        2   -1    0    0  501    0  0.00000000000E+00  0.00000000000E+00 -0.13408075071E+04  0.13408075071E+04  0.25500000920E-02 0. -1.
    10030    2    1    2    0    0  0.00000000000E+00  0.00000000000E+00  0.15547496164E+04  0.42363646305E+04  0.39407535971E+04 0.  0.
        2    1    3    3  502    0  0.15736545350E+04  0.68584373898E+03 -0.26245562580E+03  0.17365636140E+04  0.25500000920E-02 0. -1.
       -2    1    3    3    0  502 -0.15736545350E+04 -0.68584373898E+03  0.18172052422E+04  0.24998010165E+04  0.25500000920E-02 0.  1.
</event>
<event>
 5   0  0.1785559E-07  0.4002853E+04  0.7818609E-02  0.8003971E-01
       -2   -1    0    0    0  501  0.00000000000E+00  0.00000000000E+00  0.19738938724E+04  0.19738938724E+04  0.25500000920E-02 0.  1.
        2   -1    0    0  501    0  0.00000000000E+00  0.00000000000E+00 -0.20293434857E+04  0.20293434857E+04  0.25500000920E-02 0. -1.
    10030    2    1    2    0    0  0.00000000000E+00  0.00000000000E+00 -0.55449613314E+02  0.40032373581E+04  0.40028533181E+04 0.  0.
        2    1    3    3  502    0 -0.71011433428E+02  0.12056786288E+04 -0.16238118477E+04  0.20237263887E+04  0.25500000920E-02 0. -1.
       -2    1    3    3    0  502  0.71011433428E+02 -0.12056786288E+04  0.15683622344E+04  0.19795109694E+04  0.25500000920E-02 0.  1.
</event>
<event>
 5   0  0.1773903E-07  0.4010338E+04  0.7818609E-02  0.8002464E-01
        2   -1    0    0  501    0  0.00000000000E+00  0.00000000000E+00  0.18138745467E+04  0.18138745467E+04  0.25500000920E-02 0. -1.
       -2   -1    0    0    0  501  0.00000000000E+00  0.00000000000E+00 -0.22166376778E+04  0.22166376778E+04  0.25500000920E-02 0.  1.
    10030    2    1    2    0    0  0.00000000000E+00  0.00000000000E+00 -0.40276313105E+03  0.40305122245E+04  0.40103379723E+04 0.  0.
        3    1    3    3  502    0  0.87303837163E+03 -0.37759841150E+03 -0.19754601049E+04  0.21925371593E+04  0.10100000352E+00 0.  1.
       -3    1    3    3    0  502 -0.87303837163E+03  0.37759841150E+03  0.15726969738E+04  0.18379750652E+04  0.10100000352E+00 0. -1.
</event>
<event>
 5   0  0.5515000E-08  0.4001362E+04  0.7818609E-02  0.8004272E-01
        1   -1    0    0  501    0  0.00000000000E+00  0.00000000000E+00  0.32635011415E+04  0.32635011415E+04  0.50400001928E-02 0.  1.
       -1   -1    0    0    0  501  0.00000000000E+00  0.00000000000E+00 -0.12265126153E+04  0.12265126153E+04  0.50400001928E-02 0. -1.
    10030    2    1    2    0    0  0.00000000000E+00  0.00000000000E+00  0.20369885262E+04  0.44900137568E+04  0.40013624280E+04 0.  0.
        2    1    3    3  502    0  0.13212714798E+04 -0.38091891297E+03  0.26491907808E+04  0.29848064149E+04  0.25500000920E-02 0.  1.
       -2    1    3    3    0  502 -0.13212714798E+04  0.38091891297E+03 -0.61220225454E+03  0.15052073419E+04  0.25500000920E-02 0. -1.
</event>
<event>
 5   0  0.5515000E-08  0.4020963E+04  0.7818609E-02  0.8000331E-01
       -1   -1    0    0    0  501  0.00000000000E+00  0.00000000000E+00  0.23933403786E+04  0.23933403786E+04  0.50400001928E-02 0. -1.
        1   -1    0    0  501    0  0.00000000000E+00  0.00000000000E+00 -0.16888675454E+04  0.16888675454E+04  0.50400001928E-02 0.  1.
    10030    2    1    2    0    0  0.00000000000E+00  0.00000000000E+00  0.70447283321E+03  0.40822079241E+04  0.40209625169E+04 0.  0.
        1    1    3    3  502    0  0.10368502982E+04  0.11874483135E+04 -0.91454426794E+03  0.18224936917E+04  0.50400001928E-02 0.  1.
       -1    1    3    3    0  502 -0.10368502982E+04 -0.11874483135E+04  0.16190171011E+04  0.22597142324E+04  0.50400001928E-02 0. -1.
</event>
<event>
 5   0  0.1785559E-07  0.3989777E+04  0.7818609E-02  0.8006612E-01
       -2   -1    0    0    0  501  0.00000000000E+00  0.00000000000E+00  0.15763516285E+04  0.15763516285E+04  0.25500000920E-02 0.  1.
        2   -1    0    0  501    0  0.00000000000E+00  0.00000000000E+00 -0.25245511229E+04  0.25245511229E+04  0.25500000920E-02 0. -1.
    10030    2    1    2    0    0  0.00000000000E+00  0.00000000000E+00 -0.94819949437E+03  0.41009027515E+04  0.39897770734E+04 0.  0.
        2    1    3    3  502    0 -0.16496373650E+04  0.26786816399E+03  0.64551602925E+03  0.17915768846E+04  0.25500000920E-02 0.  1.
       -2    1    3    3    0  502  0.16496373650E+04 -0.26786816399E+03 -0.15937155236E+04  0.23093258669E+04  0.25500000920E-02 0. -1.
</event>
<event>
 5   0  0.1821433E-07  0.4008899E+04  0.7818609E-02  0.8002754E-01
       -2   -1    0    0    0  501  0.00000000000E+00  0.00000000000E+00  0.23143735859E+04  0.23143735859E+04  0.25500000920E-02 0.  1.
        2   -1    0    0  501    0  0.00000000000E+00  0.00000000000E+00 -0.17360280322E+04  0.17360280322E+04  0.25500000920E-02 0. -1.
    10030    2    1    2    0    0  0.00000000000E+00  0.00000000000E+00  0.57834555372E+03  0.40504016181E+04  0.40088988125E+04 0.  0.
        5    1    3    3  502    0  0.97949194387E+03  0.16446048236E+04  0.89002759697E+03  0.21109951935E+04  0.46999998093E+01 0.  1.
       -5    1    3    3    0  502 -0.97949194387E+03 -0.16446048236E+04 -0.31168204326E+03  0.19394064246E+04  0.46999998093E+01 0. -1.
</event>
<event>
 5   0  0.5515000E-08  0.3997388E+04  0.7818609E-02  0.8005074E-01
        1   -1    0    0  501    0  0.00000000000E+00  0.00000000000E+00  0.27698482689E+04  0.27698482689E+04  0.50400001928E-02 0. -1.
       -1   -1    0    0    0  501  0.00000000000E+00  0.00000000000E+00 -0.14422368043E+04  0.14422368043E+04  0.50400001928E-02 0.  1.
    10030    2    1    2    0    0  0.00000000000E+00  0.00000000000E+00  0.13276114646E+04  0.42120850733E+04  0.39973877049E+04 0.  0.
        2    1    3    3  502    0 -0.16537020388E+04 -0.76397040704E+03  0.15304110409E+04  0.23791887630E+04  0.25500000920E-02 0. -1.
       -2    1    3    3    0  502  0.16537020388E+04  0.76397040704E+03 -0.20279957629E+03  0.18328963103E+04  0.25500000920E-02 0.  1.
</event>
<event>
 5   0  0.5515000E-08  0.4043130E+04  0.7818609E-02  0.7995902E-01
       -1   -1    0    0    0  501  0.00000000000E+00  0.00000000000E+00  0.17122507081E+04  0.17122507081E+04  0.50400001928E-02 0.  1.
        1   -1    0    0  501    0  0.00000000000E+00  0.00000000000E+00 -0.23867563515E+04  0.23867563515E+04  0.50400001928E-02 0. -1.
    10030    2    1    2    0    0  0.00000000000E+00  0.00000000000E+00 -0.67450564339E+03  0.40990070595E+04  0.40431301007E+04 0.  0.
        5    1    3    3  502    0 -0.88291713908E+03  0.97809983901E+03  0.12170632592E+04  0.17937354979E+04  0.46999998093E+01 0.  1.
       -5    1    3    3    0  502  0.88291713908E+03 -0.97809983901E+03 -0.18915689026E+04  0.23052715616E+04  0.46999998093E+01 0. -1.
</event>
<event>
 5   0  0.1776653E-07  0.3981828E+04  0.7818609E-02  0.8008222E-01
        2   -1    0    0  501    0  0.00000000000E+00  0.00000000000E+00  0.21426648054E+04  0.21426648054E+04  0.25500000920E-02 0.  1.
       -2   -1    0    0    0  501  0.00000000000E+00  0.00000000000E+00 -0.18499107582E+04  0.18499107582E+04  0.25500000920E-02 0. -1.
    10030    2    1    2    0    0  0.00000000000E+00  0.00000000000E+00  0.29275404720E+03  0.39925755637E+04  0.39818280600E+04 0.  0.
        4    1    3    3  502    0 -0.13657584116E+04  0.14007435949E+04  0.51664111586E+03  0.20234372521E+04  0.12699999809E+01 0.  1.
       -4    1    3    3    0  502  0.13657584116E+04 -0.14007435949E+04 -0.22388706866E+03  0.19691383116E+04  0.12699999809E+01 0. -1.
</event>
<event>
 5   0  0.5515000E-08  0.4017747E+04  0.7818609E-02  0.8000976E-01
       -1   -1    0    0    0  501  0.00000000000E+00  0.00000000000E+00  0.13522850585E+04  0.13522850585E+04  0.50400001928E-02 0. -1.
        1   -1    0    0  501    0  0.00000000000E+00  0.00000000000E+00 -0.29842622574E+04  0.29842622574E+04  0.50400001928E-02 0.  1.
    10030    2    1    2    0    0  0.00000000000E+00  0.00000000000E+00 -0.16319771989E+04  0.43365473159E+04  0.40177472600E+04 0.  0.
        3    1    3    3  502    0  0.24669909997E+03 -0.16073070242E+04 -0.20891054561E+04  0.26473870009E+04  0.10100000352E+00 0.  1.
       -3    1    3    3    0  502 -0.24669909997E+03  0.16073070242E+04  0.45712825712E+03  0.16891603150E+04  0.10100000352E+00 0. -1.
</event>
<event>
 5   0  0.5515000E-08  0.4026474E+04  0.7818609E-02  0.7999227E-01
        1   -1    0    0  501    0  0.00000000000E+00  0.00000000000E+00  0.26984195623E+04  0.26984195623E+04  0.50400001928E-02 0. -1.
       -1   -1    0    0    0  501  0.00000000000E+00  0.00000000000E+00 -0.15020360233E+04  0.15020360233E+04  0.50400001928E-02 0.  1.
    10030    2    1    2    0    0  0.00000000000E+00  0.00000000000E+00  0.11963835390E+04  0.42004555856E+04  0.40264740846E+04 0.  0.
        2    1    3    3  502    0  0.21868037128E+03  0.18871136293E+04 -0.97015081532E+02  0.19022173589E+04  0.25500000920E-02 0.  1.
       -2    1    3    3    0  502 -0.21868037128E+03 -0.18871136293E+04  0.12933986205E+04  0.22982382266E+04  0.25500000920E-02 0. -1.
</event>
<event>
 5   0  0.1785559E-07  0.3969485E+04  0.7818609E-02  0.8010731E-01
        2   -1    0    0  501    0  0.00000000000E+00  0.00000000000E+00  0.28644367045E+04  0.28644367045E+04  0.25500000920E-02 0.  1.
       -2   -1    0    0    0  501  0.00000000000E+00  0.00000000000E+00 -0.13752102565E+04  0.13752102565E+04  0.25500000920E-02 0. -1.
    10030    2    1    2    0    0  0.00000000000E+00  0.00000000000E+00  0.14892264481E+04  0.42396469610E+04  0.39694849716E+04 0.  0.
        2    1    3    3  502    0  0.17545673910E+04 -0.67328541071E+03  0.14263188147E+04  0.23592806817E+04  0.25500000920E-02 0. -1.
       -2    1    3    3    0  502 -0.17545673910E+04  0.67328541071E+03  0.62907633321E+02  0.18803662793E+04  0.25500000920E-02 0.  1.
</event>
<event>
 5   0  0.1821433E-07  0.4079949E+04  0.7818609E-02  0.7988610E-01
        2   -1    0    0  501    0  0.00000000000E+00  0.00000000000E+00  0.19819971125E+04  0.19819971125E+04  0.25500000920E-02 0. -1.
       -2   -1    0    0    0  501  0.00000000000E+00  0.00000000000E+00 -0.20996478889E+04  0.20996478889E+04  0.25500000920E-02 0.  1.
    10030    2    1    2    0    0  0.00000000000E+00  0.00000000000E+00 -0.11765077641E+03  0.40816450013E+04  0.40799490452E+04 0.  0.
        5    1    3    3  502    0  0.18897336764E+04  0.54273637954E+03 -0.60294283893E+03  0.20565063341E+04  0.46999998093E+01 0.  1.
       -5    1    3    3    0  502 -0.18897336764E+04 -0.54273637954E+03  0.48529206252E+03  0.20251386672E+04  0.46999998093E+01 0. -1.
</event>
<event>
 5   0  0.5515000E-08  0.3974479E+04  0.7818609E-02  0.8009715E-01
        1   -1    0    0  501    0  0.00000000000E+00  0.00000000000E+00  0.18438542730E+04  0.18438542730E+04  0.50400001928E-02 0. -1.
       -1   -1    0    0    0  501  0.00000000000E+00  0.00000000000E+00 -0.21417743873E+04  0.21417743873E+04  0.50400001928E-02 0.  1.
    10030    2    1    2    0    0  0.00000000000E+00  0.00000000000E+00 -0.29792011431E+03  0.39856286603E+04  0.39744785096E+04 0.  0.
        4    1    3    3  502    0 -0.81436143772E+03 -0.11241851624E+04  0.12770495185E+04  0.18862221280E+04  0.12699999809E+01 0. -1.
       -4    1    3    3    0  502  0.81436143772E+03  0.11241851624E+04 -0.15749696328E+04  0.20994065323E+04  0.12699999809E+01 0.  1.
</event>
<event>
 5   0  0.1821433E-07  0.4149660E+04  0.7818609E-02  0.7975018E-01
       -2   -1    0    0    0  501  0.00000000000E+00  0.00000000000E+00  0.17501755375E+04  0.17501755375E+04  0.25500000920E-02 0. -1.
        2   -1    0    0  501    0  0.00000000000E+00  0.00000000000E+00 -0.24597075737E+04  0.24597075737E+04  0.25500000920E-02 0.  1.
    10030    2    1    2    0    0  0.00000000000E+00  0.00000000000E+00 -0.70953203622E+03  0.42098831112E+04  0.41496602391E+04 0.  0.
        5    1    3    3  502    0 -0.36355932444E+03  0.19846277528E+04  0.13596379639E+03  0.20222341466E+04  0.46999998093E+01 0. -1.
       -5    1    3    3    0  502  0.36355932444E+03 -0.19846277528E+04 -0.84549583260E+03  0.21876489647E+04  0.46999998093E+01 0.  1.
</event>
<event>
 5   0  0.5515000E-08  0.3983116E+04  0.7818609E-02  0.8007961E-01
       -1   -1    0    0    0  501  0.00000000000E+00  0.00000000000E+00  0.19175938544E+04  0.19175938544E+04  0.50400001928E-02 0.  1.
        1   -1    0    0  501    0  0.00000000000E+00  0.00000000000E+00 -0.20683754233E+04  0.20683754233E+04  0.50400001928E-02 0. -1.
    10030    2    1    2    0    0  0.00000000000E+00  0.00000000000E+00 -0.15078156888E+03  0.39859692777E+04  0.39831163680E+04 0.  0.
        3    1    3    3  502    0  0.10837902512E+04  0.75339034995E+03 -0.15678025363E+04  0.20494397115E+04  0.10100000352E+00 0. -1.
       -3    1    3    3    0  502 -0.10837902512E+04 -0.75339034995E+03  0.14170209675E+04  0.19365295661E+04  0.10100000352E+00 0.  1.
</event>
<event>
 5   0  0.1785559E-07  0.3996087E+04  0.7818609E-02  0.8005336E-01
        2   -1    0    0  501    0  0.00000000000E+00  0.00000000000E+00  0.24397876066E+04  0.24397876066E+04  0.25500000920E-02 0.  1.
       -2   -1    0    0    0  501  0.00000000000E+00  0.00000000000E+00 -0.16362807136E+04  0.16362807136E+04  0.25500000920E-02 0. -1.
    10030    2    1    2    0    0  0.00000000000E+00  0.00000000000E+00  0.80350689302E+03  0.40760683202E+04  0.39960867888E+04 0.  0.
        2    1    3    3  502    0 -0.48505758222E+03  0.64106256958E+03 -0.14640475221E+04  0.16702326854E+04  0.25500000920E-02 0. -1.
       -2    1    3    3    0  502  0.48505758222E+03 -0.64106256958E+03  0.22675544151E+04  0.24058356348E+04  0.25500000920E-02 0.  1.
</event>
<event>
 5   0  0.1773903E-07  0.4086537E+04  0.7818609E-02  0.7987313E-01
       -2   -1    0    0    0  501  0.00000000000E+00  0.00000000000E+00  0.18299968638E+04  0.18299968638E+04  0.25500000920E-02 0.  1.
        2   -1    0    0  501    0  0.00000000000E+00  0.00000000000E+00 -0.22813956074E+04  0.22813956074E+04  0.25500000920E-02 0. -1.
    10030    2    1    2    0    0  0.00000000000E+00  0.00000000000E+00 -0.45139874360E+03  0.41113924712E+04  0.40865373149E+04 0.  0.
        3    1    3    3  502    0  0.17916797488E+04 -0.64479323730E+03  0.51980153749E+03  0.19738460653E+04  0.10100000352E+00 0.  1.
       -3    1    3    3    0  502 -0.17916797488E+04  0.64479323730E+03 -0.97120028109E+03  0.21375464059E+04  0.10100000352E+00 0. -1.
</event>
<event>
 5   0  0.1819906E-07  0.3918843E+04  0.7818609E-02  0.8021122E-01
       -2   -1    0    0    0  501  0.00000000000E+00  0.00000000000E+00  0.15121954823E+04  0.15121954823E+04  0.25500000920E-02 0.  1.
        2   -1    0    0  501    0  0.00000000000E+00  0.00000000000E+00 -0.25389129347E+04  0.25389129347E+04  0.25500000920E-02 0. -1.
    10030    2    1    2    0    0  0.00000000000E+00  0.00000000000E+00 -0.10267174524E+04  0.40511084170E+04  0.39188430281E+04 0.  0.
        1    1    3    3  502    0  0.16749558391E+04  0.95491422294E+03 -0.87442423674E+03  0.21170630557E+04  0.50400001928E-02 0. -1.
       -1    1    3    3    0  502 -0.16749558391E+04 -0.95491422294E+03 -0.15229321566E+03  0.19340453613E+04  0.50400001928E-02 0.  1.
</event>
<event>
 5   0  0.5515000E-08  0.3380626E+04  0.7818609E-02  0.8142678E-01
        1   -1    0    0  501    0  0.00000000000E+00  0.00000000000E+00  0.29431095160E+04  0.29431095160E+04  0.50400001928E-02 0. -1.
       -1   -1    0    0    0  501  0.00000000000E+00  0.00000000000E+00 -0.97079597513E+03  0.97079597514E+03  0.50400001928E-02 0.  1.
    10030    2    1    2    0    0  0.00000000000E+00  0.00000000000E+00  0.19723135409E+04  0.39139054911E+04  0.33806264937E+04 0.  0.
        1    1    3    3  502    0 -0.11574407742E+04 -0.94305873921E+03  0.68589547092E+02  0.14945679835E+04  0.50400001928E-02 0.  1.
       -1    1    3    3    0  502  0.11574407742E+04  0.94305873921E+03  0.19037239938E+04  0.24193375076E+04  0.50400001928E-02 0. -1.
</event>
<event>
 5   0  0.1773903E-07  0.4191721E+04  0.7818609E-02  0.7966949E-01
        2   -1    0    0  501    0  0.00000000000E+00  0.00000000000E+00  0.28241620107E+04  0.28241620107E+04  0.25500000920E-02 0.  1.
       -2   -1    0    0    0  501  0.00000000000E+00  0.00000000000E+00 -0.15553753305E+04  0.15553753305E+04  0.25500000920E-02 0. -1.
    10030    2    1    2    0    0  0.00000000000E+00  0.00000000000E+00  0.12687866802E+04  0.43795373411E+04  0.41917213269E+04 0.  0.
        3    1    3    3  502    0  0.65821801696E+03 -0.15723093319E+04  0.19085536430E+04  0.25589030094E+04  0.10100000352E+00 0.  1.
       -3    1    3    3    0  502 -0.65821801696E+03  0.15723093319E+04 -0.63976696283E+03  0.18206343317E+04  0.10100000352E+00 0. -1.
</event>
<event>
 5   0  0.5515000E-08  0.3830207E+04  0.7818609E-02  0.8039703E-01
       -1   -1    0    0    0  501  0.00000000000E+00  0.00000000000E+00  0.14477475623E+04  0.14477475623E+04  0.50400001928E-02 0. -1.
        1   -1    0    0  501    0  0.00000000000E+00  0.00000000000E+00 -0.25333297166E+04  0.25333297166E+04  0.50400001928E-02 0.  1.
    10030    2    1    2    0    0  0.00000000000E+00  0.00000000000E+00 -0.10855821543E+04  0.39810772790E+04  0.38302072643E+04 0.  0.
        4    1    3    3  502    0 -0.14782751902E+03 -0.16619606715E+04  0.43426495638E+03  0.17241096005E+04  0.12699999809E+01 0.  1.
       -4    1    3    3    0  502  0.14782751902E+03  0.16619606715E+04 -0.15198471107E+04  0.22569676785E+04  0.12699999809E+01 0. -1.
</event>
<event>
 5   0  0.1821433E-07  0.4071784E+04  0.7818609E-02  0.7990220E-01
        2   -1    0    0  501    0  0.00000000000E+00  0.00000000000E+00  0.24096566148E+04  0.24096566148E+04  0.25500000920E-02 0. -1.
       -2   -1    0    0    0  501  0.00000000000E+00  0.00000000000E+00 -0.17201026541E+04  0.17201026541E+04  0.25500000920E-02 0.  1.
    10030    2    1    2    0    0  0.00000000000E+00  0.00000000000E+00  0.68955396074E+03  0.41297592689E+04  0.40717842470E+04 0.  0.
        5    1    3    3  502    0  0.10006978473E+04  0.19708261760E+02  0.21428843758E+04  0.23651131337E+04  0.46999998093E+01 0. -1.
       -5    1    3    3    0  502 -0.10006978473E+04 -0.19708261760E+02 -0.14533304150E+04  0.17646461352E+04  0.46999998093E+01 0.  1.
</event>
<event>
 5   0  0.5515000E-08  0.3997142E+04  0.7818609E-02  0.8005123E-01
        1   -1    0    0  501    0  0.00000000000E+00  0.00000000000E+00  0.24124051013E+04  0.24124051013E+04  0.50400001928E-02 0. -1.
       -1   -1    0    0    0  501  0.00000000000E+00  0.00000000000E+00 -0.16557277013E+04  0.16557277014E+04  0.50400001928E-02 0.  1.
    10030    2    1    2    0    0  0.00000000000E+00  0.00000000000E+00  0.75667739999E+03  0.40681328027E+04  0.39971419555E+04 0.  0.
        4    1    3    3  502    0 -0.15150479137E+04 -0.10882306998E+04 -0.35180640249E+03  0.18982585690E+04  0.12699999809E+01 0.  1.
       -4    1    3    3    0  502  0.15150479137E+04  0.10882306998E+04  0.11084838025E+04  0.21698742337E+04  0.12699999809E+01 0. -1.
</event>
<event>
 5   0  0.5515000E-08  0.4005864E+04  0.7818609E-02  0.8003365E-01
        1   -1    0    0  501    0  0.00000000000E+00  0.00000000000E+00  0.15094779467E+04  0.15094779467E+04  0.50400001928E-02 0.  1.
       -1   -1    0    0    0  501  0.00000000000E+00  0.00000000000E+00 -0.26576976045E+04  0.26576976045E+04  0.50400001928E-02 0. -1.
    10030    2    1    2    0    0  0.00000000000E+00  0.00000000000E+00 -0.11482196579E+04  0.41671755512E+04  0.40058636637E+04 0.  0.
        5    1    3    3  502    0 -0.50830091928E+02 -0.13473379918E+04 -0.21149059787E+04  0.25081373071E+04  0.46999998093E+01 0. -1.
       -5    1    3    3    0  502  0.50830091928E+02  0.13473379918E+04  0.96668632085E+03  0.16590382441E+04  0.46999998093E+01 0.  1.
</event>
<event>
 5   0  0.1819906E-07  0.4004415E+04  0.7818609E-02  0.8003656E-01
        2   -1    0    0  501    0  0.00000000000E+00  0.00000000000E+00  0.19099981755E+04  0.19099981755E+04  0.25500000920E-02 0. -1.
       -2   -1    0    0    0  501  0.00000000000E+00  0.00000000000E+00 -0.20988685951E+04  0.20988685951E+04  0.25500000920E-02 0.  1.
    10030    2    1    2    0    0  0.00000000000E+00  0.00000000000E+00 -0.18887041960E+03  0.40088667706E+04  0.40044151569E+04 0.  0.
        1    1    3    3  502    0  0.63354129656E+03 -0.16624310524E+04 -0.10140333178E+04  0.20477585668E+04  0.50400001928E-02 0.  1.
       -1    1    3    3    0  502 -0.63354129656E+03  0.16624310524E+04  0.82516289816E+03  0.19611082038E+04  0.50400001928E-02 0. -1.
</event>
<event>
 5   0  0.1776653E-07  0.3564563E+04  0.7818609E-02  0.8098657E-01
       -2   -1    0    0    0  501  0.00000000000E+00  0.00000000000E+00  0.31631216307E+04  0.31631216307E+04  0.25500000920E-02 0. -1.
        2   -1    0    0  501    0  0.00000000000E+00  0.00000000000E+00 -0.10042384024E+04  0.10042384024E+04  0.25500000920E-02 0.  1.
    10030    2    1    2    0    0  0.00000000000E+00  0.00000000000E+00  0.21588832283E+04  0.41673600330E+04  0.35645634868E+04 0.  0.
        4    1    3    3  502    0 -0.10528864967E+04 -0.14331442674E+04  0.94084369514E+03  0.20118799511E+04  0.12699999809E+01 0. -1.
       -4    1    3    3    0  502  0.10528864967E+04  0.14331442674E+04  0.12180395332E+04  0.21554800819E+04  0.12699999809E+01 0.  1.
</event>
<event>
 5   0  0.1773903E-07  0.3949035E+04  0.7818609E-02  0.8014907E-01
       -2   -1    0    0    0  501  0.00000000000E+00  0.00000000000E+00  0.11403292920E+04  0.11403292920E+04  0.25500000920E-02 0.  1.
        2   -1    0    0  501    0  0.00000000000E+00  0.00000000000E+00 -0.34189422693E+04  0.34189422693E+04  0.25500000920E-02 0. -1.
    10030    2    1    2    0    0  0.00000000000E+00  0.00000000000E+00 -0.22786129773E+04  0.45592715613E+04  0.39490353340E+04 0.  0.
        3    1    3    3  502    0 -0.97167803121E+03 -0.17176988299E+04 -0.10656286032E+04  0.22428133665E+04  0.10100000352E+00 0.  1.
       -3    1    3    3    0  502  0.97167803121E+03  0.17176988299E+04 -0.12129843740E+04  0.23164581948E+04  0.10100000352E+00 0. -1.
</event>
<event>
 5   0  0.5515000E-08  0.3914320E+04  0.7818609E-02  0.8022058E-01
       -1   -1    0    0    0  501  0.00000000000E+00  0.00000000000E+00  0.35817947313E+04  0.35817947313E+04  0.50400001928E-02 0.  1.
        1   -1    0    0  501    0  0.00000000000E+00  0.00000000000E+00 -0.10694288421E+04  0.10694288422E+04  0.50400001928E-02 0. -1.
    10030    2    1    2    0    0  0.00000000000E+00  0.00000000000E+00  0.25123658892E+04  0.46512235735E+04  0.39143196560E+04 0.  0.
        4    1    3    3  502    0  0.68488874583E+03 -0.11587324467E+04  0.29444885700E+04  0.32375527839E+04  0.12699999809E+01 0.  1.
       -4    1    3    3    0  502 -0.68488874583E+03  0.11587324467E+04 -0.43212268078E+03  0.14136707896E+04  0.12699999809E+01 0. -1.
</event>
<event>
 5   0  0.5515000E-08  0.4057108E+04  0.7818609E-02  0.7993124E-01
       -1   -1    0    0    0  501  0.00000000000E+00  0.00000000000E+00  0.29868125606E+04  0.29868125606E+04  0.50400001928E-02 0.  1.
        1   -1    0    0  501    0  0.00000000000E+00  0.00000000000E+00 -0.13777332705E+04  0.13777332706E+04  0.50400001928E-02 0. -1.
    10030    2    1    2    0    0  0.00000000000E+00  0.00000000000E+00  0.16090792901E+04  0.43645458312E+04  0.40571078554E+04 0.  0.
        2    1    3    3  502    0 -0.92591064186E+03  0.45561942322E+03  0.26833449770E+04  0.28749330151E+04  0.25500000920E-02 0.  1.
       -2    1    3    3    0  502  0.92591064186E+03 -0.45561942322E+03 -0.10742656870E+04  0.14896128161E+04  0.25500000920E-02 0. -1.
</event>
<event>
 5   0  0.1821433E-07  0.3990413E+04  0.7818609E-02  0.8006483E-01
        2   -1    0    0  501    0  0.00000000000E+00  0.00000000000E+00  0.23062351753E+04  0.23062351753E+04  0.25500000920E-02 0.  1.
       -2   -1    0    0    0  501  0.00000000000E+00  0.00000000000E+00 -0.17261244467E+04  0.17261244467E+04  0.25500000920E-02 0. -1.
    10030    2    1    2    0    0  0.00000000000E+00  0.00000000000E+00  0.58011072861E+03  0.40323596220E+04  0.39904129690E+04 0.  0.
        5    1    3    3  502    0 -0.37506989811E+02 -0.11874024873E+04  0.19098700608E+04  0.22492125689E+04  0.46999998093E+01 0.  1.
       -5    1    3    3    0  502  0.37506989811E+02  0.11874024873E+04 -0.13297593322E+04  0.17831470530E+04  0.46999998093E+01 0. -1.
</event>
<event>
 5   0  0.5515000E-08  0.4027337E+04  0.7818609E-02  0.7999054E-01
       -1   -1    0    0    0  501  0.00000000000E+00  0.00000000000E+00  0.19440379301E+04  0.19440379301E+04  0.50400001928E-02 0.  1.
        1   -1    0    0  501    0  0.00000000000E+00  0.00000000000E+00 -0.20857930953E+04  0.20857930953E+04  0.50400001928E-02 0. -1.
    10030    2    1    2    0    0  0.00000000000E+00  0.00000000000E+00 -0.14175516519E+03  0.40298310254E+04  0.40273370316E+04 0.  0.
        1    1    3    3  502    0 -0.42999294926E+03 -0.19590746512E+04  0.10810035823E+03  0.20086197034E+04  0.50400001928E-02 0. -1.
       -1    1    3    3    0  502  0.42999294926E+03  0.19590746512E+04 -0.24985552342E+03  0.20212113220E+04  0.50400001928E-02 0.  1.
</event>
<event>
 5   0  0.1773903E-07  0.3838849E+04  0.7818609E-02  0.8037869E-01
        2   -1    0    0  501    0  0.00000000000E+00  0.00000000000E+00  0.17804294721E+04  0.17804294721E+04  0.25500000920E-02 0.  1.
       -2   -1    0    0    0  501  0.00000000000E+00  0.00000000000E+00 -0.20692703589E+04  0.20692703589E+04  0.25500000920E-02 0. -1.
    10030    2    1    2    0    0  0.00000000000E+00  0.00000000000E+00 -0.28884088674E+03  0.38496998310E+04  0.38388487507E+04 0.  0.
        3    1    3    3  502    0  0.16560670856E+04 -0.27191912436E+03  0.78971229563E+03  0.18547624436E+04  0.10100000352E+00 0.  1.
       -3    1    3    3    0  502 -0.16560670856E+04  0.27191912436E+03 -0.10785531824E+04  0.19949373874E+04  0.10100000352E+00 0. -1.
</event>
<event>
 5   0  0.5515000E-08  0.3950172E+04  0.7818609E-02  0.8014675E-01
       -1   -1    0    0    0  501  0.00000000000E+00  0.00000000000E+00  0.19720559502E+04  0.19720559502E+04  0.50400001928E-02 0. -1.
        1   -1    0    0  501    0  0.00000000000E+00  0.00000000000E+00 -0.19781207988E+04  0.19781207988E+04  0.50400001928E-02 0.  1.
    10030    2    1    2    0    0  0.00000000000E+00  0.00000000000E+00 -0.60648486213E+01  0.39501767490E+04  0.39501720933E+04 0.  0.
        2    1    3    3  502    0 -0.21611550279E+03  0.72658702467E+03  0.18207927092E+04  0.19722881901E+04  0.25500000920E-02 0. -1.
       -2    1    3    3    0  502  0.21611550279E+03 -0.72658702467E+03 -0.18268575578E+04  0.19778885589E+04  0.25500000920E-02 0.  1.
</event>
<event>
 5   0  0.5515000E-08  0.4072940E+04  0.7818609E-02  0.7989992E-01
        1   -1    0    0  501    0  0.00000000000E+00  0.00000000000E+00  0.14187765291E+04  0.14187765291E+04  0.50400001928E-02 0. -1.
       -1   -1    0    0    0  501  0.00000000000E+00  0.00000000000E+00 -0.29230883343E+04  0.29230883343E+04  0.50400001928E-02 0.  1.
    10030    2    1    2    0    0  0.00000000000E+00  0.00000000000E+00 -0.15043118053E+04  0.43418648634E+04  0.40729395385E+04 0.  0.
        1    1    3    3  502    0 -0.16691346405E+04 -0.13068319781E+03 -0.19880676312E+04  0.25991347508E+04  0.50400001928E-02 0.  1.
       -1    1    3    3    0  502  0.16691346405E+04  0.13068319781E+03  0.48375582594E+03  0.17427301126E+04  0.50400001928E-02 0. -1.
</event>
<event>
 5   0  0.1776653E-07  0.3993592E+04  0.7818609E-02  0.8005841E-01
        2   -1    0    0  501    0  0.00000000000E+00  0.00000000000E+00  0.14964450933E+04  0.14964450933E+04  0.25500000920E-02 0. -1.
       -2   -1    0    0    0  501  0.00000000000E+00  0.00000000000E+00 -0.26644437950E+04  0.26644437950E+04  0.25500000920E-02 0.  1.
    10030    2    1    2    0    0  0.00000000000E+00  0.00000000000E+00 -0.11679987017E+04  0.41608888884E+04  0.39935917886E+04 0.  0.
        4    1    3    3  502    0 -0.42783859884E+03 -0.11750899782E+04  0.10379113040E+04  0.16251596265E+04  0.12699999809E+01 0. -1.
       -4    1    3    3    0  502  0.42783859884E+03  0.11750899782E+04 -0.22059100057E+04  0.25357292619E+04  0.12699999809E+01 0.  1.
</event>
<event>
 5   0  0.5515000E-08  0.4010799E+04  0.7818609E-02  0.8002372E-01
       -1   -1    0    0    0  501  0.00000000000E+00  0.00000000000E+00  0.11931666965E+04  0.11931666965E+04  0.50400001928E-02 0. -1.
        1   -1    0    0  501    0  0.00000000000E+00  0.00000000000E+00 -0.33705489828E+04  0.33705489828E+04  0.50400001928E-02 0.  1.
    10030    2    1    2    0    0  0.00000000000E+00  0.00000000000E+00 -0.21773822863E+04  0.45637156794E+04  0.40107988209E+04 0.  0.
        5    1    3    3  502    0  0.28193074453E+02  0.19997719433E+04 -0.12563930157E+04  0.23618696354E+04  0.46999998093E+01 0. -1.
       -5    1    3    3    0  502 -0.28193074453E+02 -0.19997719433E+04 -0.92098927061E+03  0.22018460440E+04  0.46999998093E+01 0.  1.
</event>
<event>
 5   0  0.1785559E-07  0.3805541E+04  0.7818609E-02  0.8044967E-01
       -2   -1    0    0    0  501  0.00000000000E+00  0.00000000000E+00  0.28666253506E+04  0.28666253506E+04  0.25500000920E-02 0.  1.
        2   -1    0    0  501    0  0.00000000000E+00  0.00000000000E+00 -0.12629955112E+04  0.12629955112E+04  0.25500000920E-02 0. -1.
    10030    2    1    2    0    0  0.00000000000E+00  0.00000000000E+00  0.16036298394E+04  0.41296208619E+04  0.38055406713E+04 0.  0.
        2    1    3    3  502    0  0.18103637608E+04 -0.34470424166E+03  0.28788306669E+03  0.18652384890E+04  0.25500000920E-02 0. -1.
       -2    1    3    3    0  502 -0.18103637608E+04  0.34470424166E+03  0.13157467727E+04  0.22643823729E+04  0.25500000920E-02 0.  1.
</event>
<event>
 5   0  0.5515000E-08  0.3997836E+04  0.7818609E-02  0.8004983E-01
       -1   -1    0    0    0  501  0.00000000000E+00  0.00000000000E+00  0.24634674975E+04  0.24634674975E+04  0.50400001928E-02 0.  1.
        1   -1    0    0  501    0  0.00000000000E+00  0.00000000000E+00 -0.16219710065E+04  0.16219710065E+04  0.50400001928E-02 0. -1.
    10030    2    1    2    0    0  0.00000000000E+00  0.00000000000E+00  0.84149649107E+03  0.40854385040E+04  0.39978358428E+04 0.  0.
        4    1    3    3  502    0  0.16609664411E+03  0.14414582189E+04 -0.98425376353E+03  0.17533245495E+04  0.12699999809E+01 0. -1.
       -4    1    3    3    0  502 -0.16609664411E+03 -0.14414582189E+04  0.18257502546E+04  0.23321139545E+04  0.12699999809E+01 0.  1.
</event>
<event>
 5   0  0.5515000E-08  0.4020885E+04  0.7818609E-02  0.8000347E-01
       -1   -1    0    0    0  501  0.00000000000E+00  0.00000000000E+00  0.13392379169E+04  0.13392379169E+04  0.50400001928E-02 0. -1.
        1   -1    0    0  501    0  0.00000000000E+00  0.00000000000E+00 -0.30180444598E+04  0.30180444598E+04  0.50400001928E-02 0.  1.
    10030    2    1    2    0    0  0.00000000000E+00  0.00000000000E+00 -0.16788065430E+04  0.43572823767E+04  0.40208852634E+04 0.  0.
        1    1    3    3  502    0 -0.12198249747E+04  0.15963111237E+04 -0.92119935215E+03  0.22101561978E+04  0.50400001928E-02 0. -1.
       -1    1    3    3    0  502  0.12198249747E+04 -0.15963111237E+04 -0.75760719081E+03  0.21471261789E+04  0.50400001928E-02 0.  1.
</event>
<event>
 5   0  0.1785559E-07  0.4002473E+04  0.7818609E-02  0.8004048E-01
        2   -1    0    0  501    0  0.00000000000E+00  0.00000000000E+00  0.15592652338E+04  0.15592652338E+04  0.25500000920E-02 0. -1.
       -2   -1    0    0    0  501  0.00000000000E+00  0.00000000000E+00 -0.25684838965E+04  0.25684838965E+04  0.25500000920E-02 0.  1.
    10030    2    1    2    0    0  0.00000000000E+00  0.00000000000E+00 -0.10092186628E+04  0.41277491303E+04  0.40024730572E+04 0.  0.
        2    1    3    3  502    0 -0.11687467101E+04 -0.16244620622E+04 -0.49420499015E+03  0.20613307440E+04  0.25500000920E-02 0. -1.
       -2    1    3    3    0  502  0.11687467101E+04  0.16244620622E+04 -0.51501367264E+03  0.20664183863E+04  0.25500000920E-02 0.  1.
</event>
<event>
 5   0  0.1819906E-07  0.3973128E+04  0.7818609E-02  0.8009989E-01
       -2   -1    0    0    0  501  0.00000000000E+00  0.00000000000E+00  0.17060142739E+04  0.17060142739E+04  0.25500000920E-02 0.  1.
        2   -1    0    0  501    0  0.00000000000E+00  0.00000000000E+00 -0.23132495755E+04  0.23132495755E+04  0.25500000920E-02 0. -1.
    10030    2    1    2    0    0  0.00000000000E+00  0.00000000000E+00 -0.60723530157E+03  0.40192638493E+04  0.39731281352E+04 0.  0.
        1    1    3    3  502    0 -0.96284604417E+03  0.17350602991E+04 -0.39921390098E+03  0.20240747231E+04  0.50400001928E-02 0. -1.
       -1    1    3    3    0  502  0.96284604417E+03 -0.17350602991E+04 -0.20802140059E+03  0.19951891262E+04  0.50400001928E-02 0.  1.
</event>
<event>
 5   0  0.5515000E-08  0.3961210E+04  0.7818609E-02  0.8012418E-01
        1   -1    0    0  501    0  0.00000000000E+00  0.00000000000E+00  0.24269848300E+04  0.24269848300E+04  0.50400001928E-02 0. -1.
       -1   -1    0    0    0  501  0.00000000000E+00  0.00000000000E+00 -0.16163246373E+04  0.16163246373E+04  0.50400001928E-02 0.  1.
    10030    2    1    2    0    0  0.00000000000E+00  0.00000000000E+00  0.81066019272E+03  0.40433094673E+04  0.39612096006E+04 0.  0.
        2    1    3    3  502    0  0.13684326253E+04  0.71092000532E+03 -0.86332192818E+03  0.17672973309E+04  0.25500000920E-02 0.  1.
       -2    1    3    3    0  502 -0.13684326253E+04 -0.71092000532E+03  0.16739821209E+04  0.22760121364E+04  0.25500000920E-02 0. -1.
</event>
<event>
 5   0  0.5515000E-08  0.3940029E+04  0.7818609E-02  0.8016755E-01
       -1   -1    0    0    0  501  0.00000000000E+00  0.00000000000E+00  0.29320065570E+04  0.29320065570E+04  0.50400001928E-02 0.  1.
        1   -1    0    0  501    0  0.00000000000E+00  0.00000000000E+00 -0.13236520287E+04  0.13236520287E+04  0.50400001928E-02 0. -1.
    10030    2    1    2    0    0  0.00000000000E+00  0.00000000000E+00  0.16083545283E+04  0.42556585857E+04  0.39400286433E+04 0.  0.
        3    1    3    3  502    0 -0.96289697617E+03 -0.74375373143E+03  0.24776890211E+04  0.27603048917E+04  0.10100000352E+00 0.  1.
       -3    1    3    3    0  502  0.96289697617E+03  0.74375373143E+03 -0.86933449281E+03  0.14953536941E+04  0.10100000352E+00 0. -1.
</event>
<event>
 5   0  0.5515000E-08  0.4011576E+04  0.7818609E-02  0.8002215E-01
        1   -1    0    0  501    0  0.00000000000E+00  0.00000000000E+00  0.23582326774E+04  0.23582326774E+04  0.50400001928E-02 0. -1.
       -1   -1    0    0    0  501  0.00000000000E+00  0.00000000000E+00 -0.17060168062E+04  0.17060168063E+04  0.50400001928E-02 0.  1.
    10030    2    1    2    0    0  0.00000000000E+00  0.00000000000E+00  0.65221587117E+03  0.40642494837E+04  0.40115755412E+04 0.  0.
        1    1    3    3  502    0 -0.74021222200E+03  0.89107471582E+03  0.19850627201E+04  0.22983477295E+04  0.50400001928E-02 0. -1.
       -1    1    3    3    0  502  0.74021222200E+03 -0.89107471582E+03 -0.13328468489E+04  0.17659017542E+04  0.50400001928E-02 0.  1.
</event>
<event>
 5   0  0.1776653E-07  0.3908205E+04  0.7818609E-02  0.8023325E-01
        2   -1    0    0  501    0  0.00000000000E+00  0.00000000000E+00  0.30622298834E+04  0.30622298834E+04  0.25500000920E-02 0. -1.
       -2   -1    0    0    0  501  0.00000000000E+00  0.00000000000E+00 -0.12469727871E+04  0.12469727871E+04  0.25500000920E-02 0.  1.
    10030    2    1    2    0    0  0.00000000000E+00  0.00000000000E+00  0.18152570963E+04  0.43092026706E+04  0.39082053849E+04 0.  0.
        4    1    3    3  502    0 -0.18620112097E+03 -0.19251473238E+04  0.60037446332E+03  0.20251701619E+04  0.12699999809E+01 0.  1.
       -4    1    3    3    0  502  0.18620112097E+03  0.19251473238E+04  0.12148826330E+04  0.22840325086E+04  0.12699999809E+01 0. -1.
</event>
<event>
 5   0  0.5515000E-08  0.3992087E+04  0.7818609E-02  0.8006145E-01
        1   -1    0    0  501    0  0.00000000000E+00  0.00000000000E+00  0.21810294808E+04  0.21810294808E+04  0.50400001928E-02 0.  1.
       -1   -1    0    0    0  501  0.00000000000E+00  0.00000000000E+00 -0.18267470441E+04  0.18267470441E+04  0.50400001928E-02 0. -1.
    10030    2    1    2    0    0  0.00000000000E+00  0.00000000000E+00  0.35428243679E+03  0.40077765249E+04  0.39920867511E+04 0.  0.
        3    1    3    3  502    0 -0.29195259556E+03 -0.76129331266E+03  0.20062197882E+04  0.21655765225E+04  0.10100000352E+00 0.  1.
       -3    1    3    3    0  502  0.29195259556E+03  0.76129331266E+03 -0.16519373514E+04  0.18422000025E+04  0.10100000352E+00 0. -1.
</event>
<event>
 5   0  0.5515000E-08  0.4009614E+04  0.7818609E-02  0.8002610E-01
        1   -1    0    0  501    0  0.00000000000E+00  0.00000000000E+00  0.25667046631E+04  0.25667046631E+04  0.50400001928E-02 0. -1.
       -1   -1    0    0    0  501  0.00000000000E+00  0.00000000000E+00 -0.15659190257E+04  0.15659190257E+04  0.50400001928E-02 0.  1.
    10030    2    1    2    0    0  0.00000000000E+00  0.00000000000E+00  0.10007856374E+04  0.41326236888E+04  0.40096142783E+04 0.  0.
        1    1    3    3  502    0  0.37043572195E+03  0.11105186712E+04 -0.11770432986E+04  0.16600919463E+04  0.50400001928E-02 0.  1.
       -1    1    3    3    0  502 -0.37043572195E+03 -0.11105186712E+04  0.21778289360E+04  0.24725317425E+04  0.50400001928E-02 0. -1.
</event>
<event>
 5   0  0.5515000E-08  0.4070626E+04  0.7818609E-02  0.7990449E-01
       -1   -1    0    0    0  501  0.00000000000E+00  0.00000000000E+00  0.24782080605E+04  0.24782080605E+04  0.50400001928E-02 0.  1.
        1   -1    0    0  501    0  0.00000000000E+00  0.00000000000E+00 -0.16715706390E+04  0.16715706390E+04  0.50400001928E-02 0. -1.
    10030    2    1    2    0    0  0.00000000000E+00  0.00000000000E+00  0.80663742147E+03  0.41497786995E+04  0.40706264045E+04 0.  0.
        3    1    3    3  502    0  0.41726786284E+02 -0.16068509848E+04  0.16761103198E+04  0.23222956371E+04  0.10100000352E+00 0.  1.
       -3    1    3    3    0  502 -0.41726786284E+02  0.16068509848E+04 -0.86947289833E+03  0.18274830623E+04  0.10100000352E+00 0. -1.
</event>
<event>
 5   0  0.1776653E-07  0.4005007E+04  0.7818609E-02  0.8003537E-01
        2   -1    0    0  501    0  0.00000000000E+00  0.00000000000E+00  0.23661306797E+04  0.23661306797E+04  0.25500000920E-02 0.  1.
       -2   -1    0    0    0  501  0.00000000000E+00  0.00000000000E+00 -0.16947582244E+04  0.16947582244E+04  0.25500000920E-02 0. -1.
    10030    2    1    2    0    0  0.00000000000E+00  0.00000000000E+00  0.67137245534E+03  0.40608889041E+04  0.40050065814E+04 0.  0.
        4    1    3    3  502    0 -0.53567749727E+03  0.37758638558E+03 -0.15829359849E+04  0.17132454012E+04  0.12699999809E+01 0. -1.
       -4    1    3    3    0  502  0.53567749727E+03 -0.37758638558E+03  0.22543084402E+04  0.23476435028E+04  0.12699999809E+01 0.  1.
</event>
<event>
 5   0  0.1773903E-07  0.4011829E+04  0.7818609E-02  0.8002164E-01
        2   -1    0    0  501    0  0.00000000000E+00  0.00000000000E+00  0.17695897490E+04  0.17695897490E+04  0.25500000920E-02 0.  1.
       -2   -1    0    0    0  501  0.00000000000E+00  0.00000000000E+00 -0.22738000066E+04  0.22738000066E+04  0.25500000920E-02 0. -1.
    10030    2    1    2    0    0  0.00000000000E+00  0.00000000000E+00 -0.50421025763E+03  0.40433897556E+04  0.40118291006E+04 0.  0.
        3    1    3    3  502    0 -0.87764746065E+03 -0.14517756663E+04 -0.13309349732E+04  0.21562248407E+04  0.10100000352E+00 0. -1.
       -3    1    3    3    0  502  0.87764746065E+03  0.14517756663E+04  0.82672471558E+03  0.18871649149E+04  0.10100000352E+00 0.  1.
</event>
<event>
 5   0  0.1821433E-07  0.3887784E+04  0.7818609E-02  0.8027575E-01
       -2   -1    0    0    0  501  0.00000000000E+00  0.00000000000E+00  0.21438933529E+04  0.21438933529E+04  0.25500000920E-02 0. -1.
        2   -1    0    0  501    0  0.00000000000E+00  0.00000000000E+00 -0.17625485834E+04  0.17625485834E+04  0.25500000920E-02 0.  1.
    10030    2    1    2    0    0  0.00000000000E+00  0.00000000000E+00  0.38134476949E+03  0.39064419363E+04  0.38877840434E+04 0.  0.
        5    1    3    3  502    0  0.68934916244E+03 -0.17320775751E+04  0.74413257807E+03  0.20072494558E+04  0.46999998093E+01 0.  1.
       -5    1    3    3    0  502 -0.68934916244E+03  0.17320775751E+04 -0.36278780858E+03  0.18991924805E+04  0.46999998093E+01 0. -1.
</event>
<event>
 5   0  0.1773903E-07  0.3970203E+04  0.7818609E-02  0.8010585E-01
        2   -1    0    0  501    0  0.00000000000E+00  0.00000000000E+00  0.19257963559E+04  0.19257963559E+04  0.25500000920E-02 0. -1.
       -2   -1    0    0    0  501  0.00000000000E+00  0.00000000000E+00 -0.20462327241E+04  0.20462327241E+04  0.25500000920E-02 0.  1.
    10030    2    1    2    0    0  0.00000000000E+00  0.00000000000E+00 -0.12043636827E+03  0.39720290800E+04  0.39702027774E+04 0.  0.
        3    1    3    3  502    0 -0.18812124291E+04  0.63303500570E+03 -0.29642856336E+02  0.19850874618E+04  0.10100000352E+00 0. -1.
       -3    1    3    3    0  502  0.18812124291E+04 -0.63303500570E+03 -0.90793511933E+02  0.19869416182E+04  0.10100000352E+00 0.  1.
</event>
<event>
 5   0  0.5515000E-08  0.4071260E+04  0.7818609E-02  0.7990323E-01
        1   -1    0    0  501    0  0.00000000000E+00  0.00000000000E+00  0.12969647705E+04  0.12969647705E+04  0.50400001928E-02 0.  1.
       -1   -1    0    0    0  501  0.00000000000E+00  0.00000000000E+00 -0.31949896420E+04  0.31949896420E+04  0.50400001928E-02 0. -1.
    10030    2    1    2    0    0  0.00000000000E+00  0.00000000000E+00 -0.18980248715E+04  0.44919544125E+04  0.40712597597E+04 0.  0.
        5    1    3    3  502    0  0.11618793306E+04  0.10363297445E+03 -0.27896491853E+04  0.30237175859E+04  0.46999998093E+01 0. -1.
       -5    1    3    3    0  502 -0.11618793306E+04 -0.10363297445E+03  0.89162431375E+03  0.14682368266E+04  0.46999998093E+01 0.  1.
</event>
<event>
 5   0  0.1821433E-07  0.3997319E+04  0.7818609E-02  0.8005088E-01
       -2   -1    0    0    0  501  0.00000000000E+00  0.00000000000E+00  0.16623186525E+04  0.16623186525E+04  0.25500000920E-02 0. -1.
        2   -1    0    0  501    0  0.00000000000E+00  0.00000000000E+00 -0.24030525905E+04  0.24030525905E+04  0.25500000920E-02 0.  1.
    10030    2    1    2    0    0  0.00000000000E+00  0.00000000000E+00 -0.74073393794E+03  0.40653712430E+04  0.39973186734E+04 0.  0.
        5    1    3    3  502    0 -0.16554381309E+04  0.11185109377E+04 -0.42676307805E+03  0.20429613158E+04  0.46999998093E+01 0.  1.
       -5    1    3    3    0  502  0.16554381309E+04 -0.11185109377E+04 -0.31397085989E+03  0.20224099272E+04  0.46999998093E+01 0. -1.
</event>
<event>
 5   0  0.1785559E-07  0.4045674E+04  0.7818609E-02  0.7995395E-01
       -2   -1    0    0    0  501  0.00000000000E+00  0.00000000000E+00  0.14242708617E+04  0.14242708617E+04  0.25500000920E-02 0. -1.
        2   -1    0    0  501    0  0.00000000000E+00  0.00000000000E+00 -0.28729576267E+04  0.28729576267E+04  0.25500000920E-02 0.  1.
    10030    2    1    2    0    0  0.00000000000E+00  0.00000000000E+00 -0.14486867650E+04  0.42972284885E+04  0.40456741514E+04 0.  0.
        2    1    3    3  502    0  0.15603256954E+03  0.19415191612E+04 -0.13042063378E+04  0.23440983315E+04  0.25500000920E-02 0.  1.
       -2    1    3    3    0  502 -0.15603256954E+03 -0.19415191612E+04 -0.14448042726E+03  0.19531301570E+04  0.25500000920E-02 0. -1.
</event>
<event>
 5   0  0.1821433E-07  0.4093732E+04  0.7818609E-02  0.7985900E-01
        2   -1    0    0  501    0  0.00000000000E+00  0.00000000000E+00  0.16624032045E+04  0.16624032045E+04  0.25500000920E-02 0. -1.
       -2   -1    0    0    0  501  0.00000000000E+00  0.00000000000E+00 -0.25202430692E+04  0.25202430692E+04  0.25500000920E-02 0.  1.
    10030    2    1    2    0    0  0.00000000000E+00  0.00000000000E+00 -0.85783986470E+03  0.41826462738E+04  0.40937318693E+04 0.  0.
        5    1    3    3  502    0 -0.26335063924E+03 -0.20251106379E+04 -0.57053561769E+03  0.21203678068E+04  0.46999998093E+01 0.  1.
       -5    1    3    3    0  502  0.26335063924E+03  0.20251106379E+04 -0.28730424701E+03  0.20622784670E+04  0.46999998093E+01 0. -1.
</event>
<event>
 5   0  0.5515000E-08  0.3956455E+04  0.7818609E-02  0.8013389E-01
        1   -1    0    0  501    0  0.00000000000E+00  0.00000000000E+00  0.28144582739E+04  0.28144582739E+04  0.50400001928E-02 0.  1.
       -1   -1    0    0    0  501  0.00000000000E+00  0.00000000000E+00 -0.13904569817E+04  0.13904569817E+04  0.50400001928E-02 0. -1.
    10030    2    1    2    0    0  0.00000000000E+00  0.00000000000E+00  0.14240012922E+04  0.42049152556E+04  0.39564545526E+04 0.  0.
        1    1    3    3  502    0 -0.80998620580E+03  0.14812538207E+04  0.18078656125E+04  0.24735740554E+04  0.50400001928E-02 0.  1.
       -1    1    3    3    0  502  0.80998620580E+03 -0.14812538207E+04 -0.38386432022E+03  0.17313412002E+04  0.50400001928E-02 0. -1.
</event>
<event>
 5   0  0.1785559E-07  0.4098451E+04  0.7818609E-02  0.7984975E-01
       -2   -1    0    0    0  501  0.00000000000E+00  0.00000000000E+00  0.17644215837E+04  0.17644215837E+04  0.25500000920E-02 0. -1.
        2   -1    0    0  501    0  0.00000000000E+00  0.00000000000E+00 -0.23800013396E+04  0.23800013396E+04  0.25500000920E-02 0.  1.
    10030    2    1    2    0    0  0.00000000000E+00  0.00000000000E+00 -0.61557975589E+03  0.41444229232E+04  0.40984512844E+04 0.  0.
        2    1    3    3  502    0  0.73954975419E+03 -0.18969744998E+04 -0.54251341214E+03  0.21070754363E+04  0.25500000920E-02 0.  1.
       -2    1    3    3    0  502 -0.73954975419E+03  0.18969744998E+04 -0.73066343754E+02  0.20373474869E+04  0.25500000920E-02 0. -1.
</event>
<event>
 5   0  0.5515000E-08  0.3987436E+04  0.7818609E-02  0.8007086E-01
       -1   -1    0    0    0  501  0.00000000000E+00  0.00000000000E+00  0.15191075255E+04  0.15191075255E+04  0.50400001928E-02 0.  1.
        1   -1    0    0  501    0  0.00000000000E+00  0.00000000000E+00 -0.26166099533E+04  0.26166099533E+04  0.50400001928E-02 0. -1.
    10030    2    1    2    0    0  0.00000000000E+00  0.00000000000E+00 -0.10975024278E+04  0.41357174788E+04  0.39874362046E+04 0.  0.
        5    1    3    3  502    0  0.13962157874E+04 -0.14216471570E+04 -0.61747703125E+03  0.20860966272E+04  0.46999998093E+01 0.  1.
       -5    1    3    3    0  502 -0.13962157874E+04  0.14216471570E+04 -0.48002539659E+03  0.20496208516E+04  0.46999998093E+01 0. -1.
</event>
<event>
 5   0  0.5515000E-08  0.3910638E+04  0.7818609E-02  0.8022820E-01
       -1   -1    0    0    0  501  0.00000000000E+00  0.00000000000E+00  0.22742184377E+04  0.22742184378E+04  0.50400001928E-02 0. -1.
        1   -1    0    0  501    0  0.00000000000E+00  0.00000000000E+00 -0.16811366023E+04  0.16811366023E+04  0.50400001928E-02 0.  1.
    10030    2    1    2    0    0  0.00000000000E+00  0.00000000000E+00  0.59308183550E+03  0.39553550400E+04  0.39106377266E+04 0.  0.
        5    1    3    3  502    0 -0.19841951159E+03  0.19388921646E+04  0.45510292292E+03  0.20014529445E+04  0.46999998093E+01 0.  1.
       -5    1    3    3    0  502  0.19841951159E+03 -0.19388921646E+04  0.13797891257E+03  0.19539020955E+04  0.46999998093E+01 0. -1.
</event>
<event>
 5   0  0.1776653E-07  0.4000258E+04  0.7818609E-02  0.8004495E-01
        2   -1    0    0  501    0  0.00000000000E+00  0.00000000000E+00  0.16828797014E+04  0.16828797014E+04  0.25500000920E-02 0. -1.
       -2   -1    0    0    0  501  0.00000000000E+00  0.00000000000E+00 -0.23771846944E+04  0.23771846944E+04  0.25500000920E-02 0.  1.
    10030    2    1    2    0    0  0.00000000000E+00  0.00000000000E+00 -0.69430499303E+03  0.40600643958E+04  0.40002579260E+04 0.  0.
        4    1    3    3  502    0  0.23113198526E+03  0.12594198446E+04  0.12123593658E+04  0.17633426169E+04  0.12699999809E+01 0. -1.
       -4    1    3    3    0  502 -0.23113198526E+03 -0.12594198446E+04 -0.19066643589E+04  0.22967217789E+04  0.12699999809E+01 0.  1.
</event>
<event>
 5   0  0.5515000E-08  0.4027087E+04  0.7818609E-02  0.7999104E-01
       -1   -1    0    0    0  501  0.00000000000E+00  0.00000000000E+00  0.13058962303E+04  0.13058962303E+04  0.50400001928E-02 0. -1.
        1   -1    0    0  501    0  0.00000000000E+00  0.00000000000E+00 -0.31046555349E+04  0.31046555349E+04  0.50400001928E-02 0.  1.
    10030    2    1    2    0    0  0.00000000000E+00  0.00000000000E+00 -0.17987593047E+04  0.44105517652E+04  0.40270872647E+04 0.  0.
        5    1    3    3  502    0  0.87980846999E+03  0.16634629943E+04 -0.16839463792E+04  0.25252464385E+04  0.46999998093E+01 0.  1.
       -5    1    3    3    0  502 -0.87980846999E+03 -0.16634629943E+04 -0.11481292544E+03  0.18853053267E+04  0.46999998093E+01 0. -1.
</event>
<event>
 5   0  0.5515000E-08  0.3974744E+04  0.7818609E-02  0.8009661E-01
       -1   -1    0    0    0  501  0.00000000000E+00  0.00000000000E+00  0.26371638121E+04  0.26371638121E+04  0.50400001928E-02 0.  1.
        1   -1    0    0  501    0  0.00000000000E+00  0.00000000000E+00 -0.14976878226E+04  0.14976878226E+04  0.50400001928E-02 0. -1.
    10030    2    1    2    0    0  0.00000000000E+00  0.00000000000E+00  0.11394759895E+04  0.41348516347E+04  0.39747443327E+04 0.  0.
        1    1    3    3  502    0  0.74852006167E+03 -0.46429577214E+03  0.24230143598E+04  0.25781488388E+04  0.50400001928E-02 0.  1.
       -1    1    3    3    0  502 -0.74852006167E+03  0.46429577214E+03 -0.12835383703E+04  0.15567027959E+04  0.50400001928E-02 0. -1.
</event>
<event>
 5   0  0.5515000E-08  0.3421637E+04  0.7818609E-02  0.8132616E-01
       -1   -1    0    0    0  501  0.00000000000E+00  0.00000000000E+00  0.12497678094E+04  0.12497678094E+04  0.50400001928E-02 0.  1.
        1   -1    0    0  501    0  0.00000000000E+00  0.00000000000E+00 -0.23419555651E+04  0.23419555651E+04  0.50400001928E-02 0. -1.
    10030    2    1    2    0    0  0.00000000000E+00  0.00000000000E+00 -0.10921877557E+04  0.35917233744E+04  0.34216374303E+04 0.  0.
        5    1    3    3  502    0 -0.34853426365E+03 -0.16590326569E+04 -0.30440287763E+03  0.17223671768E+04  0.46999998093E+01 0.  1.
       -5    1    3    3    0  502  0.34853426365E+03  0.16590326569E+04 -0.78778487807E+03  0.18693561977E+04  0.46999998093E+01 0. -1.
</event>
<event>
 5   0  0.1821433E-07  0.4031617E+04  0.7818609E-02  0.7998199E-01
       -2   -1    0    0    0  501  0.00000000000E+00  0.00000000000E+00  0.21911049068E+04  0.21911049068E+04  0.25500000920E-02 0. -1.
        2   -1    0    0  501    0  0.00000000000E+00  0.00000000000E+00 -0.18545366126E+04  0.18545366126E+04  0.25500000920E-02 0.  1.
    10030    2    1    2    0    0  0.00000000000E+00  0.00000000000E+00  0.33656829422E+03  0.40456415194E+04  0.40316171801E+04 0.  0.
        5    1    3    3  502    0 -0.17749404439E+03 -0.69180762926E+03  0.20598772872E+04  0.21801877121E+04  0.46999998093E+01 0. -1.
       -5    1    3    3    0  502  0.17749404439E+03  0.69180762926E+03 -0.17233089930E+04  0.18654538073E+04  0.46999998093E+01 0.  1.
</event>
<event>
 5   0  0.5515000E-08  0.3971109E+04  0.7818609E-02  0.8010400E-01
        1   -1    0    0  501    0  0.00000000000E+00  0.00000000000E+00  0.21411331770E+04  0.21411331770E+04  0.50400001928E-02 0.  1.
       -1   -1    0    0    0  501  0.00000000000E+00  0.00000000000E+00 -0.18412803925E+04  0.18412803925E+04  0.50400001928E-02 0. -1.
    10030    2    1    2    0    0  0.00000000000E+00  0.00000000000E+00  0.29985278452E+03  0.39824135695E+04  0.39711089315E+04 0.  0.
        1    1    3    3  502    0 -0.80023562432E+03  0.67680674280E+03  0.18411381494E+04  0.21185452808E+04  0.50400001928E-02 0.  1.
       -1    1    3    3    0  502  0.80023562432E+03 -0.67680674280E+03 -0.15412853649E+04  0.18638682887E+04  0.50400001928E-02 0. -1.
</event>
<event>
 5   0  0.1821433E-07  0.3874165E+04  0.7818609E-02  0.8030424E-01
        2   -1    0    0  501    0  0.00000000000E+00  0.00000000000E+00  0.12911182644E+04  0.12911182644E+04  0.25500000920E-02 0. -1.
       -2   -1    0    0    0  501  0.00000000000E+00  0.00000000000E+00 -0.29062311129E+04  0.29062311129E+04  0.25500000920E-02 0.  1.
    10030    2    1    2    0    0  0.00000000000E+00  0.00000000000E+00 -0.16151128484E+04  0.41973493773E+04  0.38741647206E+04 0.  0.
        5    1    3    3  502    0 -0.10152032158E+04  0.34108812083E+03 -0.25562948376E+04  0.27715779012E+04  0.46999998093E+01 0.  1.
       -5    1    3    3    0  502  0.10152032158E+04 -0.34108812083E+03  0.94118198918E+03  0.14257714762E+04  0.46999998093E+01 0. -1.
</event>
<event>
 5   0  0.5515000E-08  0.3995655E+04  0.7818609E-02  0.8005424E-01
        1   -1    0    0  501    0  0.00000000000E+00  0.00000000000E+00  0.13397444967E+04  0.13397444967E+04  0.50400001928E-02 0. -1.
       -1   -1    0    0    0  501  0.00000000000E+00  0.00000000000E+00 -0.29791617504E+04  0.29791617504E+04  0.50400001928E-02 0.  1.
    10030    2    1    2    0    0  0.00000000000E+00  0.00000000000E+00 -0.16394172537E+04  0.43189062471E+04  0.39956554206E+04 0.  0.
        5    1    3    3  502    0 -0.10533110911E+04 -0.41042635419E+03 -0.26002046666E+04  0.28353131123E+04  0.46999998093E+01 0.  1.
       -5    1    3    3    0  502  0.10533110911E+04  0.41042635419E+03  0.96078741290E+03  0.14835931348E+04  0.46999998093E+01 0. -1.
</event>
<event>
 5   0  0.1776653E-07  0.4003233E+04  0.7818609E-02  0.8003895E-01
       -2   -1    0    0    0  501  0.00000000000E+00  0.00000000000E+00  0.20220081633E+04  0.20220081633E+04  0.25500000920E-02 0. -1.
        2   -1    0    0  501    0  0.00000000000E+00  0.00000000000E+00 -0.19814304547E+04  0.19814304547E+04  0.25500000920E-02 0.  1.
    10030    2    1    2    0    0  0.00000000000E+00  0.00000000000E+00  0.40577708533E+02  0.40034386180E+04  0.40032329707E+04 0.  0.
        4    1    3    3  502    0 -0.96810266312E+03 -0.11827998104E+04  0.13127285583E+04  0.20148191081E+04  0.12699999809E+01 0. -1.
       -4    1    3    3    0  502  0.96810266312E+03  0.11827998104E+04 -0.12721508498E+04  0.19886195099E+04  0.12699999809E+01 0.  1.
</event>
<event>
 5   0  0.5515000E-08  0.4014899E+04  0.7818609E-02  0.8001548E-01
        1   -1    0    0  501    0  0.00000000000E+00  0.00000000000E+00  0.15468411055E+04  0.15468411055E+04  0.50400001928E-02 0.  1.
       -1   -1    0    0    0  501  0.00000000000E+00  0.00000000000E+00 -0.26052144477E+04  0.26052144477E+04  0.50400001928E-02 0. -1.
    10030    2    1    2    0    0  0.00000000000E+00  0.00000000000E+00 -0.10583733422E+04  0.41520555532E+04  0.40148986519E+04 0.  0.
        4    1    3    3  502    0  0.21402137281E+03  0.19629404984E+04 -0.15501058025E+03  0.19806489950E+04  0.12699999809E+01 0.  1.
       -4    1    3    3    0  502 -0.21402137281E+03 -0.19629404984E+04 -0.90336276195E+03  0.21714065582E+04  0.12699999809E+01 0. -1.
</event>
<event>
 5   0  0.5515000E-08  0.4014328E+04  0.7818609E-02  0.8001662E-01
       -1   -1    0    0    0  501  0.00000000000E+00  0.00000000000E+00  0.23212883583E+04  0.23212883583E+04  0.50400001928E-02 0.  1.
        1   -1    0    0  501    0  0.00000000000E+00  0.00000000000E+00 -0.17355478487E+04  0.17355478487E+04  0.50400001928E-02 0. -1.
    10030    2    1    2    0    0  0.00000000000E+00  0.00000000000E+00  0.58574050962E+03  0.40568362070E+04  0.40143278474E+04 0.  0.
        2    1    3    3  502    0 -0.31230094155E+03  0.15904206422E+04 -0.90361666018E+03  0.18556650468E+04  0.25500000920E-02 0. -1.
       -2    1    3    3    0  502  0.31230094155E+03 -0.15904206422E+04  0.14893571698E+04  0.22011711602E+04  0.25500000920E-02 0.  1.
</event>
<event>
 5   0  0.5515000E-08  0.4094523E+04  0.7818609E-02  0.7985745E-01
        1   -1    0    0  501    0  0.00000000000E+00  0.00000000000E+00  0.14306274334E+04  0.14306274334E+04  0.50400001928E-02 0. -1.
       -1   -1    0    0    0  501  0.00000000000E+00  0.00000000000E+00 -0.29296796827E+04  0.29296796827E+04  0.50400001928E-02 0.  1.
    10030    2    1    2    0    0  0.00000000000E+00  0.00000000000E+00 -0.14990522493E+04  0.43603071161E+04  0.40945232324E+04 0.  0.
        3    1    3    3  502    0 -0.14921360585E+04  0.12610627220E+04 -0.14012409076E+04  0.24042099113E+04  0.10100000352E+00 0.  1.
       -3    1    3    3    0  502  0.14921360585E+04 -0.12610627220E+04 -0.97811341657E+02  0.19560972048E+04  0.10100000352E+00 0. -1.
</event>
<event>
 5   0  0.1773903E-07  0.3996117E+04  0.7818609E-02  0.8005330E-01
       -2   -1    0    0    0  501  0.00000000000E+00  0.00000000000E+00  0.30839339155E+04  0.30839339155E+04  0.25500000920E-02 0. -1.
        2   -1    0    0  501    0  0.00000000000E+00  0.00000000000E+00 -0.12945274181E+04  0.12945274181E+04  0.25500000920E-02 0.  1.
    10030    2    1    2    0    0  0.00000000000E+00  0.00000000000E+00  0.17894064974E+04  0.43784613336E+04  0.39961166195E+04 0.  0.
        3    1    3    3  502    0 -0.57669643137E+03  0.16305475547E+04 -0.20150868112E+03  0.17412265393E+04  0.10100000352E+00 0.  1.
       -3    1    3    3    0  502  0.57669643137E+03 -0.16305475547E+04  0.19909151786E+04  0.26372347944E+04  0.10100000352E+00 0. -1.
</event>
<event>
 5   0  0.5515000E-08  0.3934035E+04  0.7818609E-02  0.8017988E-01
       -1   -1    0    0    0  501  0.00000000000E+00  0.00000000000E+00  0.14995465474E+04  0.14995465474E+04  0.50400001928E-02 0. -1.
        1   -1    0    0  501    0  0.00000000000E+00  0.00000000000E+00 -0.25802186677E+04  0.25802186677E+04  0.50400001928E-02 0.  1.
    10030    2    1    2    0    0  0.00000000000E+00  0.00000000000E+00 -0.10806721203E+04  0.40797652151E+04  0.39340350760E+04 0.  0.
        2    1    3    3  502    0 -0.41305020997E+03 -0.12447736928E+04  0.97994483428E+03  0.16371816944E+04  0.25500000920E-02 0. -1.
       -2    1    3    3    0  502  0.41305020997E+03  0.12447736928E+04 -0.20606169546E+04  0.24425835207E+04  0.25500000920E-02 0.  1.
</event>
<event>
 5   0  0.5515000E-08  0.4017009E+04  0.7818609E-02  0.8001124E-01
        1   -1    0    0  501    0  0.00000000000E+00  0.00000000000E+00  0.25165296097E+04  0.25165296097E+04  0.50400001928E-02 0. -1.
       -1   -1    0    0    0  501  0.00000000000E+00  0.00000000000E+00 -0.16030372271E+04  0.16030372271E+04  0.50400001928E-02 0.  1.
    10030    2    1    2    0    0  0.00000000000E+00  0.00000000000E+00  0.91349238260E+03  0.41195668369E+04  0.40170091599E+04 0.  0.
        4    1    3    3  502    0 -0.53486904519E+03 -0.11490260848E+04 -0.11411556754E+04  0.17054570436E+04  0.12699999809E+01 0.  1.
       -4    1    3    3    0  502  0.53486904519E+03  0.11490260848E+04  0.20546480580E+04  0.24141097933E+04  0.12699999809E+01 0. -1.
</event>
<event>
 5   0  0.1821433E-07  0.4011745E+04  0.7818609E-02  0.8002181E-01
        2   -1    0    0  501    0  0.00000000000E+00  0.00000000000E+00  0.27247154539E+04  0.27247154539E+04  0.25500000920E-02 0.  1.
       -2   -1    0    0    0  501  0.00000000000E+00  0.00000000000E+00 -0.14766771794E+04  0.14766771794E+04  0.25500000920E-02 0. -1.
    10030    2    1    2    0    0  0.00000000000E+00  0.00000000000E+00  0.12480382745E+04  0.42013926333E+04  0.40117453215E+04 0.  0.
        5    1    3    3  502    0 -0.10839709854E+04  0.13051753369E+04 -0.49662528119E+03  0.17678049998E+04  0.46999998093E+01 0. -1.
       -5    1    3    3    0  502  0.10839709854E+04 -0.13051753369E+04  0.17446635557E+04  0.24335876335E+04  0.46999998093E+01 0.  1.
</event>
<event>
 5   0  0.1776653E-07  0.4000701E+04  0.7818609E-02  0.8004405E-01
       -2   -1    0    0    0  501  0.00000000000E+00  0.00000000000E+00  0.30062158488E+04  0.30062158488E+04  0.25500000920E-02 0. -1.
        2   -1    0    0  501    0  0.00000000000E+00  0.00000000000E+00 -0.13310431399E+04  0.13310431399E+04  0.25500000920E-02 0.  1.
    10030    2    1    2    0    0  0.00000000000E+00  0.00000000000E+00  0.16751727089E+04  0.43372589887E+04  0.40007014298E+04 0.  0.
        4    1    3    3  502    0  0.97133423029E+02  0.31397531051E+03  0.29767447540E+04  0.29948332743E+04  0.12699999809E+01 0. -1.
       -4    1    3    3    0  502 -0.97133423029E+02 -0.31397531051E+03 -0.13015720450E+04  0.13424257144E+04  0.12699999809E+01 0.  1.
</event>
<event>
 5   0  0.5515000E-08  0.3983849E+04  0.7818609E-02  0.8007813E-01
        1   -1    0    0  501    0  0.00000000000E+00  0.00000000000E+00  0.22758656376E+04  0.22758656376E+04  0.50400001928E-02 0. -1.
       -1   -1    0    0    0  501  0.00000000000E+00  0.00000000000E+00 -0.17434086997E+04  0.17434086997E+04  0.50400001928E-02 0.  1.
    10030    2    1    2    0    0  0.00000000000E+00  0.00000000000E+00  0.53245693794E+03  0.40192743373E+04  0.39838493706E+04 0.  0.
        2    1    3    3  502    0  0.18872809478E+04 -0.63045561880E+03  0.35902619433E+03  0.20219306297E+04  0.25500000920E-02 0. -1.
       -2    1    3    3    0  502 -0.18872809478E+04  0.63045561880E+03  0.17343074361E+03  0.19973437075E+04  0.25500000920E-02 0.  1.
</event>
<event>
 5   0  0.5515000E-08  0.4008404E+04  0.7818609E-02  0.8002853E-01
        1   -1    0    0  501    0  0.00000000000E+00  0.00000000000E+00  0.24394482575E+04  0.24394482575E+04  0.50400001928E-02 0. -1.
       -1   -1    0    0    0  501  0.00000000000E+00  0.00000000000E+00 -0.16466121589E+04  0.16466121590E+04  0.50400001928E-02 0.  1.
    10030    2    1    2    0    0  0.00000000000E+00  0.00000000000E+00  0.79283609855E+03  0.40860604165E+04  0.40084037531E+04 0.  0.
        3    1    3    3  502    0  0.16460382770E+04  0.87353428614E+03 -0.35565645471E+03  0.18971019167E+04  0.10100000352E+00 0.  1.
       -3    1    3    3    0  502 -0.16460382770E+04 -0.87353428614E+03  0.11484925533E+04  0.21889584997E+04  0.10100000352E+00 0. -1.
</event>
<event>
 5   0  0.5515000E-08  0.4004179E+04  0.7818609E-02  0.8003704E-01
        1   -1    0    0  501    0  0.00000000000E+00  0.00000000000E+00  0.28463491169E+04  0.28463491169E+04  0.50400001928E-02 0.  1.
       -1   -1    0    0    0  501  0.00000000000E+00  0.00000000000E+00 -0.14082472601E+04  0.14082472601E+04  0.50400001928E-02 0. -1.
    10030    2    1    2    0    0  0.00000000000E+00  0.00000000000E+00  0.14381018568E+04  0.42545963770E+04  0.40041794891E+04 0.  0.
        5    1    3    3  502    0  0.19577136848E+04  0.23099890868E+03  0.34740847515E+03  0.20016788219E+04  0.46999998093E+01 0. -1.
       -5    1    3    3    0  502 -0.19577136848E+04 -0.23099890868E+03  0.10906933816E+04  0.22529175551E+04  0.46999998093E+01 0.  1.
</event>
<event>
 5   0  0.1785559E-07  0.4003993E+04  0.7818609E-02  0.8003742E-01
        2   -1    0    0  501    0  0.00000000000E+00  0.00000000000E+00  0.19813579376E+04  0.19813579377E+04  0.25500000920E-02 0. -1.
       -2   -1    0    0    0  501  0.00000000000E+00  0.00000000000E+00 -0.20228497196E+04  0.20228497196E+04  0.25500000920E-02 0.  1.
    10030    2    1    2    0    0  0.00000000000E+00  0.00000000000E+00 -0.41491781929E+02  0.40042076572E+04  0.40039926816E+04 0.  0.
        2    1    3    3  502    0  0.74891148347E+03 -0.30729876760E+03  0.18103872089E+04  0.19831295441E+04  0.25500000920E-02 0. -1.
       -2    1    3    3    0  502 -0.74891148347E+03  0.30729876760E+03 -0.18518789908E+04  0.20210781131E+04  0.25500000920E-02 0.  1.
</event>
<event>
 5   0  0.5515000E-08  0.4122942E+04  0.7818609E-02  0.7980194E-01
        1   -1    0    0  501    0  0.00000000000E+00  0.00000000000E+00  0.27216134317E+04  0.27216134317E+04  0.50400001928E-02 0.  1.
       -1   -1    0    0    0  501  0.00000000000E+00  0.00000000000E+00 -0.15614499138E+04  0.15614499138E+04  0.50400001928E-02 0. -1.
    10030    2    1    2    0    0  0.00000000000E+00  0.00000000000E+00  0.11601635178E+04  0.42830633455E+04  0.41229421816E+04 0.  0.
        3    1    3    3  502    0 -0.40633057956E+03  0.98506953762E+00  0.26796005315E+04  0.27102332978E+04  0.10100000352E+00 0.  1.
       -3    1    3    3    0  502  0.40633057956E+03 -0.98506953762E+00 -0.15194370136E+04  0.15728300476E+04  0.10100000352E+00 0. -1.
</event>
<event>
 5   0  0.1821433E-07  0.3820306E+04  0.7818609E-02  0.8041811E-01
       -2   -1    0    0    0  501  0.00000000000E+00  0.00000000000E+00  0.15103737722E+04  0.15103737722E+04  0.25500000920E-02 0. -1.
        2   -1    0    0  501    0  0.00000000000E+00  0.00000000000E+00 -0.24157491275E+04  0.24157491275E+04  0.25500000920E-02 0.  1.
    10030    2    1    2    0    0  0.00000000000E+00  0.00000000000E+00 -0.90537535524E+03  0.39261228997E+04  0.38203058110E+04 0.  0.
        5    1    3    3  502    0 -0.10141355443E+03  0.46774104864E+01  0.15075932907E+04  0.15110149594E+04  0.46999998093E+01 0. -1.
       -5    1    3    3    0  502  0.10141355443E+03 -0.46774104864E+01 -0.24129686459E+04  0.24151079403E+04  0.46999998093E+01 0.  1.
</event>
<event>
 5   0  0.5515000E-08  0.3991126E+04  0.7818609E-02  0.8006339E-01
       -1   -1    0    0    0  501  0.00000000000E+00  0.00000000000E+00  0.24261751304E+04  0.24261751304E+04  0.50400001928E-02 0. -1.
        1   -1    0    0  501    0  0.00000000000E+00  0.00000000000E+00 -0.16413788359E+04  0.16413788360E+04  0.50400001928E-02 0.  1.
    10030    2    1    2    0    0  0.00000000000E+00  0.00000000000E+00  0.78479629443E+03  0.40675539663E+04  0.39911264131E+04 0.  0.
        3    1    3    3  502    0 -0.96410551395E+03  0.41133703641E+03  0.21230250812E+04  0.23676851786E+04  0.10100000352E+00 0. -1.
       -3    1    3    3    0  502  0.96410551395E+03 -0.41133703641E+03 -0.13382287867E+04  0.16998687877E+04  0.10100000352E+00 0.  1.
</event>
<event>
 5   0  0.1785559E-07  0.4002269E+04  0.7818609E-02  0.8004089E-01
        2   -1    0    0  501    0  0.00000000000E+00  0.00000000000E+00  0.19211960816E+04  0.19211960816E+04  0.25500000920E-02 0.  1.
       -2   -1    0    0    0  501  0.00000000000E+00  0.00000000000E+00 -0.20843987370E+04  0.20843987370E+04  0.25500000920E-02 0. -1.
    10030    2    1    2    0    0  0.00000000000E+00  0.00000000000E+00 -0.16320265535E+03  0.40055948186E+04  0.40022686996E+04 0.  0.
        2    1    3    3  502    0 -0.11993529376E+04 -0.13635730944E+04  0.75978730929E+03  0.19685161437E+04  0.25500000920E-02 0.  1.
       -2    1    3    3    0  502  0.11993529376E+04  0.13635730944E+04 -0.92298996464E+03  0.20370786749E+04  0.25500000920E-02 0. -1.
</event>
<event>
 5   0  0.1821433E-07  0.3955505E+04  0.7818609E-02  0.8013583E-01
        2   -1    0    0  501    0  0.00000000000E+00  0.00000000000E+00  0.19141184670E+04  0.19141184670E+04  0.25500000920E-02 0.  1.
       -2   -1    0    0    0  501  0.00000000000E+00  0.00000000000E+00 -0.20435021292E+04  0.20435021292E+04  0.25500000920E-02 0. -1.
    10030    2    1    2    0    0  0.00000000000E+00  0.00000000000E+00 -0.12938366222E+03  0.39576205962E+04  0.39555051070E+04 0.  0.
        5    1    3    3  502    0 -0.16356397443E+04 -0.22706612105E+03  0.10242866450E+04  0.19432091029E+04  0.46999998093E+01 0.  1.
       -5    1    3    3    0  502  0.16356397443E+04  0.22706612105E+03 -0.11536703072E+04  0.20144114933E+04  0.46999998093E+01 0. -1.
</event>
<event>
 5   0  0.5515000E-08  0.4039125E+04  0.7818609E-02  0.7996700E-01
        1   -1    0    0  501    0  0.00000000000E+00  0.00000000000E+00  0.18453225619E+04  0.18453225619E+04  0.50400001928E-02 0. -1.
       -1   -1    0    0    0  501  0.00000000000E+00  0.00000000000E+00 -0.22102551156E+04  0.22102551156E+04  0.50400001928E-02 0.  1.
    10030    2    1    2    0    0  0.00000000000E+00  0.00000000000E+00 -0.36493255374E+03  0.40555776775E+04  0.40391254659E+04 0.  0.
        3    1    3    3  502    0 -0.78447658084E+03  0.17666202231E+04  0.40496641313E+03  0.19749299543E+04  0.10100000352E+00 0. -1.
       -3    1    3    3    0  502  0.78447658084E+03 -0.17666202231E+04 -0.76989896688E+03  0.20806477232E+04  0.10100000352E+00 0.  1.
</event>
<event>
 5   0  0.5515000E-08  0.3887366E+04  0.7818609E-02  0.8027662E-01
        1   -1    0    0  501    0  0.00000000000E+00  0.00000000000E+00  0.21817365507E+04  0.21817365507E+04  0.50400001928E-02 0.  1.
       -1   -1    0    0    0  501  0.00000000000E+00  0.00000000000E+00 -0.17316035260E+04  0.17316035260E+04  0.50400001928E-02 0. -1.
    10030    2    1    2    0    0  0.00000000000E+00  0.00000000000E+00  0.45013302476E+03  0.39133400767E+04  0.38873655367E+04 0.  0.
        4    1    3    3  502    0  0.52590619993E+03  0.40745986289E+03  0.20635497583E+04  0.21681420823E+04  0.12699999809E+01 0.  1.
       -4    1    3    3    0  502 -0.52590619993E+03 -0.40745986289E+03 -0.16134167335E+04  0.17451979945E+04  0.12699999809E+01 0. -1.
</event>
<event>
 5   0  0.1773903E-07  0.3960043E+04  0.7818609E-02  0.8012656E-01
       -2   -1    0    0    0  501  0.00000000000E+00  0.00000000000E+00  0.13428935973E+04  0.13428935973E+04  0.25500000920E-02 0.  1.
        2   -1    0    0  501    0  0.00000000000E+00  0.00000000000E+00 -0.29194308369E+04  0.29194308369E+04  0.25500000920E-02 0. -1.
    10030    2    1    2    0    0  0.00000000000E+00  0.00000000000E+00 -0.15765372396E+04  0.42623244342E+04  0.39600429182E+04 0.  0.
        3    1    3    3  502    0 -0.71529808844E+02  0.52609040798E+03 -0.28413851973E+04  0.28905635230E+04  0.10100000352E+00 0. -1.
       -3    1    3    3    0  502  0.71529808844E+02 -0.52609040798E+03  0.12648479577E+04  0.13717609111E+04  0.10100000352E+00 0.  1.
</event>
<event>
 5   0  0.5515000E-08  0.3991393E+04  0.7818609E-02  0.8006285E-01
        1   -1    0    0  501    0  0.00000000000E+00  0.00000000000E+00  0.24445601298E+04  0.24445601298E+04  0.50400001928E-02 0. -1.
       -1   -1    0    0    0  501  0.00000000000E+00  0.00000000000E+00 -0.16292517521E+04  0.16292517521E+04  0.50400001928E-02 0.  1.
    10030    2    1    2    0    0  0.00000000000E+00  0.00000000000E+00  0.81530837768E+03  0.40738118820E+04  0.39913926766E+04 0.  0.
        5    1    3    3  502    0 -0.62049105882E+03 -0.57553013382E+03  0.22523312681E+04  0.24060885936E+04  0.46999998093E+01 0. -1.
       -5    1    3    3    0  502  0.62049105882E+03  0.57553013382E+03 -0.14370228904E+04  0.16677232884E+04  0.46999998093E+01 0.  1.
</event>
<event>
 5   0  0.1819906E-07  0.4045792E+04  0.7818609E-02  0.7995372E-01
        2   -1    0    0  501    0  0.00000000000E+00  0.00000000000E+00  0.21723564904E+04  0.21723564904E+04  0.25500000920E-02 0. -1.
       -2   -1    0    0    0  501  0.00000000000E+00  0.00000000000E+00 -0.18837182438E+04  0.18837182438E+04  0.25500000920E-02 0.  1.
    10030    2    1    2    0    0  0.00000000000E+00  0.00000000000E+00  0.28863824660E+03  0.40560747341E+04  0.40457916668E+04 0.  0.
        1    1    3    3  502    0  0.30761240125E+03 -0.15332326462E+04 -0.11421726517E+04  0.19364880849E+04  0.50400001928E-02 0.  1.
       -1    1    3    3    0  502 -0.30761240125E+03  0.15332326462E+04  0.14308108983E+04  0.21195866492E+04  0.50400001928E-02 0. -1.
</event>
<event>
 5   0  0.5515000E-08  0.3974008E+04  0.7818609E-02  0.8009811E-01
        1   -1    0    0  501    0  0.00000000000E+00  0.00000000000E+00  0.19642035165E+04  0.19642035166E+04  0.50400001928E-02 0. -1.
       -1   -1    0    0    0  501  0.00000000000E+00  0.00000000000E+00 -0.20100689752E+04  0.20100689752E+04  0.50400001928E-02 0.  1.
    10030    2    1    2    0    0  0.00000000000E+00  0.00000000000E+00 -0.45865458686E+02  0.39742724918E+04  0.39740078257E+04 0.  0.
        1    1    3    3  502    0 -0.10092614072E+04  0.14266112968E+03 -0.17286910009E+04  0.20068217067E+04  0.50400001928E-02 0.  1.
       -1    1    3    3    0  502  0.10092614072E+04 -0.14266112968E+03  0.16828255422E+04  0.19674507851E+04  0.50400001928E-02 0. -1.
</event>
<event>
 5   0  0.1785559E-07  0.3839258E+04  0.7818609E-02  0.8037782E-01
        2   -1    0    0  501    0  0.00000000000E+00  0.00000000000E+00  0.17529271994E+04  0.17529271994E+04  0.25500000920E-02 0. -1.
       -2   -1    0    0    0  501  0.00000000000E+00  0.00000000000E+00 -0.21021834659E+04  0.21021834659E+04  0.25500000920E-02 0.  1.
    10030    2    1    2    0    0  0.00000000000E+00  0.00000000000E+00 -0.34925626652E+03  0.38551106653E+04  0.38392575196E+04 0.  0.
        2    1    3    3  502    0  0.52378392710E+03 -0.27503757751E+03  0.16591051912E+04  0.17614270654E+04  0.25500000920E-02 0. -1.
       -2    1    3    3    0  502 -0.52378392710E+03  0.27503757751E+03 -0.20083614577E+04  0.20936835998E+04  0.25500000920E-02 0.  1.
</event>
<event>
 5   0  0.5515000E-08  0.4003957E+04  0.7818609E-02  0.8003749E-01
       -1   -1    0    0    0  501  0.00000000000E+00  0.00000000000E+00  0.14804848618E+04  0.14804848619E+04  0.50400001928E-02 0.  1.
        1   -1    0    0  501    0  0.00000000000E+00  0.00000000000E+00 -0.27071660320E+04  0.27071660320E+04  0.50400001928E-02 0. -1.
    10030    2    1    2    0    0  0.00000000000E+00  0.00000000000E+00 -0.12266811701E+04  0.41876508938E+04  0.40039572070E+04 0.  0.
        3    1    3    3  502    0 -0.18081958139E+04 -0.24620405994E+03  0.24767165651E+03  0.18416106538E+04  0.10100000352E+00 0.  1.
       -3    1    3    3    0  502  0.18081958139E+04  0.24620405994E+03 -0.14743528266E+04  0.23460402401E+04  0.10100000352E+00 0. -1.
</event>
<event>
 5   0  0.1776653E-07  0.3991399E+04  0.7818609E-02  0.8006284E-01
       -2   -1    0    0    0  501  0.00000000000E+00  0.00000000000E+00  0.15915416767E+04  0.15915416767E+04  0.25500000920E-02 0. -1.
        2   -1    0    0  501    0  0.00000000000E+00  0.00000000000E+00 -0.25024898274E+04  0.25024898274E+04  0.25500000920E-02 0.  1.
    10030    2    1    2    0    0  0.00000000000E+00  0.00000000000E+00 -0.91094815070E+03  0.40940315041E+04  0.39913991811E+04 0.  0.
        4    1    3    3  502    0  0.67955103631E+03 -0.72793450126E+03 -0.22294354867E+04  0.24417334931E+04  0.12699999809E+01 0.  1.
       -4    1    3    3    0  502 -0.67955103631E+03  0.72793450126E+03  0.13184873360E+04  0.16522980110E+04  0.12699999809E+01 0. -1.
</event>
<event>
 5   0  0.1819906E-07  0.4020239E+04  0.7818609E-02  0.8000476E-01
        2   -1    0    0  501    0  0.00000000000E+00  0.00000000000E+00  0.13045566406E+04  0.13045566406E+04  0.25500000920E-02 0. -1.
       -2   -1    0    0    0  501  0.00000000000E+00  0.00000000000E+00 -0.30972829215E+04  0.30972829215E+04  0.25500000920E-02 0.  1.
    10030    2    1    2    0    0  0.00000000000E+00  0.00000000000E+00 -0.17927262809E+04  0.44018395622E+04  0.40202392980E+04 0.  0.
        1    1    3    3  502    0  0.19518357686E+04 -0.25049454015E+03 -0.44735173891E+03  0.20180520212E+04  0.50400001928E-02 0. -1.
       -1    1    3    3    0  502 -0.19518357686E+04  0.25049454015E+03 -0.13453745420E+04  0.23837875409E+04  0.50400001928E-02 0.  1.
</event>
<event>
 5   0  0.5515000E-08  0.4009969E+04  0.7818609E-02  0.8002539E-01
       -1   -1    0    0    0  501  0.00000000000E+00  0.00000000000E+00  0.15352703911E+04  0.15352703911E+04  0.50400001928E-02 0.  1.
        1   -1    0    0  501    0  0.00000000000E+00  0.00000000000E+00 -0.26184066010E+04  0.26184066010E+04  0.50400001928E-02 0. -1.
    10030    2    1    2    0    0  0.00000000000E+00  0.00000000000E+00 -0.10831362099E+04  0.41536769921E+04  0.40099686414E+04 0.  0.
        3    1    3    3  502    0  0.15453874486E+04  0.33262251099E+03  0.73596133010E+03  0.17437027243E+04  0.10100000352E+00 0.  1.
       -3    1    3    3    0  502 -0.15453874486E+04 -0.33262251099E+03 -0.18190975400E+04  0.24099742678E+04  0.10100000352E+00 0. -1.
</event>
<event>
 5   0  0.5515000E-08  0.3999338E+04  0.7818609E-02  0.8004680E-01
        1   -1    0    0  501    0  0.00000000000E+00  0.00000000000E+00  0.17211875181E+04  0.17211875181E+04  0.50400001928E-02 0.  1.
       -1   -1    0    0    0  501  0.00000000000E+00  0.00000000000E+00 -0.23232071307E+04  0.23232071307E+04  0.50400001928E-02 0. -1.
    10030    2    1    2    0    0  0.00000000000E+00  0.00000000000E+00 -0.60201961260E+03  0.40443946488E+04  0.39993375028E+04 0.  0.
        5    1    3    3  502    0 -0.65769343092E+03 -0.10518548028E+04  0.12850004778E+04  0.17861151960E+04  0.46999998093E+01 0.  1.
       -5    1    3    3    0  502  0.65769343092E+03  0.10518548028E+04 -0.18870200904E+04  0.22582794528E+04  0.46999998093E+01 0. -1.
</event>
<event>
 5   0  0.5515000E-08  0.3834906E+04  0.7818609E-02  0.8038705E-01
       -1   -1    0    0    0  501  0.00000000000E+00  0.00000000000E+00  0.20480012050E+04  0.20480012050E+04  0.50400001928E-02 0. -1.
        1   -1    0    0  501    0  0.00000000000E+00  0.00000000000E+00 -0.17952269280E+04  0.17952269280E+04  0.50400001928E-02 0.  1.
    10030    2    1    2    0    0  0.00000000000E+00  0.00000000000E+00  0.25277427702E+03  0.38432281330E+04  0.38349064718E+04 0.  0.
        3    1    3    3  502    0  0.11040868837E+04  0.75961111393E+03 -0.12479420175E+04  0.18312225917E+04  0.10100000352E+00 0.  1.
       -3    1    3    3    0  502 -0.11040868837E+04 -0.75961111393E+03  0.15007162945E+04  0.20120055413E+04  0.10100000352E+00 0. -1.
</event>
<event>
 5   0  0.1785559E-07  0.3916532E+04  0.7818609E-02  0.8021600E-01
        2   -1    0    0  501    0  0.00000000000E+00  0.00000000000E+00  0.17352407914E+04  0.17352407914E+04  0.25500000920E-02 0.  1.
       -2   -1    0    0    0  501  0.00000000000E+00  0.00000000000E+00 -0.22099563308E+04  0.22099563308E+04  0.25500000920E-02 0. -1.
    10030    2    1    2    0    0  0.00000000000E+00  0.00000000000E+00 -0.47471553942E+03  0.39451971223E+04  0.39165323298E+04 0.  0.
        2    1    3    3  502    0 -0.55409804464E+03  0.17504414872E+04 -0.92332370885E+03  0.20551390986E+04  0.25500000920E-02 0. -1.
       -2    1    3    3    0  502  0.55409804464E+03 -0.17504414872E+04  0.44860816943E+03  0.18900580237E+04  0.25500000920E-02 0.  1.
</event>
<event>
 5   0  0.5515000E-08  0.3991994E+04  0.7818609E-02  0.8006164E-01
        1   -1    0    0  501    0  0.00000000000E+00  0.00000000000E+00  0.15312079320E+04  0.15312079320E+04  0.50400001928E-02 0. -1.
       -1   -1    0    0    0  501  0.00000000000E+00  0.00000000000E+00 -0.26018698147E+04  0.26018698147E+04  0.50400001928E-02 0.  1.
    10030    2    1    2    0    0  0.00000000000E+00  0.00000000000E+00 -0.10706618827E+04  0.41330777467E+04  0.39919938368E+04 0.  0.
        3    1    3    3  502    0  0.46256622518E+03  0.13795710758E+04  0.87927316527E+03  0.17000897551E+04  0.10100000352E+00 0. -1.
       -3    1    3    3    0  502 -0.46256622518E+03 -0.13795710758E+04 -0.19499350480E+04  0.24329879917E+04  0.10100000352E+00 0.  1.
</event>
<event>
 5   0  0.1819906E-07  0.3985719E+04  0.7818609E-02  0.8007434E-01
        2   -1    0    0  501    0  0.00000000000E+00  0.00000000000E+00  0.18264926425E+04  0.18264926425E+04  0.25500000920E-02 0. -1.
       -2   -1    0    0    0  501  0.00000000000E+00  0.00000000000E+00 -0.21743798568E+04  0.21743798568E+04  0.25500000920E-02 0.  1.
    10030    2    1    2    0    0  0.00000000000E+00  0.00000000000E+00 -0.34788721431E+03  0.40008724993E+04  0.39857189115E+04 0.  0.
        1    1    3    3  502    0 -0.18953637032E+04  0.53198008844E+03 -0.48509376776E+03  0.20274916388E+04  0.50400001928E-02 0.  1.
       -1    1    3    3    0  502  0.18953637032E+04 -0.53198008844E+03  0.13720655345E+03  0.19733808604E+04  0.50400001928E-02 0. -1.
</event>
<event>
 5   0  0.1776653E-07  0.3994195E+04  0.7818609E-02  0.8005719E-01
       -2   -1    0    0    0  501  0.00000000000E+00  0.00000000000E+00  0.30802647889E+04  0.30802647889E+04  0.25500000920E-02 0.  1.
        2   -1    0    0  501    0  0.00000000000E+00  0.00000000000E+00 -0.12948235477E+04  0.12948235477E+04  0.25500000920E-02 0. -1.
    10030    2    1    2    0    0  0.00000000000E+00  0.00000000000E+00  0.17854412412E+04  0.43750883365E+04  0.39941954793E+04 0.  0.
        4    1    3    3  502    0  0.75360094522E+03  0.88911020903E+03  0.26690872751E+04  0.29124662819E+04  0.12699999809E+01 0.  1.
       -4    1    3    3    0  502 -0.75360094522E+03 -0.88911020903E+03 -0.88364603393E+03  0.14626220546E+04  0.12699999809E+01 0. -1.
</event>
<event>
 5   0  0.5515000E-08  0.3983317E+04  0.7818609E-02  0.8007920E-01
        1   -1    0    0  501    0  0.00000000000E+00  0.00000000000E+00  0.24600432752E+04  0.24600432752E+04  0.50400001928E-02 0. -1.
       -1   -1    0    0    0  501  0.00000000000E+00  0.00000000000E+00 -0.16124530484E+04  0.16124530484E+04  0.50400001928E-02 0.  1.
    10030    2    1    2    0    0  0.00000000000E+00  0.00000000000E+00  0.84759022678E+03  0.40724963236E+04  0.39833173503E+04 0.  0.
        5    1    3    3  502    0 -0.54550544990E+03 -0.10217240820E+04 -0.12327216069E+04  0.16914848346E+04  0.46999998093E+01 0.  1.
       -5    1    3    3    0  502  0.54550544990E+03  0.10217240820E+04  0.20803118337E+04  0.23810114890E+04  0.46999998093E+01 0. -1.
</event>
<event>
 5   0  0.1773903E-07  0.4069430E+04  0.7818609E-02  0.7990685E-01
       -2   -1    0    0    0  501  0.00000000000E+00  0.00000000000E+00  0.26276368447E+04  0.26276368447E+04  0.25500000920E-02 0.  1.
        2   -1    0    0  501    0  0.00000000000E+00  0.00000000000E+00 -0.15755849010E+04  0.15755849010E+04  0.25500000920E-02 0. -1.
    10030    2    1    2    0    0  0.00000000000E+00  0.00000000000E+00  0.10520519437E+04  0.42032217457E+04  0.40694299049E+04 0.  0.
        3    1    3    3  502    0  0.15007003980E+03 -0.19310957909E+04 -0.11769192640E+03  0.19404904973E+04  0.10100000352E+00 0. -1.
       -3    1    3    3    0  502 -0.15007003980E+03  0.19310957909E+04  0.11697438701E+04  0.22627312483E+04  0.10100000352E+00 0.  1.
</event>
<event>
 5   0  0.1773903E-07  0.3983449E+04  0.7818609E-02  0.8007894E-01
        2   -1    0    0  501    0  0.00000000000E+00  0.00000000000E+00  0.23819483169E+04  0.23819483169E+04  0.25500000920E-02 0.  1.
       -2   -1    0    0    0  501  0.00000000000E+00  0.00000000000E+00 -0.16654295164E+04  0.16654295164E+04  0.25500000920E-02 0. -1.
    10030    2    1    2    0    0  0.00000000000E+00  0.00000000000E+00  0.71651880051E+03  0.40473778332E+04  0.39834492759E+04 0.  0.
        3    1    3    3  502    0  0.38642681667E+03 -0.18102401927E+04 -0.38884502687E+03  0.18914268966E+04  0.10100000352E+00 0. -1.
       -3    1    3    3    0  502 -0.38642681667E+03  0.18102401927E+04  0.11053638274E+04  0.21559509366E+04  0.10100000352E+00 0.  1.
</event>
<event>
 5   0  0.5515000E-08  0.3977432E+04  0.7818609E-02  0.8009115E-01
       -1   -1    0    0    0  501  0.00000000000E+00  0.00000000000E+00  0.22436629191E+04  0.22436629191E+04  0.50400001928E-02 0.  1.
        1   -1    0    0  501    0  0.00000000000E+00  0.00000000000E+00 -0.17627389736E+04  0.17627389736E+04  0.50400001928E-02 0. -1.
    10030    2    1    2    0    0  0.00000000000E+00  0.00000000000E+00  0.48092394558E+03  0.40064018927E+04  0.39774323733E+04 0.  0.
        2    1    3    3  502    0  0.67686381293E+03 -0.15948544512E+04 -0.74301338312E+03  0.18851456785E+04  0.25500000920E-02 0. -1.
       -2    1    3    3    0  502 -0.67686381293E+03  0.15948544512E+04  0.12239373287E+04  0.21212562142E+04  0.25500000920E-02 0.  1.
</event>
<event>
 5   0  0.5515000E-08  0.3932368E+04  0.7818609E-02  0.8018331E-01
       -1   -1    0    0    0  501  0.00000000000E+00  0.00000000000E+00  0.18457540786E+04  0.18457540787E+04  0.50400001928E-02 0. -1.
        1   -1    0    0  501    0  0.00000000000E+00  0.00000000000E+00 -0.20944711768E+04  0.20944711768E+04  0.50400001928E-02 0.  1.
    10030    2    1    2    0    0  0.00000000000E+00  0.00000000000E+00 -0.24871709818E+03  0.39402252555E+04  0.39323675908E+04 0.  0.
        5    1    3    3  502    0 -0.88796447636E+03 -0.16767768804E+04  0.39222474039E+03  0.19375045690E+04  0.46999998093E+01 0. -1.
       -5    1    3    3    0  502  0.88796447636E+03  0.16767768804E+04 -0.64094183857E+03  0.20027206865E+04  0.46999998093E+01 0.  1.
</event>
<event>
 5   0  0.5515000E-08  0.3999634E+04  0.7818609E-02  0.8004620E-01
        1   -1    0    0  501    0  0.00000000000E+00  0.00000000000E+00  0.27975487269E+04  0.27975487269E+04  0.50400001928E-02 0. -1.
       -1   -1    0    0    0  501  0.00000000000E+00  0.00000000000E+00 -0.14295618276E+04  0.14295618276E+04  0.50400001928E-02 0.  1.
    10030    2    1    2    0    0  0.00000000000E+00  0.00000000000E+00  0.13679868993E+04  0.42271105545E+04  0.39996344187E+04 0.  0.
        1    1    3    3  502    0  0.18999667049E+04  0.62398238382E+03  0.67719520305E+03  0.21113552136E+04  0.50400001928E-02 0.  1.
       -1    1    3    3    0  502 -0.18999667049E+04 -0.62398238382E+03  0.69079169624E+03  0.21157553409E+04  0.50400001928E-02 0. -1.
</event>
<event>
 5   0  0.1821433E-07  0.3968711E+04  0.7818609E-02  0.8010889E-01
        2   -1    0    0  501    0  0.00000000000E+00  0.00000000000E+00  0.16999517479E+04  0.16999517479E+04  0.25500000920E-02 0. -1.
       -2   -1    0    0    0  501  0.00000000000E+00  0.00000000000E+00 -0.23163397660E+04  0.23163397660E+04  0.25500000920E-02 0.  1.
    10030    2    1    2    0    0  0.00000000000E+00  0.00000000000E+00 -0.61638801817E+03  0.40162915139E+04  0.39687105382E+04 0.  0.
        5    1    3    3  502    0 -0.11990595443E+04 -0.49909870275E+03 -0.18264475363E+04  0.22411550591E+04  0.46999998093E+01 0.  1.
       -5    1    3    3    0  502  0.11990595443E+04  0.49909870275E+03  0.12100595181E+04  0.17751364549E+04  0.46999998093E+01 0. -1.
</event>
<event>
 5   0  0.1773903E-07  0.4037138E+04  0.7818609E-02  0.7997096E-01
        2   -1    0    0  501    0  0.00000000000E+00  0.00000000000E+00  0.25935012200E+04  0.25935012200E+04  0.25500000920E-02 0. -1.
       -2   -1    0    0    0  501  0.00000000000E+00  0.00000000000E+00 -0.15710888170E+04  0.15710888170E+04  0.25500000920E-02 0.  1.
    10030    2    1    2    0    0  0.00000000000E+00  0.00000000000E+00  0.10224124029E+04  0.41645900370E+04  0.40371379782E+04 0.  0.
        3    1    3    3  502    0 -0.93472935176E+02  0.44564404733E+03  0.25398310905E+04  0.25803251317E+04  0.10100000352E+00 0. -1.
       -3    1    3    3    0  502  0.93472935176E+02 -0.44564404733E+03 -0.15174186876E+04  0.15842649053E+04  0.10100000352E+00 0.  1.
</event>
<event>
 5   0  0.1776653E-07  0.3919289E+04  0.7818609E-02  0.8021029E-01
        2   -1    0    0  501    0  0.00000000000E+00  0.00000000000E+00  0.22669228170E+04  0.22669228170E+04  0.25500000920E-02 0.  1.
       -2   -1    0    0    0  501  0.00000000000E+00  0.00000000000E+00 -0.16940174314E+04  0.16940174314E+04  0.25500000920E-02 0. -1.
    10030    2    1    2    0    0  0.00000000000E+00  0.00000000000E+00  0.57290538561E+03  0.39609402484E+04  0.39192891027E+04 0.  0.
        4    1    3    3  502    0 -0.40715947940E+03 -0.65698964316E+03 -0.15334596286E+04  0.17172403089E+04  0.12699999809E+01 0. -1.
       -4    1    3    3    0  502  0.40715947940E+03  0.65698964316E+03  0.21063650142E+04  0.22436999396E+04  0.12699999809E+01 0.  1.
</event>
<event>
 5   0  0.1773903E-07  0.4000839E+04  0.7818609E-02  0.8004377E-01
       -2   -1    0    0    0  501  0.00000000000E+00  0.00000000000E+00  0.21028108143E+04  0.21028108143E+04  0.25500000920E-02 0.  1.
        2   -1    0    0  501    0  0.00000000000E+00  0.00000000000E+00 -0.19030140585E+04  0.19030140585E+04  0.25500000920E-02 0. -1.
    10030    2    1    2    0    0  0.00000000000E+00  0.00000000000E+00  0.19979675586E+03  0.40058248728E+04  0.40008391830E+04 0.  0.
        3    1    3    3  502    0  0.71151954265E+03  0.16491040259E+03 -0.17647389450E+04  0.19099107452E+04  0.10100000352E+00 0. -1.
       -3    1    3    3    0  502 -0.71151954265E+03 -0.16491040259E+03  0.19645357008E+04  0.20959141276E+04  0.10100000352E+00 0.  1.
</event>
<event>
 5   0  0.5515000E-08  0.3827055E+04  0.7818609E-02  0.8040374E-01
        1   -1    0    0  501    0  0.00000000000E+00  0.00000000000E+00  0.14135262138E+04  0.14135262138E+04  0.50400001928E-02 0.  1.
       -1   -1    0    0    0  501  0.00000000000E+00  0.00000000000E+00 -0.25903922832E+04  0.25903922832E+04  0.50400001928E-02 0. -1.
    10030    2    1    2    0    0  0.00000000000E+00  0.00000000000E+00 -0.11768660694E+04  0.40039184970E+04  0.38270549493E+04 0.  0.
        5    1    3    3  502    0  0.35706144131E+03  0.86929121066E+03  0.11554539004E+04  0.14893810418E+04  0.46999998093E+01 0.  1.
       -5    1    3    3    0  502 -0.35706144131E+03 -0.86929121066E+03 -0.23323199698E+04  0.25145374552E+04  0.46999998093E+01 0. -1.
</event>
<event>
 5   0  0.5515000E-08  0.4034072E+04  0.7818609E-02  0.7997708E-01
        1   -1    0    0  501    0  0.00000000000E+00  0.00000000000E+00  0.26578362019E+04  0.26578362020E+04  0.50400001928E-02 0.  1.
       -1   -1    0    0    0  501  0.00000000000E+00  0.00000000000E+00 -0.15307314946E+04  0.15307314946E+04  0.50400001928E-02 0. -1.
    10030    2    1    2    0    0  0.00000000000E+00  0.00000000000E+00  0.11271047074E+04  0.41885676966E+04  0.40340716810E+04 0.  0.
        4    1    3    3  502    0  0.66802620872E+03 -0.13554115172E+04  0.19507712652E+04  0.24675715873E+04  0.12699999809E+01 0.  1.
       -4    1    3    3    0  502 -0.66802620872E+03  0.13554115172E+04 -0.82366655786E+03  0.17209961092E+04  0.12699999809E+01 0. -1.
</event>
<event>
 5   0  0.5515000E-08  0.4009999E+04  0.7818609E-02  0.8002532E-01
       -3   -1    0    0    0  501  0.00000000000E+00  0.00000000000E+00  0.22419630228E+04  0.22419630251E+04  0.10100000352E+00 0. -1.
        3   -1    0    0  501    0  0.00000000000E+00  0.00000000000E+00 -0.17930818958E+04  0.17930818987E+04  0.10100000352E+00 0.  1.
    10030    2    1    2    0    0  0.00000000000E+00  0.00000000000E+00  0.44888112703E+03  0.40350449238E+04  0.40099991609E+04 0.  0.
        2    1    3    3  502    0  0.42052933049E+03  0.14981524657E+04 -0.10478607311E+04  0.18759844989E+04  0.25500000920E-02 0.  1.
       -2    1    3    3    0  502 -0.42052933049E+03 -0.14981524657E+04  0.14967418581E+04  0.21590604249E+04  0.25500000920E-02 0. -1.
</event>
<event>
 5   0  0.5515000E-08  0.3989474E+04  0.7818609E-02  0.8006673E-01
       -1   -1    0    0    0  501  0.00000000000E+00  0.00000000000E+00  0.15044946805E+04  0.15044946805E+04  0.50400001928E-02 0. -1.
        1   -1    0    0  501    0  0.00000000000E+00  0.00000000000E+00 -0.26447257177E+04  0.26447257177E+04  0.50400001928E-02 0.  1.
    10030    2    1    2    0    0  0.00000000000E+00  0.00000000000E+00 -0.11402310372E+04  0.41492203982E+04  0.39894740374E+04 0.  0.
        4    1    3    3  502    0  0.18832204743E+03  0.15859380720E+04 -0.18130894152E+04  0.24161869965E+04  0.12699999809E+01 0.  1.
       -4    1    3    3    0  502 -0.18832204743E+03 -0.15859380720E+04  0.67285837801E+03  0.17330334017E+04  0.12699999809E+01 0. -1.
</event>
<event>
 5   0  0.1773903E-07  0.3983477E+04  0.7818609E-02  0.8007888E-01
       -2   -1    0    0    0  501  0.00000000000E+00  0.00000000000E+00  0.21521590895E+04  0.21521590895E+04  0.25500000920E-02 0. -1.
        2   -1    0    0  501    0  0.00000000000E+00  0.00000000000E+00 -0.18432755086E+04  0.18432755086E+04  0.25500000920E-02 0.  1.
    10030    2    1    2    0    0  0.00000000000E+00  0.00000000000E+00  0.30888358093E+03  0.39954345981E+04  0.39834769437E+04 0.  0.
        3    1    3    3  502    0  0.47324952526E+01 -0.11404978571E+04 -0.14833297605E+04  0.18711026019E+04  0.10100000352E+00 0.  1.
       -3    1    3    3    0  502 -0.47324952526E+01  0.11404978571E+04  0.17922133414E+04  0.21243319961E+04  0.10100000352E+00 0. -1.
</event>
<event>
 5   0  0.5515000E-08  0.4011008E+04  0.7818609E-02  0.8002330E-01
       -1   -1    0    0    0  501  0.00000000000E+00  0.00000000000E+00  0.20155251064E+04  0.20155251064E+04  0.50400001928E-02 0. -1.
        1   -1    0    0  501    0  0.00000000000E+00  0.00000000000E+00 -0.19955328039E+04  0.19955328039E+04  0.50400001928E-02 0.  1.
    10030    2    1    2    0    0  0.00000000000E+00  0.00000000000E+00  0.19992302448E+02  0.40110579103E+04  0.40110080862E+04 0.  0.
        3    1    3    3  502    0  0.18327366312E+04 -0.80210956327E+03  0.15050820266E+03  0.20062293089E+04  0.10100000352E+00 0.  1.
       -3    1    3    3    0  502 -0.18327366312E+04  0.80210956327E+03 -0.13051590022E+03  0.20048286014E+04  0.10100000352E+00 0. -1.
</event>
<event>
 5   0  0.5515000E-08  0.3440905E+04  0.7818609E-02  0.8127939E-01
       -1   -1    0    0    0  501  0.00000000000E+00  0.00000000000E+00  0.10415964476E+04  0.10415964476E+04  0.50400001928E-02 0.  1.
        1   -1    0    0  501    0  0.00000000000E+00  0.00000000000E+00 -0.28417503174E+04  0.28417503174E+04  0.50400001928E-02 0. -1.
    10030    2    1    2    0    0  0.00000000000E+00  0.00000000000E+00 -0.18001538698E+04  0.38833467650E+04  0.34409051342E+04 0.  0.
        2    1    3    3  502    0 -0.12603320738E+04 -0.50779238838E+03 -0.20910752496E+04  0.24937693850E+04  0.25500000920E-02 0. -1.
       -2    1    3    3    0  502  0.12603320738E+04  0.50779238838E+03  0.29092137978E+03  0.13895773800E+04  0.25500000920E-02 0.  1.
</event>
<event>
 5   0  0.1773903E-07  0.3543637E+04  0.7818609E-02  0.8103526E-01
        2   -1    0    0  501    0  0.00000000000E+00  0.00000000000E+00  0.16858708760E+04  0.16858708760E+04  0.25500000920E-02 0.  1.
       -2   -1    0    0    0  501  0.00000000000E+00  0.00000000000E+00 -0.18621481692E+04  0.18621481693E+04  0.25500000920E-02 0. -1.
    10030    2    1    2    0    0  0.00000000000E+00  0.00000000000E+00 -0.17627729323E+03  0.35480190453E+04  0.35436373208E+04 0.  0.
        3    1    3    3  502    0 -0.14803369243E+04 -0.97008995540E+03 -0.51541724760E+01  0.17698865801E+04  0.10100000352E+00 0. -1.
       -3    1    3    3    0  502  0.14803369243E+04  0.97008995540E+03 -0.17112312076E+03  0.17781324651E+04  0.10100000352E+00 0.  1.
</event>
<event>
 5   0  0.5515000E-08  0.3996281E+04  0.7818609E-02  0.8005297E-01
        1   -1    0    0  501    0  0.00000000000E+00  0.00000000000E+00  0.19679207290E+04  0.19679207290E+04  0.50400001928E-02 0.  1.
       -1   -1    0    0    0  501  0.00000000000E+00  0.00000000000E+00 -0.20288239471E+04  0.20288239472E+04  0.50400001928E-02 0. -1.
    10030    2    1    2    0    0  0.00000000000E+00  0.00000000000E+00 -0.60903218136E+02  0.39967446762E+04  0.39962806213E+04 0.  0.
        3    1    3    3  502    0  0.78126739239E+03 -0.17968614761E+04 -0.42225568492E+03  0.20043427292E+04  0.10100000352E+00 0. -1.
       -3    1    3    3    0  502 -0.78126739239E+03  0.17968614761E+04  0.36135246678E+03  0.19924019469E+04  0.10100000352E+00 0.  1.
</event>
<event>
 5   0  0.1776653E-07  0.3701536E+04  0.7818609E-02  0.8067621E-01
       -2   -1    0    0    0  501  0.00000000000E+00  0.00000000000E+00  0.17988130207E+04  0.17988130207E+04  0.25500000920E-02 0.  1.
        2   -1    0    0  501    0  0.00000000000E+00  0.00000000000E+00 -0.19042236688E+04  0.19042236688E+04  0.25500000920E-02 0. -1.
    10030    2    1    2    0    0  0.00000000000E+00  0.00000000000E+00 -0.10541064804E+03  0.37030366895E+04  0.37015360756E+04 0.  0.
        4    1    3    3  502    0 -0.17464641107E+04  0.61197158213E+03 -0.79071454044E+02  0.18522688830E+04  0.12699999809E+01 0.  1.
       -4    1    3    3    0  502  0.17464641107E+04 -0.61197158213E+03 -0.26339193998E+02  0.18507678064E+04  0.12699999809E+01 0. -1.
</event>
<event>
 5   0  0.5515000E-08  0.4010034E+04  0.7818609E-02  0.8002525E-01
        1   -1    0    0  501    0  0.00000000000E+00  0.00000000000E+00  0.24331578479E+04  0.24331578479E+04  0.50400001928E-02 0. -1.
       -1   -1    0    0    0  501  0.00000000000E+00  0.00000000000E+00 -0.16522123469E+04  0.16522123469E+04  0.50400001928E-02 0.  1.
    10030    2    1    2    0    0  0.00000000000E+00  0.00000000000E+00  0.78094550097E+03  0.40853701948E+04  0.40100341336E+04 0.  0.
        2    1    3    3  502    0  0.14720257895E+04 -0.64777828710E+03  0.16103043745E+04  0.22758639706E+04  0.25500000920E-02 0. -1.
       -2    1    3    3    0  502 -0.14720257895E+04  0.64777828710E+03 -0.82935887352E+03  0.18095062242E+04  0.25500000920E-02 0.  1.
</event>
<event>
 5   0  0.5515000E-08  0.4044155E+04  0.7818609E-02  0.7995698E-01
        1   -1    0    0  501    0  0.00000000000E+00  0.00000000000E+00  0.26184910075E+04  0.26184910075E+04  0.50400001928E-02 0. -1.
       -1   -1    0    0    0  501  0.00000000000E+00  0.00000000000E+00 -0.15615093835E+04  0.15615093835E+04  0.50400001928E-02 0.  1.
    10030    2    1    2    0    0  0.00000000000E+00  0.00000000000E+00  0.10569816240E+04  0.41800003910E+04  0.40441554267E+04 0.  0.
        2    1    3    3  502    0 -0.15919913079E+03  0.18374528996E+03 -0.15463481194E+04  0.15653431577E+04  0.25500000920E-02 0.  1.
       -2    1    3    3    0  502  0.15919913079E+03 -0.18374528996E+03  0.26033297434E+04  0.26146572333E+04  0.25500000920E-02 0. -1.
</event>
<event>
 5   0  0.5515000E-08  0.4026094E+04  0.7818609E-02  0.7999303E-01
       -1   -1    0    0    0  501  0.00000000000E+00  0.00000000000E+00  0.20960851985E+04  0.20960851985E+04  0.50400001928E-02 0.  1.
        1   -1    0    0  501    0  0.00000000000E+00  0.00000000000E+00 -0.19332984705E+04  0.19332984705E+04  0.50400001928E-02 0. -1.
    10030    2    1    2    0    0  0.00000000000E+00  0.00000000000E+00  0.16278672799E+03  0.40293836689E+04  0.40260940417E+04 0.  0.
        4    1    3    3  502    0  0.61927424320E+03 -0.17526131623E+03 -0.18275558979E+04  0.19375704606E+04  0.12699999809E+01 0. -1.
       -4    1    3    3    0  502 -0.61927424320E+03  0.17526131623E+03  0.19903426258E+04  0.20918132083E+04  0.12699999809E+01 0.  1.
</event>
<event>
 5   0  0.5515000E-08  0.3954190E+04  0.7818609E-02  0.8013852E-01
        1   -1    0    0  501    0  0.00000000000E+00  0.00000000000E+00  0.14984672150E+04  0.14984672150E+04  0.50400001928E-02 0.  1.
       -1   -1    0    0    0  501  0.00000000000E+00  0.00000000000E+00 -0.26086014483E+04  0.26086014483E+04  0.50400001928E-02 0. -1.
    10030    2    1    2    0    0  0.00000000000E+00  0.00000000000E+00 -0.11101342332E+04  0.41070686633E+04  0.39541895490E+04 0.  0.
        3    1    3    3  502    0  0.68228014547E+03 -0.10694372733E+02  0.13722840437E+04  0.15325743288E+04  0.10100000352E+00 0.  1.
       -3    1    3    3    0  502 -0.68228014547E+03  0.10694372733E+02 -0.24824182769E+04  0.25744943345E+04  0.10100000352E+00 0. -1.
</event>
<event>
 5   0  0.5515000E-08  0.3885786E+04  0.7818609E-02  0.8027992E-01
       -1   -1    0    0    0  501  0.00000000000E+00  0.00000000000E+00  0.17905379942E+04  0.17905379942E+04  0.50400001928E-02 0. -1.
        1   -1    0    0  501    0  0.00000000000E+00  0.00000000000E+00 -0.21082120942E+04  0.21082120942E+04  0.50400001928E-02 0.  1.
    10030    2    1    2    0    0  0.00000000000E+00  0.00000000000E+00 -0.31767410000E+03  0.38987500885E+04  0.38857863321E+04 0.  0.
        5    1    3    3  502    0 -0.55083349037E+03  0.12051269249E+04 -0.15845150613E+04  0.20655407304E+04  0.46999998093E+01 0.  1.
       -5    1    3    3    0  502  0.55083349037E+03 -0.12051269249E+04  0.12668409613E+04  0.18332093581E+04  0.46999998093E+01 0. -1.
</event>
<event>
 5   0  0.1773903E-07  0.3973610E+04  0.7818609E-02  0.8009892E-01
        2   -1    0    0  501    0  0.00000000000E+00  0.00000000000E+00  0.19574325155E+04  0.19574325155E+04  0.25500000920E-02 0.  1.
       -2   -1    0    0    0  501  0.00000000000E+00  0.00000000000E+00 -0.20166181573E+04  0.20166181573E+04  0.25500000920E-02 0. -1.
    10030    2    1    2    0    0  0.00000000000E+00  0.00000000000E+00 -0.59185641732E+02  0.39740506728E+04  0.39736099217E+04 0.  0.
        3    1    3    3  502    0 -0.14462668866E+04  0.35907630740E+03  0.12846192347E+04  0.19674527415E+04  0.10100000352E+00 0.  1.
       -3    1    3    3    0  502  0.14462668866E+04 -0.35907630740E+03 -0.13438048764E+04  0.20065979313E+04  0.10100000352E+00 0. -1.
</event>
<event>
 5   0  0.5515000E-08  0.3975819E+04  0.7818609E-02  0.8009442E-01
       -1   -1    0    0    0  501  0.00000000000E+00  0.00000000000E+00  0.13083518016E+04  0.13083518016E+04  0.50400001928E-02 0.  1.
        1   -1    0    0  501    0  0.00000000000E+00  0.00000000000E+00 -0.30204291730E+04  0.30204291730E+04  0.50400001928E-02 0. -1.
    10030    2    1    2    0    0  0.00000000000E+00  0.00000000000E+00 -0.17120773714E+04  0.43287809746E+04  0.39758188843E+04 0.  0.
        1    1    3    3  502    0 -0.99643481439E+03  0.16072758869E+04 -0.18879870914E+03  0.19004902180E+04  0.50400001928E-02 0.  1.
       -1    1    3    3    0  502  0.99643481439E+03 -0.16072758869E+04 -0.15232786623E+04  0.24282907567E+04  0.50400001928E-02 0. -1.
</event>
<event>
 5   0  0.1819906E-07  0.4048589E+04  0.7818609E-02  0.7994816E-01
       -2   -1    0    0    0  501  0.00000000000E+00  0.00000000000E+00  0.16595701653E+04  0.16595701653E+04  0.25500000920E-02 0.  1.
        2   -1    0    0  501    0  0.00000000000E+00  0.00000000000E+00 -0.24691740586E+04  0.24691740586E+04  0.25500000920E-02 0. -1.
    10030    2    1    2    0    0  0.00000000000E+00  0.00000000000E+00 -0.80960389327E+03  0.41287442240E+04  0.40485886927E+04 0.  0.
        1    1    3    3  502    0 -0.16887996288E+04 -0.47731166607E+03 -0.14336855256E+04  0.22661255038E+04  0.50400001928E-02 0. -1.
       -1    1    3    3    0  502  0.16887996288E+04  0.47731166607E+03  0.62408163230E+03  0.18626187201E+04  0.50400001928E-02 0.  1.
</event>
<event>
 5   0  0.5515000E-08  0.3822149E+04  0.7818609E-02  0.8041418E-01
       -1   -1    0    0    0  501  0.00000000000E+00  0.00000000000E+00  0.17058669091E+04  0.17058669091E+04  0.50400001928E-02 0. -1.
        1   -1    0    0  501    0  0.00000000000E+00  0.00000000000E+00 -0.21409680529E+04  0.21409680529E+04  0.50400001928E-02 0.  1.
    10030    2    1    2    0    0  0.00000000000E+00  0.00000000000E+00 -0.43510114385E+03  0.38468349620E+04  0.38221494240E+04 0.  0.
        5    1    3    3  502    0  0.13004652505E+04  0.61657239749E+03 -0.14829748219E+04  0.20665448946E+04  0.46999998093E+01 0.  1.
       -5    1    3    3    0  502 -0.13004652505E+04 -0.61657239749E+03  0.10478736780E+04  0.17802900674E+04  0.46999998093E+01 0. -1.
</event>
<event>
 5   0  0.5515000E-08  0.3932524E+04  0.7818609E-02  0.8018299E-01
        1   -1    0    0  501    0  0.00000000000E+00  0.00000000000E+00  0.19915083038E+04  0.19915083038E+04  0.50400001928E-02 0. -1.
       -1   -1    0    0    0  501  0.00000000000E+00  0.00000000000E+00 -0.19413353855E+04  0.19413353855E+04  0.50400001928E-02 0.  1.
    10030    2    1    2    0    0  0.00000000000E+00  0.00000000000E+00  0.50172918303E+02  0.39328436894E+04  0.39325236380E+04 0.  0.
        2    1    3    3  502    0 -0.18138562158E+04 -0.15946366631E+03  0.76722670700E+03  0.19758896357E+04  0.25500000920E-02 0. -1.
       -2    1    3    3    0  502  0.18138562158E+04  0.15946366631E+03 -0.71705378870E+03  0.19569540537E+04  0.25500000920E-02 0.  1.
</event>
<event>
 5   0  0.1821433E-07  0.4014039E+04  0.7818609E-02  0.8001720E-01
       -2   -1    0    0    0  501  0.00000000000E+00  0.00000000000E+00  0.31770287223E+04  0.31770287223E+04  0.25500000920E-02 0. -1.
        2   -1    0    0  501    0  0.00000000000E+00  0.00000000000E+00 -0.12678911474E+04  0.12678911474E+04  0.25500000920E-02 0.  1.
    10030    2    1    2    0    0  0.00000000000E+00  0.00000000000E+00  0.19091375750E+04  0.44449198697E+04  0.40140386605E+04 0.  0.
        5    1    3    3  502    0  0.14580343655E+04  0.97074401382E+03  0.20394808938E+04  0.26884405438E+04  0.46999998093E+01 0. -1.
       -5    1    3    3    0  502 -0.14580343655E+04 -0.97074401382E+03 -0.13034331881E+03  0.17564793259E+04  0.46999998093E+01 0.  1.
</event>
<event>
 5   0  0.1821433E-07  0.3934485E+04  0.7818609E-02  0.8017895E-01
       -2   -1    0    0    0  501  0.00000000000E+00  0.00000000000E+00  0.14357543032E+04  0.14357543032E+04  0.25500000920E-02 0.  1.
        2   -1    0    0  501    0  0.00000000000E+00  0.00000000000E+00 -0.26954766942E+04  0.26954766942E+04  0.25500000920E-02 0. -1.
    10030    2    1    2    0    0  0.00000000000E+00  0.00000000000E+00 -0.12597223910E+04  0.41312309974E+04  0.39344845979E+04 0.  0.
        5    1    3    3  502    0 -0.14294092996E+04 -0.80122487665E+03  0.51307749767E+03  0.17171030422E+04  0.46999998093E+01 0.  1.
       -5    1    3    3    0  502  0.14294092996E+04  0.80122487665E+03 -0.17727998887E+04  0.24141279552E+04  0.46999998093E+01 0. -1.
</event>
<event>
 5   0  0.1821433E-07  0.3990835E+04  0.7818609E-02  0.8006398E-01
       -2   -1    0    0    0  501  0.00000000000E+00  0.00000000000E+00  0.18952713502E+04  0.18952713502E+04  0.25500000920E-02 0. -1.
        2   -1    0    0  501    0  0.00000000000E+00  0.00000000000E+00 -0.21008548991E+04  0.21008548991E+04  0.25500000920E-02 0.  1.
    10030    2    1    2    0    0  0.00000000000E+00  0.00000000000E+00 -0.20558354882E+03  0.39961262493E+04  0.39908345499E+04 0.  0.
        5    1    3    3  502    0 -0.18217632981E+04 -0.54733579600E+03  0.50072626791E+03  0.19670147110E+04  0.46999998093E+01 0. -1.
       -5    1    3    3    0  502  0.18217632981E+04  0.54733579600E+03 -0.70630981672E+03  0.20291115383E+04  0.46999998093E+01 0.  1.
</event>
<event>
 5   0  0.5515000E-08  0.4035595E+04  0.7818609E-02  0.7997404E-01
       -1   -1    0    0    0  501  0.00000000000E+00  0.00000000000E+00  0.31114530627E+04  0.31114530627E+04  0.50400001928E-02 0.  1.
        1   -1    0    0  501    0  0.00000000000E+00  0.00000000000E+00 -0.13085545677E+04  0.13085545677E+04  0.50400001928E-02 0. -1.
    10030    2    1    2    0    0  0.00000000000E+00  0.00000000000E+00  0.18028984950E+04  0.44200076304E+04  0.40355946860E+04 0.  0.
        4    1    3    3  502    0 -0.11594200728E+04 -0.87447534452E+02 -0.90476055826E+03  0.14732600779E+04  0.12699999809E+01 0. -1.
       -4    1    3    3    0  502  0.11594200728E+04  0.87447534452E+02  0.27076590533E+04  0.29467475525E+04  0.12699999809E+01 0.  1.
</event>
<event>
 5   0  0.1785559E-07  0.4026912E+04  0.7818609E-02  0.7999139E-01
       -2   -1    0    0    0  501  0.00000000000E+00  0.00000000000E+00  0.14010142522E+04  0.14010142522E+04  0.25500000920E-02 0. -1.
        2   -1    0    0  501    0  0.00000000000E+00  0.00000000000E+00 -0.28936216728E+04  0.28936216728E+04  0.25500000920E-02 0.  1.
    10030    2    1    2    0    0  0.00000000000E+00  0.00000000000E+00 -0.14926074206E+04  0.42946359250E+04  0.40269120696E+04 0.  0.
        2    1    3    3  502    0 -0.12527560488E+04  0.10306328183E+04  0.52563331396E+03  0.17052542640E+04  0.25500000920E-02 0. -1.
       -2    1    3    3    0  502  0.12527560488E+04 -0.10306328183E+04 -0.20182407345E+04  0.25893816610E+04  0.25500000920E-02 0.  1.
</event>
<event>
 5   0  0.1773903E-07  0.3890058E+04  0.7818609E-02  0.8027100E-01
       -2   -1    0    0    0  501  0.00000000000E+00  0.00000000000E+00  0.20470358227E+04  0.20470358227E+04  0.25500000920E-02 0.  1.
        2   -1    0    0  501    0  0.00000000000E+00  0.00000000000E+00 -0.18481057572E+04  0.18481057572E+04  0.25500000920E-02 0. -1.
    10030    2    1    2    0    0  0.00000000000E+00  0.00000000000E+00  0.19893006543E+03  0.38951415799E+04  0.38900584516E+04 0.  0.
        3    1    3    3  502    0  0.36169422160E+03  0.16467853806E+03  0.20059479744E+04  0.20449374116E+04  0.10100000352E+00 0.  1.
       -3    1    3    3    0  502 -0.36169422160E+03 -0.16467853806E+03 -0.18070179090E+04  0.18502041683E+04  0.10100000352E+00 0. -1.
</event>
<event>
 5   0  0.5515000E-08  0.3981478E+04  0.7818609E-02  0.8008294E-01
       -1   -1    0    0    0  501  0.00000000000E+00  0.00000000000E+00  0.23125245103E+04  0.23125245103E+04  0.50400001928E-02 0. -1.
        1   -1    0    0  501    0  0.00000000000E+00  0.00000000000E+00 -0.17137293991E+04  0.17137293991E+04  0.50400001928E-02 0.  1.
    10030    2    1    2    0    0  0.00000000000E+00  0.00000000000E+00  0.59879511119E+03  0.40262539094E+04  0.39814777355E+04 0.  0.
        3    1    3    3  502    0 -0.15379483423E+04  0.52774838444E+03 -0.86210028344E+03  0.18403859296E+04  0.10100000352E+00 0.  1.
       -3    1    3    3    0  502  0.15379483423E+04 -0.52774838444E+03  0.14608953946E+04  0.21858679798E+04  0.10100000352E+00 0. -1.
</event>
<event>
 5   0  0.1773903E-07  0.3950210E+04  0.7818609E-02  0.8014667E-01
        2   -1    0    0  501    0  0.00000000000E+00  0.00000000000E+00  0.26993971288E+04  0.26993971288E+04  0.25500000920E-02 0.  1.
       -2   -1    0    0    0  501  0.00000000000E+00  0.00000000000E+00 -0.14451519164E+04  0.14451519164E+04  0.25500000920E-02 0. -1.
    10030    2    1    2    0    0  0.00000000000E+00  0.00000000000E+00  0.12542452124E+04  0.41445490452E+04  0.39502095811E+04 0.  0.
        3    1    3    3  502    0 -0.19644464724E+04 -0.20488871012E+03  0.62387228034E+03  0.20712908919E+04  0.10100000352E+00 0. -1.
       -3    1    3    3    0  502  0.19644464724E+04  0.20488871012E+03  0.63037293211E+03  0.20732581533E+04  0.10100000352E+00 0.  1.
</event>
<event>
 5   0  0.5515000E-08  0.3991203E+04  0.7818609E-02  0.8006324E-01
       -1   -1    0    0    0  501  0.00000000000E+00  0.00000000000E+00  0.16526724680E+04  0.16526724680E+04  0.50400001928E-02 0. -1.
        1   -1    0    0  501    0  0.00000000000E+00  0.00000000000E+00 -0.24096880445E+04  0.24096880445E+04  0.50400001928E-02 0.  1.
    10030    2    1    2    0    0  0.00000000000E+00  0.00000000000E+00 -0.75701557650E+03  0.40623605125E+04  0.39912028701E+04 0.  0.
        1    1    3    3  502    0 -0.15494206453E+04 -0.12308508667E+04 -0.11558688350E+03  0.19821852890E+04  0.50400001928E-02 0. -1.
       -1    1    3    3    0  502  0.15494206453E+04  0.12308508667E+04 -0.64142869300E+03  0.20801752235E+04  0.50400001928E-02 0.  1.
</event>
<event>
 5   0  0.1821433E-07  0.3995615E+04  0.7818609E-02  0.8005432E-01
       -2   -1    0    0    0  501  0.00000000000E+00  0.00000000000E+00  0.17536806854E+04  0.17536806854E+04  0.25500000920E-02 0.  1.
        2   -1    0    0  501    0  0.00000000000E+00  0.00000000000E+00 -0.22759190343E+04  0.22759190343E+04  0.25500000920E-02 0. -1.
    10030    2    1    2    0    0  0.00000000000E+00  0.00000000000E+00 -0.52223834885E+03  0.40295997197E+04  0.39956152227E+04 0.  0.
        5    1    3    3  502    0  0.15333458409E+03  0.15616241127E+04 -0.15081767564E+04  0.21764192111E+04  0.46999998093E+01 0. -1.
       -5    1    3    3    0  502 -0.15333458409E+03 -0.15616241127E+04  0.98593840756E+03  0.18531805086E+04  0.46999998093E+01 0.  1.
</event>
<event>
 5   0  0.5515000E-08  0.3666268E+04  0.7818609E-02  0.8075479E-01
       -1   -1    0    0    0  501  0.00000000000E+00  0.00000000000E+00  0.11916091230E+04  0.11916091230E+04  0.50400001928E-02 0. -1.
        1   -1    0    0  501    0  0.00000000000E+00  0.00000000000E+00 -0.28200363944E+04  0.28200363944E+04  0.50400001928E-02 0.  1.
    10030    2    1    2    0    0  0.00000000000E+00  0.00000000000E+00 -0.16284272714E+04  0.40116455174E+04  0.36662684543E+04 0.  0.
        3    1    3    3  502    0 -0.35010899590E+03  0.96197326203E+02  0.11518705221E+04  0.12077400152E+04  0.10100000352E+00 0. -1.
       -3    1    3    3    0  502  0.35010899590E+03 -0.96197326203E+02 -0.27802977934E+04  0.28039055021E+04  0.10100000352E+00 0.  1.
</event>
<event>
 5   0  0.1785559E-07  0.3902756E+04  0.7818609E-02  0.8024456E-01
        2   -1    0    0  501    0  0.00000000000E+00  0.00000000000E+00  0.18651731102E+04  0.18651731102E+04  0.25500000920E-02 0. -1.
       -2   -1    0    0    0  501  0.00000000000E+00  0.00000000000E+00 -0.20415671393E+04  0.20415671393E+04  0.25500000920E-02 0.  1.
    10030    2    1    2    0    0  0.00000000000E+00  0.00000000000E+00 -0.17639402912E+03  0.39067402495E+04  0.39027560164E+04 0.  0.
        2    1    3    3  502    0  0.17354994350E+04  0.64861314427E+03 -0.70137343825E+03  0.19810557791E+04  0.25500000920E-02 0.  1.
       -2    1    3    3    0  502 -0.17354994350E+04 -0.64861314427E+03  0.52497940912E+03  0.19256844705E+04  0.25500000920E-02 0. -1.
</event>
<event>
 5   0  0.5515000E-08  0.3824241E+04  0.7818609E-02  0.8040973E-01
        1   -1    0    0  501    0  0.00000000000E+00  0.00000000000E+00  0.17048875015E+04  0.17048875015E+04  0.50400001928E-02 0.  1.
       -1   -1    0    0    0  501  0.00000000000E+00  0.00000000000E+00 -0.21445428365E+04  0.21445428365E+04  0.50400001928E-02 0. -1.
    10030    2    1    2    0    0  0.00000000000E+00  0.00000000000E+00 -0.43965533496E+03  0.38494303380E+04  0.38242407238E+04 0.  0.
        5    1    3    3  502    0  0.16090908528E+04  0.10215125055E+04 -0.65451842907E+02  0.19070834290E+04  0.46999998093E+01 0.  1.
       -5    1    3    3    0  502 -0.16090908528E+04 -0.10215125055E+04 -0.37420349205E+03  0.19423469090E+04  0.46999998093E+01 0. -1.
</event>
<event>
 5   0  0.5515000E-08  0.3965591E+04  0.7818609E-02  0.8011524E-01
       -1   -1    0    0    0  501  0.00000000000E+00  0.00000000000E+00  0.22340723794E+04  0.22340723794E+04  0.50400001928E-02 0.  1.
        1   -1    0    0  501    0  0.00000000000E+00  0.00000000000E+00 -0.17597805432E+04  0.17597805432E+04  0.50400001928E-02 0. -1.
    10030    2    1    2    0    0  0.00000000000E+00  0.00000000000E+00  0.47429183618E+03  0.39938529226E+04  0.39655905515E+04 0.  0.
        2    1    3    3  502    0 -0.15751475262E+04  0.23446029035E+03  0.14268419318E+04  0.21382093573E+04  0.25500000920E-02 0.  1.
       -2    1    3    3    0  502  0.15751475262E+04 -0.23446029035E+03 -0.95255009559E+03  0.18556435654E+04  0.25500000920E-02 0. -1.
</event>
<event>
 5   0  0.1821433E-07  0.3988197E+04  0.7818609E-02  0.8006932E-01
       -2   -1    0    0    0  501  0.00000000000E+00  0.00000000000E+00  0.22576925364E+04  0.22576925364E+04  0.25500000920E-02 0. -1.
        2   -1    0    0  501    0  0.00000000000E+00  0.00000000000E+00 -0.17612796937E+04  0.17612796937E+04  0.25500000920E-02 0.  1.
    10030    2    1    2    0    0  0.00000000000E+00  0.00000000000E+00  0.49641284269E+03  0.40189722300E+04  0.39881965944E+04 0.  0.
        5    1    3    3  502    0  0.57589933489E+03 -0.78540182504E+03  0.20017173773E+04  0.22260751603E+04  0.46999998093E+01 0. -1.
       -5    1    3    3    0  502 -0.57589933489E+03  0.78540182504E+03 -0.15053045346E+04  0.17928970697E+04  0.46999998093E+01 0.  1.
</event>
<event>
 5   0  0.5515000E-08  0.3988296E+04  0.7818609E-02  0.8006912E-01
        3   -1    0    0  501    0  0.00000000000E+00  0.00000000000E+00  0.14627234861E+04  0.14627234896E+04  0.10100000352E+00 0.  1.
       -3   -1    0    0    0  501  0.00000000000E+00  0.00000000000E+00 -0.27186458039E+04  0.27186458057E+04  0.10100000352E+00 0. -1.
    10030    2    1    2    0    0  0.00000000000E+00  0.00000000000E+00 -0.12559223178E+04  0.41813692953E+04  0.39882964177E+04 0.  0.
        5    1    3    3  502    0  0.14994447997E+04 -0.52421626796E+03  0.63600012924E+03  0.17110393500E+04  0.46999998093E+01 0.  1.
       -5    1    3    3    0  502 -0.14994447997E+04  0.52421626796E+03 -0.18919224470E+04  0.24703299453E+04  0.46999998093E+01 0. -1.
</event>
<event>
 5   0  0.1819906E-07  0.3976283E+04  0.7818609E-02  0.8009348E-01
        2   -1    0    0  501    0  0.00000000000E+00  0.00000000000E+00  0.19896818003E+04  0.19896818003E+04  0.25500000920E-02 0. -1.
       -2   -1    0    0    0  501  0.00000000000E+00  0.00000000000E+00 -0.19866022414E+04  0.19866022414E+04  0.25500000920E-02 0.  1.
    10030    2    1    2    0    0  0.00000000000E+00  0.00000000000E+00  0.30795588397E+01  0.39762840417E+04  0.39762828492E+04 0.  0.
        1    1    3    3  502    0  0.18192146382E+04  0.60173242643E+03 -0.52863253211E+03  0.19877314122E+04  0.50400001928E-02 0.  1.
       -1    1    3    3    0  502 -0.18192146382E+04 -0.60173242643E+03  0.53171209095E+03  0.19885526296E+04  0.50400001928E-02 0. -1.
</event>
<event>
 5   0  0.1821433E-07  0.4011172E+04  0.7818609E-02  0.8002297E-01
       -2   -1    0    0    0  501  0.00000000000E+00  0.00000000000E+00  0.26921530771E+04  0.26921530771E+04  0.25500000920E-02 0.  1.
        2   -1    0    0  501    0  0.00000000000E+00  0.00000000000E+00 -0.14941108725E+04  0.14941108725E+04  0.25500000920E-02 0. -1.
    10030    2    1    2    0    0  0.00000000000E+00  0.00000000000E+00  0.11980422046E+04  0.41862639496E+04  0.40111719898E+04 0.  0.
        5    1    3    3  502    0 -0.66021821901E+03 -0.16503642529E+04  0.15684166856E+04  0.23705575829E+04  0.46999998093E+01 0.  1.
       -5    1    3    3    0  502  0.66021821901E+03  0.16503642529E+04 -0.37037448103E+03  0.18157063667E+04  0.46999998093E+01 0. -1.
</event>
<event>
 5   0  0.1821433E-07  0.3973823E+04  0.7818609E-02  0.8009848E-01
        2   -1    0    0  501    0  0.00000000000E+00  0.00000000000E+00  0.23049909755E+04  0.23049909755E+04  0.25500000920E-02 0. -1.
       -2   -1    0    0    0  501  0.00000000000E+00  0.00000000000E+00 -0.17127260469E+04  0.17127260469E+04  0.25500000920E-02 0.  1.
    10030    2    1    2    0    0  0.00000000000E+00  0.00000000000E+00  0.59226492863E+03  0.40177170224E+04  0.39738233890E+04 0.  0.
        5    1    3    3  502    0  0.11152662691E+04  0.16109339244E+04  0.62973010023E+03  0.20580352399E+04  0.46999998093E+01 0. -1.
       -5    1    3    3    0  502 -0.11152662691E+04 -0.16109339244E+04 -0.37465171605E+02  0.19596817825E+04  0.46999998093E+01 0.  1.
</event>
<event>
 5   0  0.5515000E-08  0.3908486E+04  0.7818609E-02  0.8023267E-01
       -1   -1    0    0    0  501  0.00000000000E+00  0.00000000000E+00  0.27183397037E+04  0.27183397037E+04  0.50400001928E-02 0. -1.
        1   -1    0    0  501    0  0.00000000000E+00  0.00000000000E+00 -0.14049256998E+04  0.14049256998E+04  0.50400001928E-02 0.  1.
    10030    2    1    2    0    0  0.00000000000E+00  0.00000000000E+00  0.13134140039E+04  0.41232654035E+04  0.39084857992E+04 0.  0.
        5    1    3    3  502    0 -0.73880823077E+03 -0.17837295301E+04  0.97584454859E+03  0.21632899278E+04  0.46999998093E+01 0. -1.
       -5    1    3    3    0  502  0.73880823077E+03  0.17837295301E+04  0.33756945527E+03  0.19599754758E+04  0.46999998093E+01 0.  1.
</event>
<event>
 5   0  0.1821433E-07  0.3910695E+04  0.7818609E-02  0.8022809E-01
       -2   -1    0    0    0  501  0.00000000000E+00  0.00000000000E+00  0.21045863250E+04  0.21045863250E+04  0.25500000920E-02 0. -1.
        2   -1    0    0  501    0  0.00000000000E+00  0.00000000000E+00 -0.18166911644E+04  0.18166911644E+04  0.25500000920E-02 0.  1.
    10030    2    1    2    0    0  0.00000000000E+00  0.00000000000E+00  0.28789516059E+03  0.39212774894E+04  0.39106947625E+04 0.  0.
        5    1    3    3  502    0 -0.78534450613E+03 -0.20613552387E+03 -0.16396587014E+04  0.18296886606E+04  0.46999998093E+01 0.  1.
       -5    1    3    3    0  502  0.78534450613E+03  0.20613552387E+03  0.19275538620E+04  0.20915888288E+04  0.46999998093E+01 0. -1.
</event>
<event>
 5   0  0.5515000E-08  0.4028154E+04  0.7818609E-02  0.7998891E-01
        1   -1    0    0  501    0  0.00000000000E+00  0.00000000000E+00  0.20641455416E+04  0.20641455416E+04  0.50400001928E-02 0.  1.
       -1   -1    0    0    0  501  0.00000000000E+00  0.00000000000E+00 -0.19652225119E+04  0.19652225119E+04  0.50400001928E-02 0. -1.
    10030    2    1    2    0    0  0.00000000000E+00  0.00000000000E+00  0.98923029636E+02  0.40293680535E+04  0.40281535652E+04 0.  0.
        4    1    3    3  502    0 -0.95605006203E+03 -0.12675841164E+03  0.18181587086E+04  0.20581064400E+04  0.12699999809E+01 0.  1.
       -4    1    3    3    0  502  0.95605006203E+03  0.12675841164E+03 -0.17192356790E+04  0.19712616135E+04  0.12699999809E+01 0. -1.
</event>
<event>
 5   0  0.1819906E-07  0.3962001E+04  0.7818609E-02  0.8012256E-01
        2   -1    0    0  501    0  0.00000000000E+00  0.00000000000E+00  0.15424759912E+04  0.15424759912E+04  0.25500000920E-02 0.  1.
       -2   -1    0    0    0  501  0.00000000000E+00  0.00000000000E+00 -0.25441967532E+04  0.25441967532E+04  0.25500000920E-02 0. -1.
    10030    2    1    2    0    0  0.00000000000E+00  0.00000000000E+00 -0.10017207620E+04  0.40866727445E+04  0.39620007112E+04 0.  0.
        1    1    3    3  502    0 -0.19161693360E+04 -0.30518294560E+03 -0.88891847300E+02  0.19423550950E+04  0.50400001928E-02 0.  1.
       -1    1    3    3    0  502  0.19161693360E+04  0.30518294560E+03 -0.91282891471E+03  0.21443176495E+04  0.50400001928E-02 0. -1.
</event>
<event>
 5   0  0.5515000E-08  0.4089204E+04  0.7818609E-02  0.7986789E-01
       -1   -1    0    0    0  501  0.00000000000E+00  0.00000000000E+00  0.28090534632E+04  0.28090534632E+04  0.50400001928E-02 0. -1.
        1   -1    0    0  501    0  0.00000000000E+00  0.00000000000E+00 -0.14881871469E+04  0.14881871469E+04  0.50400001928E-02 0.  1.
    10030    2    1    2    0    0  0.00000000000E+00  0.00000000000E+00  0.13208663162E+04  0.42972406101E+04  0.40892039611E+04 0.  0.
        5    1    3    3  502    0  0.78048243863E+03  0.18151091294E+04  0.12131184574E+04  0.23185022041E+04  0.46999998093E+01 0. -1.
       -5    1    3    3    0  502 -0.78048243863E+03 -0.18151091294E+04  0.10774785879E+03  0.19787384060E+04  0.46999998093E+01 0.  1.
</event>
<event>
 5   0  0.5515000E-08  0.4030028E+04  0.7818609E-02  0.7998516E-01
        1   -1    0    0  501    0  0.00000000000E+00  0.00000000000E+00  0.19796879033E+04  0.19796879033E+04  0.50400001928E-02 0. -1.
       -1   -1    0    0    0  501  0.00000000000E+00  0.00000000000E+00 -0.20509699586E+04  0.20509699586E+04  0.50400001928E-02 0.  1.
    10030    2    1    2    0    0  0.00000000000E+00  0.00000000000E+00 -0.71282055328E+02  0.40306578619E+04  0.40300275022E+04 0.  0.
        1    1    3    3  502    0 -0.38835534528E+03 -0.18925636926E+04 -0.60814930151E+03  0.20254537215E+04  0.50400001928E-02 0. -1.
       -1    1    3    3    0  502  0.38835534528E+03  0.18925636926E+04  0.53686724618E+03  0.20052041405E+04  0.50400001928E-02 0.  1.
</event>
<event>
 5   0  0.5515000E-08  0.4103807E+04  0.7818609E-02  0.7983927E-01
       -1   -1    0    0    0  501  0.00000000000E+00  0.00000000000E+00  0.18272930634E+04  0.18272930634E+04  0.50400001928E-02 0. -1.
        1   -1    0    0  501    0  0.00000000000E+00  0.00000000000E+00 -0.23041232131E+04  0.23041232131E+04  0.50400001928E-02 0.  1.
    10030    2    1    2    0    0  0.00000000000E+00  0.00000000000E+00 -0.47683014973E+03  0.41314162765E+04  0.41038071906E+04 0.  0.
        3    1    3    3  502    0 -0.46224386555E+02 -0.12954533699E+04 -0.18397046818E+04  0.22505220403E+04  0.10100000352E+00 0.  1.
       -3    1    3    3    0  502  0.46224386555E+02  0.12954533699E+04  0.13628745320E+04  0.18808942362E+04  0.10100000352E+00 0. -1.
</event>
<event>
 5   0  0.5515000E-08  0.4004865E+04  0.7818609E-02  0.8003566E-01
       -1   -1    0    0    0  501  0.00000000000E+00  0.00000000000E+00  0.27926325579E+04  0.27926325579E+04  0.50400001928E-02 0.  1.
        1   -1    0    0  501    0  0.00000000000E+00  0.00000000000E+00 -0.14358268853E+04  0.14358268853E+04  0.50400001928E-02 0. -1.
    10030    2    1    2    0    0  0.00000000000E+00  0.00000000000E+00  0.13568056726E+04  0.42284594432E+04  0.40048654946E+04 0.  0.
        4    1    3    3  502    0  0.10578639396E+04 -0.52472383686E+03 -0.10290825311E+04  0.15663408596E+04  0.12699999809E+01 0. -1.
       -4    1    3    3    0  502 -0.10578639396E+04  0.52472383686E+03  0.23858882037E+04  0.26621185836E+04  0.12699999809E+01 0.  1.
</event>
<event>
 5   0  0.1776653E-07  0.4008248E+04  0.7818609E-02  0.8002885E-01
        2   -1    0    0  501    0  0.00000000000E+00  0.00000000000E+00  0.17335136033E+04  0.17335136033E+04  0.25500000920E-02 0. -1.
       -2   -1    0    0    0  501  0.00000000000E+00  0.00000000000E+00 -0.23169775330E+04  0.23169775330E+04  0.25500000920E-02 0.  1.
    10030    2    1    2    0    0  0.00000000000E+00  0.00000000000E+00 -0.58346392968E+03  0.40504911363E+04  0.40082475333E+04 0.  0.
        4    1    3    3  502    0 -0.83776964433E+03  0.11093280354E+04 -0.17505683024E+04  0.22353875864E+04  0.12699999809E+01 0.  1.
       -4    1    3    3    0  502  0.83776964433E+03 -0.11093280354E+04  0.11671043727E+04  0.18151035499E+04  0.12699999809E+01 0. -1.
</event>
<event>
 5   0  0.1773903E-07  0.4311137E+04  0.7818609E-02  0.7944562E-01
        2   -1    0    0  501    0  0.00000000000E+00  0.00000000000E+00  0.33289997412E+04  0.33289997412E+04  0.25500000920E-02 0. -1.
       -2   -1    0    0    0  501  0.00000000000E+00  0.00000000000E+00 -0.13957570018E+04  0.13957570018E+04  0.25500000920E-02 0.  1.
    10030    2    1    2    0    0  0.00000000000E+00  0.00000000000E+00  0.19332427394E+04  0.47247567431E+04  0.43111366009E+04 0.  0.
        3    1    3    3  502    0 -0.66777017832E+03 -0.11055693350E+04 -0.92472035484E+03  0.15884924647E+04  0.10100000352E+00 0.  1.
       -3    1    3    3    0  502  0.66777017832E+03  0.11055693350E+04  0.28579630942E+04  0.31362642783E+04  0.10100000352E+00 0. -1.
</event>
<event>
 5   0  0.5515000E-08  0.3916124E+04  0.7818609E-02  0.8021684E-01
       -1   -1    0    0    0  501  0.00000000000E+00  0.00000000000E+00  0.27492149931E+04  0.27492149931E+04  0.50400001928E-02 0.  1.
        1   -1    0    0  501    0  0.00000000000E+00  0.00000000000E+00 -0.13945827290E+04  0.13945827291E+04  0.50400001928E-02 0. -1.
    10030    2    1    2    0    0  0.00000000000E+00  0.00000000000E+00  0.13546322640E+04  0.41437977221E+04  0.39161244862E+04 0.  0.
        1    1    3    3  502    0  0.12361101215E+04  0.19968734147E+03  0.22702134195E+04  0.25926265132E+04  0.50400001928E-02 0.  1.
       -1    1    3    3    0  502 -0.12361101215E+04 -0.19968734147E+03 -0.91558115550E+03  0.15511712089E+04  0.50400001928E-02 0. -1.
</event>
<event>
 5   0  0.1821433E-07  0.4004259E+04  0.7818609E-02  0.8003688E-01
       -2   -1    0    0    0  501  0.00000000000E+00  0.00000000000E+00  0.18949838554E+04  0.18949838554E+04  0.25500000920E-02 0. -1.
        2   -1    0    0  501    0  0.00000000000E+00  0.00000000000E+00 -0.21153333301E+04  0.21153333301E+04  0.25500000920E-02 0.  1.
    10030    2    1    2    0    0  0.00000000000E+00  0.00000000000E+00 -0.22034947476E+03  0.40103171855E+04  0.40042589873E+04 0.  0.
        5    1    3    3  502    0  0.11475877100E+04 -0.12409262132E+04  0.96459610940E+03  0.19461046126E+04  0.46999998093E+01 0. -1.
       -5    1    3    3    0  502 -0.11475877100E+04  0.12409262132E+04 -0.11849455842E+04  0.20642125729E+04  0.46999998093E+01 0.  1.
</event>
<event>
 5   0  0.1773903E-07  0.3911891E+04  0.7818609E-02  0.8022561E-01
       -2   -1    0    0    0  501  0.00000000000E+00  0.00000000000E+00  0.12627783113E+04  0.12627783113E+04  0.25500000920E-02 0.  1.
        2   -1    0    0  501    0  0.00000000000E+00  0.00000000000E+00 -0.30296078435E+04  0.30296078435E+04  0.25500000920E-02 0. -1.
    10030    2    1    2    0    0  0.00000000000E+00  0.00000000000E+00 -0.17668295322E+04  0.42923861549E+04  0.39118911420E+04 0.  0.
        3    1    3    3  502    0 -0.82190481574E+03  0.56343759485E+03  0.96336408587E+03  0.13860230235E+04  0.10100000352E+00 0.  1.
       -3    1    3    3    0  502  0.82190481574E+03 -0.56343759485E+03 -0.27301936181E+04  0.29063631314E+04  0.10100000352E+00 0. -1.
</event>
<event>
 5   0  0.1776653E-07  0.4016180E+04  0.7818609E-02  0.8001290E-01
        2   -1    0    0  501    0  0.00000000000E+00  0.00000000000E+00  0.18119562374E+04  0.18119562374E+04  0.25500000920E-02 0. -1.
       -2   -1    0    0    0  501  0.00000000000E+00  0.00000000000E+00 -0.22254543668E+04  0.22254543668E+04  0.25500000920E-02 0.  1.
    10030    2    1    2    0    0  0.00000000000E+00  0.00000000000E+00 -0.41349812941E+03  0.40374106042E+04  0.40161802355E+04 0.  0.
        4    1    3    3  502    0 -0.11593840550E+04 -0.15763092645E+04 -0.66024572306E+03  0.20651509175E+04  0.12699999809E+01 0.  1.
       -4    1    3    3    0  502  0.11593840550E+04  0.15763092645E+04  0.24674759365E+03  0.19722596868E+04  0.12699999809E+01 0. -1.
</event>
<event>
 5   0  0.1785559E-07  0.4004833E+04  0.7818609E-02  0.8003572E-01
        2   -1    0    0  501    0  0.00000000000E+00  0.00000000000E+00  0.18115556118E+04  0.18115556118E+04  0.25500000920E-02 0.  1.
       -2   -1    0    0    0  501  0.00000000000E+00  0.00000000000E+00 -0.22133862431E+04  0.22133862431E+04  0.25500000920E-02 0. -1.
    10030    2    1    2    0    0  0.00000000000E+00  0.00000000000E+00 -0.40183063125E+03  0.40249418549E+04  0.40048332149E+04 0.  0.
        2    1    3    3  502    0 -0.25941849715E+03 -0.16804229728E+04 -0.12638423416E+04  0.21185883953E+04  0.25500000920E-02 0. -1.
       -2    1    3    3    0  502  0.25941849715E+03  0.16804229728E+04  0.86201171033E+03  0.19063534596E+04  0.25500000920E-02 0.  1.
</event>
<event>
 5   0  0.1785559E-07  0.3332630E+04  0.7818609E-02  0.8154642E-01
        2   -1    0    0  501    0  0.00000000000E+00  0.00000000000E+00  0.22654746629E+04  0.22654746629E+04  0.25500000920E-02 0. -1.
       -2   -1    0    0    0  501  0.00000000000E+00  0.00000000000E+00 -0.12256176153E+04  0.12256176153E+04  0.25500000920E-02 0.  1.
    10030    2    1    2    0    0  0.00000000000E+00  0.00000000000E+00  0.10398570476E+04  0.34910922782E+04  0.33326299848E+04 0.  0.
        2    1    3    3  502    0 -0.51565022930E+03  0.15607562155E+03 -0.11318637902E+04  0.12535431378E+04  0.25500000920E-02 0.  1.
       -2    1    3    3    0  502  0.51565022930E+03 -0.15607562155E+03  0.21717208378E+04  0.22375491405E+04  0.25500000920E-02 0. -1.
</event>
<event>
 5   0  0.1785559E-07  0.3895353E+04  0.7818609E-02  0.8025996E-01
       -2   -1    0    0    0  501  0.00000000000E+00  0.00000000000E+00  0.18012364229E+04  0.18012364229E+04  0.25500000920E-02 0.  1.
        2   -1    0    0  501    0  0.00000000000E+00  0.00000000000E+00 -0.21060224479E+04  0.21060224479E+04  0.25500000920E-02 0. -1.
    10030    2    1    2    0    0  0.00000000000E+00  0.00000000000E+00 -0.30478602507E+03  0.39072588708E+04  0.38953533039E+04 0.  0.
        2    1    3    3  502    0  0.18608994075E+04  0.57301835352E+03 -0.10590806309E+03  0.19500033734E+04  0.25500000920E-02 0. -1.
       -2    1    3    3    0  502 -0.18608994075E+04 -0.57301835352E+03 -0.19887796198E+03  0.19572554974E+04  0.25500000920E-02 0.  1.
</event>
<event>
 5   0  0.1773903E-07  0.3989437E+04  0.7818609E-02  0.8006681E-01
       -2   -1    0    0    0  501  0.00000000000E+00  0.00000000000E+00  0.14210080130E+04  0.14210080130E+04  0.25500000920E-02 0. -1.
        2   -1    0    0  501    0  0.00000000000E+00  0.00000000000E+00 -0.28000564945E+04  0.28000564945E+04  0.25500000920E-02 0.  1.
    10030    2    1    2    0    0  0.00000000000E+00  0.00000000000E+00 -0.13790484815E+04  0.42210645075E+04  0.39894374117E+04 0.  0.
        3    1    3    3  502    0  0.51859550790E+03 -0.47971924970E+02 -0.27268491250E+04  0.27761391837E+04  0.10100000352E+00 0.  1.
       -3    1    3    3    0  502 -0.51859550790E+03  0.47971924970E+02  0.13478006435E+04  0.14449253238E+04  0.10100000352E+00 0. -1.
</event>
<event>
 5   0  0.1776653E-07  0.4077567E+04  0.7818609E-02  0.7989079E-01
       -2   -1    0    0    0  501  0.00000000000E+00  0.00000000000E+00  0.18426785512E+04  0.18426785512E+04  0.25500000920E-02 0.  1.
        2   -1    0    0  501    0  0.00000000000E+00  0.00000000000E+00 -0.22557582613E+04  0.22557582613E+04  0.25500000920E-02 0. -1.
    10030    2    1    2    0    0  0.00000000000E+00  0.00000000000E+00 -0.41307971004E+03  0.40984368125E+04  0.40775666100E+04 0.  0.
        4    1    3    3  502    0 -0.17182455913E+04  0.10790746308E+04 -0.40722596636E+03  0.20694454744E+04  0.12699999809E+01 0. -1.
       -4    1    3    3    0  502  0.17182455913E+04 -0.10790746308E+04 -0.58537436801E+01  0.20289913381E+04  0.12699999809E+01 0.  1.
</event>
<event>
 5   0  0.1819906E-07  0.3971432E+04  0.7818609E-02  0.8010335E-01
       -2   -1    0    0    0  501  0.00000000000E+00  0.00000000000E+00  0.15214148265E+04  0.15214148265E+04  0.25500000920E-02 0.  1.
        2   -1    0    0  501    0  0.00000000000E+00  0.00000000000E+00 -0.25917109444E+04  0.25917109444E+04  0.25500000920E-02 0. -1.
    10030    2    1    2    0    0  0.00000000000E+00  0.00000000000E+00 -0.10702961178E+04  0.41131257709E+04  0.39714317100E+04 0.  0.
        1    1    3    3  502    0  0.60748255606E+03 -0.24383664751E+03  0.14064591040E+04  0.15513280046E+04  0.50400001928E-02 0.  1.
       -1    1    3    3    0  502 -0.60748255606E+03  0.24383664751E+03 -0.24767552218E+04  0.25617977663E+04  0.50400001928E-02 0. -1.
</event>
<event>
 5   0  0.5515000E-08  0.4017599E+04  0.7818609E-02  0.8001006E-01
        1   -1    0    0  501    0  0.00000000000E+00  0.00000000000E+00  0.26440495684E+04  0.26440495684E+04  0.50400001928E-02 0. -1.
       -1   -1    0    0    0  501  0.00000000000E+00  0.00000000000E+00 -0.15261725128E+04  0.15261725128E+04  0.50400001928E-02 0.  1.
    10030    2    1    2    0    0  0.00000000000E+00  0.00000000000E+00  0.11178770556E+04  0.41702220812E+04  0.40175991706E+04 0.  0.
        1    1    3    3  502    0 -0.12984459819E+04  0.14573010967E+04  0.10519419338E+04  0.22172663995E+04  0.50400001928E-02 0. -1.
       -1    1    3    3    0  502  0.12984459819E+04 -0.14573010967E+04  0.65935121811E+02  0.19529556817E+04  0.50400001928E-02 0.  1.
</event>
<event>
 5   0  0.5515000E-08  0.4006576E+04  0.7818609E-02  0.8003221E-01
       -1   -1    0    0    0  501  0.00000000000E+00  0.00000000000E+00  0.29648201175E+04  0.29648201175E+04  0.50400001928E-02 0. -1.
        1   -1    0    0  501    0  0.00000000000E+00  0.00000000000E+00 -0.13535943076E+04  0.13535943076E+04  0.50400001928E-02 0.  1.
    10030    2    1    2    0    0  0.00000000000E+00  0.00000000000E+00  0.16112258099E+04  0.43184144251E+04  0.40065764109E+04 0.  0.
        3    1    3    3  502    0  0.97817190563E+03  0.17481927534E+04  0.79174929361E+03  0.21540346176E+04  0.10100000352E+00 0.  1.
       -3    1    3    3    0  502 -0.97817190563E+03 -0.17481927534E+04  0.81947651625E+03  0.21643798074E+04  0.10100000352E+00 0. -1.
</event>
<event>
 5   0  0.5515000E-08  0.3952672E+04  0.7818609E-02  0.8014163E-01
       -1   -1    0    0    0  501  0.00000000000E+00  0.00000000000E+00  0.18960152186E+04  0.18960152186E+04  0.50400001928E-02 0.  1.
        1   -1    0    0  501    0  0.00000000000E+00  0.00000000000E+00 -0.20600598698E+04  0.20600598698E+04  0.50400001928E-02 0. -1.
    10030    2    1    2    0    0  0.00000000000E+00  0.00000000000E+00 -0.16404465119E+03  0.39560750884E+04  0.39526724450E+04 0.  0.
        1    1    3    3  502    0  0.13368710466E+04  0.11186776917E+04  0.85003703725E+03  0.19393882896E+04  0.50400001928E-02 0.  1.
       -1    1    3    3    0  502 -0.13368710466E+04 -0.11186776917E+04 -0.10140816884E+04  0.20166867987E+04  0.50400001928E-02 0. -1.
</event>
<event>
 5   0  0.1776653E-07  0.4004281E+04  0.7818609E-02  0.8003683E-01
        2   -1    0    0  501    0  0.00000000000E+00  0.00000000000E+00  0.21111265430E+04  0.21111265430E+04  0.25500000920E-02 0.  1.
       -2   -1    0    0    0  501  0.00000000000E+00  0.00000000000E+00 -0.18987812335E+04  0.18987812335E+04  0.25500000920E-02 0. -1.
    10030    2    1    2    0    0  0.00000000000E+00  0.00000000000E+00  0.21234530951E+03  0.40099077765E+04  0.40042814394E+04 0.  0.
        4    1    3    3  502    0 -0.28021968444E+03  0.17393218969E+04  0.10587200508E+04  0.20553961884E+04  0.12699999809E+01 0.  1.
       -4    1    3    3    0  502  0.28021968444E+03 -0.17393218969E+04 -0.84637474130E+03  0.19545115881E+04  0.12699999809E+01 0. -1.
</event>
<event>
 5   0  0.1785559E-07  0.3946103E+04  0.7818609E-02  0.8015508E-01
        2   -1    0    0  501    0  0.00000000000E+00  0.00000000000E+00  0.18708271213E+04  0.18708271213E+04  0.25500000920E-02 0.  1.
       -2   -1    0    0    0  501  0.00000000000E+00  0.00000000000E+00 -0.20808620546E+04  0.20808620546E+04  0.25500000920E-02 0. -1.
    10030    2    1    2    0    0  0.00000000000E+00  0.00000000000E+00 -0.21003493329E+03  0.39516891759E+04  0.39461034793E+04 0.  0.
        2    1    3    3  502    0  0.67260334906E+03  0.67600133484E+03  0.16247260157E+04  0.18839075603E+04  0.25500000920E-02 0.  1.
       -2    1    3    3    0  502 -0.67260334906E+03 -0.67600133484E+03 -0.18347609489E+04  0.20677816156E+04  0.25500000920E-02 0. -1.
</event>
<event>
 5   0  0.1785559E-07  0.4072364E+04  0.7818609E-02  0.7990105E-01
       -2   -1    0    0    0  501  0.00000000000E+00  0.00000000000E+00  0.17547050022E+04  0.17547050022E+04  0.25500000920E-02 0.  1.
        2   -1    0    0  501    0  0.00000000000E+00  0.00000000000E+00 -0.23628116392E+04  0.23628116392E+04  0.25500000920E-02 0. -1.
    10030    2    1    2    0    0  0.00000000000E+00  0.00000000000E+00 -0.60810663706E+03  0.41175166414E+04  0.40723641303E+04 0.  0.
        2    1    3    3  502    0  0.18960997879E+04  0.73649548226E+03 -0.21128967923E+03  0.20450582705E+04  0.25500000920E-02 0.  1.
       -2    1    3    3    0  502 -0.18960997879E+04 -0.73649548226E+03 -0.39681695783E+03  0.20724583709E+04  0.25500000920E-02 0. -1.
</event>
<event>
 5   0  0.1819906E-07  0.4070314E+04  0.7818609E-02  0.7990510E-01
       -2   -1    0    0    0  501  0.00000000000E+00  0.00000000000E+00  0.19590663661E+04  0.19590663661E+04  0.25500000920E-02 0.  1.
        2   -1    0    0  501    0  0.00000000000E+00  0.00000000000E+00 -0.21142033970E+04  0.21142033970E+04  0.25500000920E-02 0. -1.
    10030    2    1    2    0    0  0.00000000000E+00  0.00000000000E+00 -0.15513703092E+03  0.40732697631E+04  0.40703143693E+04 0.  0.
        1    1    3    3  502    0 -0.17196688994E+04 -0.78357311376E+03 -0.83350882478E+03  0.20654260842E+04  0.50400001928E-02 0. -1.
       -1    1    3    3    0  502  0.17196688994E+04  0.78357311376E+03  0.67837179385E+03  0.20078436789E+04  0.50400001928E-02 0.  1.
</event>
<event>
 5   0  0.1821433E-07  0.3835463E+04  0.7818609E-02  0.8038587E-01
        2   -1    0    0  501    0  0.00000000000E+00  0.00000000000E+00  0.29013899649E+04  0.29013899649E+04  0.25500000920E-02 0.  1.
       -2   -1    0    0    0  501  0.00000000000E+00  0.00000000000E+00 -0.12675625790E+04  0.12675625790E+04  0.25500000920E-02 0. -1.
    10030    2    1    2    0    0  0.00000000000E+00  0.00000000000E+00  0.16338273859E+04  0.41689525439E+04  0.38354626040E+04 0.  0.
        5    1    3    3  502    0  0.34840569745E+03 -0.16576929731E+04 -0.16033678966E+03  0.17014883188E+04  0.46999998093E+01 0. -1.
       -5    1    3    3    0  502 -0.34840569745E+03  0.16576929731E+04  0.17941641756E+04  0.24674642251E+04  0.46999998093E+01 0.  1.
</event>
<event>
 5   0  0.5515000E-08  0.4051020E+04  0.7818609E-02  0.7994333E-01
       -1   -1    0    0    0  501  0.00000000000E+00  0.00000000000E+00  0.17907870026E+04  0.17907870027E+04  0.50400001928E-02 0. -1.
        1   -1    0    0  501    0  0.00000000000E+00  0.00000000000E+00 -0.22909985943E+04  0.22909985943E+04  0.50400001928E-02 0.  1.
    10030    2    1    2    0    0  0.00000000000E+00  0.00000000000E+00 -0.50021159165E+03  0.40817855970E+04  0.40510198744E+04 0.  0.
        4    1    3    3  502    0 -0.97885510725E+03 -0.39031642783E+03  0.14928244680E+04  0.18273014913E+04  0.12699999809E+01 0. -1.
       -4    1    3    3    0  502  0.97885510725E+03  0.39031642783E+03 -0.19930360597E+04  0.22544841057E+04  0.12699999809E+01 0.  1.
</event>
<event>
 5   0  0.5515000E-08  0.3970418E+04  0.7818609E-02  0.8010541E-01
        1   -1    0    0  501    0  0.00000000000E+00  0.00000000000E+00  0.13183493793E+04  0.13183493793E+04  0.50400001928E-02 0.  1.
       -1   -1    0    0    0  501  0.00000000000E+00  0.00000000000E+00 -0.29893858755E+04  0.29893858755E+04  0.50400001928E-02 0. -1.
    10030    2    1    2    0    0  0.00000000000E+00  0.00000000000E+00 -0.16710364963E+04  0.43077352548E+04  0.39704181207E+04 0.  0.
        3    1    3    3  502    0 -0.16359591046E+04 -0.85497309052E+03 -0.16281418257E+04  0.24613384555E+04  0.10100000352E+00 0.  1.
       -3    1    3    3    0  502  0.16359591046E+04  0.85497309052E+03 -0.42894670534E+02  0.18463967993E+04  0.10100000352E+00 0. -1.
</event>
<event>
 5   0  0.5515000E-08  0.4017684E+04  0.7818609E-02  0.8000989E-01
       -1   -1    0    0    0  501  0.00000000000E+00  0.00000000000E+00  0.28265920030E+04  0.28265920031E+04  0.50400001928E-02 0.  1.
        1   -1    0    0  501    0  0.00000000000E+00  0.00000000000E+00 -0.14276716648E+04  0.14276716648E+04  0.50400001928E-02 0. -1.
    10030    2    1    2    0    0  0.00000000000E+00  0.00000000000E+00  0.13989203382E+04  0.42542636679E+04  0.40176835668E+04 0.  0.
        3    1    3    3  502    0 -0.10521930002E+04 -0.20821054709E+03 -0.10990808426E+04  0.15357214756E+04  0.10100000352E+00 0. -1.
       -3    1    3    3    0  502  0.10521930002E+04  0.20821054709E+03  0.24980011809E+04  0.27185421923E+04  0.10100000352E+00 0.  1.
</event>
<event>
 5   0  0.5515000E-08  0.4002615E+04  0.7818609E-02  0.8004019E-01
        1   -1    0    0  501    0  0.00000000000E+00  0.00000000000E+00  0.22796759842E+04  0.22796759842E+04  0.50400001928E-02 0.  1.
       -1   -1    0    0    0  501  0.00000000000E+00  0.00000000000E+00 -0.17569305890E+04  0.17569305890E+04  0.50400001928E-02 0. -1.
    10030    2    1    2    0    0  0.00000000000E+00  0.00000000000E+00  0.52274539518E+03  0.40366065732E+04  0.40026153798E+04 0.  0.
        2    1    3    3  502    0  0.14997810113E+03 -0.91424266846E+03  0.20503877385E+04  0.22499828812E+04  0.25500000920E-02 0.  1.
       -2    1    3    3    0  502 -0.14997810113E+03  0.91424266846E+03 -0.15276423433E+04  0.17866236920E+04  0.25500000920E-02 0. -1.
</event>
<event>
 5   0  0.1773903E-07  0.3544704E+04  0.7818609E-02  0.8103277E-01
        2   -1    0    0  501    0  0.00000000000E+00  0.00000000000E+00  0.22091875558E+04  0.22091875558E+04  0.25500000920E-02 0. -1.
       -2   -1    0    0    0  501  0.00000000000E+00  0.00000000000E+00 -0.14218948592E+04  0.14218948592E+04  0.25500000920E-02 0.  1.
    10030    2    1    2    0    0  0.00000000000E+00  0.00000000000E+00  0.78729269665E+03  0.36310824150E+04  0.35447044608E+04 0.  0.
        3    1    3    3  502    0 -0.33044899628E+03  0.30522659984E+03 -0.13624423767E+04  0.14347853695E+04  0.10100000352E+00 0.  1.
       -3    1    3    3    0  502  0.33044899628E+03 -0.30522659984E+03  0.21497350734E+04  0.21962970455E+04  0.10100000352E+00 0. -1.
</event>
<event>
 5   0  0.5515000E-08  0.3981393E+04  0.7818609E-02  0.8008311E-01
       -1   -1    0    0    0  501  0.00000000000E+00  0.00000000000E+00  0.16341935219E+04  0.16341935219E+04  0.50400001928E-02 0. -1.
        1   -1    0    0  501    0  0.00000000000E+00  0.00000000000E+00 -0.24249709766E+04  0.24249709766E+04  0.50400001928E-02 0.  1.
    10030    2    1    2    0    0  0.00000000000E+00  0.00000000000E+00 -0.79077745477E+03  0.40591644985E+04  0.39813926512E+04 0.  0.
        2    1    3    3  502    0 -0.12284986771E+04  0.97935862090E+03 -0.16417743817E+04  0.22723942062E+04  0.25500000920E-02 0.  1.
       -2    1    3    3    0  502  0.12284986771E+04 -0.97935862090E+03  0.85099692690E+03  0.17867702923E+04  0.25500000920E-02 0. -1.
</event>
<event>
 5   0  0.1821433E-07  0.3835912E+04  0.7818609E-02  0.8038492E-01
        2   -1    0    0  501    0  0.00000000000E+00  0.00000000000E+00  0.24676729939E+04  0.24676729939E+04  0.25500000920E-02 0. -1.
       -2   -1    0    0    0  501  0.00000000000E+00  0.00000000000E+00 -0.14906981504E+04  0.14906981504E+04  0.25500000920E-02 0.  1.
    10030    2    1    2    0    0  0.00000000000E+00  0.00000000000E+00  0.97697484346E+03  0.39583711443E+04  0.38359121824E+04 0.  0.
        5    1    3    3  502    0 -0.84542663791E+03 -0.16980234467E+04  0.78127702245E+03  0.20514496585E+04  0.46999998093E+01 0.  1.
       -5    1    3    3    0  502  0.84542663791E+03  0.16980234467E+04  0.19569782101E+03  0.19069214858E+04  0.46999998093E+01 0. -1.
</event>
<event>
 5   0  0.1819906E-07  0.4103350E+04  0.7818609E-02  0.7984016E-01
       -2   -1    0    0    0  501  0.00000000000E+00  0.00000000000E+00  0.19292277669E+04  0.19292277669E+04  0.25500000920E-02 0. -1.
        2   -1    0    0  501    0  0.00000000000E+00  0.00000000000E+00 -0.21818936350E+04  0.21818936350E+04  0.25500000920E-02 0.  1.
    10030    2    1    2    0    0  0.00000000000E+00  0.00000000000E+00 -0.25266586814E+03  0.41111214019E+04  0.41033497463E+04 0.  0.
        1    1    3    3  502    0 -0.70349311710E+02  0.16753765615E+04 -0.13107454249E+04  0.21283536401E+04  0.50400001928E-02 0.  1.
       -1    1    3    3    0  502  0.70349311710E+02 -0.16753765615E+04  0.10580795568E+04  0.19827677617E+04  0.50400001928E-02 0. -1.
</event>
<event>
 5   0  0.5515000E-08  0.3843753E+04  0.7818609E-02  0.8036830E-01
        1   -1    0    0  501    0  0.00000000000E+00  0.00000000000E+00  0.21555765292E+04  0.21555765292E+04  0.50400001928E-02 0. -1.
       -1   -1    0    0    0  501  0.00000000000E+00  0.00000000000E+00 -0.17135133752E+04  0.17135133752E+04  0.50400001928E-02 0.  1.
    10030    2    1    2    0    0  0.00000000000E+00  0.00000000000E+00  0.44206315397E+03  0.38690899045E+04  0.38437529651E+04 0.  0.
        5    1    3    3  502    0 -0.12272008990E+04  0.14700528076E+04  0.38492319641E+03  0.19532704014E+04  0.46999998093E+01 0. -1.
       -5    1    3    3    0  502  0.12272008990E+04 -0.14700528076E+04  0.57139957567E+02  0.19158195031E+04  0.46999998093E+01 0.  1.
</event>
<event>
 5   0  0.5515000E-08  0.4015715E+04  0.7818609E-02  0.8001384E-01
       -1   -1    0    0    0  501  0.00000000000E+00  0.00000000000E+00  0.16883810904E+04  0.16883810904E+04  0.50400001928E-02 0.  1.
        1   -1    0    0  501    0  0.00000000000E+00  0.00000000000E+00 -0.23877852581E+04  0.23877852581E+04  0.50400001928E-02 0. -1.
    10030    2    1    2    0    0  0.00000000000E+00  0.00000000000E+00 -0.69940416769E+03  0.40761663486E+04  0.40157148693E+04 0.  0.
        3    1    3    3  502    0  0.10068512223E+04 -0.19312821905E+03 -0.21020869049E+04  0.23387640451E+04  0.10100000352E+00 0. -1.
       -3    1    3    3    0  502 -0.10068512223E+04  0.19312821905E+03  0.14026827372E+04  0.17374023035E+04  0.10100000352E+00 0.  1.
</event>
<event>
 5   0  0.5515000E-08  0.3999404E+04  0.7818609E-02  0.8004667E-01
       -1   -1    0    0    0  501  0.00000000000E+00  0.00000000000E+00  0.24578919105E+04  0.24578919105E+04  0.50400001928E-02 0.  1.
        1   -1    0    0  501    0  0.00000000000E+00  0.00000000000E+00 -0.16269262402E+04  0.16269262402E+04  0.50400001928E-02 0. -1.
    10030    2    1    2    0    0  0.00000000000E+00  0.00000000000E+00  0.83096567027E+03  0.40848181507E+04  0.39994043780E+04 0.  0.
        1    1    3    3  502    0  0.15932084342E+03 -0.54680397349E+03 -0.15423358334E+04  0.16441342827E+04  0.50400001928E-02 0. -1.
       -1    1    3    3    0  502 -0.15932084342E+03  0.54680397349E+03  0.23733015036E+04  0.24406838680E+04  0.50400001928E-02 0.  1.
</event>
<event>
 5   0  0.5515000E-08  0.4000271E+04  0.7818609E-02  0.8004492E-01
       -3   -1    0    0    0  501  0.00000000000E+00  0.00000000000E+00  0.21867083350E+04  0.21867083373E+04  0.10100000352E+00 0.  1.
        3   -1    0    0  501    0  0.00000000000E+00  0.00000000000E+00 -0.18294814077E+04  0.18294814105E+04  0.10100000352E+00 0. -1.
    10030    2    1    2    0    0  0.00000000000E+00  0.00000000000E+00  0.35722692727E+03  0.40161897478E+04  0.40002711174E+04 0.  0.
        1    1    3    3  502    0  0.18331227997E+04 -0.40172402595E+03 -0.51610897842E+03  0.19463015875E+04  0.50400001928E-02 0. -1.
       -1    1    3    3    0  502 -0.18331227997E+04  0.40172402595E+03  0.87333590570E+03  0.20698881603E+04  0.50400001928E-02 0.  1.
</event>
<event>
 5   0  0.1785559E-07  0.3955634E+04  0.7818609E-02  0.8013557E-01
        2   -1    0    0  501    0  0.00000000000E+00  0.00000000000E+00  0.26876544192E+04  0.26876544192E+04  0.25500000920E-02 0. -1.
       -2   -1    0    0    0  501  0.00000000000E+00  0.00000000000E+00 -0.14554552919E+04  0.14554552919E+04  0.25500000920E-02 0.  1.
    10030    2    1    2    0    0  0.00000000000E+00  0.00000000000E+00  0.12321991273E+04  0.41431097111E+04  0.39556343851E+04 0.  0.
        2    1    3    3  502    0 -0.17341100939E+04  0.48325876105E+03 -0.24192304651E+03  0.18163709996E+04  0.25500000920E-02 0.  1.
       -2    1    3    3    0  502  0.17341100939E+04 -0.48325876105E+03  0.14741221738E+04  0.23267387114E+04  0.25500000920E-02 0. -1.
</event>
<event>
 5   0  0.5515000E-08  0.4118085E+04  0.7818609E-02  0.7981140E-01
       -1   -1    0    0    0  501  0.00000000000E+00  0.00000000000E+00  0.21546661316E+04  0.21546661316E+04  0.50400001928E-02 0. -1.
        1   -1    0    0  501    0  0.00000000000E+00  0.00000000000E+00 -0.19676629931E+04  0.19676629931E+04  0.50400001928E-02 0.  1.
    10030    2    1    2    0    0  0.00000000000E+00  0.00000000000E+00  0.18700313849E+03  0.41223291247E+04  0.41180853851E+04 0.  0.
        2    1    3    3  502    0  0.31407919087E+03 -0.19937288601E+04 -0.31441843102E+03  0.20426598972E+04  0.25500000920E-02 0.  1.
       -2    1    3    3    0  502 -0.31407919087E+03  0.19937288601E+04  0.50142156950E+03  0.20796692276E+04  0.25500000920E-02 0. -1.
</event>
<event>
 5   0  0.1821433E-07  0.3400440E+04  0.7818609E-02  0.8137798E-01
       -2   -1    0    0    0  501  0.00000000000E+00  0.00000000000E+00  0.16763671382E+04  0.16763671382E+04  0.25500000920E-02 0.  1.
        2   -1    0    0  501    0  0.00000000000E+00  0.00000000000E+00 -0.17244123852E+04  0.17244123852E+04  0.25500000920E-02 0. -1.
    10030    2    1    2    0    0  0.00000000000E+00  0.00000000000E+00 -0.48045247029E+02  0.34007795235E+04  0.34004401217E+04 0.  0.
        5    1    3    3  502    0 -0.12599104116E+04  0.10574408667E+04  0.40633501804E+03  0.16943097912E+04  0.46999998093E+01 0.  1.
       -5    1    3    3    0  502  0.12599104116E+04 -0.10574408667E+04 -0.45438026507E+03  0.17064697322E+04  0.46999998093E+01 0. -1.
</event>
<event>
 5   0  0.5515000E-08  0.3974357E+04  0.7818609E-02  0.8009740E-01
       -1   -1    0    0    0  501  0.00000000000E+00  0.00000000000E+00  0.20407561180E+04  0.20407561180E+04  0.50400001928E-02 0.  1.
        1   -1    0    0  501    0  0.00000000000E+00  0.00000000000E+00 -0.19350072895E+04  0.19350072895E+04  0.50400001928E-02 0. -1.
    10030    2    1    2    0    0  0.00000000000E+00  0.00000000000E+00  0.10574882848E+03  0.39757634076E+04  0.39743567855E+04 0.  0.
        3    1    3    3  502    0 -0.32339514869E+02 -0.12091153921E+04  0.16300972939E+04  0.20298332624E+04  0.10100000352E+00 0.  1.
       -3    1    3    3    0  502  0.32339514869E+02  0.12091153921E+04 -0.15243484654E+04  0.19459301451E+04  0.10100000352E+00 0. -1.
</event>
<event>
 5   0  0.1773903E-07  0.4016756E+04  0.7818609E-02  0.8001175E-01
        2   -1    0    0  501    0  0.00000000000E+00  0.00000000000E+00  0.27958998205E+04  0.27958998205E+04  0.25500000920E-02 0. -1.
       -2   -1    0    0    0  501  0.00000000000E+00  0.00000000000E+00 -0.14426775005E+04  0.14426775005E+04  0.25500000920E-02 0.  1.
    10030    2    1    2    0    0  0.00000000000E+00  0.00000000000E+00  0.13532223201E+04  0.42385773210E+04  0.40167557878E+04 0.  0.
        3    1    3    3  502    0  0.10818189728E+04 -0.15751071658E+04  0.13290493573E+04  0.23275882535E+04  0.10100000352E+00 0. -1.
       -3    1    3    3    0  502 -0.10818189728E+04  0.15751071658E+04  0.24172962779E+02  0.19109890675E+04  0.10100000352E+00 0.  1.
</event>
<event>
 5   0  0.1821433E-07  0.3966040E+04  0.7818609E-02  0.8011433E-01
       -2   -1    0    0    0  501  0.00000000000E+00  0.00000000000E+00  0.16409808376E+04  0.16409808376E+04  0.25500000920E-02 0. -1.
        2   -1    0    0  501    0  0.00000000000E+00  0.00000000000E+00 -0.23963527309E+04  0.23963527309E+04  0.25500000920E-02 0.  1.
    10030    2    1    2    0    0  0.00000000000E+00  0.00000000000E+00 -0.75537189333E+03  0.40373335686E+04  0.39660402982E+04 0.  0.
        5    1    3    3  502    0 -0.10459511696E+04 -0.13078840842E+04  0.70337007815E+03  0.18164047412E+04  0.46999998093E+01 0. -1.
       -5    1    3    3    0  502  0.10459511696E+04  0.13078840842E+04 -0.14587419715E+04  0.22209288274E+04  0.46999998093E+01 0.  1.
</event>
<event>
 5   0  0.1821433E-07  0.3965701E+04  0.7818609E-02  0.8011502E-01
        2   -1    0    0  501    0  0.00000000000E+00  0.00000000000E+00  0.18652867861E+04  0.18652867861E+04  0.25500000920E-02 0. -1.
       -2   -1    0    0    0  501  0.00000000000E+00  0.00000000000E+00 -0.21078241582E+04  0.21078241582E+04  0.25500000920E-02 0.  1.
    10030    2    1    2    0    0  0.00000000000E+00  0.00000000000E+00 -0.24253737213E+03  0.39731109443E+04  0.39657012241E+04 0.  0.
        5    1    3    3  502    0  0.12204025934E+04  0.15540550660E+04 -0.28651570853E+03  0.19966429273E+04  0.46999998093E+01 0.  1.
       -5    1    3    3    0  502 -0.12204025934E+04 -0.15540550660E+04  0.43978336395E+02  0.19764680170E+04  0.46999998093E+01 0. -1.
</event>
<event>
 5   0  0.1773903E-07  0.3939481E+04  0.7818609E-02  0.8016868E-01
        2   -1    0    0  501    0  0.00000000000E+00  0.00000000000E+00  0.21364057617E+04  0.21364057617E+04  0.25500000920E-02 0. -1.
       -2   -1    0    0    0  501  0.00000000000E+00  0.00000000000E+00 -0.18160767984E+04  0.18160767984E+04  0.25500000920E-02 0.  1.
    10030    2    1    2    0    0  0.00000000000E+00  0.00000000000E+00  0.32032896329E+03  0.39524825602E+04  0.39394806439E+04 0.  0.
        3    1    3    3  502    0 -0.15172894510E+04  0.60933403143E+03 -0.94183289068E+03  0.18869298991E+04  0.10100000352E+00 0.  1.
       -3    1    3    3    0  502  0.15172894510E+04 -0.60933403143E+03  0.12621618540E+04  0.20655526611E+04  0.10100000352E+00 0. -1.
</event>
<event>
 5   0  0.5515000E-08  0.4010186E+04  0.7818609E-02  0.8002495E-01
        1   -1    0    0  501    0  0.00000000000E+00  0.00000000000E+00  0.24344856159E+04  0.24344856159E+04  0.50400001928E-02 0.  1.
       -1   -1    0    0    0  501  0.00000000000E+00  0.00000000000E+00 -0.16514366925E+04  0.16514366925E+04  0.50400001928E-02 0. -1.
    10030    2    1    2    0    0  0.00000000000E+00  0.00000000000E+00  0.78304892347E+03  0.40859223084E+04  0.40101864662E+04 0.  0.
        1    1    3    3  502    0  0.55763071507E+02  0.40067398071E+03 -0.16094256718E+04  0.16594879186E+04  0.50400001928E-02 0. -1.
       -1    1    3    3    0  502 -0.55763071507E+02 -0.40067398071E+03  0.23924745953E+04  0.24264343898E+04  0.50400001928E-02 0.  1.
</event>
<event>
 5   0  0.5515000E-08  0.3613774E+04  0.7818609E-02  0.8087344E-01
        1   -1    0    0  501    0  0.00000000000E+00  0.00000000000E+00  0.18998512258E+04  0.18998512258E+04  0.50400001928E-02 0. -1.
       -1   -1    0    0    0  501  0.00000000000E+00  0.00000000000E+00 -0.17184713534E+04  0.17184713534E+04  0.50400001928E-02 0.  1.
    10030    2    1    2    0    0  0.00000000000E+00  0.00000000000E+00  0.18137987242E+03  0.36183225791E+04  0.36137735995E+04 0.  0.
        4    1    3    3  502    0  0.20671531472E+03 -0.55078065133E+03  0.18012747920E+04  0.18949097700E+04  0.12699999809E+01 0. -1.
       -4    1    3    3    0  502 -0.20671531472E+03  0.55078065133E+03 -0.16198949196E+04  0.17234128091E+04  0.12699999809E+01 0.  1.
</event>
<event>
 5   0  0.5515000E-08  0.3505724E+04  0.7818609E-02  0.8112435E-01
       -3   -1    0    0    0  501  0.00000000000E+00  0.00000000000E+00  0.17113573445E+04  0.17113573475E+04  0.10100000352E+00 0.  1.
        3   -1    0    0  501    0  0.00000000000E+00  0.00000000000E+00 -0.17953729989E+04  0.17953730018E+04  0.10100000352E+00 0. -1.
    10030    2    1    2    0    0  0.00000000000E+00  0.00000000000E+00 -0.84015654432E+02  0.35067303492E+04  0.35057237644E+04 0.  0.
        3    1    3    3  502    0  0.12372573900E+04 -0.69185229761E+03 -0.10733515473E+04  0.17780745218E+04  0.10100000352E+00 0. -1.
       -3    1    3    3    0  502 -0.12372573900E+04  0.69185229761E+03  0.98933589284E+03  0.17286558275E+04  0.10100000352E+00 0.  1.
</event>
<event>
 5   0  0.1785559E-07  0.3889510E+04  0.7818609E-02  0.8027215E-01
        2   -1    0    0  501    0  0.00000000000E+00  0.00000000000E+00  0.20865535829E+04  0.20865535829E+04  0.25500000920E-02 0.  1.
       -2   -1    0    0    0  501  0.00000000000E+00  0.00000000000E+00 -0.18125925194E+04  0.18125925194E+04  0.25500000920E-02 0. -1.
    10030    2    1    2    0    0  0.00000000000E+00  0.00000000000E+00  0.27396106351E+03  0.38991461023E+04  0.38895096944E+04 0.  0.
        2    1    3    3  502    0  0.12731400835E+04  0.14638104144E+04  0.27312869772E+03  0.19591390678E+04  0.25500000920E-02 0.  1.
       -2    1    3    3    0  502 -0.12731400835E+04 -0.14638104144E+04  0.83236579467E+00  0.19400070346E+04  0.25500000920E-02 0. -1.
</event>
<event>
 5   0  0.5515000E-08  0.4010181E+04  0.7818609E-02  0.8002496E-01
        1   -1    0    0  501    0  0.00000000000E+00  0.00000000000E+00  0.18016054993E+04  0.18016054993E+04  0.50400001928E-02 0. -1.
       -1   -1    0    0    0  501  0.00000000000E+00  0.00000000000E+00 -0.22315582347E+04  0.22315582347E+04  0.50400001928E-02 0.  1.
    10030    2    1    2    0    0  0.00000000000E+00  0.00000000000E+00 -0.42995273540E+03  0.40331637339E+04  0.40101808376E+04 0.  0.
        5    1    3    3  502    0  0.45086283048E+03  0.87627259808E+03 -0.19711898676E+04  0.22038018382E+04  0.46999998093E+01 0.  1.
       -5    1    3    3    0  502 -0.45086283048E+03 -0.87627259808E+03  0.15412371322E+04  0.18293618957E+04  0.46999998093E+01 0. -1.
</event>
<event>
 5   0  0.5515000E-08  0.4033410E+04  0.7818609E-02  0.7997840E-01
       -1   -1    0    0    0  501  0.00000000000E+00  0.00000000000E+00  0.27584339474E+04  0.27584339474E+04  0.50400001928E-02 0. -1.
        1   -1    0    0  501    0  0.00000000000E+00  0.00000000000E+00 -0.14744230591E+04  0.14744230591E+04  0.50400001928E-02 0.  1.
    10030    2    1    2    0    0  0.00000000000E+00  0.00000000000E+00  0.12840108883E+04  0.42328570065E+04  0.40334097828E+04 0.  0.
        1    1    3    3  502    0  0.14600486266E+03  0.61753767733E+03 -0.13669225530E+04  0.15070326701E+04  0.50400001928E-02 0.  1.
       -1    1    3    3    0  502 -0.14600486266E+03 -0.61753767733E+03  0.26509334413E+04  0.27258243364E+04  0.50400001928E-02 0. -1.
</event>
<event>
 5   0  0.1776653E-07  0.4045272E+04  0.7818609E-02  0.7995476E-01
        2   -1    0    0  501    0  0.00000000000E+00  0.00000000000E+00  0.25312870542E+04  0.25312870542E+04  0.25500000920E-02 0.  1.
       -2   -1    0    0    0  501  0.00000000000E+00  0.00000000000E+00 -0.16161960027E+04  0.16161960027E+04  0.25500000920E-02 0. -1.
    10030    2    1    2    0    0  0.00000000000E+00  0.00000000000E+00  0.91509105141E+03  0.41474830569E+04  0.40452718172E+04 0.  0.
        4    1    3    3  502    0 -0.50350724914E+03  0.73122296578E+03  0.23208387055E+04  0.24848542181E+04  0.12699999809E+01 0.  1.
       -4    1    3    3    0  502  0.50350724914E+03 -0.73122296578E+03 -0.14057476541E+04  0.16626288388E+04  0.12699999809E+01 0. -1.
</event>
<event>
 5   0  0.5515000E-08  0.3978693E+04  0.7818609E-02  0.8008859E-01
        1   -1    0    0  501    0  0.00000000000E+00  0.00000000000E+00  0.18744563025E+04  0.18744563025E+04  0.50400001928E-02 0.  1.
       -1   -1    0    0    0  501  0.00000000000E+00  0.00000000000E+00 -0.21112790578E+04  0.21112790578E+04  0.50400001928E-02 0. -1.
    10030    2    1    2    0    0  0.00000000000E+00  0.00000000000E+00 -0.23682275528E+03  0.39857353603E+04  0.39786934218E+04 0.  0.
        4    1    3    3  502    0 -0.32675479815E+03  0.19623161271E+04 -0.12516442614E+03  0.19932689300E+04  0.12699999809E+01 0.  1.
       -4    1    3    3    0  502  0.32675479815E+03 -0.19623161271E+04 -0.11165832915E+03  0.19924664303E+04  0.12699999809E+01 0. -1.
</event>
<event>
 5   0  0.5515000E-08  0.4001492E+04  0.7818609E-02  0.8004246E-01
       -1   -1    0    0    0  501  0.00000000000E+00  0.00000000000E+00  0.16163406058E+04  0.16163406059E+04  0.50400001928E-02 0.  1.
        1   -1    0    0  501    0  0.00000000000E+00  0.00000000000E+00 -0.24765719997E+04  0.24765719997E+04  0.50400001928E-02 0. -1.
    10030    2    1    2    0    0  0.00000000000E+00  0.00000000000E+00 -0.86023139384E+03  0.40929126055E+04  0.40014916651E+04 0.  0.
        4    1    3    3  502    0 -0.30535203736E+03 -0.28469345601E+03 -0.24315243478E+04  0.24671040711E+04  0.12699999809E+01 0. -1.
       -4    1    3    3    0  502  0.30535203736E+03  0.28469345601E+03  0.15712929540E+04  0.16258085345E+04  0.12699999809E+01 0.  1.
</event>
<event>
 5   0  0.5515000E-08  0.3575240E+04  0.7818609E-02  0.8096187E-01
        1   -1    0    0  501    0  0.00000000000E+00  0.00000000000E+00  0.16977761982E+04  0.16977761982E+04  0.50400001928E-02 0. -1.
       -1   -1    0    0    0  501  0.00000000000E+00  0.00000000000E+00 -0.18822179646E+04  0.18822179646E+04  0.50400001928E-02 0.  1.
    10030    2    1    2    0    0  0.00000000000E+00  0.00000000000E+00 -0.18444176634E+03  0.35799941628E+04  0.35752397739E+04 0.  0.
        3    1    3    3  502    0  0.57478214287E+03 -0.54291024664E+03  0.15131761987E+04  0.17072868143E+04  0.10100000352E+00 0. -1.
       -3    1    3    3    0  502 -0.57478214287E+03  0.54291024664E+03 -0.16976179651E+04  0.18727073485E+04  0.10100000352E+00 0.  1.
</event>
<event>
 5   0  0.1819906E-07  0.3966988E+04  0.7818609E-02  0.8011239E-01
        2   -1    0    0  501    0  0.00000000000E+00  0.00000000000E+00  0.19874579298E+04  0.19874579298E+04  0.25500000920E-02 0. -1.
       -2   -1    0    0    0  501  0.00000000000E+00  0.00000000000E+00 -0.19795378584E+04  0.19795378585E+04  0.25500000920E-02 0.  1.
    10030    2    1    2    0    0  0.00000000000E+00  0.00000000000E+00  0.79200713888E+01  0.39669957883E+04  0.39669878821E+04 0.  0.
        1    1    3    3  502    0  0.16077528248E+03 -0.97049682418E+03  0.17263267973E+04  0.19869365839E+04  0.50400001928E-02 0. -1.
       -1    1    3    3    0  502 -0.16077528248E+03  0.97049682418E+03 -0.17184067259E+04  0.19800592044E+04  0.50400001928E-02 0.  1.
</event>
<event>
 5   0  0.5515000E-08  0.4265966E+04  0.7818609E-02  0.7952941E-01
        1   -1    0    0  501    0  0.00000000000E+00  0.00000000000E+00  0.27484923258E+04  0.27484923258E+04  0.50400001928E-02 0. -1.
       -1   -1    0    0    0  501  0.00000000000E+00  0.00000000000E+00 -0.16553133376E+04  0.16553133376E+04  0.50400001928E-02 0.  1.
    10030    2    1    2    0    0  0.00000000000E+00  0.00000000000E+00  0.10931789882E+04  0.44038056635E+04  0.42659657783E+04 0.  0.
        3    1    3    3  502    0  0.11023088829E+04  0.80156323612E+03  0.22403442376E+04  0.26223521518E+04  0.10100000352E+00 0. -1.
       -3    1    3    3    0  502 -0.11023088829E+04 -0.80156323612E+03 -0.11471652494E+04  0.17814535117E+04  0.10100000352E+00 0.  1.
</event>
<event>
 5   0  0.1785559E-07  0.4005582E+04  0.7818609E-02  0.8003421E-01
        2   -1    0    0  501    0  0.00000000000E+00  0.00000000000E+00  0.23436516527E+04  0.23436516527E+04  0.25500000920E-02 0. -1.
       -2   -1    0    0    0  501  0.00000000000E+00  0.00000000000E+00 -0.17115048798E+04  0.17115048798E+04  0.25500000920E-02 0.  1.
    10030    2    1    2    0    0  0.00000000000E+00  0.00000000000E+00  0.63214677288E+03  0.40551565325E+04  0.40055817256E+04 0.  0.
        2    1    3    3  502    0 -0.38202984521E+03  0.74784541682E+03 -0.15246574005E+04  0.17406319998E+04  0.25500000920E-02 0.  1.
       -2    1    3    3    0  502  0.38202984521E+03 -0.74784541682E+03  0.21568041733E+04  0.23145245326E+04  0.25500000920E-02 0. -1.
</event>
<event>
 5   0  0.1773903E-07  0.4002966E+04  0.7818609E-02  0.8003948E-01
        2   -1    0    0  501    0  0.00000000000E+00  0.00000000000E+00  0.15482523276E+04  0.15482523276E+04  0.25500000920E-02 0. -1.
       -2   -1    0    0    0  501  0.00000000000E+00  0.00000000000E+00 -0.25873914614E+04  0.25873914614E+04  0.25500000920E-02 0.  1.
    10030    2    1    2    0    0  0.00000000000E+00  0.00000000000E+00 -0.10391391338E+04  0.41356437889E+04  0.40029663263E+04 0.  0.
        3    1    3    3  502    0  0.12040734093E+04  0.11561158539E+04 -0.16604992849E+04  0.23544966613E+04  0.10100000352E+00 0.  1.
       -3    1    3    3    0  502 -0.12040734093E+04 -0.11561158539E+04  0.62136015115E+03  0.17811471276E+04  0.10100000352E+00 0. -1.
</event>
<event>
 5   0  0.5515000E-08  0.3942640E+04  0.7818609E-02  0.8016219E-01
        1   -1    0    0  501    0  0.00000000000E+00  0.00000000000E+00  0.21208284374E+04  0.21208284374E+04  0.50400001928E-02 0. -1.
       -1   -1    0    0    0  501  0.00000000000E+00  0.00000000000E+00 -0.18323510806E+04  0.18323510806E+04  0.50400001928E-02 0.  1.
    10030    2    1    2    0    0  0.00000000000E+00  0.00000000000E+00  0.28847735675E+03  0.39531795180E+04  0.39426398664E+04 0.  0.
        5    1    3    3  502    0  0.80288579606E+03  0.17231664618E+04 -0.37883773711E+03  0.19384190407E+04  0.46999998093E+01 0. -1.
       -5    1    3    3    0  502 -0.80288579606E+03 -0.17231664618E+04  0.66731509386E+03  0.20147604773E+04  0.46999998093E+01 0.  1.
</event>
<event>
 5   0  0.1776653E-07  0.3832781E+04  0.7818609E-02  0.8039156E-01
       -2   -1    0    0    0  501  0.00000000000E+00  0.00000000000E+00  0.22449810094E+04  0.22449810094E+04  0.25500000920E-02 0. -1.
        2   -1    0    0  501    0  0.00000000000E+00  0.00000000000E+00 -0.16358949377E+04  0.16358949377E+04  0.25500000920E-02 0.  1.
    10030    2    1    2    0    0  0.00000000000E+00  0.00000000000E+00  0.60908607172E+03  0.38808759471E+04  0.38327812714E+04 0.  0.
        4    1    3    3  502    0 -0.74632184126E+02  0.10815807409E+04  0.19046142393E+04  0.21915619716E+04  0.12699999809E+01 0. -1.
       -4    1    3    3    0  502  0.74632184126E+02 -0.10815807409E+04 -0.12955281676E+04  0.16893139755E+04  0.12699999809E+01 0.  1.
</event>
<event>
 5   0  0.1776653E-07  0.3981432E+04  0.7818609E-02  0.8008303E-01
       -2   -1    0    0    0  501  0.00000000000E+00  0.00000000000E+00  0.18097028736E+04  0.18097028736E+04  0.25500000920E-02 0. -1.
        2   -1    0    0  501    0  0.00000000000E+00  0.00000000000E+00 -0.21898346106E+04  0.21898346106E+04  0.25500000920E-02 0.  1.
    10030    2    1    2    0    0  0.00000000000E+00  0.00000000000E+00 -0.38013173695E+03  0.39995374842E+04  0.39814318970E+04 0.  0.
        4    1    3    3  502    0 -0.18606973527E+04 -0.52663629492E+03 -0.66487579616E+03  0.20448965408E+04  0.12699999809E+01 0.  1.
       -4    1    3    3    0  502  0.18606973527E+04  0.52663629492E+03  0.28474405921E+03  0.19546409434E+04  0.12699999809E+01 0. -1.
</event>
<event>
 5   0  0.1785559E-07  0.4023069E+04  0.7818609E-02  0.7999909E-01
       -2   -1    0    0    0  501  0.00000000000E+00  0.00000000000E+00  0.16630853079E+04  0.16630853079E+04  0.25500000920E-02 0.  1.
        2   -1    0    0  501    0  0.00000000000E+00  0.00000000000E+00 -0.24329911086E+04  0.24329911086E+04  0.25500000920E-02 0. -1.
    10030    2    1    2    0    0  0.00000000000E+00  0.00000000000E+00 -0.76990580074E+03  0.40960764165E+04  0.40230693591E+04 0.  0.
        2    1    3    3  502    0  0.68135464072E+03 -0.11293403093E+03 -0.23084894619E+04  0.24095895579E+04  0.25500000920E-02 0. -1.
       -2    1    3    3    0  502 -0.68135464072E+03  0.11293403093E+03  0.15385836612E+04  0.16864868586E+04  0.25500000920E-02 0.  1.
</event>
<event>
 5   0  0.5515000E-08  0.4023178E+04  0.7818609E-02  0.7999887E-01
        1   -1    0    0  501    0  0.00000000000E+00  0.00000000000E+00  0.20505848929E+04  0.20505848929E+04  0.50400001928E-02 0.  1.
       -1   -1    0    0    0  501  0.00000000000E+00  0.00000000000E+00 -0.19733345110E+04  0.19733345110E+04  0.50400001928E-02 0. -1.
    10030    2    1    2    0    0  0.00000000000E+00  0.00000000000E+00  0.77250381884E+02  0.40239194038E+04  0.40231778170E+04 0.  0.
        5    1    3    3  502    0 -0.18690855081E+04  0.56846003849E+03 -0.44087990285E+03  0.20027542612E+04  0.46999998093E+01 0. -1.
       -5    1    3    3    0  502  0.18690855081E+04 -0.56846003849E+03  0.51813028473E+03  0.20211651427E+04  0.46999998093E+01 0.  1.
</event>
<event>
 5   0  0.1773903E-07  0.3995981E+04  0.7818609E-02  0.8005358E-01
        2   -1    0    0  501    0  0.00000000000E+00  0.00000000000E+00  0.32159570805E+04  0.32159570805E+04  0.25500000920E-02 0.  1.
       -2   -1    0    0    0  501  0.00000000000E+00  0.00000000000E+00 -0.12412993495E+04  0.12412993495E+04  0.25500000920E-02 0. -1.
    10030    2    1    2    0    0  0.00000000000E+00  0.00000000000E+00  0.19746577310E+04  0.44572564301E+04  0.39959806967E+04 0.  0.
        3    1    3    3  502    0  0.12130148265E+04 -0.53054415019E+03 -0.68175965231E+03  0.14891871267E+04  0.10100000352E+00 0. -1.
       -3    1    3    3    0  502 -0.12130148265E+04  0.53054415019E+03  0.26564173833E+04  0.29680693033E+04  0.10100000352E+00 0.  1.
</event>
<event>
 5   0  0.5515000E-08  0.3995968E+04  0.7818609E-02  0.8005360E-01
        1   -1    0    0  501    0  0.00000000000E+00  0.00000000000E+00  0.20732173742E+04  0.20732173742E+04  0.50400001928E-02 0. -1.
       -1   -1    0    0    0  501  0.00000000000E+00  0.00000000000E+00 -0.19254807163E+04  0.19254807163E+04  0.50400001928E-02 0.  1.
    10030    2    1    2    0    0  0.00000000000E+00  0.00000000000E+00  0.14773665790E+03  0.39986980905E+04  0.39959680052E+04 0.  0.
        5    1    3    3  502    0 -0.16288781057E+04  0.30691408551E+03 -0.10424555066E+04  0.19581051331E+04  0.46999998093E+01 0.  1.
       -5    1    3    3    0  502  0.16288781057E+04 -0.30691408551E+03  0.11901921645E+04  0.20405929573E+04  0.46999998093E+01 0. -1.
</event>
<event>
 5   0  0.1776653E-07  0.4147327E+04  0.7818609E-02  0.7975468E-01
       -2   -1    0    0    0  501  0.00000000000E+00  0.00000000000E+00  0.18190753289E+04  0.18190753289E+04  0.25500000920E-02 0.  1.
        2   -1    0    0  501    0  0.00000000000E+00  0.00000000000E+00 -0.23638829929E+04  0.23638829929E+04  0.25500000920E-02 0. -1.
    10030    2    1    2    0    0  0.00000000000E+00  0.00000000000E+00 -0.54480766400E+03  0.41829583218E+04  0.41473274444E+04 0.  0.
        4    1    3    3  502    0 -0.89725095757E+03  0.49429575938E+03 -0.20908612078E+04  0.23283233843E+04  0.12699999809E+01 0. -1.
       -4    1    3    3    0  502  0.89725095757E+03 -0.49429575938E+03  0.15460535438E+04  0.18546349376E+04  0.12699999809E+01 0.  1.
</event>
<event>
 5   0  0.5515000E-08  0.3963949E+04  0.7818609E-02  0.8011859E-01
       -1   -1    0    0    0  501  0.00000000000E+00  0.00000000000E+00  0.19129120669E+04  0.19129120669E+04  0.50400001928E-02 0.  1.
        1   -1    0    0  501    0  0.00000000000E+00  0.00000000000E+00 -0.20535302817E+04  0.20535302818E+04  0.50400001928E-02 0. -1.
    10030    2    1    2    0    0  0.00000000000E+00  0.00000000000E+00 -0.14061821482E+03  0.39664423487E+04  0.39639489683E+04 0.  0.
        4    1    3    3  502    0 -0.54146877360E+03 -0.26878978794E+03  0.18184122470E+04  0.19162622722E+04  0.12699999809E+01 0.  1.
       -4    1    3    3    0  502  0.54146877360E+03  0.26878978794E+03 -0.19590304618E+04  0.20501800765E+04  0.12699999809E+01 0. -1.
</event>
<event>
 5   0  0.5515000E-08  0.4021035E+04  0.7818609E-02  0.8000317E-01
        1   -1    0    0  501    0  0.00000000000E+00  0.00000000000E+00  0.28954402865E+04  0.28954402865E+04  0.50400001928E-02 0.  1.
       -1   -1    0    0    0  501  0.00000000000E+00  0.00000000000E+00 -0.13960504722E+04  0.13960504722E+04  0.50400001928E-02 0. -1.
    10030    2    1    2    0    0  0.00000000000E+00  0.00000000000E+00  0.14993898143E+04  0.42914907586E+04  0.40210350802E+04 0.  0.
        5    1    3    3  502    0 -0.79860453708E+03  0.74032978895E+03  0.25534282246E+04  0.27759458192E+04  0.46999998093E+01 0.  1.
       -5    1    3    3    0  502  0.79860453708E+03 -0.74032978895E+03 -0.10540384103E+04  0.15155449394E+04  0.46999998093E+01 0. -1.
</event>
<event>
 5   0  0.1785559E-07  0.4136732E+04  0.7818609E-02  0.7977517E-01
        2   -1    0    0  501    0  0.00000000000E+00  0.00000000000E+00  0.26178687346E+04  0.26178687346E+04  0.25500000920E-02 0. -1.
       -2   -1    0    0    0  501  0.00000000000E+00  0.00000000000E+00 -0.16342064555E+04  0.16342064555E+04  0.25500000920E-02 0.  1.
    10030    2    1    2    0    0  0.00000000000E+00  0.00000000000E+00  0.98366227909E+03  0.42520751901E+04  0.41367320366E+04 0.  0.
        2    1    3    3  502    0  0.26700165515E+03  0.11825679514E+04 -0.12307178018E+04  0.17275483065E+04  0.25500000920E-02 0.  1.
       -2    1    3    3    0  502 -0.26700165515E+03 -0.11825679514E+04  0.22143800809E+04  0.25245268836E+04  0.25500000920E-02 0. -1.
</event>
<event>
 5   0  0.5515000E-08  0.3975165E+04  0.7818609E-02  0.8009575E-01
       -1   -1    0    0    0  501  0.00000000000E+00  0.00000000000E+00  0.13794812517E+04  0.13794812517E+04  0.50400001928E-02 0. -1.
        1   -1    0    0  501    0  0.00000000000E+00  0.00000000000E+00 -0.28637464830E+04  0.28637464830E+04  0.50400001928E-02 0.  1.
    10030    2    1    2    0    0  0.00000000000E+00  0.00000000000E+00 -0.14842652313E+04  0.42432277347E+04  0.39751651955E+04 0.  0.
        3    1    3    3  502    0  0.16296638924E+04  0.11375739270E+04 -0.71586134357E+03  0.21124242744E+04  0.10100000352E+00 0. -1.
       -3    1    3    3    0  502 -0.16296638924E+04 -0.11375739270E+04 -0.76840388774E+03  0.21308034603E+04  0.10100000352E+00 0.  1.
</event>
<event>
 5   0  0.1776653E-07  0.3893323E+04  0.7818609E-02  0.8026419E-01
       -2   -1    0    0    0  501  0.00000000000E+00  0.00000000000E+00  0.21502862079E+04  0.21502862079E+04  0.25500000920E-02 0. -1.
        2   -1    0    0  501    0  0.00000000000E+00  0.00000000000E+00 -0.17623197968E+04  0.17623197968E+04  0.25500000920E-02 0.  1.
    10030    2    1    2    0    0  0.00000000000E+00  0.00000000000E+00  0.38796641102E+03  0.39126060047E+04  0.38933234918E+04 0.  0.
        4    1    3    3  502    0  0.20396820969E+03 -0.11449406076E+04  0.17628036534E+04  0.21118641905E+04  0.12699999809E+01 0. -1.
       -4    1    3    3    0  502 -0.20396820969E+03  0.11449406076E+04 -0.13748372424E+04  0.18007418142E+04  0.12699999809E+01 0.  1.
</event>
<event>
 5   0  0.1819906E-07  0.4024763E+04  0.7818609E-02  0.7999570E-01
       -2   -1    0    0    0  501  0.00000000000E+00  0.00000000000E+00  0.13910633263E+04  0.13910633263E+04  0.25500000920E-02 0. -1.
        2   -1    0    0  501    0  0.00000000000E+00  0.00000000000E+00 -0.29112114144E+04  0.29112114144E+04  0.25500000920E-02 0.  1.
    10030    2    1    2    0    0  0.00000000000E+00  0.00000000000E+00 -0.15201480881E+04  0.43022747406E+04  0.40247630656E+04 0.  0.
        1    1    3    3  502    0  0.73752280257E+03  0.23297521532E+02  0.12412343804E+04  0.14440032707E+04  0.50400001928E-02 0. -1.
       -1    1    3    3    0  502 -0.73752280257E+03 -0.23297521532E+02 -0.27613824684E+04  0.28582714699E+04  0.50400001928E-02 0.  1.
</event>
<event>
 5   0  0.1773903E-07  0.3981453E+04  0.7818609E-02  0.8008298E-01
       -2   -1    0    0    0  501  0.00000000000E+00  0.00000000000E+00  0.13723057309E+04  0.13723057309E+04  0.25500000920E-02 0.  1.
        2   -1    0    0  501    0  0.00000000000E+00  0.00000000000E+00 -0.28878351675E+04  0.28878351675E+04  0.25500000920E-02 0. -1.
    10030    2    1    2    0    0  0.00000000000E+00  0.00000000000E+00 -0.15155294366E+04  0.42601408984E+04  0.39814533780E+04 0.  0.
        3    1    3    3  502    0 -0.29237887023E+03  0.10055883725E+04 -0.25692845878E+04  0.27745119718E+04  0.10100000352E+00 0. -1.
       -3    1    3    3    0  502  0.29237887023E+03 -0.10055883725E+04  0.10537551512E+04  0.14856289266E+04  0.10100000352E+00 0.  1.
</event>
<event>
 5   0  0.1773903E-07  0.3974232E+04  0.7818609E-02  0.8009765E-01
       -2   -1    0    0    0  501  0.00000000000E+00  0.00000000000E+00  0.14851970677E+04  0.14851970677E+04  0.25500000920E-02 0.  1.
        2   -1    0    0  501    0  0.00000000000E+00  0.00000000000E+00 -0.26586571279E+04  0.26586571279E+04  0.25500000920E-02 0. -1.
    10030    2    1    2    0    0  0.00000000000E+00  0.00000000000E+00 -0.11734600601E+04  0.41438541956E+04  0.39742318857E+04 0.  0.
        3    1    3    3  502    0  0.17487038779E+04  0.62527383269E+03 -0.13237931740E+04  0.22806492488E+04  0.10100000352E+00 0. -1.
       -3    1    3    3    0  502 -0.17487038779E+04 -0.62527383269E+03  0.15033311387E+03  0.18632049468E+04  0.10100000352E+00 0.  1.
</event>
<event>
 5   0  0.1821433E-07  0.4129967E+04  0.7818609E-02  0.7978829E-01
       -2   -1    0    0    0  501  0.00000000000E+00  0.00000000000E+00  0.20586586174E+04  0.20586586174E+04  0.25500000920E-02 0. -1.
        2   -1    0    0  501    0  0.00000000000E+00  0.00000000000E+00 -0.20713278227E+04  0.20713278228E+04  0.25500000920E-02 0.  1.
    10030    2    1    2    0    0  0.00000000000E+00  0.00000000000E+00 -0.12669205386E+02  0.41299864401E+04  0.41299670080E+04 0.  0.
        5    1    3    3  502    0 -0.83720316060E+03 -0.17855571779E+04 -0.61871907592E+03  0.20668717794E+04  0.46999998093E+01 0. -1.
       -5    1    3    3    0  502  0.83720316060E+03  0.17855571779E+04  0.60604987053E+03  0.20631146607E+04  0.46999998093E+01 0.  1.
</event>
<event>
 5   0  0.5515000E-08  0.3483239E+04  0.7818609E-02  0.8117774E-01
       -1   -1    0    0    0  501  0.00000000000E+00  0.00000000000E+00  0.13633305735E+04  0.13633305736E+04  0.50400001928E-02 0.  1.
        1   -1    0    0  501    0  0.00000000000E+00  0.00000000000E+00 -0.22248734550E+04  0.22248734550E+04  0.50400001928E-02 0. -1.
    10030    2    1    2    0    0  0.00000000000E+00  0.00000000000E+00 -0.86154288146E+03  0.35882040286E+04  0.34832387248E+04 0.  0.
        5    1    3    3  502    0  0.13856892636E+04 -0.42456819804E+03  0.56416083058E+03  0.15552145906E+04  0.46999998093E+01 0.  1.
       -5    1    3    3    0  502 -0.13856892636E+04  0.42456819804E+03 -0.14257037120E+04  0.20329894379E+04  0.46999998093E+01 0. -1.
</event>
<event>
 5   0  0.5515000E-08  0.4077309E+04  0.7818609E-02  0.7989130E-01
        1   -1    0    0  501    0  0.00000000000E+00  0.00000000000E+00  0.26177445443E+04  0.26177445444E+04  0.50400001928E-02 0.  1.
       -1   -1    0    0    0  501  0.00000000000E+00  0.00000000000E+00 -0.15876690979E+04  0.15876690979E+04  0.50400001928E-02 0. -1.
    10030    2    1    2    0    0  0.00000000000E+00  0.00000000000E+00  0.10300754465E+04  0.42054136422E+04  0.40773089749E+04 0.  0.
        4    1    3    3  502    0 -0.16503163066E+04  0.10533104391E+04  0.11013190616E+04  0.22463107713E+04  0.12699999809E+01 0.  1.
       -4    1    3    3    0  502  0.16503163066E+04 -0.10533104391E+04 -0.71243615133E+02  0.19591028709E+04  0.12699999809E+01 0. -1.
</event>
<event>
 5   0  0.1776653E-07  0.4034879E+04  0.7818609E-02  0.7997547E-01
       -2   -1    0    0    0  501  0.00000000000E+00  0.00000000000E+00  0.21173671623E+04  0.21173671623E+04  0.25500000920E-02 0. -1.
        2   -1    0    0  501    0  0.00000000000E+00  0.00000000000E+00 -0.19222274235E+04  0.19222274235E+04  0.25500000920E-02 0.  1.
    10030    2    1    2    0    0  0.00000000000E+00  0.00000000000E+00  0.19513973879E+03  0.40395945858E+04  0.40348785484E+04 0.  0.
        4    1    3    3  502    0  0.98916846915E+02  0.15617160671E+04 -0.11772282560E+04  0.19582159218E+04  0.12699999809E+01 0.  1.
       -4    1    3    3    0  502 -0.98916846915E+02 -0.15617160671E+04  0.13723679948E+04  0.20813786640E+04  0.12699999809E+01 0. -1.
</event>
<event>
 5   0  0.5515000E-08  0.3987367E+04  0.7818609E-02  0.8007100E-01
       -1   -1    0    0    0  501  0.00000000000E+00  0.00000000000E+00  0.15674244716E+04  0.15674244716E+04  0.50400001928E-02 0. -1.
        1   -1    0    0  501    0  0.00000000000E+00  0.00000000000E+00 -0.25358634047E+04  0.25358634047E+04  0.50400001928E-02 0.  1.
    10030    2    1    2    0    0  0.00000000000E+00  0.00000000000E+00 -0.96843893305E+03  0.41032878763E+04  0.39873672303E+04 0.  0.
        3    1    3    3  502    0 -0.99712769668E+03 -0.16274790075E+04 -0.10770067149E+04  0.21915508293E+04  0.10100000352E+00 0.  1.
       -3    1    3    3    0  502  0.99712769668E+03  0.16274790075E+04  0.10856778181E+03  0.19117370470E+04  0.10100000352E+00 0. -1.
</event>
<event>
 5   0  0.5515000E-08  0.3893218E+04  0.7818609E-02  0.8026441E-01
        1   -1    0    0  501    0  0.00000000000E+00  0.00000000000E+00  0.28510562056E+04  0.28510562056E+04  0.50400001928E-02 0. -1.
       -1   -1    0    0    0  501  0.00000000000E+00  0.00000000000E+00 -0.13290816646E+04  0.13290816646E+04  0.50400001928E-02 0.  1.
    10030    2    1    2    0    0  0.00000000000E+00  0.00000000000E+00  0.15219745410E+04  0.41801378702E+04  0.38932179634E+04 0.  0.
        4    1    3    3  502    0 -0.92188094924E+03 -0.70267326636E+03  0.24401039616E+04  0.27014298362E+04  0.12699999809E+01 0. -1.
       -4    1    3    3    0  502  0.92188094924E+03  0.70267326636E+03 -0.91812942059E+03  0.14787080340E+04  0.12699999809E+01 0.  1.
</event>
<event>
 5   0  0.5515000E-08  0.3973913E+04  0.7818609E-02  0.8009830E-01
       -1   -1    0    0    0  501  0.00000000000E+00  0.00000000000E+00  0.17059801974E+04  0.17059801974E+04  0.50400001928E-02 0.  1.
        1   -1    0    0  501    0  0.00000000000E+00  0.00000000000E+00 -0.23142100519E+04  0.23142100519E+04  0.50400001928E-02 0. -1.
    10030    2    1    2    0    0  0.00000000000E+00  0.00000000000E+00 -0.60822985452E+03  0.40201902493E+04  0.39739131954E+04 0.  0.
        5    1    3    3  502    0  0.13446561284E+04 -0.11810565694E+04  0.56905838044E+03  0.18779894180E+04  0.46999998093E+01 0.  1.
       -5    1    3    3    0  502 -0.13446561284E+04  0.11810565694E+04 -0.11772882350E+04  0.21422008313E+04  0.46999998093E+01 0. -1.
</event>
<event>
 5   0  0.5515000E-08  0.3828578E+04  0.7818609E-02  0.8040050E-01
       -1   -1    0    0    0  501  0.00000000000E+00  0.00000000000E+00  0.30398558408E+04  0.30398558408E+04  0.50400001928E-02 0.  1.
        1   -1    0    0  501    0  0.00000000000E+00  0.00000000000E+00 -0.12054853341E+04  0.12054853341E+04  0.50400001928E-02 0. -1.
    10030    2    1    2    0    0  0.00000000000E+00  0.00000000000E+00  0.18343705067E+04  0.42453411749E+04  0.38285776126E+04 0.  0.
        3    1    3    3  502    0 -0.18561331703E+04  0.43180492502E+03  0.71631457850E+03  0.20358763285E+04  0.10100000352E+00 0.  1.
       -3    1    3    3    0  502  0.18561331703E+04 -0.43180492502E+03  0.11180559282E+04  0.22094648465E+04  0.10100000352E+00 0. -1.
</event>
<event>
 5   0  0.5515000E-08  0.3970770E+04  0.7818609E-02  0.8010469E-01
        1   -1    0    0  501    0  0.00000000000E+00  0.00000000000E+00  0.25650255121E+04  0.25650255121E+04  0.50400001928E-02 0. -1.
       -1   -1    0    0    0  501  0.00000000000E+00  0.00000000000E+00 -0.15367307039E+04  0.15367307040E+04  0.50400001928E-02 0.  1.
    10030    2    1    2    0    0  0.00000000000E+00  0.00000000000E+00  0.10282948082E+04  0.41017562161E+04  0.39707699308E+04 0.  0.
        5    1    3    3  502    0 -0.66353212361E+03  0.14585628811E+04 -0.69671980180E+03  0.17473182679E+04  0.46999998093E+01 0.  1.
       -5    1    3    3    0  502  0.66353212361E+03 -0.14585628811E+04  0.17250146100E+04  0.23544379482E+04  0.46999998093E+01 0. -1.
</event>
<event>
 5   0  0.5515000E-08  0.3953076E+04  0.7818609E-02  0.8014080E-01
       -1   -1    0    0    0  501  0.00000000000E+00  0.00000000000E+00  0.19150695825E+04  0.19150695825E+04  0.50400001928E-02 0. -1.
        1   -1    0    0  501    0  0.00000000000E+00  0.00000000000E+00 -0.20399792999E+04  0.20399792999E+04  0.50400001928E-02 0.  1.
    10030    2    1    2    0    0  0.00000000000E+00  0.00000000000E+00 -0.12490971747E+03  0.39550488824E+04  0.39530759194E+04 0.  0.
        2    1    3    3  502    0  0.19678371469E+04  0.43026808852E+02 -0.24273347753E+03  0.19832180627E+04  0.25500000920E-02 0.  1.
       -2    1    3    3    0  502 -0.19678371469E+04 -0.43026808852E+02  0.11782376006E+03  0.19718308197E+04  0.25500000920E-02 0. -1.
</event>
<event>
 5   0  0.5515000E-08  0.3886420E+04  0.7818609E-02  0.8027860E-01
        1   -1    0    0  501    0  0.00000000000E+00  0.00000000000E+00  0.17745620270E+04  0.17745620270E+04  0.50400001928E-02 0. -1.
       -1   -1    0    0    0  501  0.00000000000E+00  0.00000000000E+00 -0.21278851712E+04  0.21278851712E+04  0.50400001928E-02 0.  1.
    10030    2    1    2    0    0  0.00000000000E+00  0.00000000000E+00 -0.35332314427E+03  0.39024471982E+04  0.38864195464E+04 0.  0.
        2    1    3    3  502    0  0.14136715399E+04 -0.12974283695E+04 -0.48497282052E+03  0.19791377499E+04  0.25500000920E-02 0. -1.
       -2    1    3    3    0  502 -0.14136715399E+04  0.12974283695E+04  0.13164967626E+03  0.19233094483E+04  0.25500000920E-02 0.  1.
</event>
<event>
 5   0  0.1821433E-07  0.3991911E+04  0.7818609E-02  0.8006180E-01
       -2   -1    0    0    0  501  0.00000000000E+00  0.00000000000E+00  0.12237475831E+04  0.12237475831E+04  0.25500000920E-02 0.  1.
        2   -1    0    0  501    0  0.00000000000E+00  0.00000000000E+00 -0.32554420258E+04  0.32554420258E+04  0.25500000920E-02 0. -1.
    10030    2    1    2    0    0  0.00000000000E+00  0.00000000000E+00 -0.20316944427E+04  0.44791896089E+04  0.39919114775E+04 0.  0.
        5    1    3    3  502    0  0.77976553684E+02 -0.29455238541E+03  0.11974911243E+04  0.12356571262E+04  0.46999998093E+01 0.  1.
       -5    1    3    3    0  502 -0.77976553684E+02  0.29455238541E+03 -0.32291855670E+04  0.32435324827E+04  0.46999998093E+01 0. -1.
</event>
<event>
 5   0  0.5515000E-08  0.3976360E+04  0.7818609E-02  0.8009332E-01
       -1   -1    0    0    0  501  0.00000000000E+00  0.00000000000E+00  0.16032141576E+04  0.16032141576E+04  0.50400001928E-02 0. -1.
        1   -1    0    0  501    0  0.00000000000E+00  0.00000000000E+00 -0.24655847376E+04  0.24655847376E+04  0.50400001928E-02 0.  1.
    10030    2    1    2    0    0  0.00000000000E+00  0.00000000000E+00 -0.86237058002E+03  0.40687988952E+04  0.39763603247E+04 0.  0.
        3    1    3    3  502    0 -0.14207223859E+03  0.17126819610E+04 -0.14541234210E+04  0.22512083320E+04  0.10100000352E+00 0.  1.
       -3    1    3    3    0  502  0.14207223859E+03 -0.17126819610E+04  0.59175284096E+03  0.18175905632E+04  0.10100000352E+00 0. -1.
</event>
<event>
 5   0  0.1821433E-07  0.3995206E+04  0.7818609E-02  0.8005514E-01
        2   -1    0    0  501    0  0.00000000000E+00  0.00000000000E+00  0.31258507202E+04  0.31258507202E+04  0.25500000920E-02 0. -1.
       -2   -1    0    0    0  501  0.00000000000E+00  0.00000000000E+00 -0.12765861016E+04  0.12765861016E+04  0.25500000920E-02 0.  1.
    10030    2    1    2    0    0  0.00000000000E+00  0.00000000000E+00  0.18492646186E+04  0.44024368219E+04  0.39952059197E+04 0.  0.
        5    1    3    3  502    0  0.32050426876E+03  0.96231505094E+03  0.28209836191E+04  0.29977898380E+04  0.46999998093E+01 0. -1.
       -5    1    3    3    0  502 -0.32050426876E+03 -0.96231505094E+03 -0.97171900044E+03  0.14046469839E+04  0.46999998093E+01 0.  1.
</event>
<event>
 5   0  0.5515000E-08  0.3991580E+04  0.7818609E-02  0.8006247E-01
        1   -1    0    0  501    0  0.00000000000E+00  0.00000000000E+00  0.25069599044E+04  0.25069599044E+04  0.50400001928E-02 0.  1.
       -1   -1    0    0    0  501  0.00000000000E+00  0.00000000000E+00 -0.15888475368E+04  0.15888475368E+04  0.50400001928E-02 0. -1.
    10030    2    1    2    0    0  0.00000000000E+00  0.00000000000E+00  0.91811236764E+03  0.40958074412E+04  0.39915796717E+04 0.  0.
        5    1    3    3  502    0  0.50548257798E+03 -0.46463046813E+03 -0.14638460157E+04  0.16168677609E+04  0.46999998093E+01 0. -1.
       -5    1    3    3    0  502 -0.50548257798E+03  0.46463046813E+03  0.23819583833E+04  0.24789396803E+04  0.46999998093E+01 0.  1.
</event>
<event>
 5   0  0.1776653E-07  0.4048676E+04  0.7818609E-02  0.7994799E-01
        2   -1    0    0  501    0  0.00000000000E+00  0.00000000000E+00  0.30505115972E+04  0.30505115972E+04  0.25500000920E-02 0. -1.
       -2   -1    0    0    0  501  0.00000000000E+00  0.00000000000E+00 -0.13433626604E+04  0.13433626604E+04  0.25500000920E-02 0.  1.
    10030    2    1    2    0    0  0.00000000000E+00  0.00000000000E+00  0.17071489368E+04  0.43938742577E+04  0.40486755242E+04 0.  0.
        4    1    3    3  502    0 -0.38461628563E+03 -0.14129734858E+04  0.23704270012E+04  0.27862787979E+04  0.12699999809E+01 0. -1.
       -4    1    3    3    0  502  0.38461628563E+03  0.14129734858E+04 -0.66327806440E+03  0.16075954598E+04  0.12699999809E+01 0.  1.
</event>
<event>
 5   0  0.5515000E-08  0.4002010E+04  0.7818609E-02  0.8004141E-01
        1   -1    0    0  501    0  0.00000000000E+00  0.00000000000E+00  0.22677227860E+04  0.22677227860E+04  0.50400001928E-02 0. -1.
       -1   -1    0    0    0  501  0.00000000000E+00  0.00000000000E+00 -0.17656570963E+04  0.17656570963E+04  0.50400001928E-02 0.  1.
    10030    2    1    2    0    0  0.00000000000E+00  0.00000000000E+00  0.50206568969E+03  0.40333798823E+04  0.40020099098E+04 0.  0.
        4    1    3    3  502    0 -0.71122411309E+03 -0.13636501369E+04  0.15411598027E+04  0.21772819260E+04  0.12699999809E+01 0. -1.
       -4    1    3    3    0  502  0.71122411309E+03  0.13636501369E+04 -0.10390941130E+04  0.18560979563E+04  0.12699999809E+01 0.  1.
</event>
<event>
 5   0  0.1776653E-07  0.3980534E+04  0.7818609E-02  0.8008485E-01
       -2   -1    0    0    0  501  0.00000000000E+00  0.00000000000E+00  0.25408118471E+04  0.25408118471E+04  0.25500000920E-02 0.  1.
        2   -1    0    0  501    0  0.00000000000E+00  0.00000000000E+00 -0.15590145057E+04  0.15590145057E+04  0.25500000920E-02 0. -1.
    10030    2    1    2    0    0  0.00000000000E+00  0.00000000000E+00  0.98179734132E+03  0.40998263528E+04  0.39805338968E+04 0.  0.
        4    1    3    3  502    0 -0.18480068031E+04  0.46108535389E+03 -0.10384224516E+03  0.19074888394E+04  0.12699999809E+01 0. -1.
       -4    1    3    3    0  502  0.18480068031E+04 -0.46108535389E+03  0.10856395865E+04  0.21923375134E+04  0.12699999809E+01 0.  1.
</event>
<event>
 5   0  0.1785559E-07  0.3971083E+04  0.7818609E-02  0.8010406E-01
       -2   -1    0    0    0  501  0.00000000000E+00  0.00000000000E+00  0.16561547597E+04  0.16561547597E+04  0.25500000920E-02 0.  1.
        2   -1    0    0  501    0  0.00000000000E+00  0.00000000000E+00 -0.23804388825E+04  0.23804388825E+04  0.25500000920E-02 0. -1.
    10030    2    1    2    0    0  0.00000000000E+00  0.00000000000E+00 -0.72428412277E+03  0.40365936421E+04  0.39710830690E+04 0.  0.
        2    1    3    3  502    0 -0.18631517835E+04 -0.53113746501E+03  0.79693504310E+02  0.19390184707E+04  0.25500000920E-02 0.  1.
       -2    1    3    3    0  502  0.18631517835E+04  0.53113746501E+03 -0.80397762708E+03  0.20975751715E+04  0.25500000920E-02 0. -1.
</event>
<event>
 5   0  0.5515000E-08  0.4016310E+04  0.7818609E-02  0.8001264E-01
        1   -1    0    0  501    0  0.00000000000E+00  0.00000000000E+00  0.20154308852E+04  0.20154308853E+04  0.50400001928E-02 0.  1.
       -1   -1    0    0    0  501  0.00000000000E+00  0.00000000000E+00 -0.20009054514E+04  0.20009054514E+04  0.50400001928E-02 0. -1.
    10030    2    1    2    0    0  0.00000000000E+00  0.00000000000E+00  0.14525433887E+02  0.40163363366E+04  0.40163100703E+04 0.  0.
        1    1    3    3  502    0 -0.17567557251E+02 -0.15898722716E+04 -0.12194009970E+04  0.20037318310E+04  0.50400001928E-02 0.  1.
       -1    1    3    3    0  502  0.17567557251E+02  0.15898722716E+04  0.12339264309E+04  0.20126045056E+04  0.50400001928E-02 0. -1.
</event>
<event>
 5   0  0.5515000E-08  0.3968971E+04  0.7818609E-02  0.8010835E-01
       -1   -1    0    0    0  501  0.00000000000E+00  0.00000000000E+00  0.21738609696E+04  0.21738609696E+04  0.50400001928E-02 0. -1.
        1   -1    0    0  501    0  0.00000000000E+00  0.00000000000E+00 -0.18116078288E+04  0.18116078288E+04  0.50400001928E-02 0.  1.
    10030    2    1    2    0    0  0.00000000000E+00  0.00000000000E+00  0.36225314083E+03  0.39854687984E+04  0.39689714291E+04 0.  0.
        3    1    3    3  502    0 -0.85740784209E+03 -0.34639848546E+03 -0.15820315497E+04  0.18324748164E+04  0.10100000352E+00 0.  1.
       -3    1    3    3    0  502  0.85740784209E+03  0.34639848546E+03  0.19442846905E+04  0.21529939820E+04  0.10100000352E+00 0. -1.
</event>
<event>
 5   0  0.1821433E-07  0.4145717E+04  0.7818609E-02  0.7975779E-01
        2   -1    0    0  501    0  0.00000000000E+00  0.00000000000E+00  0.17708503523E+04  0.17708503523E+04  0.25500000920E-02 0. -1.
       -2   -1    0    0    0  501  0.00000000000E+00  0.00000000000E+00 -0.24263726273E+04  0.24263726273E+04  0.25500000920E-02 0.  1.
    10030    2    1    2    0    0  0.00000000000E+00  0.00000000000E+00 -0.65552227498E+03  0.41972229795E+04  0.41457172223E+04 0.  0.
        5    1    3    3  502    0 -0.18225933519E+04  0.82019134263E+03 -0.88428157226E+03  0.21855288499E+04  0.46999998093E+01 0.  1.
       -5    1    3    3    0  502  0.18225933519E+04 -0.82019134263E+03  0.22875929728E+03  0.20116941296E+04  0.46999998093E+01 0. -1.
</event>
<event>
 5   0  0.1773903E-07  0.3939999E+04  0.7818609E-02  0.8016761E-01
        2   -1    0    0  501    0  0.00000000000E+00  0.00000000000E+00  0.17656263530E+04  0.17656263530E+04  0.25500000920E-02 0.  1.
       -2   -1    0    0    0  501  0.00000000000E+00  0.00000000000E+00 -0.21980285830E+04  0.21980285830E+04  0.25500000920E-02 0. -1.
    10030    2    1    2    0    0  0.00000000000E+00  0.00000000000E+00 -0.43240223006E+03  0.39636549360E+04  0.39399985740E+04 0.  0.
        3    1    3    3  502    0  0.46551998175E+03 -0.18310376539E+04  0.34526226572E+03  0.19205764202E+04  0.10100000352E+00 0.  1.
       -3    1    3    3    0  502 -0.46551998175E+03  0.18310376539E+04 -0.77766449578E+03  0.20430785158E+04  0.10100000352E+00 0. -1.
</event>
<event>
 5   0  0.1821433E-07  0.3997431E+04  0.7818609E-02  0.8005065E-01
        2   -1    0    0  501    0  0.00000000000E+00  0.00000000000E+00  0.24253194770E+04  0.24253194770E+04  0.25500000920E-02 0.  1.
       -2   -1    0    0    0  501  0.00000000000E+00  0.00000000000E+00 -0.16471490833E+04  0.16471490833E+04  0.25500000920E-02 0. -1.
    10030    2    1    2    0    0  0.00000000000E+00  0.00000000000E+00  0.77817039369E+03  0.40724685604E+04  0.39974305515E+04 0.  0.
        5    1    3    3  502    0  0.14698037436E+04  0.83436060276E+03 -0.69788247335E+03  0.18285356700E+04  0.46999998093E+01 0. -1.
       -5    1    3    3    0  502 -0.14698037436E+04 -0.83436060276E+03  0.14760528670E+04  0.22439328903E+04  0.46999998093E+01 0.  1.
</event>
<event>
 5   0  0.5515000E-08  0.3860263E+04  0.7818609E-02  0.8033345E-01
       -1   -1    0    0    0  501  0.00000000000E+00  0.00000000000E+00  0.13561950235E+04  0.13561950235E+04  0.50400001928E-02 0. -1.
        1   -1    0    0  501    0  0.00000000000E+00  0.00000000000E+00 -0.27469552771E+04  0.27469552771E+04  0.50400001928E-02 0.  1.
    10030    2    1    2    0    0  0.00000000000E+00  0.00000000000E+00 -0.13907602536E+04  0.41031503006E+04  0.38602627251E+04 0.  0.
        2    1    3    3  502    0  0.72082759740E+03  0.14635201207E+04 -0.17917466467E+04  0.24231879034E+04  0.25500000920E-02 0.  1.
       -2    1    3    3    0  502 -0.72082759740E+03 -0.14635201207E+04  0.40098639310E+03  0.16799623973E+04  0.25500000920E-02 0. -1.
</event>
<event>
 5   0  0.1776653E-07  0.3969981E+04  0.7818609E-02  0.8010630E-01
       -2   -1    0    0    0  501  0.00000000000E+00  0.00000000000E+00  0.20540145726E+04  0.20540145726E+04  0.25500000920E-02 0.  1.
        2   -1    0    0  501    0  0.00000000000E+00  0.00000000000E+00 -0.19182855664E+04  0.19182855664E+04  0.25500000920E-02 0. -1.
    10030    2    1    2    0    0  0.00000000000E+00  0.00000000000E+00  0.13572900616E+03  0.39723001390E+04  0.39699806084E+04 0.  0.
        4    1    3    3  502    0  0.17158438881E+04 -0.18399264582E+03 -0.91363234314E+03  0.19526134316E+04  0.12699999809E+01 0. -1.
       -4    1    3    3    0  502 -0.17158438881E+04  0.18399264582E+03  0.10493613493E+04  0.20196867074E+04  0.12699999809E+01 0.  1.
</event>
<event>
 5   0  0.5515000E-08  0.4015304E+04  0.7818609E-02  0.8001466E-01
        1   -1    0    0  501    0  0.00000000000E+00  0.00000000000E+00  0.23299052155E+04  0.23299052155E+04  0.50400001928E-02 0. -1.
       -1   -1    0    0    0  501  0.00000000000E+00  0.00000000000E+00 -0.17299702135E+04  0.17299702135E+04  0.50400001928E-02 0.  1.
    10030    2    1    2    0    0  0.00000000000E+00  0.00000000000E+00  0.59993500196E+03  0.40598754290E+04  0.40153040348E+04 0.  0.
        3    1    3    3  502    0 -0.30604203377E+03  0.51639684713E+03  0.22370466794E+04  0.23161833447E+04  0.10100000352E+00 0. -1.
       -3    1    3    3    0  502  0.30604203377E+03 -0.51639684713E+03 -0.16371116774E+04  0.17436920843E+04  0.10100000352E+00 0.  1.
</event>
<event>
 5   0  0.1773903E-07  0.3980732E+04  0.7818609E-02  0.8008445E-01
       -2   -1    0    0    0  501  0.00000000000E+00  0.00000000000E+00  0.30741179284E+04  0.30741179284E+04  0.25500000920E-02 0.  1.
        2   -1    0    0  501    0  0.00000000000E+00  0.00000000000E+00 -0.12886806570E+04  0.12886806571E+04  0.25500000920E-02 0. -1.
    10030    2    1    2    0    0  0.00000000000E+00  0.00000000000E+00  0.17854372714E+04  0.43627985855E+04  0.39807317477E+04 0.  0.
        3    1    3    3  502    0 -0.17441524763E+04  0.88255075335E+03  0.48177382929E+03  0.20132237147E+04  0.10100000352E+00 0.  1.
       -3    1    3    3    0  502  0.17441524763E+04 -0.88255075335E+03  0.13036634421E+04  0.23495748707E+04  0.10100000352E+00 0. -1.
</event>
<event>
 5   0  0.5515000E-08  0.4060015E+04  0.7818609E-02  0.7992548E-01
        1   -1    0    0  501    0  0.00000000000E+00  0.00000000000E+00  0.15948311858E+04  0.15948311858E+04  0.50400001928E-02 0.  1.
       -1   -1    0    0    0  501  0.00000000000E+00  0.00000000000E+00 -0.25839294526E+04  0.25839294527E+04  0.50400001928E-02 0. -1.
    10030    2    1    2    0    0  0.00000000000E+00  0.00000000000E+00 -0.98909826682E+03  0.41787606385E+04  0.40600154054E+04 0.  0.
        1    1    3    3  502    0  0.16640612447E+04 -0.61523777839E+02 -0.16895609881E+04  0.23722355140E+04  0.50400001928E-02 0. -1.
       -1    1    3    3    0  502 -0.16640612447E+04  0.61523777839E+02  0.70046272125E+03  0.18065251245E+04  0.50400001928E-02 0.  1.
</event>
<event>
 5   0  0.1821433E-07  0.3770065E+04  0.7818609E-02  0.8052610E-01
        2   -1    0    0  501    0  0.00000000000E+00  0.00000000000E+00  0.18453988586E+04  0.18453988586E+04  0.25500000920E-02 0.  1.
       -2   -1    0    0    0  501  0.00000000000E+00  0.00000000000E+00 -0.19255171383E+04  0.19255171383E+04  0.25500000920E-02 0. -1.
    10030    2    1    2    0    0  0.00000000000E+00  0.00000000000E+00 -0.80118279613E+02  0.37709159969E+04  0.37700647895E+04 0.  0.
        5    1    3    3  502    0 -0.12523322219E+04 -0.13896723075E+04  0.19194133368E+03  0.18805288304E+04  0.46999998093E+01 0.  1.
       -5    1    3    3    0  502  0.12523322219E+04  0.13896723075E+04 -0.27205961329E+03  0.18903871665E+04  0.46999998093E+01 0. -1.
</event>
<event>
 5   0  0.5515000E-08  0.4013712E+04  0.7818609E-02  0.8001786E-01
       -1   -1    0    0    0  501  0.00000000000E+00  0.00000000000E+00  0.14550953755E+04  0.14550953755E+04  0.50400001928E-02 0.  1.
        1   -1    0    0  501    0  0.00000000000E+00  0.00000000000E+00 -0.27678392273E+04  0.27678392273E+04  0.50400001928E-02 0. -1.
    10030    2    1    2    0    0  0.00000000000E+00  0.00000000000E+00 -0.13127438518E+04  0.42229346029E+04  0.40137115292E+04 0.  0.
        4    1    3    3  502    0 -0.23725030983E+03  0.46195232851E+03  0.13831760264E+04  0.14774522653E+04  0.12699999809E+01 0.  1.
       -4    1    3    3    0  502  0.23725030983E+03 -0.46195232851E+03 -0.26959198782E+04  0.27454823376E+04  0.12699999809E+01 0. -1.
</event>
<event>
 5   0  0.1785559E-07  0.4028487E+04  0.7818609E-02  0.7998824E-01
       -2   -1    0    0    0  501  0.00000000000E+00  0.00000000000E+00  0.20421980871E+04  0.20421980871E+04  0.25500000920E-02 0. -1.
        2   -1    0    0  501    0  0.00000000000E+00  0.00000000000E+00 -0.19866712357E+04  0.19866712357E+04  0.25500000920E-02 0.  1.
    10030    2    1    2    0    0  0.00000000000E+00  0.00000000000E+00  0.55526851426E+02  0.40288693228E+04  0.40284866623E+04 0.  0.
        2    1    3    3  502    0 -0.42143677029E+03 -0.69389628311E+03  0.18713254078E+04  0.20398430785E+04  0.25500000920E-02 0. -1.
       -2    1    3    3    0  502  0.42143677029E+03  0.69389628311E+03 -0.18157985564E+04  0.19890262443E+04  0.25500000920E-02 0.  1.
</event>
<event>
 5   0  0.1773903E-07  0.3957517E+04  0.7818609E-02  0.8013172E-01
       -2   -1    0    0    0  501  0.00000000000E+00  0.00000000000E+00  0.20336727688E+04  0.20336727688E+04  0.25500000920E-02 0.  1.
        2   -1    0    0  501    0  0.00000000000E+00  0.00000000000E+00 -0.19253272414E+04  0.19253272414E+04  0.25500000920E-02 0. -1.
    10030    2    1    2    0    0  0.00000000000E+00  0.00000000000E+00  0.10834552744E+03  0.39590000102E+04  0.39575171923E+04 0.  0.
        3    1    3    3  502    0  0.81113869615E+03 -0.79195021539E+01  0.18596971679E+04  0.20289115973E+04  0.10100000352E+00 0.  1.
       -3    1    3    3    0  502 -0.81113869615E+03  0.79195021539E+01 -0.17513516405E+04  0.19300884129E+04  0.10100000352E+00 0. -1.
</event>
<event>
 5   0  0.5515000E-08  0.4000053E+04  0.7818609E-02  0.8004536E-01
       -1   -1    0    0    0  501  0.00000000000E+00  0.00000000000E+00  0.18608850957E+04  0.18608850957E+04  0.50400001928E-02 0.  1.
        1   -1    0    0  501    0  0.00000000000E+00  0.00000000000E+00 -0.21495717984E+04  0.21495717984E+04  0.50400001928E-02 0. -1.
    10030    2    1    2    0    0  0.00000000000E+00  0.00000000000E+00 -0.28868670272E+03  0.40104568941E+04  0.40000530606E+04 0.  0.
        5    1    3    3  502    0  0.14400726095E+04  0.12098142741E+04  0.53759063696E+03  0.19561404554E+04  0.46999998093E+01 0.  1.
       -5    1    3    3    0  502 -0.14400726095E+04 -0.12098142741E+04 -0.82627733969E+03  0.20543164387E+04  0.46999998093E+01 0. -1.
</event>
<event>
 5   0  0.5515000E-08  0.4022246E+04  0.7818609E-02  0.8000074E-01
       -1   -1    0    0    0  501  0.00000000000E+00  0.00000000000E+00  0.13798278920E+04  0.13798278920E+04  0.50400001928E-02 0. -1.
        1   -1    0    0  501    0  0.00000000000E+00  0.00000000000E+00 -0.29312464516E+04  0.29312464516E+04  0.50400001928E-02 0.  1.
    10030    2    1    2    0    0  0.00000000000E+00  0.00000000000E+00 -0.15514185595E+04  0.43110743436E+04  0.40222459459E+04 0.  0.
        2    1    3    3  502    0 -0.12892394264E+04  0.12019574131E+04 -0.18136352411E+04  0.25290537181E+04  0.25500000920E-02 0.  1.
       -2    1    3    3    0  502  0.12892394264E+04 -0.12019574131E+04  0.26221668155E+03  0.17820206255E+04  0.25500000920E-02 0. -1.
</event>
<event>
 5   0  0.1776653E-07  0.3998406E+04  0.7818609E-02  0.8004868E-01
       -2   -1    0    0    0  501  0.00000000000E+00  0.00000000000E+00  0.16887789944E+04  0.16887789944E+04  0.25500000920E-02 0. -1.
        2   -1    0    0  501    0  0.00000000000E+00  0.00000000000E+00 -0.23666878989E+04  0.23666878989E+04  0.25500000920E-02 0.  1.
    10030    2    1    2    0    0  0.00000000000E+00  0.00000000000E+00 -0.67790890449E+03  0.40554668933E+04  0.39984060874E+04 0.  0.
        4    1    3    3  502    0 -0.16042737566E+04  0.70995797050E+03 -0.13113205598E+04  0.21902734599E+04  0.12699999809E+01 0.  1.
       -4    1    3    3    0  502  0.16042737566E+04 -0.70995797050E+03  0.63341165532E+03  0.18651934334E+04  0.12699999809E+01 0. -1.
</event>
<event>
 5   0  0.1785559E-07  0.4004488E+04  0.7818609E-02  0.8003642E-01
       -2   -1    0    0    0  501  0.00000000000E+00  0.00000000000E+00  0.16363342540E+04  0.16363342540E+04  0.25500000920E-02 0. -1.
        2   -1    0    0  501    0  0.00000000000E+00  0.00000000000E+00 -0.24499773508E+04  0.24499773508E+04  0.25500000920E-02 0.  1.
    10030    2    1    2    0    0  0.00000000000E+00  0.00000000000E+00 -0.81364309678E+03  0.40863116048E+04  0.40044884121E+04 0.  0.
        2    1    3    3  502    0  0.17603848996E+04  0.94742320595E+03 -0.29311705011E+03  0.20205156102E+04  0.25500000920E-02 0.  1.
       -2    1    3    3    0  502 -0.17603848996E+04 -0.94742320595E+03 -0.52052604668E+03  0.20657959946E+04  0.25500000920E-02 0. -1.
</event>
<event>
 5   0  0.5515000E-08  0.3987131E+04  0.7818609E-02  0.8007148E-01
        1   -1    0    0  501    0  0.00000000000E+00  0.00000000000E+00  0.20774575737E+04  0.20774575737E+04  0.50400001928E-02 0. -1.
       -1   -1    0    0    0  501  0.00000000000E+00  0.00000000000E+00 -0.19130612380E+04  0.19130612380E+04  0.50400001928E-02 0.  1.
    10030    2    1    2    0    0  0.00000000000E+00  0.00000000000E+00  0.16439633570E+03  0.39905188118E+04  0.39871310778E+04 0.  0.
        2    1    3    3  502    0  0.15174431400E+04  0.88108696109E+03 -0.86483815487E+03  0.19562446039E+04  0.25500000920E-02 0.  1.
       -2    1    3    3    0  502 -0.15174431400E+04 -0.88108696109E+03  0.10292344906E+04  0.20342742079E+04  0.25500000920E-02 0. -1.
</event>
<event>
 5   0  0.1776653E-07  0.4009468E+04  0.7818609E-02  0.8002639E-01
       -2   -1    0    0    0  501  0.00000000000E+00  0.00000000000E+00  0.23080140943E+04  0.23080140943E+04  0.25500000920E-02 0. -1.
        2   -1    0    0  501    0  0.00000000000E+00  0.00000000000E+00 -0.17413056066E+04  0.17413056066E+04  0.25500000920E-02 0.  1.
    10030    2    1    2    0    0  0.00000000000E+00  0.00000000000E+00  0.56670848767E+03  0.40493197009E+04  0.40094677365E+04 0.  0.
        4    1    3    3  502    0  0.41536741664E+03 -0.18664565030E+03  0.22550886228E+04  0.23006070936E+04  0.12699999809E+01 0. -1.
       -4    1    3    3    0  502 -0.41536741664E+03  0.18664565030E+03 -0.16883801351E+04  0.17487126073E+04  0.12699999809E+01 0.  1.
</event>
<event>
 5   0  0.1821433E-07  0.4018395E+04  0.7818609E-02  0.8000846E-01
        2   -1    0    0  501    0  0.00000000000E+00  0.00000000000E+00  0.12536438343E+04  0.12536438343E+04  0.25500000920E-02 0. -1.
       -2   -1    0    0    0  501  0.00000000000E+00  0.00000000000E+00 -0.32201130854E+04  0.32201130854E+04  0.25500000920E-02 0.  1.
    10030    2    1    2    0    0  0.00000000000E+00  0.00000000000E+00 -0.19664692511E+04  0.44737569196E+04  0.40183951598E+04 0.  0.
        5    1    3    3  502    0 -0.38931731303E+03 -0.15757685696E+03 -0.31706887510E+04  0.31983882944E+04  0.46999998093E+01 0.  1.
       -5    1    3    3    0  502  0.38931731303E+03  0.15757685696E+03  0.12042195000E+04  0.12753686252E+04  0.46999998093E+01 0. -1.
</event>
<event>
 5   0  0.1776653E-07  0.3986577E+04  0.7818609E-02  0.8007260E-01
        2   -1    0    0  501    0  0.00000000000E+00  0.00000000000E+00  0.18504948618E+04  0.18504948618E+04  0.25500000920E-02 0.  1.
       -2   -1    0    0    0  501  0.00000000000E+00  0.00000000000E+00 -0.21471007685E+04  0.21471007685E+04  0.25500000920E-02 0. -1.
    10030    2    1    2    0    0  0.00000000000E+00  0.00000000000E+00 -0.29660590667E+03  0.39975956304E+04  0.39865769477E+04 0.  0.
        4    1    3    3  502    0 -0.13246028306E+04 -0.57493590711E+03 -0.15261726351E+04  0.21010303379E+04  0.12699999809E+01 0. -1.
       -4    1    3    3    0  502  0.13246028306E+04  0.57493590711E+03  0.12295667284E+04  0.18965652924E+04  0.12699999809E+01 0.  1.
</event>
<event>
 5   0  0.1785559E-07  0.3999121E+04  0.7818609E-02  0.8004724E-01
       -2   -1    0    0    0  501  0.00000000000E+00  0.00000000000E+00  0.15458272514E+04  0.15458272514E+04  0.25500000920E-02 0. -1.
        2   -1    0    0  501    0  0.00000000000E+00  0.00000000000E+00 -0.25864745391E+04  0.25864745391E+04  0.25500000920E-02 0.  1.
    10030    2    1    2    0    0  0.00000000000E+00  0.00000000000E+00 -0.10406472876E+04  0.41323017905E+04  0.39991213173E+04 0.  0.
        2    1    3    3  502    0 -0.65625416000E+03  0.15318452478E+04  0.62147481716E+03  0.17786091009E+04  0.25500000920E-02 0. -1.
       -2    1    3    3    0  502  0.65625416000E+03 -0.15318452478E+04 -0.16621221048E+04  0.23536926895E+04  0.25500000920E-02 0.  1.
</event>
<event>
 5   0  0.5515000E-08  0.4002886E+04  0.7818609E-02  0.8003965E-01
       -1   -1    0    0    0  501  0.00000000000E+00  0.00000000000E+00  0.30581818256E+04  0.30581818256E+04  0.50400001928E-02 0. -1.
        1   -1    0    0  501    0  0.00000000000E+00  0.00000000000E+00 -0.13098549682E+04  0.13098549683E+04  0.50400001928E-02 0.  1.
    10030    2    1    2    0    0  0.00000000000E+00  0.00000000000E+00  0.17483268574E+04  0.43680367939E+04  0.40028862877E+04 0.  0.
        2    1    3    3  502    0 -0.13670076674E+04  0.23655554607E+03  0.24483643174E+04  0.28140995575E+04  0.25500000920E-02 0. -1.
       -2    1    3    3    0  502  0.13670076674E+04 -0.23655554607E+03 -0.70003746002E+03  0.15539372363E+04  0.25500000920E-02 0.  1.
</event>
<event>
 5   0  0.5515000E-08  0.4040789E+04  0.7818609E-02  0.7996368E-01
       -1   -1    0    0    0  501  0.00000000000E+00  0.00000000000E+00  0.16932476148E+04  0.16932476148E+04  0.50400001928E-02 0.  1.
        1   -1    0    0  501    0  0.00000000000E+00  0.00000000000E+00 -0.24107487212E+04  0.24107487212E+04  0.50400001928E-02 0. -1.
    10030    2    1    2    0    0  0.00000000000E+00  0.00000000000E+00 -0.71750110645E+03  0.41039963360E+04  0.40407892902E+04 0.  0.
        1    1    3    3  502    0 -0.78092385144E+03  0.18037261539E+04  0.11624484128E+03  0.19689547895E+04  0.50400001928E-02 0.  1.
       -1    1    3    3    0  502  0.78092385144E+03 -0.18037261539E+04 -0.83374594774E+03  0.21350415465E+04  0.50400001928E-02 0. -1.
</event>
<event>
 5   0  0.1773903E-07  0.3980380E+04  0.7818609E-02  0.8008516E-01
        2   -1    0    0  501    0  0.00000000000E+00  0.00000000000E+00  0.23312209407E+04  0.23312209407E+04  0.25500000920E-02 0. -1.
       -2   -1    0    0    0  501  0.00000000000E+00  0.00000000000E+00 -0.16990476463E+04  0.16990476463E+04  0.25500000920E-02 0.  1.
    10030    2    1    2    0    0  0.00000000000E+00  0.00000000000E+00  0.63217329436E+03  0.40302685870E+04  0.39803796062E+04 0.  0.
        3    1    3    3  502    0 -0.16795849634E+03  0.63651088399E+03  0.22177908401E+04  0.23134287070E+04  0.10100000352E+00 0. -1.
       -3    1    3    3    0  502  0.16795849634E+03 -0.63651088399E+03 -0.15856175457E+04  0.17168398800E+04  0.10100000352E+00 0.  1.
</event>
<event>
 5   0  0.5515000E-08  0.3957899E+04  0.7818609E-02  0.8013094E-01
       -1   -1    0    0    0  501  0.00000000000E+00  0.00000000000E+00  0.17848909056E+04  0.17848909056E+04  0.50400001928E-02 0. -1.
        1   -1    0    0  501    0  0.00000000000E+00  0.00000000000E+00 -0.21941065980E+04  0.21941065980E+04  0.50400001928E-02 0.  1.
    10030    2    1    2    0    0  0.00000000000E+00  0.00000000000E+00 -0.40921569243E+03  0.39789975036E+04  0.39578988934E+04 0.  0.
        1    1    3    3  502    0 -0.15196087712E+04 -0.11847062030E+04  0.24890811148E+03  0.19428573939E+04  0.50400001928E-02 0. -1.
       -1    1    3    3    0  502  0.15196087712E+04  0.11847062030E+04 -0.65812380390E+03  0.20361401097E+04  0.50400001928E-02 0.  1.
</event>
<event>
 5   0  0.1785559E-07  0.4012824E+04  0.7818609E-02  0.8001964E-01
       -2   -1    0    0    0  501  0.00000000000E+00  0.00000000000E+00  0.15647583512E+04  0.15647583512E+04  0.25500000920E-02 0. -1.
        2   -1    0    0  501    0  0.00000000000E+00  0.00000000000E+00 -0.25727231256E+04  0.25727231256E+04  0.25500000920E-02 0.  1.
    10030    2    1    2    0    0  0.00000000000E+00  0.00000000000E+00 -0.10079647744E+04  0.41374814768E+04  0.40128244398E+04 0.  0.
        2    1    3    3  502    0  0.86406383855E+03 -0.17625502689E+04 -0.75748786704E+02  0.19644153446E+04  0.25500000920E-02 0. -1.
       -2    1    3    3    0  502 -0.86406383855E+03  0.17625502689E+04 -0.93221598765E+03  0.21730661322E+04  0.25500000920E-02 0.  1.
</event>
<event>
 5   0  0.1821433E-07  0.4000442E+04  0.7818609E-02  0.8004457E-01
        2   -1    0    0  501    0  0.00000000000E+00  0.00000000000E+00  0.19254614630E+04  0.19254614630E+04  0.25500000920E-02 0. -1.
       -2   -1    0    0    0  501  0.00000000000E+00  0.00000000000E+00 -0.20778833236E+04  0.20778833236E+04  0.25500000920E-02 0.  1.
    10030    2    1    2    0    0  0.00000000000E+00  0.00000000000E+00 -0.15242186060E+03  0.40033447865E+04  0.40004421076E+04 0.  0.
        5    1    3    3  502    0  0.19084020078E+03 -0.73343919226E+03 -0.19286372920E+04  0.20722009856E+04  0.46999998093E+01 0.  1.
       -5    1    3    3    0  502 -0.19084020078E+03  0.73343919226E+03  0.17762154314E+04  0.19311438009E+04  0.46999998093E+01 0. -1.
</event>
<event>
 5   0  0.5515000E-08  0.4000258E+04  0.7818609E-02  0.8004494E-01
        1   -1    0    0  501    0  0.00000000000E+00  0.00000000000E+00  0.18018335946E+04  0.18018335946E+04  0.50400001928E-02 0. -1.
       -1   -1    0    0    0  501  0.00000000000E+00  0.00000000000E+00 -0.22202476204E+04  0.22202476204E+04  0.50400001928E-02 0.  1.
    10030    2    1    2    0    0  0.00000000000E+00  0.00000000000E+00 -0.41841402586E+03  0.40220812150E+04  0.40002583671E+04 0.  0.
        3    1    3    3  502    0 -0.19627213446E+03  0.19074423432E+04  0.36280580844E+03  0.19515345522E+04  0.10100000352E+00 0. -1.
       -3    1    3    3    0  502  0.19627213446E+03 -0.19074423432E+04 -0.78121983430E+03  0.20705466629E+04  0.10100000352E+00 0.  1.
</event>
<event>
 5   0  0.5515000E-08  0.4001622E+04  0.7818609E-02  0.8004219E-01
       -1   -1    0    0    0  501  0.00000000000E+00  0.00000000000E+00  0.20605465281E+04  0.20605465281E+04  0.50400001928E-02 0.  1.
        1   -1    0    0  501    0  0.00000000000E+00  0.00000000000E+00 -0.19428070047E+04  0.19428070047E+04  0.50400001928E-02 0. -1.
    10030    2    1    2    0    0  0.00000000000E+00  0.00000000000E+00  0.11773952339E+03  0.40033535327E+04  0.40016217853E+04 0.  0.
        1    1    3    3  502    0  0.51451408102E+03 -0.18265411697E+04  0.69338933634E+03  0.20203381291E+04  0.50400001928E-02 0.  1.
       -1    1    3    3    0  502 -0.51451408102E+03  0.18265411697E+04 -0.57564981295E+03  0.19830154037E+04  0.50400001928E-02 0. -1.
</event>
<event>
 5   0  0.5515000E-08  0.4025663E+04  0.7818609E-02  0.7999389E-01
        1   -1    0    0  501    0  0.00000000000E+00  0.00000000000E+00  0.18134479608E+04  0.18134479608E+04  0.50400001928E-02 0. -1.
       -1   -1    0    0    0  501  0.00000000000E+00  0.00000000000E+00 -0.22341366684E+04  0.22341366684E+04  0.50400001928E-02 0.  1.
    10030    2    1    2    0    0  0.00000000000E+00  0.00000000000E+00 -0.42068870755E+03  0.40475846292E+04  0.40256629692E+04 0.  0.
        5    1    3    3  502    0 -0.52821542586E+02 -0.19650652338E+04 -0.64536310309E+03  0.20690063106E+04  0.46999998093E+01 0. -1.
       -5    1    3    3    0  502  0.52821542586E+02  0.19650652338E+04  0.22467439554E+03  0.19785783185E+04  0.46999998093E+01 0.  1.
</event>
<event>
 5   0  0.5515000E-08  0.3986484E+04  0.7818609E-02  0.8007279E-01
        1   -1    0    0  501    0  0.00000000000E+00  0.00000000000E+00  0.17242248143E+04  0.17242248143E+04  0.50400001928E-02 0.  1.
       -1   -1    0    0    0  501  0.00000000000E+00  0.00000000000E+00 -0.23042315205E+04  0.23042315205E+04  0.50400001928E-02 0. -1.
    10030    2    1    2    0    0  0.00000000000E+00  0.00000000000E+00 -0.58000670620E+03  0.40284563348E+04  0.39864837467E+04 0.  0.
        3    1    3    3  502    0  0.47238734314E+03 -0.11267544628E+04 -0.18814778943E+04  0.22433645487E+04  0.10100000352E+00 0. -1.
       -3    1    3    3    0  502 -0.47238734314E+03  0.11267544628E+04  0.13014711881E+04  0.17850917862E+04  0.10100000352E+00 0.  1.
</event>
<event>
 5   0  0.1821433E-07  0.3852833E+04  0.7818609E-02  0.8034911E-01
       -2   -1    0    0    0  501  0.00000000000E+00  0.00000000000E+00  0.18019048257E+04  0.18019048257E+04  0.25500000920E-02 0.  1.
        2   -1    0    0  501    0  0.00000000000E+00  0.00000000000E+00 -0.20595319269E+04  0.20595319269E+04  0.25500000920E-02 0. -1.
    10030    2    1    2    0    0  0.00000000000E+00  0.00000000000E+00 -0.25762710121E+03  0.38614367526E+04  0.38528329929E+04 0.  0.
        5    1    3    3  502    0 -0.13127832672E+04  0.15610530007E+03  0.12754897961E+04  0.18370261515E+04  0.46999998093E+01 0.  1.
       -5    1    3    3    0  502  0.13127832672E+04 -0.15610530007E+03 -0.15331168973E+04  0.20244106011E+04  0.46999998093E+01 0. -1.
</event>
<event>
 5   0  0.1821433E-07  0.3986866E+04  0.7818609E-02  0.8007201E-01
       -2   -1    0    0    0  501  0.00000000000E+00  0.00000000000E+00  0.13959208757E+04  0.13959208757E+04  0.25500000920E-02 0.  1.
        2   -1    0    0  501    0  0.00000000000E+00  0.00000000000E+00 -0.28467048350E+04  0.28467048350E+04  0.25500000920E-02 0. -1.
    10030    2    1    2    0    0  0.00000000000E+00  0.00000000000E+00 -0.14507839594E+04  0.42426257107E+04  0.39868657896E+04 0.  0.
        5    1    3    3  502    0  0.12121456773E+04 -0.20385305515E+03 -0.23954303143E+04  0.26923895877E+04  0.46999998093E+01 0. -1.
       -5    1    3    3    0  502 -0.12121456773E+04  0.20385305515E+03  0.94464635499E+03  0.15502361230E+04  0.46999998093E+01 0.  1.
</event>
<event>
 5   0  0.5515000E-08  0.3925448E+04  0.7818609E-02  0.8019757E-01
       -1   -1    0    0    0  501  0.00000000000E+00  0.00000000000E+00  0.22880236971E+04  0.22880236971E+04  0.50400001928E-02 0. -1.
        1   -1    0    0  501    0  0.00000000000E+00  0.00000000000E+00 -0.16836739477E+04  0.16836739477E+04  0.50400001928E-02 0.  1.
    10030    2    1    2    0    0  0.00000000000E+00  0.00000000000E+00  0.60434974937E+03  0.39716976448E+04  0.39254481988E+04 0.  0.
        1    1    3    3  502    0 -0.12916034409E+04  0.14773789686E+04  0.26434687563E+03  0.19800927594E+04  0.50400001928E-02 0.  1.
       -1    1    3    3    0  502  0.12916034409E+04 -0.14773789686E+04  0.34000287374E+03  0.19916048853E+04  0.50400001928E-02 0. -1.
</event>
<event>
 5   0  0.1773903E-07  0.3920928E+04  0.7818609E-02  0.8020691E-01
       -2   -1    0    0    0  501  0.00000000000E+00  0.00000000000E+00  0.27890681722E+04  0.27890681722E+04  0.25500000920E-02 0. -1.
        2   -1    0    0  501    0  0.00000000000E+00  0.00000000000E+00 -0.13780295016E+04  0.13780295016E+04  0.25500000920E-02 0.  1.
    10030    2    1    2    0    0  0.00000000000E+00  0.00000000000E+00  0.14110386706E+04  0.41670976738E+04  0.39209275552E+04 0.  0.
        3    1    3    3  502    0 -0.13082101750E+04  0.11887063781E+04 -0.19564442627E+03  0.17784019419E+04  0.10100000352E+00 0. -1.
       -3    1    3    3    0  502  0.13082101750E+04 -0.11887063781E+04  0.16066830969E+04  0.23886957319E+04  0.10100000352E+00 0.  1.
</event>
<event>
 5   0  0.1821433E-07  0.4038767E+04  0.7818609E-02  0.7996771E-01
        2   -1    0    0  501    0  0.00000000000E+00  0.00000000000E+00  0.17299510931E+04  0.17299510931E+04  0.25500000920E-02 0.  1.
       -2   -1    0    0    0  501  0.00000000000E+00  0.00000000000E+00 -0.23572396155E+04  0.23572396155E+04  0.25500000920E-02 0. -1.
    10030    2    1    2    0    0  0.00000000000E+00  0.00000000000E+00 -0.62728852231E+03  0.40871907086E+04  0.40387667670E+04 0.  0.
        5    1    3    3  502    0 -0.37457219302E+03 -0.16651053289E+04 -0.14059404287E+04  0.22112373602E+04  0.46999998093E+01 0. -1.
       -5    1    3    3    0  502  0.37457219302E+03  0.16651053289E+04  0.77865190637E+03  0.18759533484E+04  0.46999998093E+01 0.  1.
</event>
<event>
 5   0  0.1776653E-07  0.4047748E+04  0.7818609E-02  0.7994983E-01
        2   -1    0    0  501    0  0.00000000000E+00  0.00000000000E+00  0.28308375562E+04  0.28308375562E+04  0.25500000920E-02 0. -1.
       -2   -1    0    0    0  501  0.00000000000E+00  0.00000000000E+00 -0.14469447194E+04  0.14469447194E+04  0.25500000920E-02 0.  1.
    10030    2    1    2    0    0  0.00000000000E+00  0.00000000000E+00  0.13838928368E+04  0.42777822755E+04  0.40477477458E+04 0.  0.
        4    1    3    3  502    0  0.55156240060E+02  0.55191587285E+03  0.27489438663E+04  0.28043443680E+04  0.12699999809E+01 0. -1.
       -4    1    3    3    0  502 -0.55156240060E+02 -0.55191587285E+03 -0.13650510295E+04  0.14734379076E+04  0.12699999809E+01 0.  1.
</event>
<event>
 5   0  0.5515000E-08  0.3994337E+04  0.7818609E-02  0.8005690E-01
        1   -1    0    0  501    0  0.00000000000E+00  0.00000000000E+00  0.24165970932E+04  0.24165970932E+04  0.50400001928E-02 0. -1.
       -1   -1    0    0    0  501  0.00000000000E+00  0.00000000000E+00 -0.16505367571E+04  0.16505367571E+04  0.50400001928E-02 0.  1.
    10030    2    1    2    0    0  0.00000000000E+00  0.00000000000E+00  0.76606033602E+03  0.40671338503E+04  0.39943371563E+04 0.  0.
        3    1    3    3  502    0 -0.16257005806E+04 -0.59701329723E+03  0.13958211735E+04  0.22243300145E+04  0.10100000352E+00 0. -1.
       -3    1    3    3    0  502  0.16257005806E+04  0.59701329723E+03 -0.62976083751E+03  0.18428038358E+04  0.10100000352E+00 0.  1.
</event>
<event>
 5   0  0.5515000E-08  0.3771902E+04  0.7818609E-02  0.8052212E-01
        1   -1    0    0  501    0  0.00000000000E+00  0.00000000000E+00  0.13181203834E+04  0.13181203834E+04  0.50400001928E-02 0. -1.
       -1   -1    0    0    0  501  0.00000000000E+00  0.00000000000E+00 -0.26983969720E+04  0.26983969720E+04  0.50400001928E-02 0.  1.
    10030    2    1    2    0    0  0.00000000000E+00  0.00000000000E+00 -0.13802765886E+04  0.40165173554E+04  0.37719024650E+04 0.  0.
        4    1    3    3  502    0  0.67016920087E+03  0.16926609305E+04 -0.16567020854E+03  0.18280251679E+04  0.12699999809E+01 0. -1.
       -4    1    3    3    0  502 -0.67016920087E+03 -0.16926609305E+04 -0.12146063801E+04  0.21884921875E+04  0.12699999809E+01 0.  1.
</event>
<event>
 5   0  0.5515000E-08  0.3912431E+04  0.7818609E-02  0.8022449E-01
        1   -1    0    0  501    0  0.00000000000E+00  0.00000000000E+00  0.24044209252E+04  0.24044209252E+04  0.50400001928E-02 0.  1.
       -1   -1    0    0    0  501  0.00000000000E+00  0.00000000000E+00 -0.15915597007E+04  0.15915597007E+04  0.50400001928E-02 0. -1.
    10030    2    1    2    0    0  0.00000000000E+00  0.00000000000E+00  0.81286122446E+03  0.39959806259E+04  0.39124311869E+04 0.  0.
        4    1    3    3  502    0 -0.18285045142E+04 -0.69438364364E+03  0.37133949800E+03  0.19908520886E+04  0.12699999809E+01 0.  1.
       -4    1    3    3    0  502  0.18285045142E+04  0.69438364364E+03  0.44152172645E+03  0.20051285373E+04  0.12699999809E+01 0. -1.
</event>
<event>
 5   0  0.5515000E-08  0.4012740E+04  0.7818609E-02  0.8001981E-01
        1   -1    0    0  501    0  0.00000000000E+00  0.00000000000E+00  0.24611183201E+04  0.24611183201E+04  0.50400001928E-02 0. -1.
       -1   -1    0    0    0  501  0.00000000000E+00  0.00000000000E+00 -0.16356466022E+04  0.16356466022E+04  0.50400001928E-02 0.  1.
    10030    2    1    2    0    0  0.00000000000E+00  0.00000000000E+00  0.82547171794E+03  0.40967649223E+04  0.40127396217E+04 0.  0.
        1    1    3    3  502    0 -0.15839404642E+04 -0.89970266197E+03  0.12712893636E+04  0.22213754568E+04  0.50400001928E-02 0.  1.
       -1    1    3    3    0  502  0.15839404642E+04  0.89970266197E+03 -0.44581764568E+03  0.18753894655E+04  0.50400001928E-02 0. -1.
</event>
<event>
 5   0  0.5515000E-08  0.3848434E+04  0.7818609E-02  0.8035840E-01
       -1   -1    0    0    0  501  0.00000000000E+00  0.00000000000E+00  0.24217499303E+04  0.24217499303E+04  0.50400001928E-02 0.  1.
        1   -1    0    0  501    0  0.00000000000E+00  0.00000000000E+00 -0.15288991842E+04  0.15288991842E+04  0.50400001928E-02 0. -1.
    10030    2    1    2    0    0  0.00000000000E+00  0.00000000000E+00  0.89285074605E+03  0.39506491145E+04  0.38484342233E+04 0.  0.
        1    1    3    3  502    0  0.40538573930E+03  0.65178438756E+03 -0.13649372776E+04  0.15659547431E+04  0.50400001928E-02 0. -1.
       -1    1    3    3    0  502 -0.40538573930E+03 -0.65178438756E+03  0.22577880237E+04  0.23846943715E+04  0.50400001928E-02 0.  1.
</event>
<event>
 5   0  0.5515000E-08  0.3967758E+04  0.7818609E-02  0.8011083E-01
       -1   -1    0    0    0  501  0.00000000000E+00  0.00000000000E+00  0.19664473150E+04  0.19664473150E+04  0.50400001928E-02 0.  1.
        1   -1    0    0  501    0  0.00000000000E+00  0.00000000000E+00 -0.20014652867E+04  0.20014652867E+04  0.50400001928E-02 0. -1.
    10030    2    1    2    0    0  0.00000000000E+00  0.00000000000E+00 -0.35017971745E+02  0.39679126017E+04  0.39677580769E+04 0.  0.
        5    1    3    3  502    0  0.25998217268E+03 -0.17483723008E+04 -0.91829792623E+03  0.19919060228E+04  0.46999998093E+01 0. -1.
       -5    1    3    3    0  502 -0.25998217268E+03  0.17483723008E+04  0.88327995449E+03  0.19760065790E+04  0.46999998093E+01 0.  1.
</event>
<event>
 5   0  0.1776653E-07  0.3997416E+04  0.7818609E-02  0.8005068E-01
        2   -1    0    0  501    0  0.00000000000E+00  0.00000000000E+00  0.17608804694E+04  0.17608804694E+04  0.25500000920E-02 0. -1.
       -2   -1    0    0    0  501  0.00000000000E+00  0.00000000000E+00 -0.22686567692E+04  0.22686567692E+04  0.25500000920E-02 0.  1.
    10030    2    1    2    0    0  0.00000000000E+00  0.00000000000E+00 -0.50777629980E+03  0.40295372386E+04  0.39974158637E+04 0.  0.
        4    1    3    3  502    0  0.12088248826E+04  0.15915459085E+04 -0.23012312214E+03  0.20117739038E+04  0.12699999809E+01 0.  1.
       -4    1    3    3    0  502 -0.12088248826E+04 -0.15915459085E+04 -0.27765317767E+03  0.20177633349E+04  0.12699999809E+01 0. -1.
</event>
<event>
 5   0  0.1776653E-07  0.3960612E+04  0.7818609E-02  0.8012540E-01
       -2   -1    0    0    0  501  0.00000000000E+00  0.00000000000E+00  0.19496648185E+04  0.19496648185E+04  0.25500000920E-02 0. -1.
        2   -1    0    0  501    0  0.00000000000E+00  0.00000000000E+00 -0.20114284503E+04  0.20114284503E+04  0.25500000920E-02 0.  1.
    10030    2    1    2    0    0  0.00000000000E+00  0.00000000000E+00 -0.61763631804E+02  0.39610932688E+04  0.39606117126E+04 0.  0.
        4    1    3    3  502    0  0.39377905921E+02 -0.14413728772E+03 -0.20057822567E+04  0.20113404116E+04  0.12699999809E+01 0.  1.
       -4    1    3    3    0  502 -0.39377905921E+02  0.14413728772E+03  0.19440186249E+04  0.19497528572E+04  0.12699999809E+01 0. -1.
</event>
<event>
 5   0  0.5515000E-08  0.3961399E+04  0.7818609E-02  0.8012379E-01
        1   -1    0    0  501    0  0.00000000000E+00  0.00000000000E+00  0.23490426855E+04  0.23490426855E+04  0.50400001928E-02 0. -1.
       -1   -1    0    0    0  501  0.00000000000E+00  0.00000000000E+00 -0.16701146396E+04  0.16701146396E+04  0.50400001928E-02 0.  1.
    10030    2    1    2    0    0  0.00000000000E+00  0.00000000000E+00  0.67892804591E+03  0.40191573251E+04  0.39613990348E+04 0.  0.
        3    1    3    3  502    0 -0.74337206294E+03 -0.78726305398E+03 -0.13432672753E+04  0.17253266715E+04  0.10100000352E+00 0.  1.
       -3    1    3    3    0  502  0.74337206294E+03  0.78726305398E+03  0.20221953213E+04  0.22938306536E+04  0.10100000352E+00 0. -1.
</event>
<event>
 5   0  0.1819906E-07  0.4041996E+04  0.7818609E-02  0.7996128E-01
        2   -1    0    0  501    0  0.00000000000E+00  0.00000000000E+00  0.31643039590E+04  0.31643039590E+04  0.25500000920E-02 0.  1.
       -2   -1    0    0    0  501  0.00000000000E+00  0.00000000000E+00 -0.12907840333E+04  0.12907840333E+04  0.25500000920E-02 0. -1.
    10030    2    1    2    0    0  0.00000000000E+00  0.00000000000E+00  0.18735199258E+04  0.44550879923E+04  0.40419960548E+04 0.  0.
        1    1    3    3  502    0  0.15603605286E+04  0.75442937448E+03 -0.20896850105E+03  0.17457252059E+04  0.50400001928E-02 0.  1.
       -1    1    3    3    0  502 -0.15603605286E+04 -0.75442937448E+03  0.20824884268E+04  0.27093627864E+04  0.50400001928E-02 0. -1.
</event>
<event>
 5   0  0.5515000E-08  0.3321864E+04  0.7818609E-02  0.8157354E-01
        1   -1    0    0  501    0  0.00000000000E+00  0.00000000000E+00  0.28256501083E+04  0.28256501083E+04  0.50400001928E-02 0.  1.
       -1   -1    0    0    0  501  0.00000000000E+00  0.00000000000E+00 -0.97630436398E+03  0.97630436399E+03  0.50400001928E-02 0. -1.
    10030    2    1    2    0    0  0.00000000000E+00  0.00000000000E+00  0.18493457443E+04  0.38019544723E+04  0.33218636528E+04 0.  0.
        3    1    3    3  502    0  0.10837010384E+04 -0.93369519830E+03  0.18907626798E+04  0.23709023990E+04  0.10100000352E+00 0.  1.
       -3    1    3    3    0  502 -0.10837010384E+04  0.93369519830E+03 -0.41416935495E+02  0.14310520733E+04  0.10100000352E+00 0. -1.
</event>
<event>
 5   0  0.1785559E-07  0.3976670E+04  0.7818609E-02  0.8009270E-01
        2   -1    0    0  501    0  0.00000000000E+00  0.00000000000E+00  0.21605545338E+04  0.21605545338E+04  0.25500000920E-02 0. -1.
       -2   -1    0    0    0  501  0.00000000000E+00  0.00000000000E+00 -0.18298432492E+04  0.18298432492E+04  0.25500000920E-02 0.  1.
    10030    2    1    2    0    0  0.00000000000E+00  0.00000000000E+00  0.33071128468E+03  0.39903977830E+04  0.39766700282E+04 0.  0.
        2    1    3    3  502    0 -0.59703396657E+02 -0.14182132395E+04  0.15624920710E+04  0.21109890479E+04  0.25500000920E-02 0. -1.
       -2    1    3    3    0  502  0.59703396657E+02  0.14182132395E+04 -0.12317807863E+04  0.18794087352E+04  0.25500000920E-02 0.  1.
</event>
<event>
 5   0  0.5515000E-08  0.3991316E+04  0.7818609E-02  0.8006301E-01
       -1   -1    0    0    0  501  0.00000000000E+00  0.00000000000E+00  0.17033380132E+04  0.17033380133E+04  0.50400001928E-02 0.  1.
        1   -1    0    0  501    0  0.00000000000E+00  0.00000000000E+00 -0.23381442099E+04  0.23381442099E+04  0.50400001928E-02 0. -1.
    10030    2    1    2    0    0  0.00000000000E+00  0.00000000000E+00 -0.63480619666E+03  0.40414822232E+04  0.39913155291E+04 0.  0.
        1    1    3    3  502    0  0.11547577202E+04  0.15866169811E+04  0.50246003693E+02  0.19629935043E+04  0.50400001928E-02 0.  1.
       -1    1    3    3    0  502 -0.11547577202E+04 -0.15866169811E+04 -0.68505220036E+03  0.20784887188E+04  0.50400001928E-02 0. -1.
</event>
<event>
 5   0  0.5515000E-08  0.3970717E+04  0.7818609E-02  0.8010480E-01
       -1   -1    0    0    0  501  0.00000000000E+00  0.00000000000E+00  0.18387906555E+04  0.18387906555E+04  0.50400001928E-02 0. -1.
        1   -1    0    0  501    0  0.00000000000E+00  0.00000000000E+00 -0.21436088824E+04  0.21436088824E+04  0.50400001928E-02 0.  1.
    10030    2    1    2    0    0  0.00000000000E+00  0.00000000000E+00 -0.30481822695E+03  0.39823995379E+04  0.39707168028E+04 0.  0.
        5    1    3    3  502    0 -0.90965938601E+03  0.60242205588E+02 -0.19212638743E+04  0.21265902959E+04  0.46999998093E+01 0.  1.
       -5    1    3    3    0  502  0.90965938601E+03 -0.60242205588E+02  0.16164456474E+04  0.18558092420E+04  0.46999998093E+01 0. -1.
</event>
<event>
 5   0  0.5515000E-08  0.3987250E+04  0.7818609E-02  0.8007124E-01
       -1   -1    0    0    0  501  0.00000000000E+00  0.00000000000E+00  0.13342542867E+04  0.13342542867E+04  0.50400001928E-02 0.  1.
        1   -1    0    0  501    0  0.00000000000E+00  0.00000000000E+00 -0.29788482387E+04  0.29788482387E+04  0.50400001928E-02 0. -1.
    10030    2    1    2    0    0  0.00000000000E+00  0.00000000000E+00 -0.16445939520E+04  0.43131025253E+04  0.39872501962E+04 0.  0.
        1    1    3    3  502    0  0.37697568749E+03 -0.27444969339E+03  0.12744359616E+04  0.13570631244E+04  0.50400001928E-02 0.  1.
       -1    1    3    3    0  502 -0.37697568749E+03  0.27444969339E+03 -0.29190299137E+04  0.29560394010E+04  0.50400001928E-02 0. -1.
</event>
<event>
 5   0  0.1821433E-07  0.4016124E+04  0.7818609E-02  0.8001302E-01
       -2   -1    0    0    0  501  0.00000000000E+00  0.00000000000E+00  0.18339971228E+04  0.18339971228E+04  0.25500000920E-02 0. -1.
        2   -1    0    0  501    0  0.00000000000E+00  0.00000000000E+00 -0.21986476650E+04  0.21986476650E+04  0.25500000920E-02 0.  1.
    10030    2    1    2    0    0  0.00000000000E+00  0.00000000000E+00 -0.36465054223E+03  0.40326447877E+04  0.40161242469E+04 0.  0.
        5    1    3    3  502    0  0.25710354542E+03  0.19813421482E+04 -0.38433050902E+03  0.20345886492E+04  0.46999998093E+01 0.  1.
       -5    1    3    3    0  502 -0.25710354542E+03 -0.19813421482E+04  0.19679966791E+02  0.19980561385E+04  0.46999998093E+01 0. -1.
</event>
<event>
 5   0  0.1773903E-07  0.3895344E+04  0.7818609E-02  0.8025998E-01
       -2   -1    0    0    0  501  0.00000000000E+00  0.00000000000E+00  0.15136050711E+04  0.15136050711E+04  0.25500000920E-02 0. -1.
        2   -1    0    0  501    0  0.00000000000E+00  0.00000000000E+00 -0.25062189430E+04  0.25062189430E+04  0.25500000920E-02 0.  1.
    10030    2    1    2    0    0  0.00000000000E+00  0.00000000000E+00 -0.99261387194E+03  0.40198240141E+04  0.38953437339E+04 0.  0.
        3    1    3    3  502    0 -0.78327708673E+03 -0.14313936015E+04 -0.15937839836E+04  0.22809116672E+04  0.10100000352E+00 0.  1.
       -3    1    3    3    0  502  0.78327708673E+03  0.14313936015E+04  0.60117011162E+03  0.17389123469E+04  0.10100000352E+00 0. -1.
</event>
<event>
 5   0  0.1819906E-07  0.3978036E+04  0.7818609E-02  0.8008992E-01
        2   -1    0    0  501    0  0.00000000000E+00  0.00000000000E+00  0.22413428968E+04  0.22413428968E+04  0.25500000920E-02 0. -1.
       -2   -1    0    0    0  501  0.00000000000E+00  0.00000000000E+00 -0.17650988848E+04  0.17650988848E+04  0.25500000920E-02 0.  1.
    10030    2    1    2    0    0  0.00000000000E+00  0.00000000000E+00  0.47624401201E+03  0.40064417816E+04  0.39780356196E+04 0.  0.
        1    1    3    3  502    0  0.17761965696E+04  0.58381762905E+03  0.92155036231E+03  0.20844597257E+04  0.50400001928E-02 0. -1.
       -1    1    3    3    0  502 -0.17761965696E+04 -0.58381762905E+03 -0.44530635030E+03  0.19219820559E+04  0.50400001928E-02 0.  1.
</event>
<event>
 5   0  0.5515000E-08  0.3989858E+04  0.7818609E-02  0.8006596E-01
        1   -1    0    0  501    0  0.00000000000E+00  0.00000000000E+00  0.19519175241E+04  0.19519175241E+04  0.50400001928E-02 0.  1.
       -1   -1    0    0    0  501  0.00000000000E+00  0.00000000000E+00 -0.20388882731E+04  0.20388882731E+04  0.50400001928E-02 0. -1.
    10030    2    1    2    0    0  0.00000000000E+00  0.00000000000E+00 -0.86970749010E+02  0.39908057971E+04  0.39898580174E+04 0.  0.
        2    1    3    3  502    0 -0.42597469271E+03  0.83741672329E+03  0.17167680432E+04  0.19570420847E+04  0.25500000920E-02 0.  1.
       -2    1    3    3    0  502  0.42597469271E+03 -0.83741672329E+03 -0.18037387922E+04  0.20337637124E+04  0.25500000920E-02 0. -1.
</event>
<event>
 5   0  0.5515000E-08  0.4061128E+04  0.7818609E-02  0.7992327E-01
       -1   -1    0    0    0  501  0.00000000000E+00  0.00000000000E+00  0.13848357492E+04  0.13848357492E+04  0.50400001928E-02 0.  1.
        1   -1    0    0  501    0  0.00000000000E+00  0.00000000000E+00 -0.29773856277E+04  0.29773856277E+04  0.50400001928E-02 0. -1.
    10030    2    1    2    0    0  0.00000000000E+00  0.00000000000E+00 -0.15925498785E+04  0.43622213769E+04  0.40611279499E+04 0.  0.
        1    1    3    3  502    0  0.69937003597E+02 -0.16948451861E+04  0.40263058138E+03  0.17434169824E+04  0.50400001928E-02 0.  1.
       -1    1    3    3    0  502 -0.69937003597E+02  0.16948451861E+04 -0.19951804598E+04  0.26188043945E+04  0.50400001928E-02 0. -1.
</event>
<event>
 5   0  0.1821433E-07  0.3311330E+04  0.7818609E-02  0.8160018E-01
       -2   -1    0    0    0  501  0.00000000000E+00  0.00000000000E+00  0.10540412166E+04  0.10540412166E+04  0.25500000920E-02 0.  1.
        2   -1    0    0  501    0  0.00000000000E+00  0.00000000000E+00 -0.26006829793E+04  0.26006829793E+04  0.25500000920E-02 0. -1.
    10030    2    1    2    0    0  0.00000000000E+00  0.00000000000E+00 -0.15466417627E+04  0.36547241960E+04  0.33113302775E+04 0.  0.
        5    1    3    3  502    0 -0.13698435850E+04  0.90510842357E+03 -0.53786134208E+03  0.17277180381E+04  0.46999998093E+01 0.  1.
       -5    1    3    3    0  502  0.13698435850E+04 -0.90510842357E+03 -0.10087804206E+04  0.19270061579E+04  0.46999998093E+01 0. -1.
</event>
<event>
 5   0  0.5515000E-08  0.3990491E+04  0.7818609E-02  0.8006467E-01
       -1   -1    0    0    0  501  0.00000000000E+00  0.00000000000E+00  0.25352484198E+04  0.25352484198E+04  0.50400001928E-02 0. -1.
        1   -1    0    0  501    0  0.00000000000E+00  0.00000000000E+00 -0.15702625240E+04  0.15702625241E+04  0.50400001928E-02 0.  1.
    10030    2    1    2    0    0  0.00000000000E+00  0.00000000000E+00  0.96498589571E+03  0.41055109438E+04  0.39904914899E+04 0.  0.
        5    1    3    3  502    0 -0.49462286950E+03 -0.11356060442E+04 -0.11267955375E+04  0.16744978782E+04  0.46999998093E+01 0.  1.
       -5    1    3    3    0  502  0.49462286950E+03  0.11356060442E+04  0.20917814332E+04  0.24310130656E+04  0.46999998093E+01 0. -1.
</event>
<event>
 5   0  0.5515000E-08  0.4091174E+04  0.7818609E-02  0.7986402E-01
        1   -1    0    0  501    0  0.00000000000E+00  0.00000000000E+00  0.26856357643E+04  0.26856357643E+04  0.50400001928E-02 0.  1.
       -1   -1    0    0    0  501  0.00000000000E+00  0.00000000000E+00 -0.15580766778E+04  0.15580766778E+04  0.50400001928E-02 0. -1.
    10030    2    1    2    0    0  0.00000000000E+00  0.00000000000E+00  0.11275590865E+04  0.42437124421E+04  0.40911741344E+04 0.  0.
        4    1    3    3  502    0  0.10828475601E+04  0.18964104138E+03 -0.12256199733E+04  0.16464107917E+04  0.12699999809E+01 0. -1.
       -4    1    3    3    0  502 -0.10828475601E+04 -0.18964104138E+03  0.23531790598E+04  0.25973016505E+04  0.12699999809E+01 0.  1.
</event>
<event>
 5   0  0.1821433E-07  0.3921703E+04  0.7818609E-02  0.8020530E-01
       -2   -1    0    0    0  501  0.00000000000E+00  0.00000000000E+00  0.15876086409E+04  0.15876086409E+04  0.25500000920E-02 0.  1.
        2   -1    0    0  501    0  0.00000000000E+00  0.00000000000E+00 -0.24218427859E+04  0.24218427859E+04  0.25500000920E-02 0. -1.
    10030    2    1    2    0    0  0.00000000000E+00  0.00000000000E+00 -0.83423414500E+03  0.40094514268E+04  0.39217029636E+04 0.  0.
        5    1    3    3  502    0  0.11734897612E+04 -0.14654557365E+04  0.16147651533E+03  0.18843395369E+04  0.46999998093E+01 0. -1.
       -5    1    3    3    0  502 -0.11734897612E+04  0.14654557365E+04 -0.99571066033E+03  0.21251118899E+04  0.46999998093E+01 0.  1.
</event>
<event>
 5   0  0.1821433E-07  0.3990550E+04  0.7818609E-02  0.8006456E-01
        2   -1    0    0  501    0  0.00000000000E+00  0.00000000000E+00  0.17082887202E+04  0.17082887202E+04  0.25500000920E-02 0. -1.
       -2   -1    0    0    0  501  0.00000000000E+00  0.00000000000E+00 -0.23304734165E+04  0.23304734165E+04  0.25500000920E-02 0.  1.
    10030    2    1    2    0    0  0.00000000000E+00  0.00000000000E+00 -0.62218469638E+03  0.40387621367E+04  0.39905495612E+04 0.  0.
        5    1    3    3  502    0 -0.15311858077E+04 -0.27052631907E+03  0.95436794495E+03  0.18244327150E+04  0.46999998093E+01 0. -1.
       -5    1    3    3    0  502  0.15311858077E+04  0.27052631907E+03 -0.15765526413E+04  0.22143294217E+04  0.46999998093E+01 0.  1.
</event>
<event>
 5   0  0.1776653E-07  0.3922912E+04  0.7818609E-02  0.8020281E-01
        2   -1    0    0  501    0  0.00000000000E+00  0.00000000000E+00  0.27074561463E+04  0.27074561463E+04  0.25500000920E-02 0. -1.
       -2   -1    0    0    0  501  0.00000000000E+00  0.00000000000E+00 -0.14210056127E+04  0.14210056127E+04  0.25500000920E-02 0.  1.
    10030    2    1    2    0    0  0.00000000000E+00  0.00000000000E+00  0.12864505337E+04  0.41284617590E+04  0.39229123773E+04 0.  0.
        4    1    3    3  502    0 -0.16304732870E+04  0.69447582715E+03  0.15278456328E+04  0.23398832673E+04  0.12699999809E+01 0.  1.
       -4    1    3    3    0  502  0.16304732870E+04 -0.69447582715E+03 -0.24139509911E+03  0.17885784917E+04  0.12699999809E+01 0. -1.
</event>
<event>
 5   0  0.1819906E-07  0.4001677E+04  0.7818609E-02  0.8004208E-01
        2   -1    0    0  501    0  0.00000000000E+00  0.00000000000E+00  0.22132960343E+04  0.22132960343E+04  0.25500000920E-02 0. -1.
       -2   -1    0    0    0  501  0.00000000000E+00  0.00000000000E+00 -0.18087746274E+04  0.18087746274E+04  0.25500000920E-02 0.  1.
    10030    2    1    2    0    0  0.00000000000E+00  0.00000000000E+00  0.40452140687E+03  0.40220706617E+04  0.40016765035E+04 0.  0.
        1    1    3    3  502    0  0.25335499103E+03 -0.14405530960E+04  0.15744921903E+04  0.21490480756E+04  0.50400001928E-02 0. -1.
       -1    1    3    3    0  502 -0.25335499103E+03  0.14405530960E+04 -0.11699707834E+04  0.18730225861E+04  0.50400001928E-02 0.  1.
</event>
<event>
 5   0  0.1819906E-07  0.4025879E+04  0.7818609E-02  0.7999346E-01
        2   -1    0    0  501    0  0.00000000000E+00  0.00000000000E+00  0.16409003885E+04  0.16409003885E+04  0.25500000920E-02 0.  1.
       -2   -1    0    0    0  501  0.00000000000E+00  0.00000000000E+00 -0.24693303708E+04  0.24693303708E+04  0.25500000920E-02 0. -1.
    10030    2    1    2    0    0  0.00000000000E+00  0.00000000000E+00 -0.82842998228E+03  0.41102307593E+04  0.40258788679E+04 0.  0.
        1    1    3    3  502    0  0.47191726326E+03 -0.16192563073E+04 -0.15359756384E+04  0.22812097786E+04  0.50400001928E-02 0. -1.
       -1    1    3    3    0  502 -0.47191726326E+03  0.16192563073E+04  0.70754565611E+03  0.18290209807E+04  0.50400001928E-02 0.  1.
</event>
<event>
 5   0  0.5515000E-08  0.3353984E+04  0.7818609E-02  0.8149293E-01
       -1   -1    0    0    0  501  0.00000000000E+00  0.00000000000E+00  0.22064532908E+04  0.22064532908E+04  0.50400001928E-02 0. -1.
        1   -1    0    0  501    0  0.00000000000E+00  0.00000000000E+00 -0.12745804682E+04  0.12745804682E+04  0.50400001928E-02 0.  1.
    10030    2    1    2    0    0  0.00000000000E+00  0.00000000000E+00  0.93187282258E+03  0.34810337590E+04  0.33539840599E+04 0.  0.
        2    1    3    3  502    0  0.19078390306E+03 -0.11852161645E+04 -0.74938828823E+03  0.14151744277E+04  0.25500000920E-02 0.  1.
       -2    1    3    3    0  502 -0.19078390306E+03  0.11852161645E+04  0.16812611108E+04  0.20658593314E+04  0.25500000920E-02 0. -1.
</event>
<event>
 5   0  0.1819906E-07  0.3743852E+04  0.7818609E-02  0.8058313E-01
        2   -1    0    0  501    0  0.00000000000E+00  0.00000000000E+00  0.24290956636E+04  0.24290956636E+04  0.25500000920E-02 0.  1.
       -2   -1    0    0    0  501  0.00000000000E+00  0.00000000000E+00 -0.14425558030E+04  0.14425558030E+04  0.25500000920E-02 0. -1.
    10030    2    1    2    0    0  0.00000000000E+00  0.00000000000E+00  0.98653986060E+03  0.38716514665E+04  0.37438515170E+04 0.  0.
        1    1    3    3  502    0 -0.16827094672E+04  0.54406546226E+03 -0.14134558398E+03  0.17741186410E+04  0.50400001928E-02 0. -1.
       -1    1    3    3    0  502  0.16827094672E+04 -0.54406546226E+03  0.11278854446E+04  0.20975328255E+04  0.50400001928E-02 0.  1.
</event>
<event>
 5   0  0.5515000E-08  0.4019116E+04  0.7818609E-02  0.8000701E-01
       -1   -1    0    0    0  501  0.00000000000E+00  0.00000000000E+00  0.21764221410E+04  0.21764221410E+04  0.50400001928E-02 0.  1.
        1   -1    0    0  501    0  0.00000000000E+00  0.00000000000E+00 -0.18554874983E+04  0.18554874983E+04  0.50400001928E-02 0. -1.
    10030    2    1    2    0    0  0.00000000000E+00  0.00000000000E+00  0.32093464264E+03  0.40319096393E+04  0.40191163575E+04 0.  0.
        5    1    3    3  502    0 -0.87854429938E+02  0.14880163134E+04  0.15124928299E+04  0.21235742512E+04  0.46999998093E+01 0.  1.
       -5    1    3    3    0  502  0.87854429938E+02 -0.14880163134E+04 -0.11915581873E+04  0.19083353881E+04  0.46999998093E+01 0. -1.
</event>
<event>
 5   0  0.5515000E-08  0.3994520E+04  0.7818609E-02  0.8005653E-01
       -1   -1    0    0    0  501  0.00000000000E+00  0.00000000000E+00  0.18828027318E+04  0.18828027318E+04  0.50400001928E-02 0.  1.
        1   -1    0    0  501    0  0.00000000000E+00  0.00000000000E+00 -0.21186753895E+04  0.21186753895E+04  0.50400001928E-02 0. -1.
    10030    2    1    2    0    0  0.00000000000E+00  0.00000000000E+00 -0.23587265766E+03  0.40014781213E+04  0.39945201520E+04 0.  0.
        5    1    3    3  502    0  0.17635550828E+04  0.83674531363E+03  0.30559614634E+03  0.19757733536E+04  0.46999998093E+01 0.  1.
       -5    1    3    3    0  502 -0.17635550828E+04 -0.83674531363E+03 -0.54146880400E+03  0.20257047677E+04  0.46999998093E+01 0. -1.
</event>
<event>
 5   0  0.1776653E-07  0.4016234E+04  0.7818609E-02  0.8001280E-01
       -2   -1    0    0    0  501  0.00000000000E+00  0.00000000000E+00  0.13480920068E+04  0.13480920068E+04  0.25500000920E-02 0. -1.
        2   -1    0    0  501    0  0.00000000000E+00  0.00000000000E+00 -0.29912905292E+04  0.29912905292E+04  0.25500000920E-02 0.  1.
    10030    2    1    2    0    0  0.00000000000E+00  0.00000000000E+00 -0.16431985225E+04  0.43393825360E+04  0.40162344814E+04 0.  0.
        4    1    3    3  502    0 -0.13125427336E+04  0.70329558422E+03 -0.22772726945E+04  0.27209126491E+04  0.12699999809E+01 0.  1.
       -4    1    3    3    0  502  0.13125427336E+04 -0.70329558422E+03  0.63407417200E+03  0.16184698869E+04  0.12699999809E+01 0. -1.
</event>
<event>
 5   0  0.5515000E-08  0.4010141E+04  0.7818609E-02  0.8002504E-01
        1   -1    0    0  501    0  0.00000000000E+00  0.00000000000E+00  0.26880399475E+04  0.26880399476E+04  0.50400001928E-02 0. -1.
       -1   -1    0    0    0  501  0.00000000000E+00  0.00000000000E+00 -0.14956281005E+04  0.14956281005E+04  0.50400001928E-02 0.  1.
    10030    2    1    2    0    0  0.00000000000E+00  0.00000000000E+00  0.11924118471E+04  0.41836680481E+04  0.40101411850E+04 0.  0.
        1    1    3    3  502    0 -0.16527412222E+04 -0.54626212343E+03  0.16344331082E+04  0.23877452629E+04  0.50400001928E-02 0. -1.
       -1    1    3    3    0  502  0.16527412222E+04  0.54626212343E+03 -0.44202126114E+03  0.17959227852E+04  0.50400001928E-02 0.  1.
</event>
<event>
 5   0  0.1773903E-07  0.3979535E+04  0.7818609E-02  0.8008688E-01
        2   -1    0    0  501    0  0.00000000000E+00  0.00000000000E+00  0.24253549335E+04  0.24253549335E+04  0.25500000920E-02 0. -1.
       -2   -1    0    0    0  501  0.00000000000E+00  0.00000000000E+00 -0.16324105424E+04  0.16324105424E+04  0.25500000920E-02 0.  1.
    10030    2    1    2    0    0  0.00000000000E+00  0.00000000000E+00  0.79294439109E+03  0.40577654758E+04  0.39795351298E+04 0.  0.
        3    1    3    3  502    0  0.16703348275E+04 -0.10796541443E+04  0.33611872584E+03  0.20170888219E+04  0.10100000352E+00 0.  1.
       -3    1    3    3    0  502 -0.16703348275E+04  0.10796541443E+04  0.45682566525E+03  0.20406766540E+04  0.10100000352E+00 0. -1.
</event>
<event>
 5   0  0.1773903E-07  0.3991983E+04  0.7818609E-02  0.8006166E-01
        2   -1    0    0  501    0  0.00000000000E+00  0.00000000000E+00  0.20131751280E+04  0.20131751280E+04  0.25500000920E-02 0.  1.
       -2   -1    0    0    0  501  0.00000000000E+00  0.00000000000E+00 -0.19789549079E+04  0.19789549079E+04  0.25500000920E-02 0. -1.
    10030    2    1    2    0    0  0.00000000000E+00  0.00000000000E+00  0.34220220173E+02  0.39921300359E+04  0.39919833667E+04 0.  0.
        3    1    3    3  502    0 -0.12593670936E+04 -0.14717594102E+04 -0.46446915920E+03  0.19919369589E+04  0.10100000352E+00 0.  1.
       -3    1    3    3    0  502  0.12593670936E+04  0.14717594102E+04  0.49868937937E+03  0.20001930770E+04  0.10100000352E+00 0. -1.
</event>
<event>
 5   0  0.1773903E-07  0.4003584E+04  0.7818609E-02  0.8003824E-01
       -2   -1    0    0    0  501  0.00000000000E+00  0.00000000000E+00  0.14900984446E+04  0.14900984446E+04  0.25500000920E-02 0. -1.
        2   -1    0    0  501    0  0.00000000000E+00  0.00000000000E+00 -0.26891984027E+04  0.26891984027E+04  0.25500000920E-02 0.  1.
    10030    2    1    2    0    0  0.00000000000E+00  0.00000000000E+00 -0.11990999581E+04  0.41792968473E+04  0.40035835733E+04 0.  0.
        3    1    3    3  502    0  0.61520889805E+03  0.56656420012E+03  0.12989777375E+04  0.15449337053E+04  0.10100000352E+00 0. -1.
       -3    1    3    3    0  502 -0.61520889805E+03 -0.56656420012E+03 -0.24980776955E+04  0.26343631420E+04  0.10100000352E+00 0.  1.
</event>
<event>
 5   0  0.5515000E-08  0.4023361E+04  0.7818609E-02  0.7999850E-01
       -1   -1    0    0    0  501  0.00000000000E+00  0.00000000000E+00  0.30961250068E+04  0.30961250068E+04  0.50400001928E-02 0.  1.
        1   -1    0    0  501    0  0.00000000000E+00  0.00000000000E+00 -0.13070721043E+04  0.13070721043E+04  0.50400001928E-02 0. -1.
    10030    2    1    2    0    0  0.00000000000E+00  0.00000000000E+00  0.17890529025E+04  0.44031971111E+04  0.40233610963E+04 0.  0.
        2    1    3    3  502    0  0.73079958368E+03 -0.93235857896E+03 -0.88485317835E+03  0.14786229061E+04  0.25500000920E-02 0. -1.
       -2    1    3    3    0  502 -0.73079958368E+03  0.93235857896E+03  0.26739060808E+04  0.29245742049E+04  0.25500000920E-02 0.  1.
</event>
<event>
 5   0  0.1821433E-07  0.4011411E+04  0.7818609E-02  0.8002248E-01
        2   -1    0    0  501    0  0.00000000000E+00  0.00000000000E+00  0.19714580700E+04  0.19714580700E+04  0.25500000920E-02 0.  1.
       -2   -1    0    0    0  501  0.00000000000E+00  0.00000000000E+00 -0.20405482898E+04  0.20405482898E+04  0.25500000920E-02 0. -1.
    10030    2    1    2    0    0  0.00000000000E+00  0.00000000000E+00 -0.69090219741E+02  0.40120063598E+04  0.40114114190E+04 0.  0.
        5    1    3    3  502    0 -0.17367963014E+04 -0.61169524613E+03 -0.82977361568E+03  0.20196977026E+04  0.46999998093E+01 0.  1.
       -5    1    3    3    0  502  0.17367963014E+04  0.61169524613E+03  0.76068339594E+03  0.19923086572E+04  0.46999998093E+01 0. -1.
</event>
<event>
 5   0  0.1821433E-07  0.4064030E+04  0.7818609E-02  0.7991753E-01
       -2   -1    0    0    0  501  0.00000000000E+00  0.00000000000E+00  0.29646773672E+04  0.29646773672E+04  0.25500000920E-02 0.  1.
        2   -1    0    0  501    0  0.00000000000E+00  0.00000000000E+00 -0.13927604840E+04  0.13927604840E+04  0.25500000920E-02 0. -1.
    10030    2    1    2    0    0  0.00000000000E+00  0.00000000000E+00  0.15719168831E+04  0.43574378512E+04  0.40640302582E+04 0.  0.
        5    1    3    3  502    0 -0.18992109557E+04 -0.71632012530E+03  0.68454308145E+03  0.21421340052E+04  0.46999998093E+01 0. -1.
       -5    1    3    3    0  502  0.18992109557E+04  0.71632012530E+03  0.88737380169E+03  0.22153038460E+04  0.46999998093E+01 0.  1.
</event>
<event>
 5   0  0.1776653E-07  0.4063120E+04  0.7818609E-02  0.7991933E-01
       -2   -1    0    0    0  501  0.00000000000E+00  0.00000000000E+00  0.23575513350E+04  0.23575513350E+04  0.25500000920E-02 0. -1.
        2   -1    0    0  501    0  0.00000000000E+00  0.00000000000E+00 -0.17506450984E+04  0.17506450984E+04  0.25500000920E-02 0.  1.
    10030    2    1    2    0    0  0.00000000000E+00  0.00000000000E+00  0.60690623663E+03  0.41081964334E+04  0.40631198303E+04 0.  0.
        4    1    3    3  502    0  0.15958442145E+04  0.98636646685E+03 -0.48467932685E+03  0.19376669545E+04  0.12699999809E+01 0.  1.
       -4    1    3    3    0  502 -0.15958442145E+04 -0.98636646685E+03  0.10915855635E+04  0.21705294790E+04  0.12699999809E+01 0. -1.
</event>
<event>
 5   0  0.1776653E-07  0.4018362E+04  0.7818609E-02  0.8000853E-01
       -2   -1    0    0    0  501  0.00000000000E+00  0.00000000000E+00  0.12324213686E+04  0.12324213686E+04  0.25500000920E-02 0. -1.
        2   -1    0    0  501    0  0.00000000000E+00  0.00000000000E+00 -0.32755090574E+04  0.32755090574E+04  0.25500000920E-02 0.  1.
    10030    2    1    2    0    0  0.00000000000E+00  0.00000000000E+00 -0.20430876888E+04  0.45079304260E+04  0.40183615345E+04 0.  0.
        4    1    3    3  502    0  0.97375029017E+03  0.90435305167E+03 -0.27120391708E+04  0.30201328028E+04  0.12699999809E+01 0.  1.
       -4    1    3    3    0  502 -0.97375029017E+03 -0.90435305167E+03  0.66895148201E+03  0.14877976233E+04  0.12699999809E+01 0. -1.
</event>
<event>
 5   0  0.5515000E-08  0.3987565E+04  0.7818609E-02  0.8007060E-01
        1   -1    0    0  501    0  0.00000000000E+00  0.00000000000E+00  0.19377462028E+04  0.19377462028E+04  0.50400001928E-02 0.  1.
       -1   -1    0    0    0  501  0.00000000000E+00  0.00000000000E+00 -0.20514395261E+04  0.20514395261E+04  0.50400001928E-02 0. -1.
    10030    2    1    2    0    0  0.00000000000E+00  0.00000000000E+00 -0.11369332330E+03  0.39891857289E+04  0.39875652481E+04 0.  0.
        4    1    3    3  502    0  0.19478963772E+03  0.18411708148E+04  0.68326109837E+03  0.19734995094E+04  0.12699999809E+01 0.  1.
       -4    1    3    3    0  502 -0.19478963772E+03 -0.18411708148E+04 -0.79695442167E+03  0.20156862195E+04  0.12699999809E+01 0. -1.
</event>
<event>
 5   0  0.1773903E-07  0.3986122E+04  0.7818609E-02  0.8007352E-01
       -2   -1    0    0    0  501  0.00000000000E+00  0.00000000000E+00  0.18798103793E+04  0.18798103793E+04  0.25500000920E-02 0.  1.
        2   -1    0    0  501    0  0.00000000000E+00  0.00000000000E+00 -0.21131345220E+04  0.21131345220E+04  0.25500000920E-02 0. -1.
    10030    2    1    2    0    0  0.00000000000E+00  0.00000000000E+00 -0.23332414269E+03  0.39929449013E+04  0.39861220289E+04 0.  0.
        3    1    3    3  502    0 -0.84644282363E+03 -0.10354737761E+04 -0.15968993558E+04  0.20829687845E+04  0.10100000352E+00 0. -1.
       -3    1    3    3    0  502  0.84644282363E+03  0.10354737761E+04  0.13635752131E+04  0.19099761168E+04  0.10100000352E+00 0.  1.
</event>
<event>
 5   0  0.5515000E-08  0.4010545E+04  0.7818609E-02  0.8002423E-01
        1   -1    0    0  501    0  0.00000000000E+00  0.00000000000E+00  0.21825644932E+04  0.21825644932E+04  0.50400001928E-02 0.  1.
       -1   -1    0    0    0  501  0.00000000000E+00  0.00000000000E+00 -0.18423822770E+04  0.18423822770E+04  0.50400001928E-02 0. -1.
    10030    2    1    2    0    0  0.00000000000E+00  0.00000000000E+00  0.34018221618E+03  0.40249467702E+04  0.40105451703E+04 0.  0.
        4    1    3    3  502    0  0.56059529910E+03 -0.19075498519E+04 -0.91811518268E+02  0.19903377841E+04  0.12699999809E+01 0. -1.
       -4    1    3    3    0  502 -0.56059529910E+03  0.19075498519E+04  0.43199373445E+03  0.20346089861E+04  0.12699999809E+01 0.  1.
</event>
<event>
 5   0  0.1819906E-07  0.3992299E+04  0.7818609E-02  0.8006102E-01
       -2   -1    0    0    0  501  0.00000000000E+00  0.00000000000E+00  0.31145637783E+04  0.31145637783E+04  0.25500000920E-02 0.  1.
        2   -1    0    0  501    0  0.00000000000E+00  0.00000000000E+00 -0.12793486872E+04  0.12793486872E+04  0.25500000920E-02 0. -1.
    10030    2    1    2    0    0  0.00000000000E+00  0.00000000000E+00  0.18352150911E+04  0.43939124655E+04  0.39922991276E+04 0.  0.
        1    1    3    3  502    0  0.70662903356E+02  0.18693759486E+04  0.15108823093E+03  0.18768024234E+04  0.50400001928E-02 0. -1.
       -1    1    3    3    0  502 -0.70662903356E+02 -0.18693759486E+04  0.16841268602E+04  0.25171100421E+04  0.50400001928E-02 0.  1.
</event>
<event>
 5   0  0.1785559E-07  0.4030543E+04  0.7818609E-02  0.7998413E-01
        2   -1    0    0  501    0  0.00000000000E+00  0.00000000000E+00  0.26127931604E+04  0.26127931604E+04  0.25500000920E-02 0. -1.
       -2   -1    0    0    0  501  0.00000000000E+00  0.00000000000E+00 -0.15543979029E+04  0.15543979029E+04  0.25500000920E-02 0.  1.
    10030    2    1    2    0    0  0.00000000000E+00  0.00000000000E+00  0.10583952575E+04  0.41671910633E+04  0.40305434915E+04 0.  0.
        2    1    3    3  502    0  0.13178179880E+04 -0.13408696801E+04 -0.22117984811E+03  0.18930124864E+04  0.25500000920E-02 0. -1.
       -2    1    3    3    0  502 -0.13178179880E+04  0.13408696801E+04  0.12795751056E+04  0.22741785769E+04  0.25500000920E-02 0.  1.
</event>
<event>
 5   0  0.5515000E-08  0.3413504E+04  0.7818609E-02  0.8134600E-01
       -1   -1    0    0    0  501  0.00000000000E+00  0.00000000000E+00  0.11244292199E+04  0.11244292199E+04  0.50400001928E-02 0. -1.
        1   -1    0    0  501    0  0.00000000000E+00  0.00000000000E+00 -0.25906491727E+04  0.25906491727E+04  0.50400001928E-02 0.  1.
    10030    2    1    2    0    0  0.00000000000E+00  0.00000000000E+00 -0.14662199529E+04  0.37150783926E+04  0.34135035540E+04 0.  0.
        1    1    3    3  502    0  0.86193128417E+03 -0.88825135873E+03  0.54591175536E+03  0.13527511447E+04  0.50400001928E-02 0. -1.
       -1    1    3    3    0  502 -0.86193128417E+03  0.88825135873E+03 -0.20121317082E+04  0.23623272479E+04  0.50400001928E-02 0.  1.
</event>
<event>
 5   0  0.5515000E-08  0.3862142E+04  0.7818609E-02  0.8032949E-01
       -1   -1    0    0    0  501  0.00000000000E+00  0.00000000000E+00  0.23363974637E+04  0.23363974637E+04  0.50400001928E-02 0.  1.
        1   -1    0    0  501    0  0.00000000000E+00  0.00000000000E+00 -0.15960616325E+04  0.15960616325E+04  0.50400001928E-02 0. -1.
    10030    2    1    2    0    0  0.00000000000E+00  0.00000000000E+00  0.74033583116E+03  0.39324590962E+04  0.38621415563E+04 0.  0.
        2    1    3    3  502    0 -0.55456656664E+03  0.17628459386E+03  0.22450000716E+04  0.23191907331E+04  0.25500000920E-02 0.  1.
       -2    1    3    3    0  502  0.55456656664E+03 -0.17628459386E+03 -0.15046642405E+04  0.16132683631E+04  0.25500000920E-02 0. -1.
</event>
<event>
 5   0  0.1776653E-07  0.3972355E+04  0.7818609E-02  0.8010147E-01
       -2   -1    0    0    0  501  0.00000000000E+00  0.00000000000E+00  0.14840541065E+04  0.14840541065E+04  0.25500000920E-02 0.  1.
        2   -1    0    0  501    0  0.00000000000E+00  0.00000000000E+00 -0.26581921909E+04  0.26581921909E+04  0.25500000920E-02 0. -1.
    10030    2    1    2    0    0  0.00000000000E+00  0.00000000000E+00 -0.11741380844E+04  0.41422462975E+04  0.39723549876E+04 0.  0.
        4    1    3    3  502    0 -0.11231736737E+04  0.18757326675E+02 -0.22951187607E+04  0.25552774169E+04  0.12699999809E+01 0. -1.
       -4    1    3    3    0  502  0.11231736737E+04 -0.18757326675E+02  0.11209806763E+04  0.15869688806E+04  0.12699999809E+01 0.  1.
</event>
<event>
 5   0  0.1776653E-07  0.4004981E+04  0.7818609E-02  0.8003542E-01
        2   -1    0    0  501    0  0.00000000000E+00  0.00000000000E+00  0.19091782438E+04  0.19091782438E+04  0.25500000920E-02 0.  1.
       -2   -1    0    0    0  501  0.00000000000E+00  0.00000000000E+00 -0.21003637856E+04  0.21003637856E+04  0.25500000920E-02 0. -1.
    10030    2    1    2    0    0  0.00000000000E+00  0.00000000000E+00 -0.19118554184E+03  0.40095420294E+04  0.40049813201E+04 0.  0.
        4    1    3    3  502    0  0.63779617028E+03 -0.86229644566E+03 -0.17885619613E+04  0.20854962520E+04  0.12699999809E+01 0. -1.
       -4    1    3    3    0  502 -0.63779617028E+03  0.86229644566E+03  0.15973764194E+04  0.19240457773E+04  0.12699999809E+01 0.  1.
</event>
<event>
 5   0  0.5515000E-08  0.3807661E+04  0.7818609E-02  0.8044513E-01
        1   -1    0    0  501    0  0.00000000000E+00  0.00000000000E+00  0.18463609450E+04  0.18463609450E+04  0.50400001928E-02 0. -1.
       -1   -1    0    0    0  501  0.00000000000E+00  0.00000000000E+00 -0.19630887447E+04  0.19630887447E+04  0.50400001928E-02 0.  1.
    10030    2    1    2    0    0  0.00000000000E+00  0.00000000000E+00 -0.11672779976E+03  0.38094496897E+04  0.38076609039E+04 0.  0.
        4    1    3    3  502    0 -0.86668796609E+03 -0.25914583409E+03  0.16176138713E+04  0.18533701313E+04  0.12699999809E+01 0. -1.
       -4    1    3    3    0  502  0.86668796609E+03  0.25914583409E+03 -0.17343416711E+04  0.19560795584E+04  0.12699999809E+01 0.  1.
</event>
<event>
 5   0  0.5515000E-08  0.3693584E+04  0.7818609E-02  0.8069385E-01
        1   -1    0    0  501    0  0.00000000000E+00  0.00000000000E+00  0.23098055028E+04  0.23098055028E+04  0.50400001928E-02 0. -1.
       -1   -1    0    0    0  501  0.00000000000E+00  0.00000000000E+00 -0.14765921787E+04  0.14765921787E+04  0.50400001928E-02 0.  1.
    10030    2    1    2    0    0  0.00000000000E+00  0.00000000000E+00  0.83321332406E+03  0.37863976815E+04  0.36935840263E+04 0.  0.
        2    1    3    3  502    0  0.62440826558E+03  0.12755250290E+04 -0.79364883409E+03  0.16268768403E+04  0.25500000920E-02 0.  1.
       -2    1    3    3    0  502 -0.62440826558E+03 -0.12755250290E+04  0.16268621581E+04  0.21595208412E+04  0.25500000920E-02 0. -1.
</event>
<event>
 5   0  0.1821433E-07  0.3993435E+04  0.7818609E-02  0.8005872E-01
       -2   -1    0    0    0  501  0.00000000000E+00  0.00000000000E+00  0.21303266443E+04  0.21303266443E+04  0.25500000920E-02 0.  1.
        2   -1    0    0  501    0  0.00000000000E+00  0.00000000000E+00 -0.18714878905E+04  0.18714878905E+04  0.25500000920E-02 0. -1.
    10030    2    1    2    0    0  0.00000000000E+00  0.00000000000E+00  0.25883875377E+03  0.40018145348E+04  0.39934348712E+04 0.  0.
        5    1    3    3  502    0 -0.58633802574E+03  0.17822304339E+04  0.81402260457E+03  0.20451876419E+04  0.46999998093E+01 0.  1.
       -5    1    3    3    0  502  0.58633802574E+03 -0.17822304339E+04 -0.55518385079E+03  0.19566268929E+04  0.46999998093E+01 0. -1.
</event>
<event>
 5   0  0.5515000E-08  0.4001506E+04  0.7818609E-02  0.8004243E-01
        1   -1    0    0  501    0  0.00000000000E+00  0.00000000000E+00  0.25212349545E+04  0.25212349545E+04  0.50400001928E-02 0.  1.
       -1   -1    0    0    0  501  0.00000000000E+00  0.00000000000E+00 -0.15877190267E+04  0.15877190267E+04  0.50400001928E-02 0. -1.
    10030    2    1    2    0    0  0.00000000000E+00  0.00000000000E+00  0.93351592786E+03  0.41089539812E+04  0.40015060705E+04 0.  0.
        2    1    3    3  502    0 -0.17704875157E+04  0.22741491340E+03 -0.46120547346E+03  0.18436523736E+04  0.25500000920E-02 0. -1.
       -2    1    3    3    0  502  0.17704875157E+04 -0.22741491340E+03  0.13947214013E+04  0.22653016076E+04  0.25500000920E-02 0.  1.
</event>
<event>
 5   0  0.5515000E-08  0.3308044E+04  0.7818609E-02  0.8160852E-01
        1   -1    0    0  501    0  0.00000000000E+00  0.00000000000E+00  0.18548129442E+04  0.18548129442E+04  0.50400001928E-02 0. -1.
       -1   -1    0    0    0  501  0.00000000000E+00  0.00000000000E+00 -0.14749672307E+04  0.14749672307E+04  0.50400001928E-02 0.  1.
    10030    2    1    2    0    0  0.00000000000E+00  0.00000000000E+00  0.37984571349E+03  0.33297801748E+04  0.33080437190E+04 0.  0.
        5    1    3    3  502    0 -0.53658403869E+03  0.13608535243E+04  0.96695474382E+03  0.17535302426E+04  0.46999998093E+01 0. -1.
       -5    1    3    3    0  502  0.53658403869E+03 -0.13608535243E+04 -0.58710903033E+03  0.15762499322E+04  0.46999998093E+01 0.  1.
</event>
<event>
 5   0  0.1785559E-07  0.3908158E+04  0.7818609E-02  0.8023335E-01
       -2   -1    0    0    0  501  0.00000000000E+00  0.00000000000E+00  0.98919389969E+03  0.98919389969E+03  0.25500000920E-02 0. -1.
        2   -1    0    0  501    0  0.00000000000E+00  0.00000000000E+00 -0.38601373804E+04  0.38601373804E+04  0.25500000920E-02 0.  1.
    10030    2    1    2    0    0  0.00000000000E+00  0.00000000000E+00 -0.28709434807E+04  0.48493312801E+04  0.39081578006E+04 0.  0.
        2    1    3    3  502    0 -0.91302158952E+02  0.85618378729E+02  0.98421471391E+03  0.99214172076E+03  0.25500000920E-02 0. -1.
       -2    1    3    3    0  502  0.91302158952E+02 -0.85618378729E+02 -0.38551581947E+04  0.38571895594E+04  0.25500000920E-02 0.  1.
</event>
<event>
 5   0  0.5515000E-08  0.3319626E+04  0.7818609E-02  0.8157919E-01
       -1   -1    0    0    0  501  0.00000000000E+00  0.00000000000E+00  0.16579026697E+04  0.16579026697E+04  0.50400001928E-02 0.  1.
        1   -1    0    0  501    0  0.00000000000E+00  0.00000000000E+00 -0.16617254615E+04  0.16617254615E+04  0.50400001928E-02 0. -1.
    10030    2    1    2    0    0  0.00000000000E+00  0.00000000000E+00 -0.38227917807E+01  0.33196281312E+04  0.33196259301E+04 0.  0.
        1    1    3    3  502    0  0.33069898829E+03 -0.15374147386E+04  0.52910042475E+03  0.16592025671E+04  0.50400001928E-02 0.  1.
       -1    1    3    3    0  502 -0.33069898829E+03  0.15374147386E+04 -0.53292321653E+03  0.16604255641E+04  0.50400001928E-02 0. -1.
</event>
<event>
 5   0  0.1773903E-07  0.4054851E+04  0.7818609E-02  0.7993572E-01
        2   -1    0    0  501    0  0.00000000000E+00  0.00000000000E+00  0.22866599708E+04  0.22866599708E+04  0.25500000920E-02 0. -1.
       -2   -1    0    0    0  501  0.00000000000E+00  0.00000000000E+00 -0.17975800656E+04  0.17975800656E+04  0.25500000920E-02 0.  1.
    10030    2    1    2    0    0  0.00000000000E+00  0.00000000000E+00  0.48907990524E+03  0.40842400364E+04  0.40548511097E+04 0.  0.
        3    1    3    3  502    0  0.10461981726E+03 -0.63049433134E+03  0.21825397624E+04  0.22741917757E+04  0.10100000352E+00 0. -1.
       -3    1    3    3    0  502 -0.10461981726E+03  0.63049433134E+03 -0.16934598572E+04  0.18100482607E+04  0.10100000352E+00 0.  1.
</event>
<event>
 5   0  0.5515000E-08  0.3977103E+04  0.7818609E-02  0.8009182E-01
        1   -1    0    0  501    0  0.00000000000E+00  0.00000000000E+00  0.19679009926E+04  0.19679009926E+04  0.50400001928E-02 0. -1.
       -1   -1    0    0    0  501  0.00000000000E+00  0.00000000000E+00 -0.20094184804E+04  0.20094184804E+04  0.50400001928E-02 0.  1.
    10030    2    1    2    0    0  0.00000000000E+00  0.00000000000E+00 -0.41517487775E+02  0.39773194730E+04  0.39771027757E+04 0.  0.
        2    1    3    3  502    0  0.21238683420E+03  0.29995808054E+03  0.19336388128E+04  0.19682586405E+04  0.25500000920E-02 0. -1.
       -2    1    3    3    0  502 -0.21238683420E+03 -0.29995808054E+03 -0.19751563006E+04  0.20090608326E+04  0.25500000920E-02 0.  1.
</event>
<event>
 5   0  0.1785559E-07  0.3987023E+04  0.7818609E-02  0.8007170E-01
        2   -1    0    0  501    0  0.00000000000E+00  0.00000000000E+00  0.24935139267E+04  0.24935139267E+04  0.25500000920E-02 0. -1.
       -2   -1    0    0    0  501  0.00000000000E+00  0.00000000000E+00 -0.15937699154E+04  0.15937699154E+04  0.25500000920E-02 0.  1.
    10030    2    1    2    0    0  0.00000000000E+00  0.00000000000E+00  0.89974401133E+03  0.40872838422E+04  0.39870226887E+04 0.  0.
        2    1    3    3  502    0 -0.36800715163E+03 -0.59199771490E+03 -0.14647656172E+04  0.16221679541E+04  0.25500000920E-02 0.  1.
       -2    1    3    3    0  502  0.36800715163E+03  0.59199771490E+03  0.23645096285E+04  0.24651158880E+04  0.25500000920E-02 0. -1.
</event>
<event>
 5   0  0.5515000E-08  0.4002350E+04  0.7818609E-02  0.8004073E-01
        1   -1    0    0  501    0  0.00000000000E+00  0.00000000000E+00  0.23666285167E+04  0.23666285167E+04  0.50400001928E-02 0.  1.
       -1   -1    0    0    0  501  0.00000000000E+00  0.00000000000E+00 -0.16921547189E+04  0.16921547189E+04  0.50400001928E-02 0. -1.
    10030    2    1    2    0    0  0.00000000000E+00  0.00000000000E+00  0.67447379784E+03  0.40587832356E+04  0.40023501158E+04 0.  0.
        3    1    3    3  502    0 -0.90659385090E+03  0.80156390062E+03  0.19535368526E+04  0.22979824503E+04  0.10100000352E+00 0.  1.
       -3    1    3    3    0  502  0.90659385090E+03 -0.80156390062E+03 -0.12790630548E+04  0.17608007853E+04  0.10100000352E+00 0. -1.
</event>
<event>
 5   0  0.1785559E-07  0.4022801E+04  0.7818609E-02  0.7999963E-01
       -2   -1    0    0    0  501  0.00000000000E+00  0.00000000000E+00  0.12361939343E+04  0.12361939343E+04  0.25500000920E-02 0.  1.
        2   -1    0    0  501    0  0.00000000000E+00  0.00000000000E+00 -0.32727330980E+04  0.32727330980E+04  0.25500000920E-02 0. -1.
    10030    2    1    2    0    0  0.00000000000E+00  0.00000000000E+00 -0.20365391637E+04  0.45089270323E+04  0.40228014141E+04 0.  0.
        2    1    3    3  502    0 -0.15858370619E+04 -0.11862867009E+04 -0.62425319747E+03  0.20764988269E+04  0.25500000920E-02 0. -1.
       -2    1    3    3    0  502  0.15858370619E+04  0.11862867009E+04 -0.14122859662E+04  0.24324282053E+04  0.25500000920E-02 0.  1.
</event>
<event>
 5   0  0.5515000E-08  0.3936570E+04  0.7818609E-02  0.8017466E-01
       -1   -1    0    0    0  501  0.00000000000E+00  0.00000000000E+00  0.25973481849E+04  0.25973481849E+04  0.50400001928E-02 0. -1.
        1   -1    0    0  501    0  0.00000000000E+00  0.00000000000E+00 -0.14915773732E+04  0.14915773732E+04  0.50400001928E-02 0.  1.
    10030    2    1    2    0    0  0.00000000000E+00  0.00000000000E+00  0.11057708117E+04  0.40889255581E+04  0.39365699704E+04 0.  0.
        5    1    3    3  502    0 -0.10981800075E+04 -0.34365898362E+03 -0.11057971080E+04  0.15959041825E+04  0.46999998093E+01 0.  1.
       -5    1    3    3    0  502  0.10981800075E+04  0.34365898362E+03  0.22115679196E+04  0.24930213756E+04  0.46999998093E+01 0. -1.
</event>
<event>
 5   0  0.5515000E-08  0.4033350E+04  0.7818609E-02  0.7997852E-01
       -1   -1    0    0    0  501  0.00000000000E+00  0.00000000000E+00  0.32168063598E+04  0.32168063598E+04  0.50400001928E-02 0. -1.
        1   -1    0    0  501    0  0.00000000000E+00  0.00000000000E+00 -0.12642904083E+04  0.12642904083E+04  0.50400001928E-02 0.  1.
    10030    2    1    2    0    0  0.00000000000E+00  0.00000000000E+00  0.19525159515E+04  0.44810967681E+04  0.40333496878E+04 0.  0.
        4    1    3    3  502    0 -0.15255926018E+04 -0.53714902066E+03 -0.36204437467E+03  0.16574195604E+04  0.12699999809E+01 0.  1.
       -4    1    3    3    0  502  0.15255926018E+04  0.53714902066E+03  0.23145603262E+04  0.28236772077E+04  0.12699999809E+01 0. -1.
</event>
<event>
 5   0  0.1773903E-07  0.4009147E+04  0.7818609E-02  0.8002704E-01
        2   -1    0    0  501    0  0.00000000000E+00  0.00000000000E+00  0.14299609514E+04  0.14299609514E+04  0.25500000920E-02 0. -1.
       -2   -1    0    0    0  501  0.00000000000E+00  0.00000000000E+00 -0.28100872200E+04  0.28100872200E+04  0.25500000920E-02 0.  1.
    10030    2    1    2    0    0  0.00000000000E+00  0.00000000000E+00 -0.13801262686E+04  0.42400481714E+04  0.40091470388E+04 0.  0.
        3    1    3    3  502    0 -0.13655801803E+04 -0.28204665879E+03 -0.22131284085E+04  0.26157784519E+04  0.10100000352E+00 0.  1.
       -3    1    3    3    0  502  0.13655801803E+04  0.28204665879E+03  0.83300213991E+03  0.16242697195E+04  0.10100000352E+00 0. -1.
</event>
<event>
 5   0  0.5515000E-08  0.3909478E+04  0.7818609E-02  0.8023061E-01
       -1   -1    0    0    0  501  0.00000000000E+00  0.00000000000E+00  0.15651993171E+04  0.15651993171E+04  0.50400001928E-02 0. -1.
        1   -1    0    0  501    0  0.00000000000E+00  0.00000000000E+00 -0.24412257834E+04  0.24412257834E+04  0.50400001928E-02 0.  1.
    10030    2    1    2    0    0  0.00000000000E+00  0.00000000000E+00 -0.87602646637E+03  0.40064251005E+04  0.39094781897E+04 0.  0.
        3    1    3    3  502    0 -0.86961526683E+03 -0.13623275996E+04  0.68872293298E+03  0.17568456078E+04  0.10100000352E+00 0. -1.
       -3    1    3    3    0  502  0.86961526683E+03  0.13623275996E+04 -0.15647493993E+04  0.22495794927E+04  0.10100000352E+00 0.  1.
</event>
<event>
 5   0  0.5515000E-08  0.3885849E+04  0.7818609E-02  0.8027979E-01
       -1   -1    0    0    0  501  0.00000000000E+00  0.00000000000E+00  0.19340106976E+04  0.19340106976E+04  0.50400001928E-02 0.  1.
        1   -1    0    0  501    0  0.00000000000E+00  0.00000000000E+00 -0.19518796380E+04  0.19518796380E+04  0.50400001928E-02 0. -1.
    10030    2    1    2    0    0  0.00000000000E+00  0.00000000000E+00 -0.17868940442E+02  0.38858903356E+04  0.38858492509E+04 0.  0.
        2    1    3    3  502    0 -0.87080984064E+02  0.13250873259E+04  0.14093599690E+04  0.19364232599E+04  0.25500000920E-02 0.  1.
       -2    1    3    3    0  502  0.87080984064E+02 -0.13250873259E+04 -0.14272289095E+04  0.19494670757E+04  0.25500000920E-02 0. -1.
</event>
<event>
 5   0  0.5515000E-08  0.3965593E+04  0.7818609E-02  0.8011524E-01
       -1   -1    0    0    0  501  0.00000000000E+00  0.00000000000E+00  0.23955100639E+04  0.23955100639E+04  0.50400001928E-02 0. -1.
        1   -1    0    0  501    0  0.00000000000E+00  0.00000000000E+00 -0.16411878993E+04  0.16411878993E+04  0.50400001928E-02 0.  1.
    10030    2    1    2    0    0  0.00000000000E+00  0.00000000000E+00  0.75432216461E+03  0.40366979633E+04  0.39655930854E+04 0.  0.
        2    1    3    3  502    0  0.85366651078E+03 -0.22743462879E+03  0.21840977713E+04  0.23560042650E+04  0.25500000920E-02 0. -1.
       -2    1    3    3    0  502 -0.85366651078E+03  0.22743462879E+03 -0.14297756067E+04  0.16806936983E+04  0.25500000920E-02 0.  1.
</event>
<event>
 5   0  0.1776653E-07  0.3989281E+04  0.7818609E-02  0.8006712E-01
       -2   -1    0    0    0  501  0.00000000000E+00  0.00000000000E+00  0.20830300174E+04  0.20830300174E+04  0.25500000920E-02 0. -1.
        2   -1    0    0  501    0  0.00000000000E+00  0.00000000000E+00 -0.19100014244E+04  0.19100014244E+04  0.25500000920E-02 0.  1.
    10030    2    1    2    0    0  0.00000000000E+00  0.00000000000E+00  0.17302859295E+03  0.39930314418E+04  0.39892807875E+04 0.  0.
        4    1    3    3  502    0  0.17499309721E+04 -0.34241858765E+03 -0.80823877567E+03  0.19577437084E+04  0.12699999809E+01 0.  1.
       -4    1    3    3    0  502 -0.17499309721E+04  0.34241858765E+03  0.98126736862E+03  0.20352877335E+04  0.12699999809E+01 0. -1.
</event>
<event>
 5   0  0.5515000E-08  0.4264327E+04  0.7818609E-02  0.7953247E-01
        1   -1    0    0  501    0  0.00000000000E+00  0.00000000000E+00  0.22198066008E+04  0.22198066008E+04  0.50400001928E-02 0. -1.
       -1   -1    0    0    0  501  0.00000000000E+00  0.00000000000E+00 -0.20479808562E+04  0.20479808562E+04  0.50400001928E-02 0.  1.
    10030    2    1    2    0    0  0.00000000000E+00  0.00000000000E+00  0.17182574463E+03  0.42677874570E+04  0.42643271089E+04 0.  0.
        1    1    3    3  502    0  0.65991726689E+03 -0.15802939097E+04 -0.11852759877E+04  0.20827142884E+04  0.50400001928E-02 0.  1.
       -1    1    3    3    0  502 -0.65991726689E+03  0.15802939097E+04  0.13571017323E+04  0.21850731686E+04  0.50400001928E-02 0. -1.
</event>
<event>
 5   0  0.5515000E-08  0.3989491E+04  0.7818609E-02  0.8006670E-01
        1   -1    0    0  501    0  0.00000000000E+00  0.00000000000E+00  0.20892611170E+04  0.20892611171E+04  0.50400001928E-02 0. -1.
       -1   -1    0    0    0  501  0.00000000000E+00  0.00000000000E+00 -0.19045056655E+04  0.19045056656E+04  0.50400001928E-02 0.  1.
    10030    2    1    2    0    0  0.00000000000E+00  0.00000000000E+00  0.18475545150E+03  0.39937667826E+04  0.39894910123E+04 0.  0.
        1    1    3    3  502    0 -0.19878592415E+04  0.16557591468E+03  0.89230040630E+02  0.19967377764E+04  0.50400001928E-02 0. -1.
       -1    1    3    3    0  502  0.19878592415E+04 -0.16557591468E+03  0.95525410870E+02  0.19970290062E+04  0.50400001928E-02 0.  1.
</event>
<event>
 5   0  0.1821433E-07  0.3999022E+04  0.7818609E-02  0.8004744E-01
        2   -1    0    0  501    0  0.00000000000E+00  0.00000000000E+00  0.21920447012E+04  0.21920447012E+04  0.25500000920E-02 0. -1.
       -2   -1    0    0    0  501  0.00000000000E+00  0.00000000000E+00 -0.18238877756E+04  0.18238877757E+04  0.25500000920E-02 0.  1.
    10030    2    1    2    0    0  0.00000000000E+00  0.00000000000E+00  0.36815692557E+03  0.40159324769E+04  0.39990216475E+04 0.  0.
        5    1    3    3  502    0  0.90337387387E+02  0.14065025861E+04 -0.12402319722E+04  0.18773938860E+04  0.46999998093E+01 0.  1.
       -5    1    3    3    0  502 -0.90337387387E+02 -0.14065025861E+04  0.16083888977E+04  0.21385385909E+04  0.46999998093E+01 0. -1.
</event>
<event>
 5   0  0.1819906E-07  0.3894696E+04  0.7818609E-02  0.8026133E-01
       -2   -1    0    0    0  501  0.00000000000E+00  0.00000000000E+00  0.13375251538E+04  0.13375251538E+04  0.25500000920E-02 0. -1.
        2   -1    0    0  501    0  0.00000000000E+00  0.00000000000E+00 -0.28352094057E+04  0.28352094057E+04  0.25500000920E-02 0.  1.
    10030    2    1    2    0    0  0.00000000000E+00  0.00000000000E+00 -0.14976842519E+04  0.41727345596E+04  0.38946958272E+04 0.  0.
        1    1    3    3  502    0  0.12914489955E+04 -0.10801668456E+04 -0.17972514773E+04  0.24626639631E+04  0.50400001928E-02 0.  1.
       -1    1    3    3    0  502 -0.12914489955E+04  0.10801668456E+04  0.29956722542E+03  0.17100705965E+04  0.50400001928E-02 0. -1.
</event>
<event>
 5   0  0.1819906E-07  0.3865650E+04  0.7818609E-02  0.8032212E-01
       -2   -1    0    0    0  501  0.00000000000E+00  0.00000000000E+00  0.23340673382E+04  0.23340673382E+04  0.25500000920E-02 0. -1.
        2   -1    0    0  501    0  0.00000000000E+00  0.00000000000E+00 -0.16005590166E+04  0.16005590166E+04  0.25500000920E-02 0.  1.
    10030    2    1    2    0    0  0.00000000000E+00  0.00000000000E+00  0.73350832161E+03  0.39346263548E+04  0.38656500222E+04 0.  0.
        1    1    3    3  502    0 -0.92814395655E+03 -0.17387600052E+03 -0.13497923204E+04  0.16473079177E+04  0.50400001928E-02 0.  1.
       -1    1    3    3    0  502  0.92814395655E+03  0.17387600052E+03  0.20833006420E+04  0.22873184371E+04  0.50400001928E-02 0. -1.
</event>
<event>
 5   0  0.5515000E-08  0.3978735E+04  0.7818609E-02  0.8008850E-01
       -1   -1    0    0    0  501  0.00000000000E+00  0.00000000000E+00  0.31881328183E+04  0.31881328183E+04  0.50400001928E-02 0. -1.
        1   -1    0    0  501    0  0.00000000000E+00  0.00000000000E+00 -0.12413482542E+04  0.12413482542E+04  0.50400001928E-02 0.  1.
    10030    2    1    2    0    0  0.00000000000E+00  0.00000000000E+00  0.19467845640E+04  0.44294810725E+04  0.39787350292E+04 0.  0.
        3    1    3    3  502    0  0.93933849119E+03 -0.95789071841E+03  0.26087038627E+04  0.29334701776E+04  0.10100000352E+00 0. -1.
       -3    1    3    3    0  502 -0.93933849119E+03  0.95789071841E+03 -0.66191929867E+03  0.14960108949E+04  0.10100000352E+00 0.  1.
</event>
<event>
 5   0  0.1821433E-07  0.3988169E+04  0.7818609E-02  0.8006937E-01
        2   -1    0    0  501    0  0.00000000000E+00  0.00000000000E+00  0.21889014821E+04  0.21889014821E+04  0.25500000920E-02 0. -1.
       -2   -1    0    0    0  501  0.00000000000E+00  0.00000000000E+00 -0.18166069879E+04  0.18166069879E+04  0.25500000920E-02 0.  1.
    10030    2    1    2    0    0  0.00000000000E+00  0.00000000000E+00  0.37229449417E+03  0.40055084700E+04  0.39881693687E+04 0.  0.
        5    1    3    3  502    0  0.66995602230E+03 -0.16897008655E+04  0.10097255054E+04  0.20793022322E+04  0.46999998093E+01 0. -1.
       -5    1    3    3    0  502 -0.66995602230E+03  0.16897008655E+04 -0.63743101127E+03  0.19262062378E+04  0.46999998093E+01 0.  1.
</event>
<event>
 5   0  0.1785559E-07  0.4043391E+04  0.7818609E-02  0.7995850E-01
        2   -1    0    0  501    0  0.00000000000E+00  0.00000000000E+00  0.23599796707E+04  0.23599796707E+04  0.25500000920E-02 0. -1.
       -2   -1    0    0    0  501  0.00000000000E+00  0.00000000000E+00 -0.17319019223E+04  0.17319019223E+04  0.25500000920E-02 0.  1.
    10030    2    1    2    0    0  0.00000000000E+00  0.00000000000E+00  0.62807774838E+03  0.40918815930E+04  0.40433913134E+04 0.  0.
        2    1    3    3  502    0 -0.11789708895E+04  0.15792885904E+04  0.77014167032E+03  0.21159496691E+04  0.25500000920E-02 0. -1.
       -2    1    3    3    0  502  0.11789708895E+04 -0.15792885904E+04 -0.14206392194E+03  0.19759319239E+04  0.25500000920E-02 0.  1.
</event>
<event>
 5   0  0.5515000E-08  0.4011036E+04  0.7818609E-02  0.8002324E-01
       -3   -1    0    0    0  501  0.00000000000E+00  0.00000000000E+00  0.19988228483E+04  0.19988228509E+04  0.10100000352E+00 0.  1.
        3   -1    0    0  501    0  0.00000000000E+00  0.00000000000E+00 -0.20122351746E+04  0.20122351772E+04  0.10100000352E+00 0. -1.
    10030    2    1    2    0    0  0.00000000000E+00  0.00000000000E+00 -0.13412326306E+02  0.40110580281E+04  0.40110356037E+04 0.  0.
        3    1    3    3  502    0 -0.15822363710E+04  0.33062758975E+02  0.12251840640E+04  0.20014097733E+04  0.10100000352E+00 0.  1.
       -3    1    3    3    0  502  0.15822363710E+04 -0.33062758975E+02 -0.12385963903E+04  0.20096482548E+04  0.10100000352E+00 0. -1.
</event>
<event>
 5   0  0.1819906E-07  0.3840132E+04  0.7818609E-02  0.8037597E-01
        2   -1    0    0  501    0  0.00000000000E+00  0.00000000000E+00  0.21801766322E+04  0.21801766322E+04  0.25500000920E-02 0.  1.
       -2   -1    0    0    0  501  0.00000000000E+00  0.00000000000E+00 -0.16909884097E+04  0.16909884097E+04  0.25500000920E-02 0. -1.
    10030    2    1    2    0    0  0.00000000000E+00  0.00000000000E+00  0.48918822249E+03  0.38711650418E+04  0.38401319852E+04 0.  0.
        1    1    3    3  502    0 -0.14426927100E+04  0.98565751791E+03  0.10471245583E+04  0.20369960330E+04  0.50400001928E-02 0.  1.
       -1    1    3    3    0  502  0.14426927100E+04 -0.98565751791E+03 -0.55793633579E+03  0.18341690088E+04  0.50400001928E-02 0. -1.
</event>
<event>
 5   0  0.1776653E-07  0.3962657E+04  0.7818609E-02  0.8012122E-01
       -2   -1    0    0    0  501  0.00000000000E+00  0.00000000000E+00  0.20604165239E+04  0.20604165239E+04  0.25500000920E-02 0. -1.
        2   -1    0    0  501    0  0.00000000000E+00  0.00000000000E+00 -0.19052761771E+04  0.19052761771E+04  0.25500000920E-02 0.  1.
    10030    2    1    2    0    0  0.00000000000E+00  0.00000000000E+00  0.15514034675E+03  0.39656927010E+04  0.39626569460E+04 0.  0.
        4    1    3    3  502    0  0.28697656439E+02 -0.25932992479E+03 -0.18880081448E+04  0.19059517132E+04  0.12699999809E+01 0.  1.
       -4    1    3    3    0  502 -0.28697656439E+02  0.25932992479E+03  0.20431484915E+04  0.20597409878E+04  0.12699999809E+01 0. -1.
</event>
<event>
 5   0  0.1819906E-07  0.3977807E+04  0.7818609E-02  0.8009039E-01
       -2   -1    0    0    0  501  0.00000000000E+00  0.00000000000E+00  0.21993683318E+04  0.21993683318E+04  0.25500000920E-02 0.  1.
        2   -1    0    0  501    0  0.00000000000E+00  0.00000000000E+00 -0.17985788290E+04  0.17985788290E+04  0.25500000920E-02 0. -1.
    10030    2    1    2    0    0  0.00000000000E+00  0.00000000000E+00  0.40078950274E+03  0.39979471608E+04  0.39778070937E+04 0.  0.
        1    1    3    3  502    0  0.49382740308E+03  0.75602973306E+03  0.19814536001E+04  0.21775226361E+04  0.50400001928E-02 0.  1.
       -1    1    3    3    0  502 -0.49382740308E+03 -0.75602973306E+03 -0.15806640974E+04  0.18204245247E+04  0.50400001928E-02 0. -1.
</event>
<event>
 5   0  0.1785559E-07  0.3841057E+04  0.7818609E-02  0.8037401E-01
        2   -1    0    0  501    0  0.00000000000E+00  0.00000000000E+00  0.12532944743E+04  0.12532944743E+04  0.25500000920E-02 0. -1.
       -2   -1    0    0    0  501  0.00000000000E+00  0.00000000000E+00 -0.29429877807E+04  0.29429877807E+04  0.25500000920E-02 0.  1.
    10030    2    1    2    0    0  0.00000000000E+00  0.00000000000E+00 -0.16896933063E+04  0.41962822550E+04  0.38410573146E+04 0.  0.
        2    1    3    3  502    0 -0.18410816370E+04 -0.29390008501E+03 -0.13484217162E+04  0.23009128577E+04  0.25500000920E-02 0.  1.
       -2    1    3    3    0  502  0.18410816370E+04  0.29390008501E+03 -0.34127159013E+03  0.18953693973E+04  0.25500000920E-02 0. -1.
</event>
<event>
 5   0  0.5515000E-08  0.4098049E+04  0.7818609E-02  0.7985054E-01
        1   -1    0    0  501    0  0.00000000000E+00  0.00000000000E+00  0.30776233999E+04  0.30776233999E+04  0.50400001928E-02 0. -1.
       -1   -1    0    0    0  501  0.00000000000E+00  0.00000000000E+00 -0.13642022920E+04  0.13642022920E+04  0.50400001928E-02 0.  1.
    10030    2    1    2    0    0  0.00000000000E+00  0.00000000000E+00  0.17134211079E+04  0.44418256919E+04  0.40980487533E+04 0.  0.
        2    1    3    3  502    0 -0.20445360184E+04  0.90128425279E+02  0.74697401799E+03  0.21785823022E+04  0.25500000920E-02 0.  1.
       -2    1    3    3    0  502  0.20445360184E+04 -0.90128425279E+02  0.96644708991E+03  0.22632433898E+04  0.25500000920E-02 0. -1.
</event>
<event>
 5   0  0.5515000E-08  0.4012736E+04  0.7818609E-02  0.8001982E-01
       -1   -1    0    0    0  501  0.00000000000E+00  0.00000000000E+00  0.28893451106E+04  0.28893451106E+04  0.50400001928E-02 0. -1.
        1   -1    0    0  501    0  0.00000000000E+00  0.00000000000E+00 -0.13932267444E+04  0.13932267444E+04  0.50400001928E-02 0.  1.
    10030    2    1    2    0    0  0.00000000000E+00  0.00000000000E+00  0.14961183662E+04  0.42825718551E+04  0.40127361648E+04 0.  0.
        2    1    3    3  502    0  0.32065000328E+03  0.10617410183E+04 -0.10363162057E+04  0.15179135985E+04  0.25500000920E-02 0.  1.
       -2    1    3    3    0  502 -0.32065000328E+03 -0.10617410183E+04  0.25324345719E+04  0.27646582565E+04  0.25500000920E-02 0. -1.
</event>
<event>
 5   0  0.1819906E-07  0.3994538E+04  0.7818609E-02  0.8005649E-01
       -2   -1    0    0    0  501  0.00000000000E+00  0.00000000000E+00  0.22367487874E+04  0.22367487874E+04  0.25500000920E-02 0.  1.
        2   -1    0    0  501    0  0.00000000000E+00  0.00000000000E+00 -0.17834292663E+04  0.17834292663E+04  0.25500000920E-02 0. -1.
    10030    2    1    2    0    0  0.00000000000E+00  0.00000000000E+00  0.45331952111E+03  0.40201780537E+04  0.39945378951E+04 0.  0.
        1    1    3    3  502    0 -0.14893166111E+04  0.85823129204E+03  0.12502714657E+04  0.21255125633E+04  0.50400001928E-02 0.  1.
       -1    1    3    3    0  502  0.14893166111E+04 -0.85823129204E+03 -0.79695194458E+03  0.18946654904E+04  0.50400001928E-02 0. -1.
</event>
<event>
 5   0  0.5515000E-08  0.3992168E+04  0.7818609E-02  0.8006128E-01
       -1   -1    0    0    0  501  0.00000000000E+00  0.00000000000E+00  0.21484498437E+04  0.21484498438E+04  0.50400001928E-02 0.  1.
        1   -1    0    0  501    0  0.00000000000E+00  0.00000000000E+00 -0.18545239788E+04  0.18545239788E+04  0.50400001928E-02 0. -1.
    10030    2    1    2    0    0  0.00000000000E+00  0.00000000000E+00  0.29392586492E+03  0.40029738226E+04  0.39921682092E+04 0.  0.
        3    1    3    3  502    0  0.18526230054E+03 -0.18497257925E+04 -0.58201526400E+03  0.19479603192E+04  0.10100000352E+00 0. -1.
       -3    1    3    3    0  502 -0.18526230054E+03  0.18497257925E+04  0.87594112892E+03  0.20550135034E+04  0.10100000352E+00 0.  1.
</event>
<event>
 5   0  0.5515000E-08  0.4044330E+04  0.7818609E-02  0.7995663E-01
        3   -1    0    0  501    0  0.00000000000E+00  0.00000000000E+00  0.33134515919E+04  0.33134515934E+04  0.10100000352E+00 0.  1.
       -3   -1    0    0    0  501  0.00000000000E+00  0.00000000000E+00 -0.12341063543E+04  0.12341063585E+04  0.10100000352E+00 0. -1.
    10030    2    1    2    0    0  0.00000000000E+00  0.00000000000E+00  0.20793452375E+04  0.45475579519E+04  0.40443301929E+04 0.  0.
        4    1    3    3  502    0  0.47129760029E+03  0.10632438372E+04  0.28997569329E+04  0.31242920427E+04  0.12699999809E+01 0.  1.
       -4    1    3    3    0  502 -0.47129760029E+03 -0.10632438372E+04 -0.82041169541E+03  0.14232659091E+04  0.12699999809E+01 0. -1.
</event>
<event>
 5   0  0.1773903E-07  0.4015020E+04  0.7818609E-02  0.8001523E-01
        2   -1    0    0  501    0  0.00000000000E+00  0.00000000000E+00  0.23145919047E+04  0.23145919047E+04  0.25500000920E-02 0. -1.
       -2   -1    0    0    0  501  0.00000000000E+00  0.00000000000E+00 -0.17411697152E+04  0.17411697152E+04  0.25500000920E-02 0.  1.
    10030    2    1    2    0    0  0.00000000000E+00  0.00000000000E+00  0.57342218953E+03  0.40557616198E+04  0.40150204619E+04 0.  0.
        3    1    3    3  502    0  0.72780125484E+03  0.49558570331E+02  0.21759689896E+04  0.22949927608E+04  0.10100000352E+00 0. -1.
       -3    1    3    3    0  502 -0.72780125484E+03 -0.49558570331E+02 -0.16025468000E+04  0.17607688590E+04  0.10100000352E+00 0.  1.
</event>
<event>
 5   0  0.5515000E-08  0.3832992E+04  0.7818609E-02  0.8039112E-01
        1   -1    0    0  501    0  0.00000000000E+00  0.00000000000E+00  0.13258460140E+04  0.13258460140E+04  0.50400001928E-02 0. -1.
       -1   -1    0    0    0  501  0.00000000000E+00  0.00000000000E+00 -0.27702736350E+04  0.27702736350E+04  0.50400001928E-02 0.  1.
    10030    2    1    2    0    0  0.00000000000E+00  0.00000000000E+00 -0.14444276210E+04  0.40961196490E+04  0.38329916549E+04 0.  0.
        4    1    3    3  502    0 -0.18187647349E+04  0.54940392820E+03 -0.99087801866E+03  0.21427997335E+04  0.12699999809E+01 0.  1.
       -4    1    3    3    0  502  0.18187647349E+04 -0.54940392820E+03 -0.45354960231E+03  0.19533199154E+04  0.12699999809E+01 0. -1.
</event>
<event>
 5   0  0.1785559E-07  0.3996830E+04  0.7818609E-02  0.8005186E-01
        2   -1    0    0  501    0  0.00000000000E+00  0.00000000000E+00  0.27782228973E+04  0.27782228973E+04  0.25500000920E-02 0.  1.
       -2   -1    0    0    0  501  0.00000000000E+00  0.00000000000E+00 -0.14374879257E+04  0.14374879257E+04  0.25500000920E-02 0. -1.
    10030    2    1    2    0    0  0.00000000000E+00  0.00000000000E+00  0.13407349716E+04  0.42157108230E+04  0.39968296785E+04 0.  0.
        2    1    3    3  502    0  0.30745474243E+03  0.12034276669E+04 -0.98090046127E+03  0.15826977864E+04  0.25500000920E-02 0. -1.
       -2    1    3    3    0  502 -0.30745474243E+03 -0.12034276669E+04  0.23216354328E+04  0.26330130366E+04  0.25500000920E-02 0.  1.
</event>
<event>
 5   0  0.5515000E-08  0.3988639E+04  0.7818609E-02  0.8006842E-01
       -1   -1    0    0    0  501  0.00000000000E+00  0.00000000000E+00  0.18287877510E+04  0.18287877510E+04  0.50400001928E-02 0.  1.
        1   -1    0    0  501    0  0.00000000000E+00  0.00000000000E+00 -0.21748346153E+04  0.21748346153E+04  0.50400001928E-02 0. -1.
    10030    2    1    2    0    0  0.00000000000E+00  0.00000000000E+00 -0.34604686430E+03  0.40036223663E+04  0.39886393193E+04 0.  0.
        1    1    3    3  502    0 -0.12317811610E+03  0.33941126381E+03  0.17957055603E+04  0.18316471586E+04  0.50400001928E-02 0.  1.
       -1    1    3    3    0  502  0.12317811610E+03 -0.33941126381E+03 -0.21417524246E+04  0.21719752076E+04  0.50400001928E-02 0. -1.
</event>
<event>
 5   0  0.5515000E-08  0.3945280E+04  0.7818609E-02  0.8015677E-01
       -1   -1    0    0    0  501  0.00000000000E+00  0.00000000000E+00  0.17933074403E+04  0.17933074403E+04  0.50400001928E-02 0. -1.
        1   -1    0    0  501    0  0.00000000000E+00  0.00000000000E+00 -0.21699063958E+04  0.21699063958E+04  0.50400001928E-02 0.  1.
    10030    2    1    2    0    0  0.00000000000E+00  0.00000000000E+00 -0.37659895554E+03  0.39632138361E+04  0.39452803624E+04 0.  0.
        1    1    3    3  502    0 -0.14583645619E+03  0.41858598138E+03  0.17426311734E+04  0.17981228830E+04  0.50400001928E-02 0. -1.
       -1    1    3    3    0  502  0.14583645619E+03 -0.41858598138E+03 -0.21192301290E+04  0.21650909531E+04  0.50400001928E-02 0.  1.
</event>
<event>
 5   0  0.1821433E-07  0.3968098E+04  0.7818609E-02  0.8011013E-01
        2   -1    0    0  501    0  0.00000000000E+00  0.00000000000E+00  0.25441796592E+04  0.25441796592E+04  0.25500000920E-02 0.  1.
       -2   -1    0    0    0  501  0.00000000000E+00  0.00000000000E+00 -0.15472372403E+04  0.15472372403E+04  0.25500000920E-02 0. -1.
    10030    2    1    2    0    0  0.00000000000E+00  0.00000000000E+00  0.99694241887E+03  0.40914168995E+04  0.39680975364E+04 0.  0.
        5    1    3    3  502    0  0.19759075982E+04  0.16818420641E+03  0.56311460632E+03  0.20614598987E+04  0.46999998093E+01 0. -1.
       -5    1    3    3    0  502 -0.19759075982E+04 -0.16818420641E+03  0.43382781255E+03  0.20299570008E+04  0.46999998093E+01 0.  1.
</event>
<event>
 5   0  0.5515000E-08  0.3873575E+04  0.7818609E-02  0.8030548E-01
       -1   -1    0    0    0  501  0.00000000000E+00  0.00000000000E+00  0.18647293554E+04  0.18647293554E+04  0.50400001928E-02 0.  1.
        1   -1    0    0  501    0  0.00000000000E+00  0.00000000000E+00 -0.20116303235E+04  0.20116303235E+04  0.50400001928E-02 0. -1.
    10030    2    1    2    0    0  0.00000000000E+00  0.00000000000E+00 -0.14690096810E+03  0.38763596789E+04  0.38735751530E+04 0.  0.
        3    1    3    3  502    0  0.65496619650E+02  0.14820812657E+04  0.11725515550E+04  0.18909605613E+04  0.10100000352E+00 0.  1.
       -3    1    3    3    0  502 -0.65496619650E+02 -0.14820812657E+04 -0.13194525230E+04  0.19853991176E+04  0.10100000352E+00 0. -1.
</event>
<event>
 5   0  0.5515000E-08  0.4013174E+04  0.7818609E-02  0.8001894E-01
        1   -1    0    0  501    0  0.00000000000E+00  0.00000000000E+00  0.14043793881E+04  0.14043793881E+04  0.50400001928E-02 0.  1.
       -1   -1    0    0    0  501  0.00000000000E+00  0.00000000000E+00 -0.28670249806E+04  0.28670249806E+04  0.50400001928E-02 0. -1.
    10030    2    1    2    0    0  0.00000000000E+00  0.00000000000E+00 -0.14626455926E+04  0.42714043687E+04  0.40131737006E+04 0.  0.
        5    1    3    3  502    0 -0.29496810614E+03 -0.10455532314E+03 -0.28408847197E+04  0.28580738409E+04  0.46999998093E+01 0. -1.
       -5    1    3    3    0  502  0.29496810614E+03  0.10455532314E+03  0.13782391271E+04  0.14133305278E+04  0.46999998093E+01 0.  1.
</event>
<event>
 5   0  0.1785559E-07  0.3986508E+04  0.7818609E-02  0.8007274E-01
       -2   -1    0    0    0  501  0.00000000000E+00  0.00000000000E+00  0.17131889634E+04  0.17131889634E+04  0.25500000920E-02 0. -1.
        2   -1    0    0  501    0  0.00000000000E+00  0.00000000000E+00 -0.23191025331E+04  0.23191025331E+04  0.25500000920E-02 0.  1.
    10030    2    1    2    0    0  0.00000000000E+00  0.00000000000E+00 -0.60591356966E+03  0.40322914965E+04  0.39865076770E+04 0.  0.
        2    1    3    3  502    0 -0.42085894522E+01 -0.15552542752E+04  0.95804755316E+03  0.18266605286E+04  0.25500000920E-02 0. -1.
       -2    1    3    3    0  502  0.42085894522E+01  0.15552542752E+04 -0.15639611228E+04  0.22056309679E+04  0.25500000920E-02 0.  1.
</event>
<event>
 5   0  0.1776653E-07  0.3996032E+04  0.7818609E-02  0.8005347E-01
       -2   -1    0    0    0  501  0.00000000000E+00  0.00000000000E+00  0.16085264511E+04  0.16085264511E+04  0.25500000920E-02 0. -1.
        2   -1    0    0  501    0  0.00000000000E+00  0.00000000000E+00 -0.24818169784E+04  0.24818169784E+04  0.25500000920E-02 0.  1.
    10030    2    1    2    0    0  0.00000000000E+00  0.00000000000E+00 -0.87329052731E+03  0.40903434296E+04  0.39960321604E+04 0.  0.
        4    1    3    3  502    0  0.24345362014E+03  0.18302162022E+04  0.34499048979E+03  0.18782920600E+04  0.12699999809E+01 0. -1.
       -4    1    3    3    0  502 -0.24345362014E+03 -0.18302162022E+04 -0.12182810171E+04  0.22120513695E+04  0.12699999809E+01 0.  1.
</event>
<event>
 5   0  0.5515000E-08  0.3962871E+04  0.7818609E-02  0.8012079E-01
        1   -1    0    0  501    0  0.00000000000E+00  0.00000000000E+00  0.22150229788E+04  0.22150229788E+04  0.50400001928E-02 0. -1.
       -1   -1    0    0    0  501  0.00000000000E+00  0.00000000000E+00 -0.17724812511E+04  0.17724812511E+04  0.50400001928E-02 0.  1.
    10030    2    1    2    0    0  0.00000000000E+00  0.00000000000E+00  0.44254172769E+03  0.39875042300E+04  0.39628710303E+04 0.  0.
        3    1    3    3  502    0  0.15498935561E+04  0.47830007742E+03  0.13663896266E+04  0.21208398386E+04  0.10100000352E+00 0. -1.
       -3    1    3    3    0  502 -0.15498935561E+04 -0.47830007742E+03 -0.92384789891E+03  0.18666643913E+04  0.10100000352E+00 0.  1.
</event>
<event>
 5   0  0.1785559E-07  0.4009027E+04  0.7818609E-02  0.8002728E-01
       -2   -1    0    0    0  501  0.00000000000E+00  0.00000000000E+00  0.13017140779E+04  0.13017140779E+04  0.25500000920E-02 0. -1.
        2   -1    0    0  501    0  0.00000000000E+00  0.00000000000E+00 -0.30867560598E+04  0.30867560598E+04  0.25500000920E-02 0.  1.
    10030    2    1    2    0    0  0.00000000000E+00  0.00000000000E+00 -0.17850419818E+04  0.43884701377E+04  0.40090267238E+04 0.  0.
        2    1    3    3  502    0 -0.14047519267E+04 -0.36883192677E+03  0.61980020859E+03  0.15790874783E+04  0.25500000920E-02 0. -1.
       -2    1    3    3    0  502  0.14047519267E+04  0.36883192677E+03 -0.24048421904E+04  0.28093826593E+04  0.25500000920E-02 0.  1.
</event>
<event>
 5   0  0.1776653E-07  0.4003019E+04  0.7818609E-02  0.8003938E-01
        2   -1    0    0  501    0  0.00000000000E+00  0.00000000000E+00  0.18538248816E+04  0.18538248816E+04  0.25500000920E-02 0.  1.
       -2   -1    0    0    0  501  0.00000000000E+00  0.00000000000E+00 -0.21609591464E+04  0.21609591464E+04  0.25500000920E-02 0. -1.
    10030    2    1    2    0    0  0.00000000000E+00  0.00000000000E+00 -0.30713426484E+03  0.40147840280E+04  0.40030187777E+04 0.  0.
        4    1    3    3  502    0 -0.14697063612E+04  0.15379379541E+03 -0.15074787818E+04  0.21109673635E+04  0.12699999809E+01 0. -1.
       -4    1    3    3    0  502  0.14697063612E+04 -0.15379379541E+03  0.12003445169E+04  0.19038166644E+04  0.12699999809E+01 0.  1.
</event>
<event>
 5   0  0.1773903E-07  0.4009172E+04  0.7818609E-02  0.8002699E-01
        2   -1    0    0  501    0  0.00000000000E+00  0.00000000000E+00  0.21542593840E+04  0.21542593840E+04  0.25500000920E-02 0.  1.
       -2   -1    0    0    0  501  0.00000000000E+00  0.00000000000E+00 -0.18653115031E+04  0.18653115031E+04  0.25500000920E-02 0. -1.
    10030    2    1    2    0    0  0.00000000000E+00  0.00000000000E+00  0.28894788096E+03  0.40195708871E+04  0.40091718894E+04 0.  0.
        3    1    3    3  502    0 -0.11823899057E+04 -0.15542109670E+04 -0.30918970688E+03  0.19771737163E+04  0.10100000352E+00 0. -1.
       -3    1    3    3    0  502  0.11823899057E+04  0.15542109670E+04  0.59813758784E+03  0.20423971708E+04  0.10100000352E+00 0.  1.
</event>
<event>
 5   0  0.5515000E-08  0.3452113E+04  0.7818609E-02  0.8125233E-01
        1   -1    0    0  501    0  0.00000000000E+00  0.00000000000E+00  0.12112321582E+04  0.12112321582E+04  0.50400001928E-02 0. -1.
       -1   -1    0    0    0  501  0.00000000000E+00  0.00000000000E+00 -0.24597023157E+04  0.24597023157E+04  0.50400001928E-02 0.  1.
    10030    2    1    2    0    0  0.00000000000E+00  0.00000000000E+00 -0.12484701575E+04  0.36709344739E+04  0.34521127122E+04 0.  0.
        5    1    3    3  502    0 -0.19178832186E+03 -0.16578337843E+04 -0.15579756842E+03  0.16761535100E+04  0.46999998093E+01 0. -1.
       -5    1    3    3    0  502  0.19178832186E+03  0.16578337843E+04 -0.10926725891E+04  0.19947809639E+04  0.46999998093E+01 0.  1.
</event>
<event>
 5   0  0.1785559E-07  0.3986654E+04  0.7818609E-02  0.8007244E-01
       -2   -1    0    0    0  501  0.00000000000E+00  0.00000000000E+00  0.19714961594E+04  0.19714961594E+04  0.25500000920E-02 0. -1.
        2   -1    0    0  501    0  0.00000000000E+00  0.00000000000E+00 -0.20154000533E+04  0.20154000533E+04  0.25500000920E-02 0.  1.
    10030    2    1    2    0    0  0.00000000000E+00  0.00000000000E+00 -0.43903893895E+02  0.39868962126E+04  0.39866544694E+04 0.  0.
        2    1    3    3  502    0 -0.94222532683E+03 -0.10212832982E+04  0.14073111648E+04  0.19777089918E+04  0.25500000920E-02 0. -1.
       -2    1    3    3    0  502  0.94222532683E+03  0.10212832982E+04 -0.14512150587E+04  0.20091872208E+04  0.25500000920E-02 0.  1.
</event>
<event>
 5   0  0.5515000E-08  0.4043182E+04  0.7818609E-02  0.7995892E-01
        1   -1    0    0  501    0  0.00000000000E+00  0.00000000000E+00  0.22964574439E+04  0.22964574439E+04  0.50400001928E-02 0.  1.
       -1   -1    0    0    0  501  0.00000000000E+00  0.00000000000E+00 -0.17796235189E+04  0.17796235189E+04  0.50400001928E-02 0. -1.
    10030    2    1    2    0    0  0.00000000000E+00  0.00000000000E+00  0.51683392499E+03  0.40760809628E+04  0.40431817557E+04 0.  0.
        4    1    3    3  502    0  0.25215084457E+03 -0.18569893981E+04 -0.50593330077E+03  0.19411233322E+04  0.12699999809E+01 0. -1.
       -4    1    3    3    0  502 -0.25215084457E+03  0.18569893981E+04  0.10227672258E+04  0.21349576306E+04  0.12699999809E+01 0.  1.
</event>
<event>
 5   0  0.1785559E-07  0.4235447E+04  0.7818609E-02  0.7958664E-01
       -2   -1    0    0    0  501  0.00000000000E+00  0.00000000000E+00  0.18825275361E+04  0.18825275361E+04  0.25500000920E-02 0.  1.
        2   -1    0    0  501    0  0.00000000000E+00  0.00000000000E+00 -0.23823041852E+04  0.23823041852E+04  0.25500000920E-02 0. -1.
    10030    2    1    2    0    0  0.00000000000E+00  0.00000000000E+00 -0.49977664908E+03  0.42648317213E+04  0.42354471915E+04 0.  0.
        2    1    3    3  502    0  0.10712679772E+04 -0.75543175159E+03 -0.19246958591E+04  0.23286791020E+04  0.25500000920E-02 0. -1.
       -2    1    3    3    0  502 -0.10712679772E+04  0.75543175159E+03  0.14249192100E+04  0.19361526193E+04  0.25500000920E-02 0.  1.
</event>
<event>
 5   0  0.5515000E-08  0.4059476E+04  0.7818609E-02  0.7992655E-01
        1   -1    0    0  501    0  0.00000000000E+00  0.00000000000E+00  0.14942031939E+04  0.14942031939E+04  0.50400001928E-02 0. -1.
       -1   -1    0    0    0  501  0.00000000000E+00  0.00000000000E+00 -0.27572135544E+04  0.27572135544E+04  0.50400001928E-02 0.  1.
    10030    2    1    2    0    0  0.00000000000E+00  0.00000000000E+00 -0.12630103606E+04  0.42514167483E+04  0.40594764683E+04 0.  0.
        5    1    3    3  502    0 -0.13789871119E+04  0.14770745781E+04 -0.43153067375E+03  0.20662999726E+04  0.46999998093E+01 0.  1.
       -5    1    3    3    0  502  0.13789871119E+04 -0.14770745781E+04 -0.83147968681E+03  0.21851167758E+04  0.46999998093E+01 0. -1.
</event>
<event>
 5   0  0.5515000E-08  0.3483700E+04  0.7818609E-02  0.8117664E-01
       -1   -1    0    0    0  501  0.00000000000E+00  0.00000000000E+00  0.20323381015E+04  0.20323381015E+04  0.50400001928E-02 0. -1.
        1   -1    0    0  501    0  0.00000000000E+00  0.00000000000E+00 -0.14928820985E+04  0.14928820985E+04  0.50400001928E-02 0.  1.
    10030    2    1    2    0    0  0.00000000000E+00  0.00000000000E+00  0.53945600300E+03  0.35252201999E+04  0.34836998549E+04 0.  0.
        5    1    3    3  502    0  0.15814269160E+04 -0.17546969996E+03  0.98691936552E+03  0.18723601765E+04  0.46999998093E+01 0. -1.
       -5    1    3    3    0  502 -0.15814269160E+04  0.17546969996E+03 -0.44746336252E+03  0.16528600235E+04  0.46999998093E+01 0.  1.
</event>
<event>
 5   0  0.5515000E-08  0.3971535E+04  0.7818609E-02  0.8010314E-01
       -1   -1    0    0    0  501  0.00000000000E+00  0.00000000000E+00  0.23651662814E+04  0.23651662814E+04  0.50400001928E-02 0.  1.
        1   -1    0    0  501    0  0.00000000000E+00  0.00000000000E+00 -0.16672280677E+04  0.16672280677E+04  0.50400001928E-02 0. -1.
    10030    2    1    2    0    0  0.00000000000E+00  0.00000000000E+00  0.69793821370E+03  0.40323943491E+04  0.39715345191E+04 0.  0.
        5    1    3    3  502    0  0.33650879102E+03  0.16080111038E+04 -0.78361180573E+03  0.18201668683E+04  0.46999998093E+01 0. -1.
       -5    1    3    3    0  502 -0.33650879102E+03 -0.16080111038E+04  0.14815500194E+04  0.22122274807E+04  0.46999998093E+01 0.  1.
</event>
<event>
 5   0  0.5515000E-08  0.3963529E+04  0.7818609E-02  0.8011945E-01
       -1   -1    0    0    0  501  0.00000000000E+00  0.00000000000E+00  0.16568119074E+04  0.16568119074E+04  0.50400001928E-02 0. -1.
        1   -1    0    0  501    0  0.00000000000E+00  0.00000000000E+00 -0.23704502540E+04  0.23704502540E+04  0.50400001928E-02 0.  1.
    10030    2    1    2    0    0  0.00000000000E+00  0.00000000000E+00 -0.71363834663E+03  0.40272621614E+04  0.39635288351E+04 0.  0.
        2    1    3    3  502    0 -0.16869167967E+04 -0.50808610921E+03 -0.12789084673E+04  0.21770270189E+04  0.25500000920E-02 0.  1.
       -2    1    3    3    0  502  0.16869167967E+04  0.50808610921E+03  0.56527012070E+03  0.18502351425E+04  0.25500000920E-02 0. -1.
</event>
<event>
 5   0  0.1821433E-07  0.4018037E+04  0.7818609E-02  0.8000918E-01
       -2   -1    0    0    0  501  0.00000000000E+00  0.00000000000E+00  0.22311903541E+04  0.22311903541E+04  0.25500000920E-02 0. -1.
        2   -1    0    0  501    0  0.00000000000E+00  0.00000000000E+00 -0.18089699215E+04  0.18089699215E+04  0.25500000920E-02 0.  1.
    10030    2    1    2    0    0  0.00000000000E+00  0.00000000000E+00  0.42222043264E+03  0.40401602756E+04  0.40180374511E+04 0.  0.
        5    1    3    3  502    0  0.16073318729E+01 -0.18783050550E+04  0.92784739363E+03  0.20949833744E+04  0.46999998093E+01 0. -1.
       -5    1    3    3    0  502 -0.16073318729E+01  0.18783050550E+04 -0.50562696099E+03  0.19451769012E+04  0.46999998093E+01 0.  1.
</event>
<event>
 5   0  0.5515000E-08  0.3934026E+04  0.7818609E-02  0.8017990E-01
        1   -1    0    0  501    0  0.00000000000E+00  0.00000000000E+00  0.20866863704E+04  0.20866863704E+04  0.50400001928E-02 0.  1.
       -1   -1    0    0    0  501  0.00000000000E+00  0.00000000000E+00 -0.18542026502E+04  0.18542026503E+04  0.50400001928E-02 0. -1.
    10030    2    1    2    0    0  0.00000000000E+00  0.00000000000E+00  0.23248372019E+03  0.39408890207E+04  0.39340256218E+04 0.  0.
        1    1    3    3  502    0 -0.17823248629E+04 -0.30060671045E+03 -0.66105845035E+03  0.19245894591E+04  0.50400001928E-02 0.  1.
       -1    1    3    3    0  502  0.17823248629E+04  0.30060671045E+03  0.89354217054E+03  0.20162995616E+04  0.50400001928E-02 0. -1.
</event>
<event>
 5   0  0.5515000E-08  0.3997102E+04  0.7818609E-02  0.8005131E-01
        1   -1    0    0  501    0  0.00000000000E+00  0.00000000000E+00  0.21614862347E+04  0.21614862348E+04  0.50400001928E-02 0. -1.
       -1   -1    0    0    0  501  0.00000000000E+00  0.00000000000E+00 -0.18478977764E+04  0.18478977764E+04  0.50400001928E-02 0.  1.
    10030    2    1    2    0    0  0.00000000000E+00  0.00000000000E+00  0.31358845831E+03  0.40093840112E+04  0.39971017535E+04 0.  0.
        5    1    3    3  502    0  0.49709365519E+03 -0.18085468675E+04 -0.53542749057E+03  0.19505508355E+04  0.46999998093E+01 0.  1.
       -5    1    3    3    0  502 -0.49709365519E+03  0.18085468675E+04  0.84901594888E+03  0.20588331757E+04  0.46999998093E+01 0. -1.
</event>
<event>
 5   0  0.1785559E-07  0.3912686E+04  0.7818609E-02  0.8022396E-01
        2   -1    0    0  501    0  0.00000000000E+00  0.00000000000E+00  0.18814423781E+04  0.18814423781E+04  0.25500000920E-02 0. -1.
       -2   -1    0    0    0  501  0.00000000000E+00  0.00000000000E+00 -0.20342254574E+04  0.20342254574E+04  0.25500000920E-02 0.  1.
    10030    2    1    2    0    0  0.00000000000E+00  0.00000000000E+00 -0.15278307936E+03  0.39156678355E+04  0.39126860248E+04 0.  0.
        2    1    3    3  502    0 -0.44530086783E+03 -0.33005965889E+03  0.18012167671E+04  0.18845726528E+04  0.25500000920E-02 0. -1.
       -2    1    3    3    0  502  0.44530086783E+03  0.33005965889E+03 -0.19539998465E+04  0.20310951827E+04  0.25500000920E-02 0.  1.
</event>
<event>
 5   0  0.5515000E-08  0.3255418E+04  0.7818609E-02  0.8174333E-01
        1   -1    0    0  501    0  0.00000000000E+00  0.00000000000E+00  0.16966352564E+04  0.16966352564E+04  0.50400001928E-02 0. -1.
       -1   -1    0    0    0  501  0.00000000000E+00  0.00000000000E+00 -0.15615828944E+04  0.15615828944E+04  0.50400001928E-02 0.  1.
    10030    2    1    2    0    0  0.00000000000E+00  0.00000000000E+00  0.13505236204E+03  0.32582181508E+04  0.32554180035E+04 0.  0.
        2    1    3    3  502    0  0.11652762444E+04 -0.12346505656E+03  0.11982431451E+04  0.16759770228E+04  0.25500000920E-02 0. -1.
       -2    1    3    3    0  502 -0.11652762444E+04  0.12346505656E+03 -0.10631907831E+04  0.15822411280E+04  0.25500000920E-02 0.  1.
</event>
<event>
 5   0  0.1821433E-07  0.4116525E+04  0.7818609E-02  0.7981444E-01
        2   -1    0    0  501    0  0.00000000000E+00  0.00000000000E+00  0.24833010220E+04  0.24833010220E+04  0.25500000920E-02 0. -1.
       -2   -1    0    0    0  501  0.00000000000E+00  0.00000000000E+00 -0.17059732391E+04  0.17059732391E+04  0.25500000920E-02 0.  1.
    10030    2    1    2    0    0  0.00000000000E+00  0.00000000000E+00  0.77732778287E+03  0.41892742611E+04  0.41165252766E+04 0.  0.
        5    1    3    3  502    0 -0.66195006515E+03 -0.39955581361E+03  0.23298857825E+04  0.24548345334E+04  0.46999998093E+01 0. -1.
       -5    1    3    3    0  502  0.66195006515E+03  0.39955581361E+03 -0.15525579996E+04  0.17344397277E+04  0.46999998093E+01 0.  1.
</event>
<event>
 5   0  0.5515000E-08  0.4006039E+04  0.7818609E-02  0.8003329E-01
       -1   -1    0    0    0  501  0.00000000000E+00  0.00000000000E+00  0.21261847258E+04  0.21261847258E+04  0.50400001928E-02 0. -1.
        1   -1    0    0  501    0  0.00000000000E+00  0.00000000000E+00 -0.18869894059E+04  0.18869894059E+04  0.50400001928E-02 0.  1.
    10030    2    1    2    0    0  0.00000000000E+00  0.00000000000E+00  0.23919531982E+03  0.40131741317E+04  0.40060394669E+04 0.  0.
        1    1    3    3  502    0 -0.14924227782E+04 -0.22510258394E+03 -0.11995965579E+04  0.19279597568E+04  0.50400001928E-02 0.  1.
       -1    1    3    3    0  502  0.14924227782E+04  0.22510258394E+03  0.14387918777E+04  0.20852143749E+04  0.50400001928E-02 0. -1.
</event>
<event>
 5   0  0.1773903E-07  0.3922206E+04  0.7818609E-02  0.8020426E-01
       -2   -1    0    0    0  501  0.00000000000E+00  0.00000000000E+00  0.26465247917E+04  0.26465247917E+04  0.25500000920E-02 0.  1.
        2   -1    0    0  501    0  0.00000000000E+00  0.00000000000E+00 -0.14531985156E+04  0.14531985156E+04  0.25500000920E-02 0. -1.
    10030    2    1    2    0    0  0.00000000000E+00  0.00000000000E+00  0.11933262761E+04  0.40997233074E+04  0.39222064703E+04 0.  0.
        3    1    3    3  502    0  0.20450749838E+03 -0.64287319638E+03  0.25214216418E+04  0.26101104133E+04  0.10100000352E+00 0.  1.
       -3    1    3    3    0  502 -0.20450749838E+03  0.64287319638E+03 -0.13280953657E+04  0.14896128941E+04  0.10100000352E+00 0. -1.
</event>
<event>
 5   0  0.1821433E-07  0.3811786E+04  0.7818609E-02  0.8043630E-01
       -2   -1    0    0    0  501  0.00000000000E+00  0.00000000000E+00  0.22242800127E+04  0.22242800127E+04  0.25500000920E-02 0.  1.
        2   -1    0    0  501    0  0.00000000000E+00  0.00000000000E+00 -0.16330801140E+04  0.16330801140E+04  0.25500000920E-02 0. -1.
    10030    2    1    2    0    0  0.00000000000E+00  0.00000000000E+00  0.59119989870E+03  0.38573601266E+04  0.38117856480E+04 0.  0.
        5    1    3    3  502    0 -0.13287906915E+04 -0.13586981067E+04  0.15014512469E+03  0.19063868693E+04  0.46999998093E+01 0.  1.
       -5    1    3    3    0  502  0.13287906915E+04  0.13586981067E+04  0.44105477401E+03  0.19509732573E+04  0.46999998093E+01 0. -1.
</event>
<event>
 5   0  0.5515000E-08  0.3995940E+04  0.7818609E-02  0.8005366E-01
        1   -1    0    0  501    0  0.00000000000E+00  0.00000000000E+00  0.26046700757E+04  0.26046700757E+04  0.50400001928E-02 0. -1.
       -1   -1    0    0    0  501  0.00000000000E+00  0.00000000000E+00 -0.15325869510E+04  0.15325869510E+04  0.50400001928E-02 0.  1.
    10030    2    1    2    0    0  0.00000000000E+00  0.00000000000E+00  0.10720831247E+04  0.41372570267E+04  0.39959396240E+04 0.  0.
        1    1    3    3  502    0  0.24441416963E+03 -0.80973050165E+03  0.24101618030E+04  0.25542673486E+04  0.50400001928E-02 0. -1.
       -1    1    3    3    0  502 -0.24441416963E+03  0.80973050165E+03 -0.13380786783E+04  0.15829896781E+04  0.50400001928E-02 0.  1.
</event>
<event>
 5   0  0.1785559E-07  0.4031817E+04  0.7818609E-02  0.7998159E-01
       -2   -1    0    0    0  501  0.00000000000E+00  0.00000000000E+00  0.11771531985E+04  0.11771531985E+04  0.25500000920E-02 0. -1.
        2   -1    0    0  501    0  0.00000000000E+00  0.00000000000E+00 -0.34523007462E+04  0.34523007462E+04  0.25500000920E-02 0.  1.
    10030    2    1    2    0    0  0.00000000000E+00  0.00000000000E+00 -0.22751475478E+04  0.46294539447E+04  0.40318168934E+04 0.  0.
        2    1    3    3  502    0 -0.13042937676E+04  0.12520323330E+04 -0.21614447131E+04  0.28179088777E+04  0.25500000920E-02 0.  1.
       -2    1    3    3    0  502  0.13042937676E+04 -0.12520323330E+04 -0.11370283463E+03  0.18115450670E+04  0.25500000920E-02 0. -1.
</event>
<event>
 5   0  0.1821433E-07  0.3992116E+04  0.7818609E-02  0.8006139E-01
       -2   -1    0    0    0  501  0.00000000000E+00  0.00000000000E+00  0.18581851201E+04  0.18581851201E+04  0.25500000920E-02 0. -1.
        2   -1    0    0  501    0  0.00000000000E+00  0.00000000000E+00 -0.21441611150E+04  0.21441611150E+04  0.25500000920E-02 0.  1.
    10030    2    1    2    0    0  0.00000000000E+00  0.00000000000E+00 -0.28597599499E+03  0.40023462351E+04  0.39921163705E+04 0.  0.
        5    1    3    3  502    0  0.53919850158E+03  0.72572930339E+03  0.16411249291E+04  0.18736945239E+04  0.46999998093E+01 0. -1.
       -5    1    3    3    0  502 -0.53919850158E+03 -0.72572930339E+03 -0.19271009241E+04  0.21286517112E+04  0.46999998093E+01 0.  1.
</event>
<event>
 5   0  0.5515000E-08  0.4118929E+04  0.7818609E-02  0.7980975E-01
        1   -1    0    0  501    0  0.00000000000E+00  0.00000000000E+00  0.17710756825E+04  0.17710756826E+04  0.50400001928E-02 0.  1.
       -1   -1    0    0    0  501  0.00000000000E+00  0.00000000000E+00 -0.23948118552E+04  0.23948118552E+04  0.50400001928E-02 0. -1.
    10030    2    1    2    0    0  0.00000000000E+00  0.00000000000E+00 -0.62373617263E+03  0.41658875377E+04  0.41189285214E+04 0.  0.
        4    1    3    3  502    0 -0.12911567501E+04 -0.54631022147E+03 -0.18376595518E+04  0.23113924056E+04  0.12699999809E+01 0. -1.
       -4    1    3    3    0  502  0.12911567501E+04  0.54631022147E+03  0.12139233792E+04  0.18544951321E+04  0.12699999809E+01 0.  1.
</event>
<event>
 5   0  0.1821433E-07  0.3977702E+04  0.7818609E-02  0.8009060E-01
        2   -1    0    0  501    0  0.00000000000E+00  0.00000000000E+00  0.21892369394E+04  0.21892369394E+04  0.25500000920E-02 0. -1.
       -2   -1    0    0    0  501  0.00000000000E+00  0.00000000000E+00 -0.18068064879E+04  0.18068064879E+04  0.25500000920E-02 0.  1.
    10030    2    1    2    0    0  0.00000000000E+00  0.00000000000E+00  0.38243045158E+03  0.39960434273E+04  0.39777016005E+04 0.  0.
        5    1    3    3  502    0 -0.17412059748E+04 -0.21874018489E+03 -0.74897411024E+03  0.19080434542E+04  0.46999998093E+01 0.  1.
       -5    1    3    3    0  502  0.17412059748E+04  0.21874018489E+03  0.11314045618E+04  0.20879999731E+04  0.46999998093E+01 0. -1.
</event>
<event>
 5   0  0.5515000E-08  0.4001465E+04  0.7818609E-02  0.8004251E-01
       -1   -1    0    0    0  501  0.00000000000E+00  0.00000000000E+00  0.15166417485E+04  0.15166417485E+04  0.50400001928E-02 0.  1.
        1   -1    0    0  501    0  0.00000000000E+00  0.00000000000E+00 -0.26393388411E+04  0.26393388411E+04  0.50400001928E-02 0. -1.
    10030    2    1    2    0    0  0.00000000000E+00  0.00000000000E+00 -0.11226970926E+04  0.41559805896E+04  0.40014654690E+04 0.  0.
        4    1    3    3  502    0 -0.16941528463E+04 -0.70918373490E+03 -0.13856150175E+04  0.23006577377E+04  0.12699999809E+01 0. -1.
       -4    1    3    3    0  502  0.16941528463E+04  0.70918373490E+03  0.26291792495E+03  0.18553228519E+04  0.12699999809E+01 0.  1.
</event>
<event>
 5   0  0.5515000E-08  0.3936191E+04  0.7818609E-02  0.8017544E-01
       -1   -1    0    0    0  501  0.00000000000E+00  0.00000000000E+00  0.36766558424E+04  0.36766558424E+04  0.50400001928E-02 0.  1.
        1   -1    0    0  501    0  0.00000000000E+00  0.00000000000E+00 -0.10535118891E+04  0.10535118891E+04  0.50400001928E-02 0. -1.
    10030    2    1    2    0    0  0.00000000000E+00  0.00000000000E+00  0.26231439533E+04  0.47301677316E+04  0.39361913786E+04 0.  0.
        5    1    3    3  502    0 -0.60318257640E+03  0.23523310878E+03  0.35450156303E+04  0.36036539435E+04  0.46999998093E+01 0.  1.
       -5    1    3    3    0  502  0.60318257640E+03 -0.23523310878E+03 -0.92187167693E+03  0.11265137880E+04  0.46999998093E+01 0. -1.
</event>
<event>
 5   0  0.5515000E-08  0.3998635E+04  0.7818609E-02  0.8004822E-01
       -1   -1    0    0    0  501  0.00000000000E+00  0.00000000000E+00  0.13782353780E+04  0.13782353780E+04  0.50400001928E-02 0. -1.
        1   -1    0    0  501    0  0.00000000000E+00  0.00000000000E+00 -0.29002817052E+04  0.29002817052E+04  0.50400001928E-02 0.  1.
    10030    2    1    2    0    0  0.00000000000E+00  0.00000000000E+00 -0.15220463272E+04  0.42785170833E+04  0.39986351933E+04 0.  0.
        5    1    3    3  502    0  0.66713704797E+03 -0.84475668058E+03 -0.25637534731E+04  0.27805646281E+04  0.46999998093E+01 0.  1.
       -5    1    3    3    0  502 -0.66713704797E+03  0.84475668058E+03  0.10417071459E+04  0.14979524552E+04  0.46999998093E+01 0. -1.
</event>
<event>
 5   0  0.1773903E-07  0.4021522E+04  0.7818609E-02  0.8000219E-01
        2   -1    0    0  501    0  0.00000000000E+00  0.00000000000E+00  0.25894984693E+04  0.25894984693E+04  0.25500000920E-02 0.  1.
       -2   -1    0    0    0  501  0.00000000000E+00  0.00000000000E+00 -0.15613676561E+04  0.15613676561E+04  0.25500000920E-02 0. -1.
    10030    2    1    2    0    0  0.00000000000E+00  0.00000000000E+00  0.10281308131E+04  0.41508661254E+04  0.40215216799E+04 0.  0.
        3    1    3    3  502    0 -0.55709970684E+03 -0.37074384431E+03 -0.14430605760E+04  0.15906712161E+04  0.10100000352E+00 0. -1.
       -3    1    3    3    0  502  0.55709970684E+03  0.37074384431E+03  0.24711913892E+04  0.25601949093E+04  0.10100000352E+00 0.  1.
</event>
<event>
 5   0  0.5515000E-08  0.4027622E+04  0.7818609E-02  0.7998997E-01
        1   -1    0    0  501    0  0.00000000000E+00  0.00000000000E+00  0.17912937261E+04  0.17912937261E+04  0.50400001928E-02 0.  1.
       -1   -1    0    0    0  501  0.00000000000E+00  0.00000000000E+00 -0.22639701853E+04  0.22639701853E+04  0.50400001928E-02 0. -1.
    10030    2    1    2    0    0  0.00000000000E+00  0.00000000000E+00 -0.47267645926E+03  0.40552639114E+04  0.40276224197E+04 0.  0.
        5    1    3    3  502    0 -0.13462663542E+04 -0.14921872502E+04 -0.10756359156E+03  0.20126221459E+04  0.46999998093E+01 0.  1.
       -5    1    3    3    0  502  0.13462663542E+04  0.14921872502E+04 -0.36511286770E+03  0.20426417655E+04  0.46999998093E+01 0. -1.
</event>
<event>
 5   0  0.5515000E-08  0.4033470E+04  0.7818609E-02  0.7997828E-01
       -1   -1    0    0    0  501  0.00000000000E+00  0.00000000000E+00  0.24926375804E+04  0.24926375805E+04  0.50400001928E-02 0. -1.
        1   -1    0    0  501    0  0.00000000000E+00  0.00000000000E+00 -0.16316930402E+04  0.16316930402E+04  0.50400001928E-02 0.  1.
    10030    2    1    2    0    0  0.00000000000E+00  0.00000000000E+00  0.86094454021E+03  0.41243306207E+04  0.40334696686E+04 0.  0.
        5    1    3    3  502    0 -0.17225987917E+04  0.37095407970E+03 -0.57256537376E+03  0.18527835070E+04  0.46999998093E+01 0.  1.
       -5    1    3    3    0  502  0.17225987917E+04 -0.37095407970E+03  0.14335099140E+04  0.22715471137E+04  0.46999998093E+01 0. -1.
</event>
<event>
 5   0  0.1773903E-07  0.3994675E+04  0.7818609E-02  0.8005622E-01
        2   -1    0    0  501    0  0.00000000000E+00  0.00000000000E+00  0.20855267400E+04  0.20855267400E+04  0.25500000920E-02 0. -1.
       -2   -1    0    0    0  501  0.00000000000E+00  0.00000000000E+00 -0.19128778976E+04  0.19128778976E+04  0.25500000920E-02 0.  1.
    10030    2    1    2    0    0  0.00000000000E+00  0.00000000000E+00  0.17264884238E+03  0.39984046376E+04  0.39946754591E+04 0.  0.
        3    1    3    3  502    0  0.14565397541E+04  0.12647824218E+04  0.60466437033E+03  0.20215839435E+04  0.10100000352E+00 0. -1.
       -3    1    3    3    0  502 -0.14565397541E+04 -0.12647824218E+04 -0.43201552796E+03  0.19768206941E+04  0.10100000352E+00 0.  1.
</event>
<event>
 5   0  0.1819906E-07  0.4004993E+04  0.7818609E-02  0.8003540E-01
       -2   -1    0    0    0  501  0.00000000000E+00  0.00000000000E+00  0.25859490369E+04  0.25859490369E+04  0.25500000920E-02 0.  1.
        2   -1    0    0  501    0  0.00000000000E+00  0.00000000000E+00 -0.15506848611E+04  0.15506848611E+04  0.25500000920E-02 0. -1.
    10030    2    1    2    0    0  0.00000000000E+00  0.00000000000E+00  0.10352641758E+04  0.41366338980E+04  0.40049928955E+04 0.  0.
        1    1    3    3  502    0 -0.16328896969E+04 -0.44089078957E+03  0.16249134537E+04  0.23454332612E+04  0.50400001928E-02 0.  1.
       -1    1    3    3    0  502  0.16328896969E+04  0.44089078957E+03 -0.58964927788E+03  0.17912006369E+04  0.50400001928E-02 0. -1.
</event>
<event>
 5   0  0.1776653E-07  0.3409595E+04  0.7818609E-02  0.8135556E-01
        2   -1    0    0  501    0  0.00000000000E+00  0.00000000000E+00  0.21323510842E+04  0.21323510842E+04  0.25500000920E-02 0. -1.
       -2   -1    0    0    0  501  0.00000000000E+00  0.00000000000E+00 -0.13629715313E+04  0.13629715313E+04  0.25500000920E-02 0.  1.
    10030    2    1    2    0    0  0.00000000000E+00  0.00000000000E+00  0.76937955293E+03  0.34953226155E+04  0.34095945932E+04 0.  0.
        4    1    3    3  502    0  0.26041420577E+02  0.50261731701E+03  0.20544557028E+04  0.21152049949E+04  0.12699999809E+01 0. -1.
       -4    1    3    3    0  502 -0.26041420577E+02 -0.50261731701E+03 -0.12850761498E+04  0.13801176206E+04  0.12699999809E+01 0.  1.
</event>
<event>
 5   0  0.5515000E-08  0.4004613E+04  0.7818609E-02  0.8003617E-01
       -1   -1    0    0    0  501  0.00000000000E+00  0.00000000000E+00  0.18791870455E+04  0.18791870455E+04  0.50400001928E-02 0.  1.
        1   -1    0    0  501    0  0.00000000000E+00  0.00000000000E+00 -0.21334924407E+04  0.21334924407E+04  0.50400001928E-02 0. -1.
    10030    2    1    2    0    0  0.00000000000E+00  0.00000000000E+00 -0.25430539524E+03  0.40126794862E+04  0.40046130181E+04 0.  0.
        4    1    3    3  502    0 -0.24674072030E+03  0.13467530453E+04 -0.15911243846E+04  0.20991196175E+04  0.12699999809E+01 0. -1.
       -4    1    3    3    0  502  0.24674072030E+03 -0.13467530453E+04  0.13368189894E+04  0.19135598688E+04  0.12699999809E+01 0.  1.
</event>
<event>
 5   0  0.1821433E-07  0.3882579E+04  0.7818609E-02  0.8028662E-01
        2   -1    0    0  501    0  0.00000000000E+00  0.00000000000E+00  0.15294389717E+04  0.15294389717E+04  0.25500000920E-02 0.  1.
       -2   -1    0    0    0  501  0.00000000000E+00  0.00000000000E+00 -0.24640442502E+04  0.24640442502E+04  0.25500000920E-02 0. -1.
    10030    2    1    2    0    0  0.00000000000E+00  0.00000000000E+00 -0.93460527850E+03  0.39934832219E+04  0.38825791965E+04 0.  0.
        5    1    3    3  502    0  0.15765823747E+04 -0.86418503966E+03  0.28583942135E+03  0.18204818131E+04  0.46999998093E+01 0.  1.
       -5    1    3    3    0  502 -0.15765823747E+04  0.86418503966E+03 -0.12204446999E+04  0.21730014088E+04  0.46999998093E+01 0. -1.
</event>
<event>
 5   0  0.5515000E-08  0.4213120E+04  0.7818609E-02  0.7962881E-01
        1   -1    0    0  501    0  0.00000000000E+00  0.00000000000E+00  0.18841998553E+04  0.18841998553E+04  0.50400001928E-02 0.  1.
       -1   -1    0    0    0  501  0.00000000000E+00  0.00000000000E+00 -0.23551609894E+04  0.23551609894E+04  0.50400001928E-02 0. -1.
    10030    2    1    2    0    0  0.00000000000E+00  0.00000000000E+00 -0.47096113415E+03  0.42393608447E+04  0.42131195072E+04 0.  0.
        4    1    3    3  502    0  0.15916378145E+03 -0.18773098290E+04  0.71270870739E+03  0.20143437189E+04  0.12699999809E+01 0.  1.
       -4    1    3    3    0  502 -0.15916378145E+03  0.18773098290E+04 -0.11836698415E+04  0.22250171258E+04  0.12699999809E+01 0. -1.
</event>
<event>
 5   0  0.1819906E-07  0.3994459E+04  0.7818609E-02  0.8005665E-01
       -2   -1    0    0    0  501  0.00000000000E+00  0.00000000000E+00  0.23741026372E+04  0.23741026372E+04  0.25500000920E-02 0.  1.
        2   -1    0    0  501    0  0.00000000000E+00  0.00000000000E+00 -0.16801826636E+04  0.16801826636E+04  0.25500000920E-02 0. -1.
    10030    2    1    2    0    0  0.00000000000E+00  0.00000000000E+00  0.69391997360E+03  0.40542853008E+04  0.39944592088E+04 0.  0.
        1    1    3    3  502    0  0.51738999000E+01  0.19512156063E+04  0.77955585055E+03  0.21011845315E+04  0.50400001928E-02 0. -1.
       -1    1    3    3    0  502 -0.51738999000E+01 -0.19512156063E+04 -0.85635876947E+02  0.19531007693E+04  0.50400001928E-02 0.  1.
</event>
<event>
 5   0  0.5515000E-08  0.3981487E+04  0.7818609E-02  0.8008292E-01
        1   -1    0    0  501    0  0.00000000000E+00  0.00000000000E+00  0.19407018351E+04  0.19407018351E+04  0.50400001928E-02 0.  1.
       -1   -1    0    0    0  501  0.00000000000E+00  0.00000000000E+00 -0.20420757747E+04  0.20420757747E+04  0.50400001928E-02 0. -1.
    10030    2    1    2    0    0  0.00000000000E+00  0.00000000000E+00 -0.10137393954E+03  0.39827776098E+04  0.39814872615E+04 0.  0.
        2    1    3    3  502    0  0.68971926773E+03 -0.29709703038E+03 -0.18949441217E+04  0.20383308216E+04  0.25500000920E-02 0. -1.
       -2    1    3    3    0  502 -0.68971926773E+03  0.29709703038E+03  0.17935701822E+04  0.19444467882E+04  0.25500000920E-02 0.  1.
</event>
<event>
 5   0  0.1785559E-07  0.4016018E+04  0.7818609E-02  0.8001323E-01
        2   -1    0    0  501    0  0.00000000000E+00  0.00000000000E+00  0.25501969758E+04  0.25501969758E+04  0.25500000920E-02 0.  1.
       -2   -1    0    0    0  501  0.00000000000E+00  0.00000000000E+00 -0.15810933784E+04  0.15810933785E+04  0.25500000920E-02 0. -1.
    10030    2    1    2    0    0  0.00000000000E+00  0.00000000000E+00  0.96910359732E+03  0.41312903542E+04  0.40160177052E+04 0.  0.
        2    1    3    3  502    0 -0.13528686922E+04 -0.56462339857E+03 -0.92707728074E+03  0.17345101801E+04  0.25500000920E-02 0. -1.
       -2    1    3    3    0  502  0.13528686922E+04  0.56462339857E+03  0.18961808781E+04  0.23967801741E+04  0.25500000920E-02 0.  1.
</event>
<event>
 5   0  0.5515000E-08  0.3989045E+04  0.7818609E-02  0.8006760E-01
        1   -1    0    0  501    0  0.00000000000E+00  0.00000000000E+00  0.23787468145E+04  0.23787468145E+04  0.50400001928E-02 0. -1.
       -1   -1    0    0    0  501  0.00000000000E+00  0.00000000000E+00 -0.16723595203E+04  0.16723595203E+04  0.50400001928E-02 0.  1.
    10030    2    1    2    0    0  0.00000000000E+00  0.00000000000E+00  0.70638729426E+03  0.40511063348E+04  0.39890449391E+04 0.  0.
        3    1    3    3  502    0  0.16723935816E+04  0.12203327602E+03  0.14499621355E+04  0.22167955740E+04  0.10100000352E+00 0. -1.
       -3    1    3    3    0  502 -0.16723935816E+04 -0.12203327602E+03 -0.74357484127E+03  0.18343107608E+04  0.10100000352E+00 0.  1.
</event>
<event>
 5   0  0.5515000E-08  0.4028263E+04  0.7818609E-02  0.7998869E-01
        1   -1    0    0  501    0  0.00000000000E+00  0.00000000000E+00  0.19484572920E+04  0.19484572921E+04  0.50400001928E-02 0. -1.
       -1   -1    0    0    0  501  0.00000000000E+00  0.00000000000E+00 -0.20820193327E+04  0.20820193327E+04  0.50400001928E-02 0.  1.
    10030    2    1    2    0    0  0.00000000000E+00  0.00000000000E+00 -0.13356204069E+03  0.40304766248E+04  0.40282630257E+04 0.  0.
        4    1    3    3  502    0 -0.65343313842E+03 -0.64370359412E+03 -0.18609186277E+04  0.20746924917E+04  0.12699999809E+01 0.  1.
       -4    1    3    3    0  502  0.65343313842E+03  0.64370359412E+03  0.17273565870E+04  0.19557841330E+04  0.12699999809E+01 0. -1.
</event>
<event>
 5   0  0.1785559E-07  0.4011232E+04  0.7818609E-02  0.8002284E-01
       -2   -1    0    0    0  501  0.00000000000E+00  0.00000000000E+00  0.23463890886E+04  0.23463890886E+04  0.25500000920E-02 0. -1.
        2   -1    0    0  501    0  0.00000000000E+00  0.00000000000E+00 -0.17143346317E+04  0.17143346317E+04  0.25500000920E-02 0.  1.
    10030    2    1    2    0    0  0.00000000000E+00  0.00000000000E+00  0.63205445693E+03  0.40607237203E+04  0.40112322666E+04 0.  0.
        2    1    3    3  502    0  0.12896973110E+04  0.25150912198E+03  0.18499518397E+04  0.22691182873E+04  0.25500000920E-02 0. -1.
       -2    1    3    3    0  502 -0.12896973110E+04 -0.25150912198E+03 -0.12178973828E+04  0.17916054330E+04  0.25500000920E-02 0.  1.
</event>
<event>
 5   0  0.1821433E-07  0.4002216E+04  0.7818609E-02  0.8004100E-01
       -2   -1    0    0    0  501  0.00000000000E+00  0.00000000000E+00  0.25263761580E+04  0.25263761580E+04  0.25500000920E-02 0.  1.
        2   -1    0    0  501    0  0.00000000000E+00  0.00000000000E+00 -0.15850502909E+04  0.15850502910E+04  0.25500000920E-02 0. -1.
    10030    2    1    2    0    0  0.00000000000E+00  0.00000000000E+00  0.94132586709E+03  0.41114264490E+04  0.40022160183E+04 0.  0.
        5    1    3    3  502    0 -0.18670731197E+04  0.71149877282E+03  0.35710869069E+03  0.20297145723E+04  0.46999998093E+01 0. -1.
       -5    1    3    3    0  502  0.18670731197E+04 -0.71149877282E+03  0.58421717639E+03  0.20817118767E+04  0.46999998093E+01 0.  1.
</event>
<event>
 5   0  0.5515000E-08  0.3964583E+04  0.7818609E-02  0.8011730E-01
       -1   -1    0    0    0  501  0.00000000000E+00  0.00000000000E+00  0.20053447218E+04  0.20053447218E+04  0.50400001928E-02 0. -1.
        1   -1    0    0  501    0  0.00000000000E+00  0.00000000000E+00 -0.19595033466E+04  0.19595033466E+04  0.50400001928E-02 0.  1.
    10030    2    1    2    0    0  0.00000000000E+00  0.00000000000E+00  0.45841375190E+02  0.39648480684E+04  0.39645830517E+04 0.  0.
        1    1    3    3  502    0 -0.93366007388E+03  0.24677207247E+03  0.17541811458E+04  0.20024407811E+04  0.50400001928E-02 0. -1.
       -1    1    3    3    0  502  0.93366007388E+03 -0.24677207247E+03 -0.17083397706E+04  0.19624072873E+04  0.50400001928E-02 0.  1.
</event>
<event>
 5   0  0.5515000E-08  0.3679069E+04  0.7818609E-02  0.8072616E-01
       -1   -1    0    0    0  501  0.00000000000E+00  0.00000000000E+00  0.19611330736E+04  0.19611330736E+04  0.50400001928E-02 0. -1.
        1   -1    0    0  501    0  0.00000000000E+00  0.00000000000E+00 -0.17254759567E+04  0.17254759567E+04  0.50400001928E-02 0.  1.
    10030    2    1    2    0    0  0.00000000000E+00  0.00000000000E+00  0.23565711695E+03  0.36866090303E+04  0.36790694293E+04 0.  0.
        2    1    3    3  502    0 -0.39732653864E+02  0.81629444047E+03 -0.15335696022E+04  0.17377430829E+04  0.25500000920E-02 0.  1.
       -2    1    3    3    0  502  0.39732653864E+02 -0.81629444047E+03  0.17692267192E+04  0.19488659474E+04  0.25500000920E-02 0. -1.
</event>
<event>
 5   0  0.1776653E-07  0.3905390E+04  0.7818609E-02  0.8023909E-01
       -2   -1    0    0    0  501  0.00000000000E+00  0.00000000000E+00  0.17724217209E+04  0.17724217209E+04  0.25500000920E-02 0. -1.
        2   -1    0    0  501    0  0.00000000000E+00  0.00000000000E+00 -0.21513044233E+04  0.21513044233E+04  0.25500000920E-02 0.  1.
    10030    2    1    2    0    0  0.00000000000E+00  0.00000000000E+00 -0.37888270234E+03  0.39237261442E+04  0.39053904738E+04 0.  0.
        4    1    3    3  502    0 -0.36280825030E+03  0.19182752336E+04 -0.22972168889E+03  0.19657526206E+04  0.12699999809E+01 0.  1.
       -4    1    3    3    0  502  0.36280825030E+03 -0.19182752336E+04 -0.14916101346E+03  0.19579735236E+04  0.12699999809E+01 0. -1.
</event>
<event>
 5   0  0.1776653E-07  0.3950151E+04  0.7818609E-02  0.8014679E-01
        2   -1    0    0  501    0  0.00000000000E+00  0.00000000000E+00  0.26410988945E+04  0.26410988945E+04  0.25500000920E-02 0.  1.
       -2   -1    0    0    0  501  0.00000000000E+00  0.00000000000E+00 -0.14770076911E+04  0.14770076911E+04  0.25500000920E-02 0. -1.
    10030    2    1    2    0    0  0.00000000000E+00  0.00000000000E+00  0.11640912033E+04  0.41181065856E+04  0.39501510757E+04 0.  0.
        4    1    3    3  502    0  0.51397807545E+03 -0.54715594260E+03  0.24865674979E+04  0.25974165284E+04  0.12699999809E+01 0.  1.
       -4    1    3    3    0  502 -0.51397807545E+03  0.54715594260E+03 -0.13224762946E+04  0.15206900572E+04  0.12699999809E+01 0. -1.
</event>
<event>
 5   0  0.1776653E-07  0.4293069E+04  0.7818609E-02  0.7947901E-01
        2   -1    0    0  501    0  0.00000000000E+00  0.00000000000E+00  0.20052558790E+04  0.20052558790E+04  0.25500000920E-02 0.  1.
       -2   -1    0    0    0  501  0.00000000000E+00  0.00000000000E+00 -0.22977664292E+04  0.22977664292E+04  0.25500000920E-02 0. -1.
    10030    2    1    2    0    0  0.00000000000E+00  0.00000000000E+00 -0.29251055019E+03  0.43030223081E+04  0.42930686650E+04 0.  0.
        4    1    3    3  502    0 -0.11755214587E+04 -0.14399016039E+04  0.92975162505E+03  0.20783664321E+04  0.12699999809E+01 0.  1.
       -4    1    3    3    0  502  0.11755214587E+04  0.14399016039E+04 -0.12222621752E+04  0.22246558760E+04  0.12699999809E+01 0. -1.
</event>
<event>
 5   0  0.1821433E-07  0.4002542E+04  0.7818609E-02  0.8004034E-01
        2   -1    0    0  501    0  0.00000000000E+00  0.00000000000E+00  0.24217462603E+04  0.24217462603E+04  0.25500000920E-02 0. -1.
       -2   -1    0    0    0  501  0.00000000000E+00  0.00000000000E+00 -0.16538003131E+04  0.16538003131E+04  0.25500000920E-02 0.  1.
    10030    2    1    2    0    0  0.00000000000E+00  0.00000000000E+00  0.76794594723E+03  0.40755465735E+04  0.40025415544E+04 0.  0.
        5    1    3    3  502    0 -0.13789231059E+04 -0.13812436251E+04 -0.66590599387E+02  0.19528746201E+04  0.46999998093E+01 0.  1.
       -5    1    3    3    0  502  0.13789231059E+04  0.13812436251E+04  0.83453654661E+03  0.21226719534E+04  0.46999998093E+01 0. -1.
</event>
<event>
 5   0  0.5515000E-08  0.4040462E+04  0.7818609E-02  0.7996433E-01
        1   -1    0    0  501    0  0.00000000000E+00  0.00000000000E+00  0.17057599092E+04  0.17057599092E+04  0.50400001928E-02 0. -1.
       -1   -1    0    0    0  501  0.00000000000E+00  0.00000000000E+00 -0.23926774952E+04  0.23926774952E+04  0.50400001928E-02 0.  1.
    10030    2    1    2    0    0  0.00000000000E+00  0.00000000000E+00 -0.68691758595E+03  0.40984374044E+04  0.40404620265E+04 0.  0.
        2    1    3    3  502    0  0.13849594844E+04  0.51159153418E+03 -0.17421918336E+04  0.22836530070E+04  0.25500000920E-02 0.  1.
       -2    1    3    3    0  502 -0.13849594844E+04 -0.51159153418E+03  0.10552742476E+04  0.18147843974E+04  0.25500000920E-02 0. -1.
</event>
<event>
 5   0  0.5515000E-08  0.4008876E+04  0.7818609E-02  0.8002758E-01
       -1   -1    0    0    0  501  0.00000000000E+00  0.00000000000E+00  0.20689008162E+04  0.20689008162E+04  0.50400001928E-02 0.  1.
        1   -1    0    0  501    0  0.00000000000E+00  0.00000000000E+00 -0.19419841056E+04  0.19419841056E+04  0.50400001928E-02 0. -1.
    10030    2    1    2    0    0  0.00000000000E+00  0.00000000000E+00  0.12691671052E+03  0.40108849218E+04  0.40088764018E+04 0.  0.
        1    1    3    3  502    0  0.17854565667E+03 -0.19964665277E+04  0.67378651070E+02  0.20055665111E+04  0.50400001928E-02 0. -1.
       -1    1    3    3    0  502 -0.17854565667E+03  0.19964665277E+04  0.59538059446E+02  0.20053184107E+04  0.50400001928E-02 0.  1.
</event>
<event>
 5   0  0.1819906E-07  0.3914128E+04  0.7818609E-02  0.8022097E-01
        2   -1    0    0  501    0  0.00000000000E+00  0.00000000000E+00  0.17590418896E+04  0.17590418897E+04  0.25500000920E-02 0. -1.
       -2   -1    0    0    0  501  0.00000000000E+00  0.00000000000E+00 -0.21773786111E+04  0.21773786111E+04  0.25500000920E-02 0.  1.
    10030    2    1    2    0    0  0.00000000000E+00  0.00000000000E+00 -0.41833672147E+03  0.39364205008E+04  0.39141283508E+04 0.  0.
        1    1    3    3  502    0 -0.81789833175E+03 -0.10574924654E+04 -0.16465923698E+04  0.21209701619E+04  0.50400001928E-02 0.  1.
       -1    1    3    3    0  502  0.81789833175E+03  0.10574924654E+04  0.12282556483E+04  0.18154503389E+04  0.50400001928E-02 0. -1.
</event>
<event>
 5   0  0.5515000E-08  0.3251481E+04  0.7818609E-02  0.8175352E-01
        4   -1    0    0  501    0  0.00000000000E+00  0.00000000000E+00  0.17652331847E+04  0.17652336416E+04  0.12699999809E+01 0.  1.
       -4   -1    0    0    0  501  0.00000000000E+00  0.00000000000E+00 -0.14972696810E+04  0.14972702196E+04  0.12699999809E+01 0. -1.
    10030    2    1    2    0    0  0.00000000000E+00  0.00000000000E+00  0.26796350373E+03  0.32625038612E+04  0.32514807404E+04 0.  0.
        2    1    3    3  502    0  0.39474127260E+03  0.32246939005E+03  0.16829850141E+04  0.17584782449E+04  0.25500000920E-02 0.  1.
       -2    1    3    3    0  502 -0.39474127260E+03 -0.32246939005E+03 -0.14150215104E+04  0.15040256164E+04  0.25500000920E-02 0. -1.
</event>
<event>
 5   0  0.1776653E-07  0.3973618E+04  0.7818609E-02  0.8009890E-01
        2   -1    0    0  501    0  0.00000000000E+00  0.00000000000E+00  0.26954491343E+04  0.26954491343E+04  0.25500000920E-02 0.  1.
       -2   -1    0    0    0  501  0.00000000000E+00  0.00000000000E+00 -0.14644721728E+04  0.14644721728E+04  0.25500000920E-02 0. -1.
    10030    2    1    2    0    0  0.00000000000E+00  0.00000000000E+00  0.12309769615E+04  0.41599213071E+04  0.39736181247E+04 0.  0.
        4    1    3    3  502    0  0.13194214285E+04  0.18450803597E+03  0.21585318469E+04  0.25365680492E+04  0.12699999809E+01 0.  1.
       -4    1    3    3    0  502 -0.13194214285E+04 -0.18450803597E+03 -0.92755488536E+03  0.16233532578E+04  0.12699999809E+01 0. -1.
</event>
<event>
 5   0  0.5515000E-08  0.4019192E+04  0.7818609E-02  0.8000686E-01
        1   -1    0    0  501    0  0.00000000000E+00  0.00000000000E+00  0.23214277974E+04  0.23214277974E+04  0.50400001928E-02 0.  1.
       -1   -1    0    0    0  501  0.00000000000E+00  0.00000000000E+00 -0.17396521759E+04  0.17396521759E+04  0.50400001928E-02 0. -1.
    10030    2    1    2    0    0  0.00000000000E+00  0.00000000000E+00  0.58177562148E+03  0.40610799733E+04  0.40191924159E+04 0.  0.
        3    1    3    3  502    0 -0.18653920823E+04 -0.16644496695E+03 -0.44546323703E+03  0.19250530001E+04  0.10100000352E+00 0. -1.
       -3    1    3    3    0  502  0.18653920823E+04  0.16644496695E+03  0.10272388585E+04  0.21360269732E+04  0.10100000352E+00 0.  1.
</event>
<event>
 5   0  0.5515000E-08  0.3854372E+04  0.7818609E-02  0.8034586E-01
       -1   -1    0    0    0  501  0.00000000000E+00  0.00000000000E+00  0.26930478055E+04  0.26930478055E+04  0.50400001928E-02 0.  1.
        1   -1    0    0  501    0  0.00000000000E+00  0.00000000000E+00 -0.13791235989E+04  0.13791235989E+04  0.50400001928E-02 0. -1.
    10030    2    1    2    0    0  0.00000000000E+00  0.00000000000E+00  0.13139242066E+04  0.40721714044E+04  0.38543719497E+04 0.  0.
        2    1    3    3  502    0  0.77139679215E+02  0.13918214530E+04  0.20629219452E+04  0.24897318006E+04  0.25500000920E-02 0.  1.
       -2    1    3    3    0  502 -0.77139679215E+02 -0.13918214530E+04 -0.74899773866E+03  0.15824396038E+04  0.25500000920E-02 0. -1.
</event>
<event>
 5   0  0.5515000E-08  0.4001470E+04  0.7818609E-02  0.8004250E-01
        1   -1    0    0  501    0  0.00000000000E+00  0.00000000000E+00  0.15962146343E+04  0.15962146343E+04  0.50400001928E-02 0.  1.
       -1   -1    0    0    0  501  0.00000000000E+00  0.00000000000E+00 -0.25077702534E+04  0.25077702534E+04  0.50400001928E-02 0. -1.
    10030    2    1    2    0    0  0.00000000000E+00  0.00000000000E+00 -0.91155561915E+03  0.41039848877E+04  0.40014695190E+04 0.  0.
        2    1    3    3  502    0 -0.16879798066E+04 -0.49027274149E+03 -0.14359268300E+04  0.22696980085E+04  0.25500000920E-02 0. -1.
       -2    1    3    3    0  502  0.16879798066E+04  0.49027274149E+03  0.52437121083E+03  0.18342868792E+04  0.25500000920E-02 0.  1.
</event>
<event>
 5   0  0.5515000E-08  0.3630692E+04  0.7818609E-02  0.8083497E-01
       -1   -1    0    0    0  501  0.00000000000E+00  0.00000000000E+00  0.25761095833E+04  0.25761095833E+04  0.50400001928E-02 0.  1.
        1   -1    0    0  501    0  0.00000000000E+00  0.00000000000E+00 -0.12792472985E+04  0.12792472985E+04  0.50400001928E-02 0. -1.
    10030    2    1    2    0    0  0.00000000000E+00  0.00000000000E+00  0.12968622848E+04  0.38553568819E+04  0.36306920691E+04 0.  0.
        5    1    3    3  502    0  0.41485171307E+03  0.17275205702E+04  0.25249127861E+03  0.17944924631E+04  0.46999998093E+01 0.  1.
       -5    1    3    3    0  502 -0.41485171307E+03 -0.17275205702E+04  0.10443710062E+04  0.20608644188E+04  0.46999998093E+01 0. -1.
</event>
<event>
 5   0  0.1819906E-07  0.4013614E+04  0.7818609E-02  0.8001806E-01
       -2   -1    0    0    0  501  0.00000000000E+00  0.00000000000E+00  0.19710832808E+04  0.19710832808E+04  0.25500000920E-02 0. -1.
        2   -1    0    0  501    0  0.00000000000E+00  0.00000000000E+00 -0.20431779259E+04  0.20431779259E+04  0.25500000920E-02 0.  1.
    10030    2    1    2    0    0  0.00000000000E+00  0.00000000000E+00 -0.72094645124E+02  0.40142612067E+04  0.40136137579E+04 0.  0.
        1    1    3    3  502    0  0.31718944715E+03  0.15889335264E+04  0.11481854658E+04  0.19858622209E+04  0.50400001928E-02 0. -1.
       -1    1    3    3    0  502 -0.31718944715E+03 -0.15889335264E+04 -0.12202801109E+04  0.20283989858E+04  0.50400001928E-02 0.  1.
</event>
<event>
 5   0  0.5515000E-08  0.4019182E+04  0.7818609E-02  0.8000688E-01
       -1   -1    0    0    0  501  0.00000000000E+00  0.00000000000E+00  0.16470658092E+04  0.16470658092E+04  0.50400001928E-02 0. -1.
        1   -1    0    0  501    0  0.00000000000E+00  0.00000000000E+00 -0.24519089556E+04  0.24519089556E+04  0.50400001928E-02 0.  1.
    10030    2    1    2    0    0  0.00000000000E+00  0.00000000000E+00 -0.80484314637E+03  0.40989747648E+04  0.40191817118E+04 0.  0.
        4    1    3    3  502    0  0.64294824488E+03 -0.17611342827E+04 -0.11403029786E+04  0.21943720977E+04  0.12699999809E+01 0.  1.
       -4    1    3    3    0  502 -0.64294824488E+03  0.17611342827E+04  0.33545983223E+03  0.19046026671E+04  0.12699999809E+01 0. -1.
</event>
<event>
 5   0  0.5515000E-08  0.3992823E+04  0.7818609E-02  0.8005996E-01
       -1   -1    0    0    0  501  0.00000000000E+00  0.00000000000E+00  0.21011935562E+04  0.21011935562E+04  0.50400001928E-02 0. -1.
        1   -1    0    0  501    0  0.00000000000E+00  0.00000000000E+00 -0.18968546581E+04  0.18968546581E+04  0.50400001928E-02 0.  1.
    10030    2    1    2    0    0  0.00000000000E+00  0.00000000000E+00  0.20433889817E+03  0.39980482143E+04  0.39928229536E+04 0.  0.
        1    1    3    3  502    0  0.18868099590E+04  0.55472900185E+03  0.44595926460E+03  0.20165950889E+04  0.50400001928E-02 0. -1.
       -1    1    3    3    0  502 -0.18868099590E+04 -0.55472900185E+03 -0.24162036643E+03  0.19814531254E+04  0.50400001928E-02 0.  1.
</event>
<event>
 5   0  0.1776653E-07  0.3539427E+04  0.7818609E-02  0.8104509E-01
       -2   -1    0    0    0  501  0.00000000000E+00  0.00000000000E+00  0.19229029524E+04  0.19229029524E+04  0.25500000920E-02 0.  1.
        2   -1    0    0  501    0  0.00000000000E+00  0.00000000000E+00 -0.16287284544E+04  0.16287284544E+04  0.25500000920E-02 0. -1.
    10030    2    1    2    0    0  0.00000000000E+00  0.00000000000E+00  0.29417449801E+03  0.35516314067E+04  0.35394274981E+04 0.  0.
        4    1    3    3  502    0 -0.78180642232E+03 -0.73749500845E+03 -0.12637352776E+04  0.16589601063E+04  0.12699999809E+01 0. -1.
       -4    1    3    3    0  502  0.78180642232E+03  0.73749500845E+03  0.15579097756E+04  0.18926713004E+04  0.12699999809E+01 0.  1.
</event>
<event>
 5   0  0.5515000E-08  0.3574128E+04  0.7818609E-02  0.8096444E-01
       -1   -1    0    0    0  501  0.00000000000E+00  0.00000000000E+00  0.20096054470E+04  0.20096054470E+04  0.50400001928E-02 0.  1.
        1   -1    0    0  501    0  0.00000000000E+00  0.00000000000E+00 -0.15891668767E+04  0.15891668767E+04  0.50400001928E-02 0. -1.
    10030    2    1    2    0    0  0.00000000000E+00  0.00000000000E+00  0.42043857028E+03  0.35987723238E+04  0.35741283758E+04 0.  0.
        5    1    3    3  502    0  0.15571316521E+04  0.22707109991E+03 -0.64258938839E+03  0.16997539465E+04  0.46999998093E+01 0. -1.
       -5    1    3    3    0  502 -0.15571316521E+04 -0.22707109991E+03  0.10630279587E+04  0.18990183773E+04  0.46999998093E+01 0.  1.
</event>
<event>
 5   0  0.5515000E-08  0.3977023E+04  0.7818609E-02  0.8009198E-01
        1   -1    0    0  501    0  0.00000000000E+00  0.00000000000E+00  0.16325549027E+04  0.16325549027E+04  0.50400001928E-02 0.  1.
       -1   -1    0    0    0  501  0.00000000000E+00  0.00000000000E+00 -0.24220793720E+04  0.24220793720E+04  0.50400001928E-02 0. -1.
    10030    2    1    2    0    0  0.00000000000E+00  0.00000000000E+00 -0.78952446923E+03  0.40546342747E+04  0.39770227827E+04 0.  0.
        4    1    3    3  502    0  0.14169844721E+03 -0.20502490655E+03 -0.24060930102E+04  0.24189664836E+04  0.12699999809E+01 0. -1.
       -4    1    3    3    0  502 -0.14169844721E+03  0.20502490655E+03  0.16165685410E+04  0.16356677911E+04  0.12699999809E+01 0.  1.
</event>
<event>
 5   0  0.1819906E-07  0.4007920E+04  0.7818609E-02  0.8002951E-01
       -2   -1    0    0    0  501  0.00000000000E+00  0.00000000000E+00  0.17751168930E+04  0.17751168930E+04  0.25500000920E-02 0. -1.
        2   -1    0    0  501    0  0.00000000000E+00  0.00000000000E+00 -0.22623047316E+04  0.22623047316E+04  0.25500000920E-02 0.  1.
    10030    2    1    2    0    0  0.00000000000E+00  0.00000000000E+00 -0.48718783857E+03  0.40374216246E+04  0.40079198326E+04 0.  0.
        1    1    3    3  502    0  0.23118351964E+03  0.19181717851E+04  0.29232446007E+03  0.19540425806E+04  0.50400001928E-02 0. -1.
       -1    1    3    3    0  502 -0.23118351964E+03 -0.19181717851E+04 -0.77951229864E+03  0.20833790439E+04  0.50400001928E-02 0.  1.
</event>
<event>
 5   0  0.5515000E-08  0.3891692E+04  0.7818609E-02  0.8026759E-01
        1   -1    0    0  501    0  0.00000000000E+00  0.00000000000E+00  0.20528124573E+04  0.20528124573E+04  0.50400001928E-02 0.  1.
       -1   -1    0    0    0  501  0.00000000000E+00  0.00000000000E+00 -0.18444529855E+04  0.18444529855E+04  0.50400001928E-02 0. -1.
    10030    2    1    2    0    0  0.00000000000E+00  0.00000000000E+00  0.20835947180E+03  0.38972654429E+04  0.38916916968E+04 0.  0.
        4    1    3    3  502    0 -0.12056446375E+04 -0.13564939691E+02  0.16336363965E+04  0.20304020509E+04  0.12699999809E+01 0.  1.
       -4    1    3    3    0  502  0.12056446375E+04  0.13564939691E+02 -0.14252769247E+04  0.18668633920E+04  0.12699999809E+01 0. -1.
</event>
<event>
 5   0  0.1819906E-07  0.3931519E+04  0.7818609E-02  0.8018506E-01
        2   -1    0    0  501    0  0.00000000000E+00  0.00000000000E+00  0.12591375469E+04  0.12591375469E+04  0.25500000920E-02 0.  1.
       -2   -1    0    0    0  501  0.00000000000E+00  0.00000000000E+00 -0.30689336649E+04  0.30689336649E+04  0.25500000920E-02 0. -1.
    10030    2    1    2    0    0  0.00000000000E+00  0.00000000000E+00 -0.18097961180E+04  0.43280712118E+04  0.39315185902E+04 0.  0.
        1    1    3    3  502    0  0.14289171434E+04 -0.10395374479E+04  0.43231978776E+02  0.17675721519E+04  0.50400001928E-02 0.  1.
       -1    1    3    3    0  502 -0.14289171434E+04  0.10395374479E+04 -0.18530280968E+04  0.25604990599E+04  0.50400001928E-02 0. -1.
</event>
<event>
 5   0  0.1773903E-07  0.3978787E+04  0.7818609E-02  0.8008839E-01
        2   -1    0    0  501    0  0.00000000000E+00  0.00000000000E+00  0.26360213781E+04  0.26360213781E+04  0.25500000920E-02 0. -1.
       -2   -1    0    0    0  501  0.00000000000E+00  0.00000000000E+00 -0.15013867166E+04  0.15013867166E+04  0.25500000920E-02 0.  1.
    10030    2    1    2    0    0  0.00000000000E+00  0.00000000000E+00  0.11346346615E+04  0.41374080947E+04  0.39787874946E+04 0.  0.
        3    1    3    3  502    0 -0.35688931810E+03 -0.16502972117E+04  0.16613224927E+04  0.23687218721E+04  0.10100000352E+00 0. -1.
       -3    1    3    3    0  502  0.35688931810E+03  0.16502972117E+04 -0.52668783120E+03  0.17686862226E+04  0.10100000352E+00 0.  1.
</event>
<event>
 5   0  0.1773903E-07  0.3299524E+04  0.7818609E-02  0.8163016E-01
        2   -1    0    0  501    0  0.00000000000E+00  0.00000000000E+00  0.24490001656E+04  0.24490001656E+04  0.25500000920E-02 0. -1.
       -2   -1    0    0    0  501  0.00000000000E+00  0.00000000000E+00 -0.11113577406E+04  0.11113577406E+04  0.25500000920E-02 0.  1.
    10030    2    1    2    0    0  0.00000000000E+00  0.00000000000E+00  0.13376424250E+04  0.35603579062E+04  0.32995243843E+04 0.  0.
        3    1    3    3  502    0  0.14589942581E+04 -0.67884393941E+03  0.27645276147E+03  0.16327643672E+04  0.10100000352E+00 0.  1.
       -3    1    3    3    0  502 -0.14589942581E+04  0.67884393941E+03  0.10611896635E+04  0.19275935389E+04  0.10100000352E+00 0. -1.
</event>
<event>
 5   0  0.5515000E-08  0.3970096E+04  0.7818609E-02  0.8010606E-01
        1   -1    0    0  501    0  0.00000000000E+00  0.00000000000E+00  0.26664753433E+04  0.26664753433E+04  0.50400001928E-02 0.  1.
       -1   -1    0    0    0  501  0.00000000000E+00  0.00000000000E+00 -0.14777617329E+04  0.14777617329E+04  0.50400001928E-02 0. -1.
    10030    2    1    2    0    0  0.00000000000E+00  0.00000000000E+00  0.11887136104E+04  0.41442370762E+04  0.39700958296E+04 0.  0.
        1    1    3    3  502    0 -0.11305403086E+04 -0.10875965168E+04  0.18640256640E+04  0.24363044245E+04  0.50400001928E-02 0.  1.
       -1    1    3    3    0  502  0.11305403086E+04  0.10875965168E+04 -0.67531205357E+03  0.17079326517E+04  0.50400001928E-02 0. -1.
</event>
<event>
 5   0  0.5515000E-08  0.4029246E+04  0.7818609E-02  0.7998673E-01
       -1   -1    0    0    0  501  0.00000000000E+00  0.00000000000E+00  0.19409808481E+04  0.19409808481E+04  0.50400001928E-02 0. -1.
        1   -1    0    0  501    0  0.00000000000E+00  0.00000000000E+00 -0.20910590887E+04  0.20910590887E+04  0.50400001928E-02 0.  1.
    10030    2    1    2    0    0  0.00000000000E+00  0.00000000000E+00 -0.15007824060E+03  0.40320399367E+04  0.40292459063E+04 0.  0.
        5    1    3    3  502    0 -0.88226894194E+03  0.17000175727E+04 -0.70015247100E+03  0.20392875732E+04  0.46999998093E+01 0.  1.
       -5    1    3    3    0  502  0.88226894194E+03 -0.17000175727E+04  0.55007423040E+03  0.19927523636E+04  0.46999998093E+01 0. -1.
</event>
<event>
 5   0  0.1773903E-07  0.4052340E+04  0.7818609E-02  0.7994070E-01
        2   -1    0    0  501    0  0.00000000000E+00  0.00000000000E+00  0.22688793827E+04  0.22688793827E+04  0.25500000920E-02 0. -1.
       -2   -1    0    0    0  501  0.00000000000E+00  0.00000000000E+00 -0.18094237741E+04  0.18094237741E+04  0.25500000920E-02 0.  1.
    10030    2    1    2    0    0  0.00000000000E+00  0.00000000000E+00  0.45945560858E+03  0.40783031568E+04  0.40523397170E+04 0.  0.
        3    1    3    3  502    0  0.86612087573E+03 -0.18232825173E+04  0.40646553249E+03  0.20590625897E+04  0.10100000352E+00 0.  1.
       -3    1    3    3    0  502 -0.86612087573E+03  0.18232825173E+04  0.52990076090E+02  0.20192405670E+04  0.10100000352E+00 0. -1.
</event>
<event>
 5   0  0.5515000E-08  0.3944330E+04  0.7818609E-02  0.8015872E-01
        1   -1    0    0  501    0  0.00000000000E+00  0.00000000000E+00  0.15816411130E+04  0.15816411130E+04  0.50400001928E-02 0.  1.
       -1   -1    0    0    0  501  0.00000000000E+00  0.00000000000E+00 -0.24591129449E+04  0.24591129449E+04  0.50400001928E-02 0. -1.
    10030    2    1    2    0    0  0.00000000000E+00  0.00000000000E+00 -0.87747183197E+03  0.40407540579E+04  0.39443296694E+04 0.  0.
        5    1    3    3  502    0  0.63570947139E+03  0.18186178251E+04 -0.87084674625E+03  0.21142122578E+04  0.46999998093E+01 0. -1.
       -5    1    3    3    0  502 -0.63570947139E+03 -0.18186178251E+04 -0.66250857198E+01  0.19265418001E+04  0.46999998093E+01 0.  1.
</event>
<event>
 5   0  0.1785559E-07  0.3999655E+04  0.7818609E-02  0.8004616E-01
       -2   -1    0    0    0  501  0.00000000000E+00  0.00000000000E+00  0.23768658557E+04  0.23768658557E+04  0.25500000920E-02 0. -1.
        2   -1    0    0  501    0  0.00000000000E+00  0.00000000000E+00 -0.16825980122E+04  0.16825980122E+04  0.25500000920E-02 0.  1.
    10030    2    1    2    0    0  0.00000000000E+00  0.00000000000E+00  0.69426784348E+03  0.40594638679E+04  0.39996548672E+04 0.  0.
        2    1    3    3  502    0 -0.13373364979E+04  0.65099919613E+03 -0.10096585002E+04  0.17976871666E+04  0.25500000920E-02 0.  1.
       -2    1    3    3    0  502  0.13373364979E+04 -0.65099919613E+03  0.17039263437E+04  0.22617767013E+04  0.25500000920E-02 0. -1.
</event>
<event>
 5   0  0.5515000E-08  0.3985772E+04  0.7818609E-02  0.8007423E-01
        1   -1    0    0  501    0  0.00000000000E+00  0.00000000000E+00  0.20497909238E+04  0.20497909238E+04  0.50400001928E-02 0. -1.
       -1   -1    0    0    0  501  0.00000000000E+00  0.00000000000E+00 -0.19375609639E+04  0.19375609639E+04  0.50400001928E-02 0.  1.
    10030    2    1    2    0    0  0.00000000000E+00  0.00000000000E+00  0.11222995992E+03  0.39873518877E+04  0.39857721350E+04 0.  0.
        3    1    3    3  502    0  0.19783892953E+04 -0.16354916095E+03  0.23174747565E+03  0.19986193821E+04  0.10100000352E+00 0. -1.
       -3    1    3    3    0  502 -0.19783892953E+04  0.16354916095E+03 -0.11951751573E+03  0.19887325056E+04  0.10100000352E+00 0.  1.
</event>
<event>
 5   0  0.5515000E-08  0.4017706E+04  0.7818609E-02  0.8000984E-01
        1   -1    0    0  501    0  0.00000000000E+00  0.00000000000E+00  0.14570813210E+04  0.14570813210E+04  0.50400001928E-02 0.  1.
       -1   -1    0    0    0  501  0.00000000000E+00  0.00000000000E+00 -0.27695714008E+04  0.27695714008E+04  0.50400001928E-02 0. -1.
    10030    2    1    2    0    0  0.00000000000E+00  0.00000000000E+00 -0.13124900797E+04  0.42266527218E+04  0.40177061891E+04 0.  0.
        3    1    3    3  502    0  0.55824026247E+03  0.77681385564E+03 -0.25145835808E+04  0.26903907805E+04  0.10100000352E+00 0. -1.
       -3    1    3    3    0  502 -0.55824026247E+03 -0.77681385564E+03  0.12020935010E+04  0.15362619413E+04  0.10100000352E+00 0.  1.
</event>
<event>
 5   0  0.5515000E-08  0.4034308E+04  0.7818609E-02  0.7997661E-01
       -1   -1    0    0    0  501  0.00000000000E+00  0.00000000000E+00  0.19430638628E+04  0.19430638628E+04  0.50400001928E-02 0.  1.
        1   -1    0    0  501    0  0.00000000000E+00  0.00000000000E+00 -0.20940696441E+04  0.20940696441E+04  0.50400001928E-02 0. -1.
    10030    2    1    2    0    0  0.00000000000E+00  0.00000000000E+00 -0.15100578129E+03  0.40371335068E+04  0.40343083925E+04 0.  0.
        4    1    3    3  502    0  0.11787568091E+04 -0.12671453493E+04  0.96145848608E+03  0.19797800344E+04  0.12699999809E+01 0.  1.
       -4    1    3    3    0  502 -0.11787568091E+04  0.12671453493E+04 -0.11124642674E+04  0.20573534724E+04  0.12699999809E+01 0. -1.
</event>
<event>
 5   0  0.1776653E-07  0.4040541E+04  0.7818609E-02  0.7996418E-01
        2   -1    0    0  501    0  0.00000000000E+00  0.00000000000E+00  0.31713997887E+04  0.31713997887E+04  0.25500000920E-02 0.  1.
       -2   -1    0    0    0  501  0.00000000000E+00  0.00000000000E+00 -0.12869688909E+04  0.12869688909E+04  0.25500000920E-02 0. -1.
    10030    2    1    2    0    0  0.00000000000E+00  0.00000000000E+00  0.18844308978E+04  0.44583686797E+04  0.40405409879E+04 0.  0.
        4    1    3    3  502    0 -0.97449202916E+03 -0.17564440461E+04  0.11808194264E+04  0.23300357363E+04  0.12699999809E+01 0. -1.
       -4    1    3    3    0  502  0.97449202916E+03  0.17564440461E+04  0.70361147145E+03  0.21283329433E+04  0.12699999809E+01 0.  1.
</event>
<event>
 5   0  0.5515000E-08  0.4008523E+04  0.7818609E-02  0.8002829E-01
        1   -1    0    0  501    0  0.00000000000E+00  0.00000000000E+00  0.16391645115E+04  0.16391645115E+04  0.50400001928E-02 0.  1.
       -1   -1    0    0    0  501  0.00000000000E+00  0.00000000000E+00 -0.24506780863E+04  0.24506780863E+04  0.50400001928E-02 0. -1.
    10030    2    1    2    0    0  0.00000000000E+00  0.00000000000E+00 -0.81151357484E+03  0.40898425978E+04  0.40085231935E+04 0.  0.
        5    1    3    3  502    0  0.51568778825E+02  0.37680715088E+03 -0.24135189728E+04  0.24433049114E+04  0.46999998093E+01 0. -1.
       -5    1    3    3    0  502 -0.51568778825E+02 -0.37680715088E+03  0.16020053979E+04  0.16465376865E+04  0.46999998093E+01 0.  1.
</event>
<event>
 5   0  0.5515000E-08  0.4003813E+04  0.7818609E-02  0.8003778E-01
        3   -1    0    0  501    0  0.00000000000E+00  0.00000000000E+00  0.27356197683E+04  0.27356197701E+04  0.10100000352E+00 0. -1.
       -3   -1    0    0    0  501  0.00000000000E+00  0.00000000000E+00 -0.14649806822E+04  0.14649806857E+04  0.10100000352E+00 0.  1.
    10030    2    1    2    0    0  0.00000000000E+00  0.00000000000E+00  0.12706390861E+04  0.42006004558E+04  0.40038132452E+04 0.  0.
        3    1    3    3  502    0 -0.63389599823E+03 -0.20981150661E+03  0.26153479465E+04  0.26992387624E+04  0.10100000352E+00 0. -1.
       -3    1    3    3    0  502  0.63389599823E+03  0.20981150661E+03 -0.13447088605E+04  0.15013616934E+04  0.10100000352E+00 0.  1.
</event>
<event>
 5   0  0.5515000E-08  0.4008050E+04  0.7818609E-02  0.8002925E-01
       -1   -1    0    0    0  501  0.00000000000E+00  0.00000000000E+00  0.12862708140E+04  0.12862708140E+04  0.50400001928E-02 0.  1.
        1   -1    0    0  501    0  0.00000000000E+00  0.00000000000E+00 -0.31222949698E+04  0.31222949698E+04  0.50400001928E-02 0. -1.
    10030    2    1    2    0    0  0.00000000000E+00  0.00000000000E+00 -0.18360241558E+04  0.44085657837E+04  0.40080503451E+04 0.  0.
        4    1    3    3  502    0  0.16465635889E+04  0.11392194424E+04 -0.82518254846E+03  0.21656224143E+04  0.12699999809E+01 0. -1.
       -4    1    3    3    0  502 -0.16465635889E+04 -0.11392194424E+04 -0.10108416073E+04  0.22429433694E+04  0.12699999809E+01 0.  1.
</event>
<event>
 5   0  0.1785559E-07  0.3975450E+04  0.7818609E-02  0.8009518E-01
       -2   -1    0    0    0  501  0.00000000000E+00  0.00000000000E+00  0.15817806147E+04  0.15817806147E+04  0.25500000920E-02 0. -1.
        2   -1    0    0  501    0  0.00000000000E+00  0.00000000000E+00 -0.24978495594E+04  0.24978495594E+04  0.25500000920E-02 0.  1.
    10030    2    1    2    0    0  0.00000000000E+00  0.00000000000E+00 -0.91606894472E+03  0.40796301741E+04  0.39754496658E+04 0.  0.
        2    1    3    3  502    0 -0.90134438997E+03 -0.18929060824E+03 -0.22656715603E+04  0.24457146733E+04  0.25500000920E-02 0.  1.
       -2    1    3    3    0  502  0.90134438997E+03  0.18929060824E+03  0.13496026156E+04  0.16339155008E+04  0.25500000920E-02 0. -1.
</event>
<event>
 5   0  0.1776653E-07  0.3953497E+04  0.7818609E-02  0.8013994E-01
       -2   -1    0    0    0  501  0.00000000000E+00  0.00000000000E+00  0.26923760276E+04  0.26923760276E+04  0.25500000920E-02 0. -1.
        2   -1    0    0  501    0  0.00000000000E+00  0.00000000000E+00 -0.14513332413E+04  0.14513332413E+04  0.25500000920E-02 0.  1.
    10030    2    1    2    0    0  0.00000000000E+00  0.00000000000E+00  0.12410427863E+04  0.41437092689E+04  0.39534970985E+04 0.  0.
        4    1    3    3  502    0 -0.16529641058E+04  0.44298974470E+02 -0.51477373723E+03  0.17318332332E+04  0.12699999809E+01 0.  1.
       -4    1    3    3    0  502  0.16529641058E+04 -0.44298974470E+02  0.17558165235E+04  0.24118760357E+04  0.12699999809E+01 0. -1.
</event>
<event>
 5   0  0.1776653E-07  0.4016520E+04  0.7818609E-02  0.8001222E-01
       -2   -1    0    0    0  501  0.00000000000E+00  0.00000000000E+00  0.17978435061E+04  0.17978435061E+04  0.25500000920E-02 0.  1.
        2   -1    0    0  501    0  0.00000000000E+00  0.00000000000E+00 -0.22433027281E+04  0.22433027281E+04  0.25500000920E-02 0. -1.
    10030    2    1    2    0    0  0.00000000000E+00  0.00000000000E+00 -0.44545922204E+03  0.40411462342E+04  0.40165195092E+04 0.  0.
        4    1    3    3  502    0  0.16989823173E+04 -0.59854073289E+03  0.67058456132E+03  0.19221022840E+04  0.12699999809E+01 0. -1.
       -4    1    3    3    0  502 -0.16989823173E+04  0.59854073289E+03 -0.11160437834E+04  0.21190439502E+04  0.12699999809E+01 0.  1.
</event>
<event>
 5   0  0.5515000E-08  0.4017519E+04  0.7818609E-02  0.8001022E-01
       -1   -1    0    0    0  501  0.00000000000E+00  0.00000000000E+00  0.26528257634E+04  0.26528257634E+04  0.50400001928E-02 0. -1.
        1   -1    0    0  501    0  0.00000000000E+00  0.00000000000E+00 -0.15210626906E+04  0.15210626906E+04  0.50400001928E-02 0.  1.
    10030    2    1    2    0    0  0.00000000000E+00  0.00000000000E+00  0.11317630728E+04  0.41738884540E+04  0.40175187832E+04 0.  0.
        4    1    3    3  502    0 -0.78373429431E+03  0.13076531946E+04  0.19248122427E+04  0.24554225917E+04  0.12699999809E+01 0. -1.
       -4    1    3    3    0  502  0.78373429431E+03 -0.13076531946E+04 -0.79304916981E+03  0.17184658623E+04  0.12699999809E+01 0.  1.
</event>
<event>
 5   0  0.1785559E-07  0.3818284E+04  0.7818609E-02  0.8042243E-01
        2   -1    0    0  501    0  0.00000000000E+00  0.00000000000E+00  0.18574372658E+04  0.18574372658E+04  0.25500000920E-02 0. -1.
       -2   -1    0    0    0  501  0.00000000000E+00  0.00000000000E+00 -0.19622859061E+04  0.19622859061E+04  0.25500000920E-02 0.  1.
    10030    2    1    2    0    0  0.00000000000E+00  0.00000000000E+00 -0.10484864035E+03  0.38197231719E+04  0.38182838911E+04 0.  0.
        2    1    3    3  502    0  0.12701378426E+03 -0.64054654269E+03  0.17422392582E+04  0.18605993678E+04  0.25500000920E-02 0. -1.
       -2    1    3    3    0  502 -0.12701378426E+03  0.64054654269E+03 -0.18470878986E+04  0.19591238041E+04  0.25500000920E-02 0.  1.
</event>
<event>
 5   0  0.1776653E-07  0.3984973E+04  0.7818609E-02  0.8007585E-01
        2   -1    0    0  501    0  0.00000000000E+00  0.00000000000E+00  0.15350328398E+04  0.15350328398E+04  0.25500000920E-02 0.  1.
       -2   -1    0    0    0  501  0.00000000000E+00  0.00000000000E+00 -0.25862650130E+04  0.25862650130E+04  0.25500000920E-02 0. -1.
    10030    2    1    2    0    0  0.00000000000E+00  0.00000000000E+00 -0.10512321732E+04  0.41212978528E+04  0.39849726360E+04 0.  0.
        4    1    3    3  502    0 -0.12680398044E+04  0.91626787791E+03 -0.18017356088E+04  0.23861526746E+04  0.12699999809E+01 0.  1.
       -4    1    3    3    0  502  0.12680398044E+04 -0.91626787791E+03  0.75050343559E+03  0.17351451782E+04  0.12699999809E+01 0. -1.
</event>
<event>
 5   0  0.1821433E-07  0.4009642E+04  0.7818609E-02  0.8002604E-01
        2   -1    0    0  501    0  0.00000000000E+00  0.00000000000E+00  0.12194467372E+04  0.12194467372E+04  0.25500000920E-02 0. -1.
       -2   -1    0    0    0  501  0.00000000000E+00  0.00000000000E+00 -0.32960096366E+04  0.32960096366E+04  0.25500000920E-02 0.  1.
    10030    2    1    2    0    0  0.00000000000E+00  0.00000000000E+00 -0.20765628994E+04  0.45154563737E+04  0.40096424763E+04 0.  0.
        5    1    3    3  502    0 -0.15549276034E+04  0.42291541683E+03 -0.23814849028E+04  0.28754390507E+04  0.46999998093E+01 0.  1.
       -5    1    3    3    0  502  0.15549276034E+04 -0.42291541683E+03  0.30492200343E+03  0.16400173230E+04  0.46999998093E+01 0. -1.
</event>
<event>
 5   0  0.5515000E-08  0.4001093E+04  0.7818609E-02  0.8004326E-01
        1   -1    0    0  501    0  0.00000000000E+00  0.00000000000E+00  0.24899119434E+04  0.24899119434E+04  0.50400001928E-02 0.  1.
       -1   -1    0    0    0  501  0.00000000000E+00  0.00000000000E+00 -0.16073604641E+04  0.16073604641E+04  0.50400001928E-02 0. -1.
    10030    2    1    2    0    0  0.00000000000E+00  0.00000000000E+00  0.88255147932E+03  0.40972724075E+04  0.40010928591E+04 0.  0.
        2    1    3    3  502    0 -0.13549844646E+04 -0.71552603976E+03  0.17583600536E+04  0.23323358444E+04  0.25500000920E-02 0.  1.
       -2    1    3    3    0  502  0.13549844646E+04  0.71552603976E+03 -0.87580857426E+03  0.17649365631E+04  0.25500000920E-02 0. -1.
</event>
<event>
 5   0  0.1821433E-07  0.3514906E+04  0.7818609E-02  0.8110266E-01
       -2   -1    0    0    0  501  0.00000000000E+00  0.00000000000E+00  0.16266489615E+04  0.16266489615E+04  0.25500000920E-02 0. -1.
        2   -1    0    0  501    0  0.00000000000E+00  0.00000000000E+00 -0.18987759408E+04  0.18987759408E+04  0.25500000920E-02 0.  1.
    10030    2    1    2    0    0  0.00000000000E+00  0.00000000000E+00 -0.27212697934E+03  0.35254249023E+04  0.35149064922E+04 0.  0.
        5    1    3    3  502    0 -0.10405475654E+03 -0.10781809325E+04  0.12520282565E+04  0.16555658732E+04  0.46999998093E+01 0. -1.
       -5    1    3    3    0  502  0.10405475654E+03  0.10781809325E+04 -0.15241552358E+04  0.18698590290E+04  0.46999998093E+01 0.  1.
</event>
<event>
 5   0  0.5515000E-08  0.4148683E+04  0.7818609E-02  0.7975206E-01
        1   -1    0    0  501    0  0.00000000000E+00  0.00000000000E+00  0.20129588311E+04  0.20129588311E+04  0.50400001928E-02 0. -1.
       -1   -1    0    0    0  501  0.00000000000E+00  0.00000000000E+00 -0.21375964573E+04  0.21375964574E+04  0.50400001928E-02 0.  1.
    10030    2    1    2    0    0  0.00000000000E+00  0.00000000000E+00 -0.12463762628E+03  0.41505552884E+04  0.41486834857E+04 0.  0.
        2    1    3    3  502    0  0.18872157270E+04  0.78937593948E+03 -0.40627051250E+03  0.20856062196E+04  0.25500000920E-02 0. -1.
       -2    1    3    3    0  502 -0.18872157270E+04 -0.78937593948E+03  0.28163288622E+03  0.20649490688E+04  0.25500000920E-02 0.  1.
</event>
<event>
 5   0  0.1819906E-07  0.4020108E+04  0.7818609E-02  0.8000502E-01
       -2   -1    0    0    0  501  0.00000000000E+00  0.00000000000E+00  0.21084494169E+04  0.21084494169E+04  0.25500000920E-02 0. -1.
        2   -1    0    0  501    0  0.00000000000E+00  0.00000000000E+00 -0.19162506811E+04  0.19162506811E+04  0.25500000920E-02 0.  1.
    10030    2    1    2    0    0  0.00000000000E+00  0.00000000000E+00  0.19219873576E+03  0.40247000980E+04  0.40201082728E+04 0.  0.
        1    1    3    3  502    0 -0.11164779192E+03  0.80187106350E+03 -0.17457996726E+04  0.19243905344E+04  0.50400001928E-02 0.  1.
       -1    1    3    3    0  502  0.11164779192E+03 -0.80187106350E+03  0.19379984084E+04  0.21003095636E+04  0.50400001928E-02 0. -1.
</event>
<event>
 5   0  0.5515000E-08  0.4015189E+04  0.7818609E-02  0.8001489E-01
       -1   -1    0    0    0  501  0.00000000000E+00  0.00000000000E+00  0.21377025864E+04  0.21377025864E+04  0.50400001928E-02 0.  1.
        1   -1    0    0  501    0  0.00000000000E+00  0.00000000000E+00 -0.18854054827E+04  0.18854054827E+04  0.50400001928E-02 0. -1.
    10030    2    1    2    0    0  0.00000000000E+00  0.00000000000E+00  0.25229710367E+03  0.40231080691E+04  0.40151892492E+04 0.  0.
        1    1    3    3  502    0  0.16455163898E+04 -0.70590102361E+02 -0.10240391906E+04  0.19394234750E+04  0.50400001928E-02 0. -1.
       -1    1    3    3    0  502 -0.16455163898E+04  0.70590102361E+02  0.12763362942E+04  0.20836845941E+04  0.50400001928E-02 0.  1.
</event>
<event>
 5   0  0.1773903E-07  0.4089857E+04  0.7818609E-02  0.7986661E-01
        2   -1    0    0  501    0  0.00000000000E+00  0.00000000000E+00  0.12687258714E+04  0.12687258714E+04  0.25500000920E-02 0.  1.
       -2   -1    0    0    0  501  0.00000000000E+00  0.00000000000E+00 -0.32960093383E+04  0.32960093383E+04  0.25500000920E-02 0. -1.
    10030    2    1    2    0    0  0.00000000000E+00  0.00000000000E+00 -0.20272834669E+04  0.45647352098E+04  0.40898568777E+04 0.  0.
        3    1    3    3  502    0  0.18225839007E+04  0.59792517842E+03 -0.22253557471E+03  0.19310227048E+04  0.10100000352E+00 0.  1.
       -3    1    3    3    0  502 -0.18225839007E+04 -0.59792517842E+03 -0.18047478922E+04  0.26337125050E+04  0.10100000352E+00 0. -1.
</event>
<event>
 5   0  0.5515000E-08  0.3992116E+04  0.7818609E-02  0.8006139E-01
       -1   -1    0    0    0  501  0.00000000000E+00  0.00000000000E+00  0.18550367664E+04  0.18550367664E+04  0.50400001928E-02 0. -1.
        1   -1    0    0  501    0  0.00000000000E+00  0.00000000000E+00 -0.21477993531E+04  0.21477993531E+04  0.50400001928E-02 0.  1.
    10030    2    1    2    0    0  0.00000000000E+00  0.00000000000E+00 -0.29276258674E+03  0.40028361195E+04  0.39921156130E+04 0.  0.
        5    1    3    3  502    0 -0.53761558148E+03  0.11110924295E+04  0.14264827738E+04  0.18863806865E+04  0.46999998093E+01 0.  1.
       -5    1    3    3    0  502  0.53761558148E+03 -0.11110924295E+04 -0.17192453605E+04  0.21164554330E+04  0.46999998093E+01 0. -1.
</event>
<event>
 5   0  0.5515000E-08  0.4007945E+04  0.7818609E-02  0.8002946E-01
        1   -1    0    0  501    0  0.00000000000E+00  0.00000000000E+00  0.18941360642E+04  0.18941360642E+04  0.50400001928E-02 0.  1.
       -1   -1    0    0    0  501  0.00000000000E+00  0.00000000000E+00 -0.21201785923E+04  0.21201785923E+04  0.50400001928E-02 0. -1.
    10030    2    1    2    0    0  0.00000000000E+00  0.00000000000E+00 -0.22604252812E+03  0.40143146565E+04  0.40079454758E+04 0.  0.
        3    1    3    3  502    0  0.17019473842E+04  0.87695228668E+03 -0.70576956270E+03  0.20405344637E+04  0.10100000352E+00 0. -1.
       -3    1    3    3    0  502 -0.17019473842E+04 -0.87695228668E+03  0.47972703458E+03  0.19737801928E+04  0.10100000352E+00 0.  1.
</event>
<event>
 5   0  0.1785559E-07  0.4036202E+04  0.7818609E-02  0.7997283E-01
        2   -1    0    0  501    0  0.00000000000E+00  0.00000000000E+00  0.16392679154E+04  0.16392679154E+04  0.25500000920E-02 0. -1.
       -2   -1    0    0    0  501  0.00000000000E+00  0.00000000000E+00 -0.24844817576E+04  0.24844817576E+04  0.25500000920E-02 0.  1.
    10030    2    1    2    0    0  0.00000000000E+00  0.00000000000E+00 -0.84521384216E+03  0.41237496730E+04  0.40362017946E+04 0.  0.
        2    1    3    3  502    0  0.19137539809E+03  0.20046062067E+04 -0.28683101859E+03  0.20340458747E+04  0.25500000920E-02 0.  1.
       -2    1    3    3    0  502 -0.19137539809E+03 -0.20046062067E+04 -0.55838282357E+03  0.20897037983E+04  0.25500000920E-02 0. -1.
</event>
<event>
 5   0  0.1821433E-07  0.4024737E+04  0.7818609E-02  0.7999575E-01
       -2   -1    0    0    0  501  0.00000000000E+00  0.00000000000E+00  0.14295883022E+04  0.14295883022E+04  0.25500000920E-02 0. -1.
        2   -1    0    0  501    0  0.00000000000E+00  0.00000000000E+00 -0.28327220663E+04  0.28327220663E+04  0.25500000920E-02 0.  1.
    10030    2    1    2    0    0  0.00000000000E+00  0.00000000000E+00 -0.14031337640E+04  0.42623103685E+04  0.40247366768E+04 0.  0.
        5    1    3    3  502    0 -0.20527708277E+02 -0.16177949464E+04 -0.19688315747E+04  0.25483331287E+04  0.46999998093E+01 0.  1.
       -5    1    3    3    0  502  0.20527708277E+02  0.16177949464E+04  0.56569781064E+03  0.17139772398E+04  0.46999998093E+01 0. -1.
</event>
<event>
 5   0  0.5515000E-08  0.3901035E+04  0.7818609E-02  0.8024814E-01
       -1   -1    0    0    0  501  0.00000000000E+00  0.00000000000E+00  0.25337418156E+04  0.25337418156E+04  0.50400001928E-02 0.  1.
        1   -1    0    0  501    0  0.00000000000E+00  0.00000000000E+00 -0.15015413182E+04  0.15015413182E+04  0.50400001928E-02 0. -1.
    10030    2    1    2    0    0  0.00000000000E+00  0.00000000000E+00  0.10322004974E+04  0.40352831339E+04  0.39010347478E+04 0.  0.
        1    1    3    3  502    0  0.17314056881E+03 -0.16824461018E+04  0.15210879535E+04  0.22747112134E+04  0.50400001928E-02 0.  1.
       -1    1    3    3    0  502 -0.17314056881E+03  0.16824461018E+04 -0.48888745618E+03  0.17605719204E+04  0.50400001928E-02 0. -1.
</event>
<event>
 5   0  0.1776653E-07  0.3953987E+04  0.7818609E-02  0.8013894E-01
        2   -1    0    0  501    0  0.00000000000E+00  0.00000000000E+00  0.20869181312E+04  0.20869181312E+04  0.25500000920E-02 0. -1.
       -2   -1    0    0    0  501  0.00000000000E+00  0.00000000000E+00 -0.18728592309E+04  0.18728592309E+04  0.25500000920E-02 0.  1.
    10030    2    1    2    0    0  0.00000000000E+00  0.00000000000E+00  0.21405890028E+03  0.39597773620E+04  0.39539872969E+04 0.  0.
        4    1    3    3  502    0 -0.32372063917E+03 -0.18432634585E+04  0.74521220649E+03  0.20143877668E+04  0.12699999809E+01 0.  1.
       -4    1    3    3    0  502  0.32372063917E+03  0.18432634585E+04 -0.53115330621E+03  0.19453895952E+04  0.12699999809E+01 0. -1.
</event>
<event>
 5   0  0.5515000E-08  0.3997922E+04  0.7818609E-02  0.8004966E-01
       -3   -1    0    0    0  501  0.00000000000E+00  0.00000000000E+00  0.18241144543E+04  0.18241144571E+04  0.10100000352E+00 0. -1.
        3   -1    0    0  501    0  0.00000000000E+00  0.00000000000E+00 -0.21905665753E+04  0.21905665777E+04  0.10100000352E+00 0.  1.
    10030    2    1    2    0    0  0.00000000000E+00  0.00000000000E+00 -0.36645212099E+03  0.40146810348E+04  0.39979215418E+04 0.  0.
        2    1    3    3  502    0  0.16827949429E+04 -0.78964383273E+03  0.55504836941E+03  0.19399522919E+04  0.25500000920E-02 0. -1.
       -2    1    3    3    0  502 -0.16827949429E+04  0.78964383273E+03 -0.92150049041E+03  0.20747287428E+04  0.25500000920E-02 0.  1.
</event>
<event>
 5   0  0.1785559E-07  0.4039895E+04  0.7818609E-02  0.7996547E-01
       -2   -1    0    0    0  501  0.00000000000E+00  0.00000000000E+00  0.20446319790E+04  0.20446319790E+04  0.25500000920E-02 0. -1.
        2   -1    0    0  501    0  0.00000000000E+00  0.00000000000E+00 -0.19955609315E+04  0.19955609315E+04  0.25500000920E-02 0.  1.
    10030    2    1    2    0    0  0.00000000000E+00  0.00000000000E+00  0.49071047560E+02  0.40401929105E+04  0.40398948979E+04 0.  0.
        2    1    3    3  502    0  0.51801948950E+03 -0.15149470466E+04  0.12562021738E+04  0.20350559322E+04  0.25500000920E-02 0. -1.
       -2    1    3    3    0  502 -0.51801948950E+03  0.15149470466E+04 -0.12071311263E+04  0.20051369783E+04  0.25500000920E-02 0.  1.
</event>
<event>
 5   0  0.1773903E-07  0.4073040E+04  0.7818609E-02  0.7989972E-01
        2   -1    0    0  501    0  0.00000000000E+00  0.00000000000E+00  0.15395426921E+04  0.15395426921E+04  0.25500000920E-02 0.  1.
       -2   -1    0    0    0  501  0.00000000000E+00  0.00000000000E+00 -0.26939262081E+04  0.26939262081E+04  0.25500000920E-02 0. -1.
    10030    2    1    2    0    0  0.00000000000E+00  0.00000000000E+00 -0.11543835160E+04  0.42334689002E+04  0.40730403419E+04 0.  0.
        3    1    3    3  502    0  0.10998862253E+04  0.11040563040E+04  0.78544712993E+03  0.17451696866E+04  0.10100000352E+00 0.  1.
       -3    1    3    3    0  502 -0.10998862253E+04 -0.11040563040E+04 -0.19398306460E+04  0.24882992136E+04  0.10100000352E+00 0. -1.
</event>
<event>
 5   0  0.5515000E-08  0.3999105E+04  0.7818609E-02  0.8004727E-01
        1   -1    0    0  501    0  0.00000000000E+00  0.00000000000E+00  0.22030549601E+04  0.22030549601E+04  0.50400001928E-02 0. -1.
       -1   -1    0    0    0  501  0.00000000000E+00  0.00000000000E+00 -0.18148485028E+04  0.18148485028E+04  0.50400001928E-02 0.  1.
    10030    2    1    2    0    0  0.00000000000E+00  0.00000000000E+00  0.38820645734E+03  0.40179034629E+04  0.39991053979E+04 0.  0.
        4    1    3    3  502    0  0.12606316474E+03  0.70518489973E+02 -0.18095993537E+04  0.18153556712E+04  0.12699999809E+01 0.  1.
       -4    1    3    3    0  502 -0.12606316474E+03 -0.70518489973E+02  0.21978058111E+04  0.22025477917E+04  0.12699999809E+01 0. -1.
</event>
<event>
 5   0  0.5515000E-08  0.3956675E+04  0.7818609E-02  0.8013344E-01
        1   -1    0    0  501    0  0.00000000000E+00  0.00000000000E+00  0.20755719260E+04  0.20755719260E+04  0.50400001928E-02 0. -1.
       -1   -1    0    0    0  501  0.00000000000E+00  0.00000000000E+00 -0.18856584025E+04  0.18856584025E+04  0.50400001928E-02 0.  1.
    10030    2    1    2    0    0  0.00000000000E+00  0.00000000000E+00  0.18991352347E+03  0.39612303285E+04  0.39566751913E+04 0.  0.
        5    1    3    3  502    0  0.84265792918E+03 -0.16306802369E+04 -0.64386785576E+03  0.19451936475E+04  0.46999998093E+01 0.  1.
       -5    1    3    3    0  502 -0.84265792918E+03  0.16306802369E+04  0.83378137923E+03  0.20160366810E+04  0.46999998093E+01 0. -1.
</event>
<event>
 5   0  0.1773903E-07  0.4007176E+04  0.7818609E-02  0.8003101E-01
        2   -1    0    0  501    0  0.00000000000E+00  0.00000000000E+00  0.19554056693E+04  0.19554056693E+04  0.25500000920E-02 0.  1.
       -2   -1    0    0    0  501  0.00000000000E+00  0.00000000000E+00 -0.20529574122E+04  0.20529574122E+04  0.25500000920E-02 0. -1.
    10030    2    1    2    0    0  0.00000000000E+00  0.00000000000E+00 -0.97551742888E+02  0.40083630815E+04  0.40071758447E+04 0.  0.
        3    1    3    3  502    0  0.11972023981E+04 -0.91406348750E+03  0.12728115849E+04  0.19720179974E+04  0.10100000352E+00 0.  1.
       -3    1    3    3    0  502 -0.11972023981E+04  0.91406348750E+03 -0.13703633278E+04  0.20363450841E+04  0.10100000352E+00 0. -1.
</event>
<event>
 5   0  0.1773903E-07  0.4063155E+04  0.7818609E-02  0.7991926E-01
        2   -1    0    0  501    0  0.00000000000E+00  0.00000000000E+00  0.16035514291E+04  0.16035514291E+04  0.25500000920E-02 0. -1.
       -2   -1    0    0    0  501  0.00000000000E+00  0.00000000000E+00 -0.25738537020E+04  0.25738537020E+04  0.25500000920E-02 0.  1.
    10030    2    1    2    0    0  0.00000000000E+00  0.00000000000E+00 -0.97030227291E+03  0.41774051312E+04  0.40631548246E+04 0.  0.
        3    1    3    3  502    0 -0.12704145125E+04 -0.18399594365E+03  0.11337682122E+04  0.17126698193E+04  0.10100000352E+00 0. -1.
       -3    1    3    3    0  502  0.12704145125E+04  0.18399594365E+03 -0.21040704851E+04  0.24647353118E+04  0.10100000352E+00 0.  1.
</event>
<event>
 5   0  0.1785559E-07  0.3954255E+04  0.7818609E-02  0.8013839E-01
        2   -1    0    0  501    0  0.00000000000E+00  0.00000000000E+00  0.23750303981E+04  0.23750303981E+04  0.25500000920E-02 0.  1.
       -2   -1    0    0    0  501  0.00000000000E+00  0.00000000000E+00 -0.16458872245E+04  0.16458872245E+04  0.25500000920E-02 0. -1.
    10030    2    1    2    0    0  0.00000000000E+00  0.00000000000E+00  0.72914317364E+03  0.40209176226E+04  0.39542545138E+04 0.  0.
        2    1    3    3  502    0  0.17150600219E+04 -0.69515392887E+03  0.10722659475E+04  0.21387903417E+04  0.25500000920E-02 0. -1.
       -2    1    3    3    0  502 -0.17150600219E+04  0.69515392887E+03 -0.34312277382E+03  0.18821272809E+04  0.25500000920E-02 0.  1.
</event>
<event>
 5   0  0.5515000E-08  0.3964450E+04  0.7818609E-02  0.8011757E-01
        1   -1    0    0  501    0  0.00000000000E+00  0.00000000000E+00  0.14361899020E+04  0.14361899020E+04  0.50400001928E-02 0. -1.
       -1   -1    0    0    0  501  0.00000000000E+00  0.00000000000E+00 -0.27358616242E+04  0.27358616242E+04  0.50400001928E-02 0.  1.
    10030    2    1    2    0    0  0.00000000000E+00  0.00000000000E+00 -0.12996717221E+04  0.41720515262E+04  0.39644504477E+04 0.  0.
        1    1    3    3  502    0 -0.15078500350E+04  0.30753681548E+02  0.70385957471E+03  0.16643244329E+04  0.50400001928E-02 0. -1.
       -1    1    3    3    0  502  0.15078500350E+04 -0.30753681548E+02 -0.20035312968E+04  0.25077270933E+04  0.50400001928E-02 0.  1.
</event>
<event>
 5   0  0.1776653E-07  0.4037163E+04  0.7818609E-02  0.7997091E-01
       -2   -1    0    0    0  501  0.00000000000E+00  0.00000000000E+00  0.30447525103E+04  0.30447525104E+04  0.25500000920E-02 0.  1.
        2   -1    0    0  501    0  0.00000000000E+00  0.00000000000E+00 -0.13382599658E+04  0.13382599658E+04  0.25500000920E-02 0. -1.
    10030    2    1    2    0    0  0.00000000000E+00  0.00000000000E+00  0.17064925446E+04  0.43830124762E+04  0.40371625632E+04 0.  0.
        4    1    3    3  502    0  0.36750769914E+03 -0.16546893429E+04  0.20433319948E+04  0.26548570553E+04  0.12699999809E+01 0.  1.
       -4    1    3    3    0  502 -0.36750769914E+03  0.16546893429E+04 -0.33683945025E+03  0.17281554208E+04  0.12699999809E+01 0. -1.
</event>
<event>
 5   0  0.1773903E-07  0.3991777E+04  0.7818609E-02  0.8006207E-01
       -2   -1    0    0    0  501  0.00000000000E+00  0.00000000000E+00  0.14943973644E+04  0.14943973644E+04  0.25500000920E-02 0.  1.
        2   -1    0    0  501    0  0.00000000000E+00  0.00000000000E+00 -0.26656705485E+04  0.26656705485E+04  0.25500000920E-02 0. -1.
    10030    2    1    2    0    0  0.00000000000E+00  0.00000000000E+00 -0.11712731841E+04  0.41600679128E+04  0.39917770689E+04 0.  0.
        3    1    3    3  502    0 -0.16356478628E+04 -0.11075647309E+04 -0.28806866659E+03  0.19962532733E+04  0.10100000352E+00 0.  1.
       -3    1    3    3    0  502  0.16356478628E+04  0.11075647309E+04 -0.88320451756E+03  0.21638146395E+04  0.10100000352E+00 0. -1.
</event>
<event>
 5   0  0.5515000E-08  0.3571383E+04  0.7818609E-02  0.8097078E-01
       -1   -1    0    0    0  501  0.00000000000E+00  0.00000000000E+00  0.28812454536E+04  0.28812454536E+04  0.50400001928E-02 0.  1.
        1   -1    0    0  501    0  0.00000000000E+00  0.00000000000E+00 -0.11067067115E+04  0.11067067115E+04  0.50400001928E-02 0. -1.
    10030    2    1    2    0    0  0.00000000000E+00  0.00000000000E+00  0.17745387421E+04  0.39879521651E+04  0.35713827468E+04 0.  0.
        2    1    3    3  502    0  0.16085019305E+04  0.29718180494E+02  0.17525991299E+04  0.23790261329E+04  0.25500000920E-02 0.  1.
       -2    1    3    3    0  502 -0.16085019305E+04 -0.29718180494E+02  0.21939612228E+02  0.16089260323E+04  0.25500000920E-02 0. -1.
</event>
<event>
 5   0  0.5515000E-08  0.4138521E+04  0.7818609E-02  0.7977171E-01
        1   -1    0    0  501    0  0.00000000000E+00  0.00000000000E+00  0.22469261208E+04  0.22469261208E+04  0.50400001928E-02 0. -1.
       -1   -1    0    0    0  501  0.00000000000E+00  0.00000000000E+00 -0.19056426539E+04  0.19056426539E+04  0.50400001928E-02 0.  1.
    10030    2    1    2    0    0  0.00000000000E+00  0.00000000000E+00  0.34128346689E+03  0.41525687748E+04  0.41385206324E+04 0.  0.
        1    1    3    3  502    0 -0.15435092868E+04 -0.20168305256E+03  0.15386262497E+04  0.21887137109E+04  0.50400001928E-02 0. -1.
       -1    1    3    3    0  502  0.15435092868E+04  0.20168305256E+03 -0.11973427828E+04  0.19638550638E+04  0.50400001928E-02 0.  1.
</event>
<event>
 5   0  0.1819906E-07  0.4026811E+04  0.7818609E-02  0.7999160E-01
       -2   -1    0    0    0  501  0.00000000000E+00  0.00000000000E+00  0.19320047659E+04  0.19320047659E+04  0.25500000920E-02 0.  1.
        2   -1    0    0  501    0  0.00000000000E+00  0.00000000000E+00 -0.20982359433E+04  0.20982359433E+04  0.25500000920E-02 0. -1.
    10030    2    1    2    0    0  0.00000000000E+00  0.00000000000E+00 -0.16623117739E+03  0.40302407092E+04  0.40268110671E+04 0.  0.
        1    1    3    3  502    0  0.29059764805E+03  0.95418587984E+02  0.19086170539E+04  0.19329694147E+04  0.50400001928E-02 0.  1.
       -1    1    3    3    0  502 -0.29059764805E+03 -0.95418587984E+02 -0.20748482312E+04  0.20972712945E+04  0.50400001928E-02 0. -1.
</event>
<event>
 5   0  0.5515000E-08  0.4136502E+04  0.7818609E-02  0.7977562E-01
        3   -1    0    0  501    0  0.00000000000E+00  0.00000000000E+00  0.25584548840E+04  0.25584548860E+04  0.10100000352E+00 0. -1.
       -3   -1    0    0    0  501  0.00000000000E+00  0.00000000000E+00 -0.16719711703E+04  0.16719711733E+04  0.10100000352E+00 0.  1.
    10030    2    1    2    0    0  0.00000000000E+00  0.00000000000E+00  0.88648371371E+03  0.42304260593E+04  0.41365022988E+04 0.  0.
        4    1    3    3  502    0  0.23557450894E+03 -0.84919635263E+03  0.23568316341E+04  0.25162048325E+04  0.12699999809E+01 0. -1.
       -4    1    3    3    0  502 -0.23557450894E+03  0.84919635263E+03 -0.14703479204E+04  0.17142212268E+04  0.12699999809E+01 0.  1.
</event>
<event>
 5   0  0.5515000E-08  0.3981843E+04  0.7818609E-02  0.8008219E-01
        1   -1    0    0  501    0  0.00000000000E+00  0.00000000000E+00  0.17946592217E+04  0.17946592217E+04  0.50400001928E-02 0.  1.
       -1   -1    0    0    0  501  0.00000000000E+00  0.00000000000E+00 -0.22086469281E+04  0.22086469281E+04  0.50400001928E-02 0. -1.
    10030    2    1    2    0    0  0.00000000000E+00  0.00000000000E+00 -0.41398770644E+03  0.40033061498E+04  0.39818430793E+04 0.  0.
        1    1    3    3  502    0  0.34857599888E+03 -0.31157594532E+02 -0.21774798597E+04  0.22054238963E+04  0.50400001928E-02 0. -1.
       -1    1    3    3    0  502 -0.34857599888E+03  0.31157594532E+02  0.17634921533E+04  0.17978822535E+04  0.50400001928E-02 0.  1.
</event>
<event>
 5   0  0.1773903E-07  0.4097055E+04  0.7818609E-02  0.7985249E-01
        2   -1    0    0  501    0  0.00000000000E+00  0.00000000000E+00  0.16974393586E+04  0.16974393586E+04  0.25500000920E-02 0.  1.
       -2   -1    0    0    0  501  0.00000000000E+00  0.00000000000E+00 -0.24722326480E+04  0.24722326480E+04  0.25500000920E-02 0. -1.
    10030    2    1    2    0    0  0.00000000000E+00  0.00000000000E+00 -0.77479328943E+03  0.41696720067E+04  0.40970550401E+04 0.  0.
        3    1    3    3  502    0 -0.48174105671E+03  0.19572550082E+04 -0.15483717981E+02  0.20157284957E+04  0.10100000352E+00 0.  1.
       -3    1    3    3    0  502  0.48174105671E+03 -0.19572550082E+04 -0.75930957145E+03  0.21539435109E+04  0.10100000352E+00 0. -1.
</event>
<event>
 5   0  0.5515000E-08  0.3864003E+04  0.7818609E-02  0.8032558E-01
        1   -1    0    0  501    0  0.00000000000E+00  0.00000000000E+00  0.14368520362E+04  0.14368520362E+04  0.50400001928E-02 0.  1.
       -1   -1    0    0    0  501  0.00000000000E+00  0.00000000000E+00 -0.25977828860E+04  0.25977828860E+04  0.50400001928E-02 0. -1.
    10030    2    1    2    0    0  0.00000000000E+00  0.00000000000E+00 -0.11609308498E+04  0.40346349221E+04  0.38640029137E+04 0.  0.
        1    1    3    3  502    0  0.18678274638E+04 -0.82876336867E+02 -0.72160625589E+02  0.18710572085E+04  0.50400001928E-02 0.  1.
       -1    1    3    3    0  502 -0.18678274638E+04  0.82876336867E+02 -0.10887702242E+04  0.21635777136E+04  0.50400001928E-02 0. -1.
</event>
<event>
 5   0  0.5515000E-08  0.3713385E+04  0.7818609E-02  0.8065002E-01
        1   -1    0    0  501    0  0.00000000000E+00  0.00000000000E+00  0.27237985487E+04  0.27237985487E+04  0.50400001928E-02 0.  1.
       -1   -1    0    0    0  501  0.00000000000E+00  0.00000000000E+00 -0.12656246839E+04  0.12656246839E+04  0.50400001928E-02 0. -1.
    10030    2    1    2    0    0  0.00000000000E+00  0.00000000000E+00  0.14581738648E+04  0.39894232326E+04  0.37133848048E+04 0.  0.
        1    1    3    3  502    0 -0.93551933675E+03  0.18752141343E+02  0.24519678361E+04  0.26244417200E+04  0.50400001928E-02 0.  1.
       -1    1    3    3    0  502  0.93551933675E+03 -0.18752141343E+02 -0.99379397133E+03  0.13649815126E+04  0.50400001928E-02 0. -1.
</event>
<event>
 5   0  0.5515000E-08  0.4011362E+04  0.7818609E-02  0.8002258E-01
        1   -1    0    0  501    0  0.00000000000E+00  0.00000000000E+00  0.27287341876E+04  0.27287341876E+04  0.50400001928E-02 0. -1.
       -1   -1    0    0    0  501  0.00000000000E+00  0.00000000000E+00 -0.14742207227E+04  0.14742207227E+04  0.50400001928E-02 0.  1.
    10030    2    1    2    0    0  0.00000000000E+00  0.00000000000E+00  0.12545134649E+04  0.42029549103E+04  0.40113621059E+04 0.  0.
        2    1    3    3  502    0 -0.18395200259E+03  0.77284216535E+03 -0.13023433013E+04  0.15255233286E+04  0.25500000920E-02 0.  1.
       -2    1    3    3    0  502  0.18395200259E+03 -0.77284216535E+03  0.25568567662E+04  0.26774315817E+04  0.25500000920E-02 0. -1.
</event>
<event>
 5   0  0.1819906E-07  0.4040298E+04  0.7818609E-02  0.7996466E-01
        2   -1    0    0  501    0  0.00000000000E+00  0.00000000000E+00  0.26648249916E+04  0.26648249916E+04  0.25500000920E-02 0. -1.
       -2   -1    0    0    0  501  0.00000000000E+00  0.00000000000E+00 -0.15314332870E+04  0.15314332870E+04  0.25500000920E-02 0.  1.
    10030    2    1    2    0    0  0.00000000000E+00  0.00000000000E+00  0.11333917046E+04  0.41962582786E+04  0.40402978584E+04 0.  0.
        1    1    3    3  502    0 -0.18641784989E+04 -0.10068336206E+03  0.13683070052E+04  0.23146409388E+04  0.50400001928E-02 0. -1.
       -1    1    3    3    0  502  0.18641784989E+04  0.10068336206E+03 -0.23491530053E+03  0.18816173398E+04  0.50400001928E-02 0.  1.
</event>
<event>
 5   0  0.1773903E-07  0.4026400E+04  0.7818609E-02  0.7999242E-01
        2   -1    0    0  501    0  0.00000000000E+00  0.00000000000E+00  0.31140731645E+04  0.31140731645E+04  0.25500000920E-02 0.  1.
       -2   -1    0    0    0  501  0.00000000000E+00  0.00000000000E+00 -0.13015026124E+04  0.13015026124E+04  0.25500000920E-02 0. -1.
    10030    2    1    2    0    0  0.00000000000E+00  0.00000000000E+00  0.18125705521E+04  0.44155757769E+04  0.40264000591E+04 0.  0.
        3    1    3    3  502    0 -0.55682477168E+03  0.17909992925E+04  0.10396912681E+03  0.18784413437E+04  0.10100000352E+00 0.  1.
       -3    1    3    3    0  502  0.55682477168E+03 -0.17909992925E+04  0.17086014253E+04  0.25371344333E+04  0.10100000352E+00 0. -1.
</event>
<event>
 5   0  0.1785559E-07  0.3572623E+04  0.7818609E-02  0.8096792E-01
       -2   -1    0    0    0  501  0.00000000000E+00  0.00000000000E+00  0.17306489609E+04  0.17306489609E+04  0.25500000920E-02 0. -1.
        2   -1    0    0  501    0  0.00000000000E+00  0.00000000000E+00 -0.18437640018E+04  0.18437640018E+04  0.25500000920E-02 0.  1.
    10030    2    1    2    0    0  0.00000000000E+00  0.00000000000E+00 -0.11311504086E+03  0.35744129627E+04  0.35726227082E+04 0.  0.
        2    1    3    3  502    0  0.46424838315E+03 -0.14394088239E+04 -0.10075515453E+04  0.18173014170E+04  0.25500000920E-02 0.  1.
       -2    1    3    3    0  502 -0.46424838315E+03  0.14394088239E+04  0.89443650442E+03  0.17571115457E+04  0.25500000920E-02 0. -1.
</event>
<event>
 5   0  0.1819906E-07  0.3974309E+04  0.7818609E-02  0.8009749E-01
        2   -1    0    0  501    0  0.00000000000E+00  0.00000000000E+00  0.18983075118E+04  0.18983075118E+04  0.25500000920E-02 0.  1.
       -2   -1    0    0    0  501  0.00000000000E+00  0.00000000000E+00 -0.20801601128E+04  0.20801601128E+04  0.25500000920E-02 0. -1.
    10030    2    1    2    0    0  0.00000000000E+00  0.00000000000E+00 -0.18185260102E+03  0.39784676246E+04  0.39743092823E+04 0.  0.
        1    1    3    3  502    0 -0.17341589116E+04 -0.14391299986E+03 -0.10514955578E+04  0.20331406715E+04  0.50400001928E-02 0. -1.
       -1    1    3    3    0  502  0.17341589116E+04  0.14391299986E+03  0.86964295673E+03  0.19453269531E+04  0.50400001928E-02 0.  1.
</event>
<event>
 5   0  0.1773903E-07  0.4068585E+04  0.7818609E-02  0.7990852E-01
       -2   -1    0    0    0  501  0.00000000000E+00  0.00000000000E+00  0.12870196845E+04  0.12870196845E+04  0.25500000920E-02 0. -1.
        2   -1    0    0  501    0  0.00000000000E+00  0.00000000000E+00 -0.32154487297E+04  0.32154487297E+04  0.25500000920E-02 0.  1.
    10030    2    1    2    0    0  0.00000000000E+00  0.00000000000E+00 -0.19284290451E+04  0.45024684142E+04  0.40685849185E+04 0.  0.
        3    1    3    3  502    0  0.18273111026E+04  0.15176541477E+03  0.10791528910E+02  0.18336343894E+04  0.10100000352E+00 0.  1.
       -3    1    3    3    0  502 -0.18273111026E+04 -0.15176541477E+03 -0.19392205740E+04  0.26688340248E+04  0.10100000352E+00 0. -1.
</event>
<event>
 5   0  0.5515000E-08  0.3910379E+04  0.7818609E-02  0.8022874E-01
       -1   -1    0    0    0  501  0.00000000000E+00  0.00000000000E+00  0.24715345271E+04  0.24715345271E+04  0.50400001928E-02 0. -1.
        1   -1    0    0  501    0  0.00000000000E+00  0.00000000000E+00 -0.15467177209E+04  0.15467177209E+04  0.50400001928E-02 0.  1.
    10030    2    1    2    0    0  0.00000000000E+00  0.00000000000E+00  0.92481680622E+03  0.40182522480E+04  0.39103791381E+04 0.  0.
        3    1    3    3  502    0  0.16589546996E+04  0.99724568668E+03  0.74594885569E+03  0.20743840918E+04  0.10100000352E+00 0. -1.
       -3    1    3    3    0  502 -0.16589546996E+04 -0.99724568668E+03  0.17886795053E+03  0.19438681562E+04  0.10100000352E+00 0.  1.
</event>
<event>
 5   0  0.1776653E-07  0.3985607E+04  0.7818609E-02  0.8007456E-01
       -2   -1    0    0    0  501  0.00000000000E+00  0.00000000000E+00  0.16962651280E+04  0.16962651280E+04  0.25500000920E-02 0.  1.
        2   -1    0    0  501    0  0.00000000000E+00  0.00000000000E+00 -0.23411824491E+04  0.23411824491E+04  0.25500000920E-02 0. -1.
    10030    2    1    2    0    0  0.00000000000E+00  0.00000000000E+00 -0.64491732110E+03  0.40374475771E+04  0.39856071791E+04 0.  0.
        4    1    3    3  502    0 -0.17968325965E+04 -0.24049101458E+03 -0.11607616411E+04  0.21526292083E+04  0.12699999809E+01 0. -1.
       -4    1    3    3    0  502  0.17968325965E+04  0.24049101458E+03  0.51584432002E+03  0.18848183688E+04  0.12699999809E+01 0.  1.
</event>
<event>
 5   0  0.1785559E-07  0.4519564E+04  0.7818609E-02  0.7907221E-01
       -2   -1    0    0    0  501  0.00000000000E+00  0.00000000000E+00  0.21268663956E+04  0.21268663956E+04  0.25500000920E-02 0. -1.
        2   -1    0    0  501    0  0.00000000000E+00  0.00000000000E+00 -0.24010040156E+04  0.24010040156E+04  0.25500000920E-02 0.  1.
    10030    2    1    2    0    0  0.00000000000E+00  0.00000000000E+00 -0.27413761997E+03  0.45278704112E+04  0.45195640305E+04 0.  0.
        2    1    3    3  502    0  0.48877619021E+03  0.19250413465E+04  0.94284011353E+03  0.21985526670E+04  0.25500000920E-02 0. -1.
       -2    1    3    3    0  502 -0.48877619021E+03 -0.19250413465E+04 -0.12169777335E+04  0.23293177442E+04  0.25500000920E-02 0.  1.
</event>
<event>
 5   0  0.5515000E-08  0.4079447E+04  0.7818609E-02  0.7988709E-01
        1   -1    0    0  501    0  0.00000000000E+00  0.00000000000E+00  0.29967184007E+04  0.29967184007E+04  0.50400001928E-02 0.  1.
       -1   -1    0    0    0  501  0.00000000000E+00  0.00000000000E+00 -0.13883426162E+04  0.13883426162E+04  0.50400001928E-02 0. -1.
    10030    2    1    2    0    0  0.00000000000E+00  0.00000000000E+00  0.16083757846E+04  0.43850610169E+04  0.40794469549E+04 0.  0.
        2    1    3    3  502    0  0.15596872983E+04 -0.56260417010E+03 -0.47280272194E+03  0.17241491626E+04  0.25500000920E-02 0. -1.
       -2    1    3    3    0  502 -0.15596872983E+04  0.56260417010E+03  0.20811785065E+04  0.26609118544E+04  0.25500000920E-02 0.  1.
</event>
<event>
 5   0  0.5515000E-08  0.4005024E+04  0.7818609E-02  0.8003534E-01
       -1   -1    0    0    0  501  0.00000000000E+00  0.00000000000E+00  0.19850587607E+04  0.19850587608E+04  0.50400001928E-02 0.  1.
        1   -1    0    0  501    0  0.00000000000E+00  0.00000000000E+00 -0.20201189431E+04  0.20201189431E+04  0.50400001928E-02 0. -1.
    10030    2    1    2    0    0  0.00000000000E+00  0.00000000000E+00 -0.35060182393E+02  0.40051777039E+04  0.40050242475E+04 0.  0.
        2    1    3    3  502    0 -0.17130475491E+04  0.58048996965E+03  0.84189465446E+03  0.19950656930E+04  0.25500000920E-02 0. -1.
       -2    1    3    3    0  502  0.17130475491E+04 -0.58048996965E+03 -0.87695483685E+03  0.20101120109E+04  0.25500000920E-02 0.  1.
</event>
<event>
 5   0  0.1819906E-07  0.3657032E+04  0.7818609E-02  0.8077551E-01
       -2   -1    0    0    0  501  0.00000000000E+00  0.00000000000E+00  0.19523076672E+04  0.19523076672E+04  0.25500000920E-02 0.  1.
        2   -1    0    0  501    0  0.00000000000E+00  0.00000000000E+00 -0.17125738197E+04  0.17125738197E+04  0.25500000920E-02 0. -1.
    10030    2    1    2    0    0  0.00000000000E+00  0.00000000000E+00  0.23973384748E+03  0.36648814869E+04  0.36570321294E+04 0.  0.
        1    1    3    3  502    0  0.30606161750E+02 -0.17086017518E+04  0.77181248683E+03  0.18750869842E+04  0.50400001928E-02 0.  1.
       -1    1    3    3    0  502 -0.30606161750E+02  0.17086017518E+04 -0.53207863934E+03  0.17897945027E+04  0.50400001928E-02 0. -1.
</event>
<event>
 5   0  0.5515000E-08  0.3879865E+04  0.7818609E-02  0.8029230E-01
       -1   -1    0    0    0  501  0.00000000000E+00  0.00000000000E+00  0.14766837286E+04  0.14766837286E+04  0.50400001928E-02 0.  1.
        1   -1    0    0  501    0  0.00000000000E+00  0.00000000000E+00 -0.25485059778E+04  0.25485059778E+04  0.50400001928E-02 0. -1.
    10030    2    1    2    0    0  0.00000000000E+00  0.00000000000E+00 -0.10718222493E+04  0.40251897064E+04  0.38798645902E+04 0.  0.
        1    1    3    3  502    0 -0.18969685566E+04  0.39096435065E+03 -0.64953262556E+03  0.20428498378E+04  0.50400001928E-02 0. -1.
       -1    1    3    3    0  502  0.18969685566E+04 -0.39096435065E+03 -0.42228962371E+03  0.19823398686E+04  0.50400001928E-02 0.  1.
</event>
<event>
 5   0  0.5515000E-08  0.3974914E+04  0.7818609E-02  0.8009626E-01
       -3   -1    0    0    0  501  0.00000000000E+00  0.00000000000E+00  0.18630254843E+04  0.18630254870E+04  0.10100000352E+00 0. -1.
        3   -1    0    0  501    0  0.00000000000E+00  0.00000000000E+00 -0.21201994126E+04  0.21201994150E+04  0.10100000352E+00 0.  1.
    10030    2    1    2    0    0  0.00000000000E+00  0.00000000000E+00 -0.25717392829E+03  0.39832249020E+04  0.39749141111E+04 0.  0.
        4    1    3    3  502    0 -0.12969112141E+04 -0.16730022140E+03  0.13712105427E+04  0.18947791499E+04  0.12699999809E+01 0. -1.
       -4    1    3    3    0  502  0.12969112141E+04  0.16730022140E+03 -0.16283844710E+04  0.20884457522E+04  0.12699999809E+01 0.  1.
</event>
<event>
 5   0  0.5515000E-08  0.4050765E+04  0.7818609E-02  0.7994383E-01
       -1   -1    0    0    0  501  0.00000000000E+00  0.00000000000E+00  0.21394215715E+04  0.21394215716E+04  0.50400001928E-02 0.  1.
        1   -1    0    0  501    0  0.00000000000E+00  0.00000000000E+00 -0.19174222219E+04  0.19174222219E+04  0.50400001928E-02 0. -1.
    10030    2    1    2    0    0  0.00000000000E+00  0.00000000000E+00  0.22199934961E+03  0.40568437935E+04  0.40507650948E+04 0.  0.
        1    1    3    3  502    0 -0.42595769859E+03  0.51991746957E+03  0.20244741080E+04  0.21331313954E+04  0.50400001928E-02 0.  1.
       -1    1    3    3    0  502  0.42595769859E+03 -0.51991746957E+03 -0.18024747583E+04  0.19237123981E+04  0.50400001928E-02 0. -1.
</event>
<event>
 5   0  0.5515000E-08  0.4026804E+04  0.7818609E-02  0.7999161E-01
       -1   -1    0    0    0  501  0.00000000000E+00  0.00000000000E+00  0.20125880639E+04  0.20125880639E+04  0.50400001928E-02 0. -1.
        1   -1    0    0  501    0  0.00000000000E+00  0.00000000000E+00 -0.20142162703E+04  0.20142162703E+04  0.50400001928E-02 0.  1.
    10030    2    1    2    0    0  0.00000000000E+00  0.00000000000E+00 -0.16282063285E+01  0.40268043342E+04  0.40268040050E+04 0.  0.
        3    1    3    3  502    0 -0.59206355667E+03  0.51931855483E+03  0.18521719082E+04  0.20126529269E+04  0.10100000352E+00 0. -1.
       -3    1    3    3    0  502  0.59206355667E+03 -0.51931855483E+03 -0.18538001145E+04  0.20141514073E+04  0.10100000352E+00 0.  1.
</event>
<event>
 5   0  0.1773903E-07  0.3944813E+04  0.7818609E-02  0.8015773E-01
       -2   -1    0    0    0  501  0.00000000000E+00  0.00000000000E+00  0.16847775318E+04  0.16847775318E+04  0.25500000920E-02 0.  1.
        2   -1    0    0  501    0  0.00000000000E+00  0.00000000000E+00 -0.23091400518E+04  0.23091400518E+04  0.25500000920E-02 0. -1.
    10030    2    1    2    0    0  0.00000000000E+00  0.00000000000E+00 -0.62436252003E+03  0.39939175836E+04  0.39448129371E+04 0.  0.
        3    1    3    3  502    0  0.74916999377E+03 -0.16509552016E+04 -0.10986900660E+04  0.21199124106E+04  0.10100000352E+00 0. -1.
       -3    1    3    3    0  502 -0.74916999377E+03  0.16509552016E+04  0.47432754597E+03  0.18740051730E+04  0.10100000352E+00 0.  1.
</event>
<event>
 5   0  0.1819906E-07  0.3995301E+04  0.7818609E-02  0.8005495E-01
       -2   -1    0    0    0  501  0.00000000000E+00  0.00000000000E+00  0.24490925847E+04  0.24490925847E+04  0.25500000920E-02 0. -1.
        2   -1    0    0  501    0  0.00000000000E+00  0.00000000000E+00 -0.16294231938E+04  0.16294231938E+04  0.25500000920E-02 0.  1.
    10030    2    1    2    0    0  0.00000000000E+00  0.00000000000E+00  0.81966939094E+03  0.40785157785E+04  0.39953013710E+04 0.  0.
        1    1    3    3  502    0  0.13620464094E+04  0.20546739381E+03 -0.10670960896E+04  0.17424354610E+04  0.50400001928E-02 0.  1.
       -1    1    3    3    0  502 -0.13620464094E+04 -0.20546739381E+03  0.18867654805E+04  0.23360803175E+04  0.50400001928E-02 0. -1.
</event>
<event>
 5   0  0.1776653E-07  0.4007738E+04  0.7818609E-02  0.8002987E-01
       -2   -1    0    0    0  501  0.00000000000E+00  0.00000000000E+00  0.19083908618E+04  0.19083908618E+04  0.25500000920E-02 0. -1.
        2   -1    0    0  501    0  0.00000000000E+00  0.00000000000E+00 -0.21041239103E+04  0.21041239103E+04  0.25500000920E-02 0.  1.
    10030    2    1    2    0    0  0.00000000000E+00  0.00000000000E+00 -0.19573304854E+03  0.40125147721E+04  0.40077379368E+04 0.  0.
        4    1    3    3  502    0 -0.33961015101E+02 -0.15206913501E+04 -0.14039648958E+04  0.20699697038E+04  0.12699999809E+01 0.  1.
       -4    1    3    3    0  502  0.33961015101E+02  0.15206913501E+04  0.12082318473E+04  0.19425450683E+04  0.12699999809E+01 0. -1.
</event>
<event>
 5   0  0.5515000E-08  0.4000702E+04  0.7818609E-02  0.8004405E-01
       -1   -1    0    0    0  501  0.00000000000E+00  0.00000000000E+00  0.23919406629E+04  0.23919406629E+04  0.50400001928E-02 0. -1.
        1   -1    0    0  501    0  0.00000000000E+00  0.00000000000E+00 -0.16728689094E+04  0.16728689094E+04  0.50400001928E-02 0.  1.
    10030    2    1    2    0    0  0.00000000000E+00  0.00000000000E+00  0.71907175344E+03  0.40648095723E+04  0.40007015225E+04 0.  0.
        2    1    3    3  502    0  0.16005436050E+04  0.82985101309E+03 -0.52095953266E+03  0.18766436449E+04  0.25500000920E-02 0.  1.
       -2    1    3    3    0  502 -0.16005436050E+04 -0.82985101309E+03  0.12400312861E+04  0.21881659274E+04  0.25500000920E-02 0. -1.
</event>
<event>
 5   0  0.1821433E-07  0.3970238E+04  0.7818609E-02  0.8010577E-01
       -2   -1    0    0    0  501  0.00000000000E+00  0.00000000000E+00  0.21436065028E+04  0.21436065028E+04  0.25500000920E-02 0.  1.
        2   -1    0    0  501    0  0.00000000000E+00  0.00000000000E+00 -0.18383497018E+04  0.18383497018E+04  0.25500000920E-02 0. -1.
    10030    2    1    2    0    0  0.00000000000E+00  0.00000000000E+00  0.30525680101E+03  0.39819562046E+04  0.39702384690E+04 0.  0.
        5    1    3    3  502    0  0.14571518953E+03 -0.17131961980E+04 -0.84247031156E+03  0.19146938254E+04  0.46999998093E+01 0. -1.
       -5    1    3    3    0  502 -0.14571518953E+03  0.17131961980E+04  0.11477271126E+04  0.20672623791E+04  0.46999998093E+01 0.  1.
</event>
<event>
 5   0  0.1821433E-07  0.3569831E+04  0.7818609E-02  0.8097437E-01
       -2   -1    0    0    0  501  0.00000000000E+00  0.00000000000E+00  0.11210418963E+04  0.11210418963E+04  0.25500000920E-02 0.  1.
        2   -1    0    0  501    0  0.00000000000E+00  0.00000000000E+00 -0.28419305248E+04  0.28419305248E+04  0.25500000920E-02 0. -1.
    10030    2    1    2    0    0  0.00000000000E+00  0.00000000000E+00 -0.17208886285E+04  0.39629724211E+04  0.35698309118E+04 0.  0.
        5    1    3    3  502    0  0.92364361154E+03  0.11480902831E+03  0.83030875528E+03  0.12472904045E+04  0.46999998093E+01 0.  1.
       -5    1    3    3    0  502 -0.92364361154E+03 -0.11480902831E+03 -0.25511973838E+04  0.27156820166E+04  0.46999998093E+01 0. -1.
</event>
<event>
 5   0  0.1773903E-07  0.4211802E+04  0.7818609E-02  0.7963131E-01
        2   -1    0    0  501    0  0.00000000000E+00  0.00000000000E+00  0.16729931221E+04  0.16729931221E+04  0.25500000920E-02 0. -1.
       -2   -1    0    0    0  501  0.00000000000E+00  0.00000000000E+00 -0.26508295866E+04  0.26508295866E+04  0.25500000920E-02 0.  1.
    10030    2    1    2    0    0  0.00000000000E+00  0.00000000000E+00 -0.97783646444E+03  0.43238227087E+04  0.42118023060E+04 0.  0.
        3    1    3    3  502    0  0.27534333688E+03  0.19406077998E+04  0.30165932679E+03  0.19831215155E+04  0.10100000352E+00 0. -1.
       -3    1    3    3    0  502 -0.27534333688E+03 -0.19406077998E+04 -0.12794957912E+04  0.23407011932E+04  0.10100000352E+00 0.  1.
</event>
<event>
 5   0  0.1821433E-07  0.3987541E+04  0.7818609E-02  0.8007065E-01
        2   -1    0    0  501    0  0.00000000000E+00  0.00000000000E+00  0.12366489236E+04  0.12366489236E+04  0.25500000920E-02 0. -1.
       -2   -1    0    0    0  501  0.00000000000E+00  0.00000000000E+00 -0.32144297711E+04  0.32144297711E+04  0.25500000920E-02 0.  1.
    10030    2    1    2    0    0  0.00000000000E+00  0.00000000000E+00 -0.19777808475E+04  0.44510786948E+04  0.39875411554E+04 0.  0.
        5    1    3    3  502    0  0.76126704738E+03 -0.75738344363E+03  0.88625140912E+03  0.13923436531E+04  0.46999998093E+01 0. -1.
       -5    1    3    3    0  502 -0.76126704738E+03  0.75738344363E+03 -0.28640322566E+04  0.30587350417E+04  0.46999998093E+01 0.  1.
</event>
<event>
 5   0  0.1785559E-07  0.4016380E+04  0.7818609E-02  0.8001250E-01
        2   -1    0    0  501    0  0.00000000000E+00  0.00000000000E+00  0.20798578302E+04  0.20798578302E+04  0.25500000920E-02 0.  1.
       -2   -1    0    0    0  501  0.00000000000E+00  0.00000000000E+00 -0.19389915317E+04  0.19389915317E+04  0.25500000920E-02 0. -1.
    10030    2    1    2    0    0  0.00000000000E+00  0.00000000000E+00  0.14086629855E+03  0.40188493619E+04  0.40163798226E+04 0.  0.
        2    1    3    3  502    0 -0.12924220487E+04  0.15204413307E+04 -0.15493883573E+03  0.20015250772E+04  0.25500000920E-02 0. -1.
       -2    1    3    3    0  502  0.12924220487E+04 -0.15204413307E+04  0.29580513428E+03  0.20173242847E+04  0.25500000920E-02 0.  1.
</event>
<event>
 5   0  0.1821433E-07  0.3941393E+04  0.7818609E-02  0.8016475E-01
       -2   -1    0    0    0  501  0.00000000000E+00  0.00000000000E+00  0.27545976168E+04  0.27545976168E+04  0.25500000920E-02 0. -1.
        2   -1    0    0  501    0  0.00000000000E+00  0.00000000000E+00 -0.14098774884E+04  0.14098774884E+04  0.25500000920E-02 0.  1.
    10030    2    1    2    0    0  0.00000000000E+00  0.00000000000E+00  0.13447201284E+04  0.41644751052E+04  0.39413932407E+04 0.  0.
        5    1    3    3  502    0 -0.23687005657E+03 -0.23486696763E+03  0.27245458484E+04  0.27448938205E+04  0.46999998093E+01 0. -1.
       -5    1    3    3    0  502  0.23687005657E+03  0.23486696763E+03 -0.13798257200E+04  0.14195812846E+04  0.46999998093E+01 0.  1.
</event>
<event>
 5   0  0.1785559E-07  0.4005725E+04  0.7818609E-02  0.8003393E-01
       -2   -1    0    0    0  501  0.00000000000E+00  0.00000000000E+00  0.17158730406E+04  0.17158730406E+04  0.25500000920E-02 0. -1.
        2   -1    0    0  501    0  0.00000000000E+00  0.00000000000E+00 -0.23378524588E+04  0.23378524588E+04  0.25500000920E-02 0.  1.
    10030    2    1    2    0    0  0.00000000000E+00  0.00000000000E+00 -0.62197941820E+03  0.40537254993E+04  0.40057249066E+04 0.  0.
        2    1    3    3  502    0 -0.17960866505E+03 -0.18944910472E+04 -0.94305585628E+03  0.21238432025E+04  0.25500000920E-02 0.  1.
       -2    1    3    3    0  502  0.17960866505E+03  0.18944910472E+04  0.32107643808E+03  0.19298822969E+04  0.25500000920E-02 0. -1.
</event>
<event>
 5   0  0.1776653E-07  0.4005376E+04  0.7818609E-02  0.8003463E-01
        2   -1    0    0  501    0  0.00000000000E+00  0.00000000000E+00  0.32672641379E+04  0.32672641379E+04  0.25500000920E-02 0.  1.
       -2   -1    0    0    0  501  0.00000000000E+00  0.00000000000E+00 -0.12275592102E+04  0.12275592102E+04  0.25500000920E-02 0. -1.
    10030    2    1    2    0    0  0.00000000000E+00  0.00000000000E+00  0.20397049278E+04  0.44948233481E+04  0.40053764790E+04 0.  0.
        4    1    3    3  502    0  0.64016207357E+03  0.15915683272E+04 -0.13979696710E+03  0.17211746063E+04  0.12699999809E+01 0. -1.
       -4    1    3    3    0  502 -0.64016207357E+03 -0.15915683272E+04  0.21795018949E+04  0.27736487418E+04  0.12699999809E+01 0.  1.
</event>
<event>
 5   0  0.1819906E-07  0.4021781E+04  0.7818609E-02  0.8000167E-01
       -2   -1    0    0    0  501  0.00000000000E+00  0.00000000000E+00  0.17927866890E+04  0.17927866890E+04  0.25500000920E-02 0. -1.
        2   -1    0    0  501    0  0.00000000000E+00  0.00000000000E+00 -0.22555279032E+04  0.22555279032E+04  0.25500000920E-02 0.  1.
    10030    2    1    2    0    0  0.00000000000E+00  0.00000000000E+00 -0.46274121426E+03  0.40483145922E+04  0.40217808998E+04 0.  0.
        1    1    3    3  502    0  0.12466781990E+04  0.76416640839E+03  0.11581436563E+04  0.18653293437E+04  0.50400001928E-02 0. -1.
       -1    1    3    3    0  502 -0.12466781990E+04 -0.76416640839E+03 -0.16208848706E+04  0.21829852485E+04  0.50400001928E-02 0.  1.
</event>
<event>
 5   0  0.5515000E-08  0.4002941E+04  0.7818609E-02  0.8003953E-01
       -1   -1    0    0    0  501  0.00000000000E+00  0.00000000000E+00  0.24048527420E+04  0.24048527420E+04  0.50400001928E-02 0. -1.
        1   -1    0    0  501    0  0.00000000000E+00  0.00000000000E+00 -0.16657504504E+04  0.16657504504E+04  0.50400001928E-02 0.  1.
    10030    2    1    2    0    0  0.00000000000E+00  0.00000000000E+00  0.73910229157E+03  0.40706031924E+04  0.40029411877E+04 0.  0.
        1    1    3    3  502    0 -0.11870883737E+04 -0.70117137288E+03 -0.11058572709E+04  0.17674106498E+04  0.50400001928E-02 0.  1.
       -1    1    3    3    0  502  0.11870883737E+04  0.70117137288E+03  0.18449595625E+04  0.23031925426E+04  0.50400001928E-02 0. -1.
</event>
<event>
 5   0  0.5515000E-08  0.4002458E+04  0.7818609E-02  0.8004051E-01
        1   -1    0    0  501    0  0.00000000000E+00  0.00000000000E+00  0.18332926489E+04  0.18332926489E+04  0.50400001928E-02 0. -1.
       -1   -1    0    0    0  501  0.00000000000E+00  0.00000000000E+00 -0.21845492125E+04  0.21845492125E+04  0.50400001928E-02 0.  1.
    10030    2    1    2    0    0  0.00000000000E+00  0.00000000000E+00 -0.35125656364E+03  0.40178418614E+04  0.40024582508E+04 0.  0.
        5    1    3    3  502    0  0.75346245320E+03 -0.11218824613E+04  0.13060427427E+04  0.18793870440E+04  0.46999998093E+01 0. -1.
       -5    1    3    3    0  502 -0.75346245320E+03  0.11218824613E+04 -0.16572993063E+04  0.21384548174E+04  0.46999998093E+01 0.  1.
</event>
<event>
 5   0  0.5515000E-08  0.3989738E+04  0.7818609E-02  0.8006620E-01
        1   -1    0    0  501    0  0.00000000000E+00  0.00000000000E+00  0.12291060754E+04  0.12291060754E+04  0.50400001928E-02 0. -1.
       -1   -1    0    0    0  501  0.00000000000E+00  0.00000000000E+00 -0.32377203702E+04  0.32377203702E+04  0.50400001928E-02 0.  1.
    10030    2    1    2    0    0  0.00000000000E+00  0.00000000000E+00 -0.20086142948E+04  0.44668264456E+04  0.39897377245E+04 0.  0.
        2    1    3    3  502    0 -0.43506198906E+03  0.15551612139E+04  0.30693752779E+03  0.16437810017E+04  0.25500000920E-02 0. -1.
       -2    1    3    3    0  502  0.43506198906E+03 -0.15551612139E+04 -0.23155518225E+04  0.28230454439E+04  0.25500000920E-02 0.  1.
</event>
<event>
 5   0  0.1773903E-07  0.3658230E+04  0.7818609E-02  0.8077282E-01
        2   -1    0    0  501    0  0.00000000000E+00  0.00000000000E+00  0.16032817343E+04  0.16032817343E+04  0.25500000920E-02 0.  1.
       -2   -1    0    0    0  501  0.00000000000E+00  0.00000000000E+00 -0.20867585300E+04  0.20867585300E+04  0.25500000920E-02 0. -1.
    10030    2    1    2    0    0  0.00000000000E+00  0.00000000000E+00 -0.48347679571E+03  0.36900402643E+04  0.36582300830E+04 0.  0.
        3    1    3    3  502    0  0.10404618730E+04 -0.14363562772E+04 -0.69281994848E+03  0.19041217806E+04  0.10100000352E+00 0. -1.
       -3    1    3    3    0  502 -0.10404618730E+04  0.14363562772E+04  0.20934315277E+03  0.17859184836E+04  0.10100000352E+00 0.  1.
</event>
<event>
 5   0  0.1776653E-07  0.3989395E+04  0.7818609E-02  0.8006689E-01
       -2   -1    0    0    0  501  0.00000000000E+00  0.00000000000E+00  0.19533703405E+04  0.19533703405E+04  0.25500000920E-02 0. -1.
        2   -1    0    0  501    0  0.00000000000E+00  0.00000000000E+00 -0.20368988080E+04  0.20368988080E+04  0.25500000920E-02 0.  1.
    10030    2    1    2    0    0  0.00000000000E+00  0.00000000000E+00 -0.83528467553E+02  0.39902691485E+04  0.39893948003E+04 0.  0.
        4    1    3    3  502    0 -0.15272313799E+04  0.56866163599E+03 -0.11922355917E+04  0.20192174383E+04  0.12699999809E+01 0.  1.
       -4    1    3    3    0  502  0.15272313799E+04 -0.56866163599E+03  0.11087071242E+04  0.19710517102E+04  0.12699999809E+01 0. -1.
</event>
<event>
 5   0  0.5515000E-08  0.4058784E+04  0.7818609E-02  0.7992792E-01
       -1   -1    0    0    0  501  0.00000000000E+00  0.00000000000E+00  0.12437787884E+04  0.12437787884E+04  0.50400001928E-02 0.  1.
        1   -1    0    0  501    0  0.00000000000E+00  0.00000000000E+00 -0.33112251272E+04  0.33112251272E+04  0.50400001928E-02 0. -1.
    10030    2    1    2    0    0  0.00000000000E+00  0.00000000000E+00 -0.20674463388E+04  0.45550039156E+04  0.40587838459E+04 0.  0.
        4    1    3    3  502    0  0.80519077295E+03 -0.15922069932E+04  0.51434277140E+02  0.17849656546E+04  0.12699999809E+01 0.  1.
       -4    1    3    3    0  502 -0.80519077295E+03  0.15922069932E+04 -0.21188806160E+04  0.27700382611E+04  0.12699999809E+01 0. -1.
</event>
<event>
 5   0  0.5515000E-08  0.4036954E+04  0.7818609E-02  0.7997133E-01
       -1   -1    0    0    0  501  0.00000000000E+00  0.00000000000E+00  0.21764953148E+04  0.21764953148E+04  0.50400001928E-02 0.  1.
        1   -1    0    0  501    0  0.00000000000E+00  0.00000000000E+00 -0.18719314168E+04  0.18719314168E+04  0.50400001928E-02 0. -1.
    10030    2    1    2    0    0  0.00000000000E+00  0.00000000000E+00  0.30456389794E+03  0.40484267316E+04  0.40369542768E+04 0.  0.
        2    1    3    3  502    0  0.48526027250E+03 -0.18758767623E+04 -0.41488590031E+03  0.19815452227E+04  0.25500000920E-02 0. -1.
       -2    1    3    3    0  502 -0.48526027250E+03  0.18758767623E+04  0.71944979825E+03  0.20668815089E+04  0.25500000920E-02 0.  1.
</event>
<event>
 5   0  0.5515000E-08  0.3983662E+04  0.7818609E-02  0.8007851E-01
        1   -1    0    0  501    0  0.00000000000E+00  0.00000000000E+00  0.14439835117E+04  0.14439835117E+04  0.50400001928E-02 0. -1.
       -1   -1    0    0    0  501  0.00000000000E+00  0.00000000000E+00 -0.27475322462E+04  0.27475322462E+04  0.50400001928E-02 0.  1.
    10030    2    1    2    0    0  0.00000000000E+00  0.00000000000E+00 -0.13035487345E+04  0.41915157579E+04  0.39836622655E+04 0.  0.
        2    1    3    3  502    0  0.11299247742E+04 -0.11125827834E+04 -0.19199944270E+04  0.24901704852E+04  0.25500000920E-02 0.  1.
       -2    1    3    3    0  502 -0.11299247742E+04  0.11125827834E+04  0.61644569259E+03  0.17013452728E+04  0.25500000920E-02 0. -1.
</event>
<event>
 5   0  0.1785559E-07  0.3994725E+04  0.7818609E-02  0.8005612E-01
        2   -1    0    0  501    0  0.00000000000E+00  0.00000000000E+00  0.28967571298E+04  0.28967571298E+04  0.25500000920E-02 0. -1.
       -2   -1    0    0    0  501  0.00000000000E+00  0.00000000000E+00 -0.13772147509E+04  0.13772147509E+04  0.25500000920E-02 0.  1.
    10030    2    1    2    0    0  0.00000000000E+00  0.00000000000E+00  0.15195423789E+04  0.42739718806E+04  0.39947248460E+04 0.  0.
        2    1    3    3  502    0 -0.59606670468E+03  0.13239292586E+04  0.22272849422E+04  0.26587369956E+04  0.25500000920E-02 0. -1.
       -2    1    3    3    0  502  0.59606670468E+03 -0.13239292586E+04 -0.70774256325E+03  0.16152348851E+04  0.25500000920E-02 0.  1.
</event>
<event>
 5   0  0.5515000E-08  0.3949521E+04  0.7818609E-02  0.8014808E-01
        1   -1    0    0  501    0  0.00000000000E+00  0.00000000000E+00  0.16515047383E+04  0.16515047383E+04  0.50400001928E-02 0. -1.
       -1   -1    0    0    0  501  0.00000000000E+00  0.00000000000E+00 -0.23612880338E+04  0.23612880339E+04  0.50400001928E-02 0.  1.
    10030    2    1    2    0    0  0.00000000000E+00  0.00000000000E+00 -0.70978329556E+03  0.40127927721E+04  0.39495206678E+04 0.  0.
        1    1    3    3  502    0  0.11561596390E+04  0.15960021465E+04 -0.22738044955E+03  0.19838421891E+04  0.50400001928E-02 0. -1.
       -1    1    3    3    0  502 -0.11561596390E+04 -0.15960021465E+04 -0.48240284602E+03  0.20289505830E+04  0.50400001928E-02 0.  1.
</event>
<event>
 5   0  0.5515000E-08  0.3983815E+04  0.7818609E-02  0.8007819E-01
        1   -1    0    0  501    0  0.00000000000E+00  0.00000000000E+00  0.20706750553E+04  0.20706750553E+04  0.50400001928E-02 0.  1.
       -1   -1    0    0    0  501  0.00000000000E+00  0.00000000000E+00 -0.19161365575E+04  0.19161365575E+04  0.50400001928E-02 0. -1.
    10030    2    1    2    0    0  0.00000000000E+00  0.00000000000E+00  0.15453849779E+03  0.39868116127E+04  0.39838153431E+04 0.  0.
        4    1    3    3  502    0  0.14093149898E+02 -0.17610943509E+04  0.10085832878E+04  0.20295057997E+04  0.12699999809E+01 0.  1.
       -4    1    3    3    0  502 -0.14093149898E+02  0.17610943509E+04 -0.85404478999E+03  0.19573058131E+04  0.12699999809E+01 0. -1.
</event>
<event>
 5   0  0.5515000E-08  0.3991879E+04  0.7818609E-02  0.8006187E-01
       -1   -1    0    0    0  501  0.00000000000E+00  0.00000000000E+00  0.22228549982E+04  0.22228549982E+04  0.50400001928E-02 0. -1.
        1   -1    0    0  501    0  0.00000000000E+00  0.00000000000E+00 -0.17921883497E+04  0.17921883497E+04  0.50400001928E-02 0.  1.
    10030    2    1    2    0    0  0.00000000000E+00  0.00000000000E+00  0.43066664850E+03  0.40150433479E+04  0.39918791719E+04 0.  0.
        3    1    3    3  502    0 -0.31304454452E+03  0.13892399639E+04 -0.11912776135E+04  0.18566439957E+04  0.10100000352E+00 0.  1.
       -3    1    3    3    0  502  0.31304454452E+03 -0.13892399639E+04  0.16219442620E+04  0.21583993522E+04  0.10100000352E+00 0. -1.
</event>
<event>
 5   0  0.5515000E-08  0.3986657E+04  0.7818609E-02  0.8007244E-01
        1   -1    0    0  501    0  0.00000000000E+00  0.00000000000E+00  0.24939039473E+04  0.24939039473E+04  0.50400001928E-02 0.  1.
       -1   -1    0    0    0  501  0.00000000000E+00  0.00000000000E+00 -0.15932281446E+04  0.15932281446E+04  0.50400001928E-02 0. -1.
    10030    2    1    2    0    0  0.00000000000E+00  0.00000000000E+00  0.90067580271E+03  0.40871320919E+04  0.39866567240E+04 0.  0.
        4    1    3    3  502    0  0.17544954899E+04  0.85409854485E+03  0.86755593505E+03  0.21355078230E+04  0.12699999809E+01 0. -1.
       -4    1    3    3    0  502 -0.17544954899E+04 -0.85409854485E+03  0.33119867653E+02  0.19516242689E+04  0.12699999809E+01 0.  1.
</event>
<event>
 5   0  0.1776653E-07  0.4021904E+04  0.7818609E-02  0.8000142E-01
       -2   -1    0    0    0  501  0.00000000000E+00  0.00000000000E+00  0.17515801149E+04  0.17515801149E+04  0.25500000920E-02 0.  1.
        2   -1    0    0  501    0  0.00000000000E+00  0.00000000000E+00 -0.23087318307E+04  0.23087318307E+04  0.25500000920E-02 0. -1.
    10030    2    1    2    0    0  0.00000000000E+00  0.00000000000E+00 -0.55715171582E+03  0.40603119456E+04  0.40219044072E+04 0.  0.
        4    1    3    3  502    0  0.19255522923E+04 -0.40015306820E+03 -0.70216949338E+03  0.20882810440E+04  0.12699999809E+01 0. -1.
       -4    1    3    3    0  502 -0.19255522923E+04  0.40015306820E+03  0.14501777756E+03  0.19720309016E+04  0.12699999809E+01 0.  1.
</event>
<event>
 5   0  0.1785559E-07  0.3289256E+04  0.7818609E-02  0.8165635E-01
        2   -1    0    0  501    0  0.00000000000E+00  0.00000000000E+00  0.19392346410E+04  0.19392346410E+04  0.25500000920E-02 0. -1.
       -2   -1    0    0    0  501  0.00000000000E+00  0.00000000000E+00 -0.13947773375E+04  0.13947773375E+04  0.25500000920E-02 0.  1.
    10030    2    1    2    0    0  0.00000000000E+00  0.00000000000E+00  0.54445730345E+03  0.33340119785E+04  0.32892555568E+04 0.  0.
        2    1    3    3  502    0  0.98636297670E+03  0.54329223172E+02 -0.10605533397E+04  0.14493574344E+04  0.25500000920E-02 0.  1.
       -2    1    3    3    0  502 -0.98636297670E+03 -0.54329223172E+02  0.16050106431E+04  0.18846545442E+04  0.25500000920E-02 0. -1.
</event>
<event>
 5   0  0.1821433E-07  0.4038188E+04  0.7818609E-02  0.7996887E-01
       -2   -1    0    0    0  501  0.00000000000E+00  0.00000000000E+00  0.28925003936E+04  0.28925003936E+04  0.25500000920E-02 0.  1.
        2   -1    0    0  501    0  0.00000000000E+00  0.00000000000E+00 -0.14094173567E+04  0.14094173568E+04  0.25500000920E-02 0. -1.
    10030    2    1    2    0    0  0.00000000000E+00  0.00000000000E+00  0.14830830369E+04  0.43019177504E+04  0.40381878407E+04 0.  0.
        5    1    3    3  502    0 -0.19876511024E+04  0.29528103368E+03  0.95130292600E+03  0.22232739689E+04  0.46999998093E+01 0.  1.
       -5    1    3    3    0  502  0.19876511024E+04 -0.29528103368E+03  0.53178011088E+03  0.20786437815E+04  0.46999998093E+01 0. -1.
</event>
<event>
 5   0  0.1773903E-07  0.4013496E+04  0.7818609E-02  0.8001830E-01
       -2   -1    0    0    0  501  0.00000000000E+00  0.00000000000E+00  0.18637649351E+04  0.18637649351E+04  0.25500000920E-02 0. -1.
        2   -1    0    0  501    0  0.00000000000E+00  0.00000000000E+00 -0.21607000152E+04  0.21607000152E+04  0.25500000920E-02 0.  1.
    10030    2    1    2    0    0  0.00000000000E+00  0.00000000000E+00 -0.29693508011E+03  0.40244649503E+04  0.40134956951E+04 0.  0.
        3    1    3    3  502    0  0.72522787910E+03  0.49819182841E+03  0.16600377865E+04  0.18787964332E+04  0.10100000352E+00 0. -1.
       -3    1    3    3    0  502 -0.72522787910E+03 -0.49819182841E+03 -0.19569728666E+04  0.21456685171E+04  0.10100000352E+00 0.  1.
</event>
<event>
 5   0  0.1819906E-07  0.4026581E+04  0.7818609E-02  0.7999206E-01
        2   -1    0    0  501    0  0.00000000000E+00  0.00000000000E+00  0.14050326539E+04  0.14050326539E+04  0.25500000920E-02 0. -1.
       -2   -1    0    0    0  501  0.00000000000E+00  0.00000000000E+00 -0.28848712246E+04  0.28848712246E+04  0.25500000920E-02 0.  1.
    10030    2    1    2    0    0  0.00000000000E+00  0.00000000000E+00 -0.14798385706E+04  0.42899038785E+04  0.40265808190E+04 0.  0.
        1    1    3    3  502    0 -0.98804089868E+03 -0.33557339873E+03 -0.25742902077E+04  0.27777336800E+04  0.50400001928E-02 0.  1.
       -1    1    3    3    0  502  0.98804089868E+03  0.33557339873E+03  0.10944516371E+04  0.15121701985E+04  0.50400001928E-02 0. -1.
</event>
<event>
 5   0  0.5515000E-08  0.3970550E+04  0.7818609E-02  0.8010514E-01
       -1   -1    0    0    0  501  0.00000000000E+00  0.00000000000E+00  0.16141327084E+04  0.16141327084E+04  0.50400001928E-02 0.  1.
        1   -1    0    0  501    0  0.00000000000E+00  0.00000000000E+00 -0.24417545685E+04  0.24417545685E+04  0.50400001928E-02 0. -1.
    10030    2    1    2    0    0  0.00000000000E+00  0.00000000000E+00 -0.82762186012E+03  0.40558872769E+04  0.39705495413E+04 0.  0.
        5    1    3    3  502    0  0.19330664553E+04 -0.43730375525E+03 -0.29594762768E+03  0.20038931068E+04  0.46999998093E+01 0. -1.
       -5    1    3    3    0  502 -0.19330664553E+04  0.43730375525E+03 -0.53167423244E+03  0.20519941702E+04  0.46999998093E+01 0.  1.
</event>
<event>
 5   0  0.5515000E-08  0.3928875E+04  0.7818609E-02  0.8019050E-01
        1   -1    0    0  501    0  0.00000000000E+00  0.00000000000E+00  0.13942333520E+04  0.13942333520E+04  0.50400001928E-02 0. -1.
       -1   -1    0    0    0  501  0.00000000000E+00  0.00000000000E+00 -0.27678403013E+04  0.27678403013E+04  0.50400001928E-02 0.  1.
    10030    2    1    2    0    0  0.00000000000E+00  0.00000000000E+00 -0.13736069493E+04  0.41620736533E+04  0.39288752900E+04 0.  0.
        3    1    3    3  502    0  0.65942994301E+03  0.13100317555E+04 -0.20712731327E+04  0.25379526099E+04  0.10100000352E+00 0.  1.
       -3    1    3    3    0  502 -0.65942994301E+03 -0.13100317555E+04  0.69766618333E+03  0.16241210434E+04  0.10100000352E+00 0. -1.
</event>
<event>
 5   0  0.1821433E-07  0.3919684E+04  0.7818609E-02  0.8020948E-01
       -2   -1    0    0    0  501  0.00000000000E+00  0.00000000000E+00  0.19169944125E+04  0.19169944125E+04  0.25500000920E-02 0. -1.
        2   -1    0    0  501    0  0.00000000000E+00  0.00000000000E+00 -0.20036472307E+04  0.20036472307E+04  0.25500000920E-02 0.  1.
    10030    2    1    2    0    0  0.00000000000E+00  0.00000000000E+00 -0.86652818185E+02  0.39206416433E+04  0.39196839393E+04 0.  0.
        5    1    3    3  502    0 -0.77393175349E+03  0.54588805211E+03  0.16729000127E+04  0.19223893120E+04  0.46999998093E+01 0. -1.
       -5    1    3    3    0  502  0.77393175349E+03 -0.54588805211E+03 -0.17595528309E+04  0.19982523312E+04  0.46999998093E+01 0.  1.
</event>
<event>
 5   0  0.5515000E-08  0.4127254E+04  0.7818609E-02  0.7979356E-01
       -1   -1    0    0    0  501  0.00000000000E+00  0.00000000000E+00  0.12292501508E+04  0.12292501508E+04  0.50400001928E-02 0. -1.
        1   -1    0    0  501    0  0.00000000000E+00  0.00000000000E+00 -0.34643536749E+04  0.34643536749E+04  0.50400001928E-02 0.  1.
    10030    2    1    2    0    0  0.00000000000E+00  0.00000000000E+00 -0.22351035241E+04  0.46936038258E+04  0.41272544275E+04 0.  0.
        4    1    3    3  502    0  0.12118128842E+04 -0.16630541814E+04 -0.94021811450E+03  0.22623552754E+04  0.12699999809E+01 0.  1.
       -4    1    3    3    0  502 -0.12118128842E+04  0.16630541814E+04 -0.12948854096E+04  0.24312485503E+04  0.12699999809E+01 0. -1.
</event>
<event>
 5   0  0.1819906E-07  0.3970090E+04  0.7818609E-02  0.8010608E-01
        2   -1    0    0  501    0  0.00000000000E+00  0.00000000000E+00  0.23207417706E+04  0.23207417706E+04  0.25500000920E-02 0.  1.
       -2   -1    0    0    0  501  0.00000000000E+00  0.00000000000E+00 -0.16979073109E+04  0.16979073109E+04  0.25500000920E-02 0. -1.
    10030    2    1    2    0    0  0.00000000000E+00  0.00000000000E+00  0.62283445965E+03  0.40186490815E+04  0.39700903864E+04 0.  0.
        1    1    3    3  502    0 -0.89162964643E+03 -0.10829391955E+04 -0.11102698406E+04  0.17889829084E+04  0.50400001928E-02 0. -1.
       -1    1    3    3    0  502  0.89162964643E+03  0.10829391955E+04  0.17331043003E+04  0.22296661731E+04  0.50400001928E-02 0.  1.
</event>
<event>
 5   0  0.1773903E-07  0.3770743E+04  0.7818609E-02  0.8052463E-01
        2   -1    0    0  501    0  0.00000000000E+00  0.00000000000E+00  0.19033162887E+04  0.19033162887E+04  0.25500000920E-02 0. -1.
       -2   -1    0    0    0  501  0.00000000000E+00  0.00000000000E+00 -0.18675956893E+04  0.18675956893E+04  0.25500000920E-02 0.  1.
    10030    2    1    2    0    0  0.00000000000E+00  0.00000000000E+00  0.35720599420E+02  0.37709119779E+04  0.37707427894E+04 0.  0.
        3    1    3    3  502    0  0.14195729749E+04  0.27476988425E+03 -0.11921276087E+04  0.18739941745E+04  0.10100000352E+00 0.  1.
       -3    1    3    3    0  502 -0.14195729749E+04 -0.27476988425E+03  0.12278482081E+04  0.18969178034E+04  0.10100000352E+00 0. -1.
</event>
<event>
 5   0  0.5515000E-08  0.3988923E+04  0.7818609E-02  0.8006785E-01
       -1   -1    0    0    0  501  0.00000000000E+00  0.00000000000E+00  0.15974429484E+04  0.15974429484E+04  0.50400001928E-02 0. -1.
        1   -1    0    0  501    0  0.00000000000E+00  0.00000000000E+00 -0.24901523583E+04  0.24901523583E+04  0.50400001928E-02 0.  1.
    10030    2    1    2    0    0  0.00000000000E+00  0.00000000000E+00 -0.89270940991E+03  0.40875953067E+04  0.39889228246E+04 0.  0.
        3    1    3    3  502    0 -0.12378217748E+03  0.15842331564E+04  0.78876523749E+03  0.17740539257E+04  0.10100000352E+00 0. -1.
       -3    1    3    3    0  502  0.12378217748E+03 -0.15842331564E+04 -0.16814746474E+04  0.23135413809E+04  0.10100000352E+00 0.  1.
</event>
<event>
 5   0  0.1773903E-07  0.3970803E+04  0.7818609E-02  0.8010463E-01
       -2   -1    0    0    0  501  0.00000000000E+00  0.00000000000E+00  0.13528182818E+04  0.13528182818E+04  0.25500000920E-02 0.  1.
        2   -1    0    0  501    0  0.00000000000E+00  0.00000000000E+00 -0.29137827349E+04  0.29137827349E+04  0.25500000920E-02 0. -1.
    10030    2    1    2    0    0  0.00000000000E+00  0.00000000000E+00 -0.15609644531E+04  0.42666010168E+04  0.39708027164E+04 0.  0.
        3    1    3    3  502    0  0.12782630257E+04  0.34839833694E+03 -0.23693090168E+04  0.27145833919E+04  0.10100000352E+00 0. -1.
       -3    1    3    3    0  502 -0.12782630257E+04 -0.34839833694E+03  0.80834456368E+03  0.15520176249E+04  0.10100000352E+00 0.  1.
</event>
<event>
 5   0  0.1819906E-07  0.4040028E+04  0.7818609E-02  0.7996520E-01
        2   -1    0    0  501    0  0.00000000000E+00  0.00000000000E+00  0.20587137820E+04  0.20587137820E+04  0.25500000920E-02 0. -1.
       -2   -1    0    0    0  501  0.00000000000E+00  0.00000000000E+00 -0.19820421735E+04  0.19820421735E+04  0.25500000920E-02 0.  1.
    10030    2    1    2    0    0  0.00000000000E+00  0.00000000000E+00  0.76671608545E+02  0.40407559555E+04  0.40400284845E+04 0.  0.
        1    1    3    3  502    0 -0.25773436834E+03  0.10281850706E+03 -0.19628890184E+04  0.19824055963E+04  0.50400001928E-02 0.  1.
       -1    1    3    3    0  502  0.25773436834E+03 -0.10281850706E+03  0.20395606269E+04  0.20583503591E+04  0.50400001928E-02 0. -1.
</event>
<event>
 5   0  0.5515000E-08  0.4051823E+04  0.7818609E-02  0.7994173E-01
       -1   -1    0    0    0  501  0.00000000000E+00  0.00000000000E+00  0.32106469669E+04  0.32106469669E+04  0.50400001928E-02 0.  1.
        1   -1    0    0  501    0  0.00000000000E+00  0.00000000000E+00 -0.12783460252E+04  0.12783460252E+04  0.50400001928E-02 0. -1.
    10030    2    1    2    0    0  0.00000000000E+00  0.00000000000E+00  0.19323009417E+04  0.44889929921E+04  0.40518231889E+04 0.  0.
        4    1    3    3  502    0 -0.26474320310E+03  0.13197092600E+04 -0.71134780338E+03  0.15224121665E+04  0.12699999809E+01 0. -1.
       -4    1    3    3    0  502  0.26474320310E+03 -0.13197092600E+04  0.26436487451E+04  0.29665808256E+04  0.12699999809E+01 0.  1.
</event>
<event>
 5   0  0.1776653E-07  0.4005004E+04  0.7818609E-02  0.8003538E-01
       -2   -1    0    0    0  501  0.00000000000E+00  0.00000000000E+00  0.20314278600E+04  0.20314278600E+04  0.25500000920E-02 0.  1.
        2   -1    0    0  501    0  0.00000000000E+00  0.00000000000E+00 -0.19739881795E+04  0.19739881795E+04  0.25500000920E-02 0. -1.
    10030    2    1    2    0    0  0.00000000000E+00  0.00000000000E+00  0.57439680560E+02  0.40054160395E+04  0.40050041614E+04 0.  0.
        4    1    3    3  502    0  0.15734932441E+04  0.11459421707E+04 -0.44138011689E+03  0.19959665499E+04  0.12699999809E+01 0. -1.
       -4    1    3    3    0  502 -0.15734932441E+04 -0.11459421707E+04  0.49881979745E+03  0.20094494896E+04  0.12699999809E+01 0.  1.
</event>
<event>
 5   0  0.1785559E-07  0.3985660E+04  0.7818609E-02  0.8007446E-01
       -2   -1    0    0    0  501  0.00000000000E+00  0.00000000000E+00  0.14812386477E+04  0.14812386477E+04  0.25500000920E-02 0.  1.
        2   -1    0    0  501    0  0.00000000000E+00  0.00000000000E+00 -0.26811155254E+04  0.26811155254E+04  0.25500000920E-02 0. -1.
    10030    2    1    2    0    0  0.00000000000E+00  0.00000000000E+00 -0.11998768777E+04  0.41623541732E+04  0.39856602641E+04 0.  0.
        2    1    3    3  502    0 -0.77093820847E+03 -0.29898971659E+03  0.12936269724E+04  0.15353212418E+04  0.25500000920E-02 0.  1.
       -2    1    3    3    0  502  0.77093820847E+03  0.29898971659E+03 -0.24935038501E+04  0.26270329313E+04  0.25500000920E-02 0. -1.
</event>
<event>
 5   0  0.5515000E-08  0.4082390E+04  0.7818609E-02  0.7988129E-01
       -1   -1    0    0    0  501  0.00000000000E+00  0.00000000000E+00  0.15234156119E+04  0.15234156119E+04  0.50400001928E-02 0. -1.
        1   -1    0    0  501    0  0.00000000000E+00  0.00000000000E+00 -0.27349580337E+04  0.27349580337E+04  0.50400001928E-02 0.  1.
    10030    2    1    2    0    0  0.00000000000E+00  0.00000000000E+00 -0.12115424218E+04  0.42583736456E+04  0.40823903617E+04 0.  0.
        3    1    3    3  502    0  0.72623041779E+02 -0.20308297288E+04 -0.40530372112E+03  0.20721521686E+04  0.10100000352E+00 0. -1.
       -3    1    3    3    0  502 -0.72623041779E+02  0.20308297288E+04 -0.80623870073E+03  0.21862214769E+04  0.10100000352E+00 0.  1.
</event>
<event>
 5   0  0.5515000E-08  0.4037719E+04  0.7818609E-02  0.7996980E-01
        1   -1    0    0  501    0  0.00000000000E+00  0.00000000000E+00  0.21894315473E+04  0.21894315473E+04  0.50400001928E-02 0.  1.
       -1   -1    0    0    0  501  0.00000000000E+00  0.00000000000E+00 -0.18615760092E+04  0.18615760092E+04  0.50400001928E-02 0. -1.
    10030    2    1    2    0    0  0.00000000000E+00  0.00000000000E+00  0.32785553808E+03  0.40510075565E+04  0.40377187828E+04 0.  0.
        4    1    3    3  502    0  0.13595946006E+04 -0.14542339095E+04  0.50043869454E+03  0.20527382302E+04  0.12699999809E+01 0. -1.
       -4    1    3    3    0  502 -0.13595946006E+04  0.14542339095E+04 -0.17258315646E+03  0.19982693263E+04  0.12699999809E+01 0.  1.
</event>
<event>
 5   0  0.5515000E-08  0.3981203E+04  0.7818609E-02  0.8008349E-01
       -3   -1    0    0    0  501  0.00000000000E+00  0.00000000000E+00  0.19459361294E+04  0.19459361321E+04  0.10100000352E+00 0.  1.
        3   -1    0    0  501    0  0.00000000000E+00  0.00000000000E+00 -0.20362916038E+04  0.20362916063E+04  0.10100000352E+00 0. -1.
    10030    2    1    2    0    0  0.00000000000E+00  0.00000000000E+00 -0.90355474385E+02  0.39822277384E+04  0.39812025380E+04 0.  0.
        1    1    3    3  502    0 -0.16256172595E+04 -0.10711454836E+04  0.37027159532E+03  0.19816874566E+04  0.50400001928E-02 0.  1.
       -1    1    3    3    0  502  0.16256172595E+04  0.10711454836E+04 -0.46062706970E+03  0.20005402817E+04  0.50400001928E-02 0. -1.
</event>
<event>
 5   0  0.5515000E-08  0.3980540E+04  0.7818609E-02  0.8008484E-01
       -1   -1    0    0    0  501  0.00000000000E+00  0.00000000000E+00  0.13790760557E+04  0.13790760557E+04  0.50400001928E-02 0. -1.
        1   -1    0    0  501    0  0.00000000000E+00  0.00000000000E+00 -0.28723398899E+04  0.28723398899E+04  0.50400001928E-02 0.  1.
    10030    2    1    2    0    0  0.00000000000E+00  0.00000000000E+00 -0.14932638342E+04  0.42514159457E+04  0.39805402478E+04 0.  0.
        4    1    3    3  502    0  0.12418270770E+04  0.67063816659E+03 -0.22454388737E+04  0.26521476935E+04  0.12699999809E+01 0.  1.
       -4    1    3    3    0  502 -0.12418270770E+04 -0.67063816659E+03  0.75217503944E+03  0.15992682522E+04  0.12699999809E+01 0. -1.
</event>
<event>
 5   0  0.5515000E-08  0.3762067E+04  0.7818609E-02  0.8054345E-01
       -1   -1    0    0    0  501  0.00000000000E+00  0.00000000000E+00  0.21031197183E+04  0.21031197183E+04  0.50400001928E-02 0.  1.
        1   -1    0    0  501    0  0.00000000000E+00  0.00000000000E+00 -0.16823988406E+04  0.16823988406E+04  0.50400001928E-02 0. -1.
    10030    2    1    2    0    0  0.00000000000E+00  0.00000000000E+00  0.42072087767E+03  0.37855185589E+04  0.37620665469E+04 0.  0.
        1    1    3    3  502    0  0.66266737619E+03  0.60437201811E+03  0.18741164209E+04  0.20776683919E+04  0.50400001928E-02 0.  1.
       -1    1    3    3    0  502 -0.66266737619E+03 -0.60437201811E+03 -0.14533955432E+04  0.17078501670E+04  0.50400001928E-02 0. -1.
</event>
<event>
 5   0  0.1821433E-07  0.3971529E+04  0.7818609E-02  0.8010315E-01
        2   -1    0    0  501    0  0.00000000000E+00  0.00000000000E+00  0.21117819822E+04  0.21117819822E+04  0.25500000920E-02 0.  1.
       -2   -1    0    0    0  501  0.00000000000E+00  0.00000000000E+00 -0.18672671575E+04  0.18672671575E+04  0.25500000920E-02 0. -1.
    10030    2    1    2    0    0  0.00000000000E+00  0.00000000000E+00  0.24451482467E+03  0.39790491397E+04  0.39715292466E+04 0.  0.
        5    1    3    3  502    0 -0.12921799672E+04  0.80202325737E+03 -0.11569799332E+04  0.19109147100E+04  0.46999998093E+01 0. -1.
       -5    1    3    3    0  502  0.12921799672E+04 -0.80202325737E+03  0.14014947579E+04  0.20681344297E+04  0.46999998093E+01 0.  1.
</event>
<event>
 5   0  0.5515000E-08  0.4036846E+04  0.7818609E-02  0.7997154E-01
        1   -1    0    0  501    0  0.00000000000E+00  0.00000000000E+00  0.12248559656E+04  0.12248559656E+04  0.50400001928E-02 0.  1.
       -1   -1    0    0    0  501  0.00000000000E+00  0.00000000000E+00 -0.33261313292E+04  0.33261313292E+04  0.50400001928E-02 0. -1.
    10030    2    1    2    0    0  0.00000000000E+00  0.00000000000E+00 -0.21012753637E+04  0.45509872948E+04  0.40368461952E+04 0.  0.
        4    1    3    3  502    0  0.95158499368E+03 -0.10640490990E+04 -0.26593781074E+04  0.30182789825E+04  0.12699999809E+01 0. -1.
       -4    1    3    3    0  502 -0.95158499368E+03  0.10640490990E+04  0.55810274370E+03  0.15327083123E+04  0.12699999809E+01 0.  1.
</event>
<event>
 5   0  0.5515000E-08  0.4001350E+04  0.7818609E-02  0.8004274E-01
       -1   -1    0    0    0  501  0.00000000000E+00  0.00000000000E+00  0.29539117620E+04  0.29539117620E+04  0.50400001928E-02 0. -1.
        1   -1    0    0  501    0  0.00000000000E+00  0.00000000000E+00 -0.13550509383E+04  0.13550509383E+04  0.50400001928E-02 0.  1.
    10030    2    1    2    0    0  0.00000000000E+00  0.00000000000E+00  0.15988608236E+04  0.43089627003E+04  0.40013502245E+04 0.  0.
        2    1    3    3  502    0  0.14089767069E+04  0.13457087364E+03  0.23221271977E+04  0.27194851356E+04  0.25500000920E-02 0. -1.
       -2    1    3    3    0  502 -0.14089767069E+04 -0.13457087364E+03 -0.72326637404E+03  0.15894775646E+04  0.25500000920E-02 0.  1.
</event>
<event>
 5   0  0.1773903E-07  0.3997982E+04  0.7818609E-02  0.8004954E-01
       -2   -1    0    0    0  501  0.00000000000E+00  0.00000000000E+00  0.15695886595E+04  0.15695886595E+04  0.25500000920E-02 0.  1.
        2   -1    0    0  501    0  0.00000000000E+00  0.00000000000E+00 -0.25458682353E+04  0.25458682353E+04  0.25500000920E-02 0. -1.
    10030    2    1    2    0    0  0.00000000000E+00  0.00000000000E+00 -0.97627957579E+03  0.41154568949E+04  0.39979824466E+04 0.  0.
        3    1    3    3  502    0  0.13869801851E+04 -0.27739729518E+03  0.96591764009E+03  0.17127930963E+04  0.10100000352E+00 0.  1.
       -3    1    3    3    0  502 -0.13869801851E+04  0.27739729518E+03 -0.19421972159E+04  0.24026637985E+04  0.10100000352E+00 0. -1.
</event>
<event>
 5   0  0.1773903E-07  0.4003691E+04  0.7818609E-02  0.8003802E-01
       -2   -1    0    0    0  501  0.00000000000E+00  0.00000000000E+00  0.18350645802E+04  0.18350645802E+04  0.25500000920E-02 0. -1.
        2   -1    0    0  501    0  0.00000000000E+00  0.00000000000E+00 -0.21837848456E+04  0.21837848456E+04  0.25500000920E-02 0.  1.
    10030    2    1    2    0    0  0.00000000000E+00  0.00000000000E+00 -0.34872026544E+03  0.40188494258E+04  0.40036914071E+04 0.  0.
        3    1    3    3  502    0  0.12796737544E+04 -0.12228147086E+04 -0.11130720663E+04  0.20908778454E+04  0.10100000352E+00 0.  1.
       -3    1    3    3    0  502 -0.12796737544E+04  0.12228147086E+04  0.76435180086E+03  0.19279715804E+04  0.10100000352E+00 0. -1.
</event>
<event>
 5   0  0.5515000E-08  0.4003936E+04  0.7818609E-02  0.8003753E-01
       -3   -1    0    0    0  501  0.00000000000E+00  0.00000000000E+00  0.16779780252E+04  0.16779780282E+04  0.10100000352E+00 0.  1.
        3   -1    0    0  501    0  0.00000000000E+00  0.00000000000E+00 -0.23885145822E+04  0.23885145843E+04  0.10100000352E+00 0. -1.
    10030    2    1    2    0    0  0.00000000000E+00  0.00000000000E+00 -0.71053655695E+03  0.40664926125E+04  0.40039355601E+04 0.  0.
        4    1    3    3  502    0  0.13779672914E+04  0.10536292175E+04 -0.13703562841E+04  0.22106122098E+04  0.12699999809E+01 0. -1.
       -4    1    3    3    0  502 -0.13779672914E+04 -0.10536292175E+04  0.65981972712E+03  0.18558804027E+04  0.12699999809E+01 0.  1.
</event>
<event>
 5   0  0.1821433E-07  0.3992701E+04  0.7818609E-02  0.8006021E-01
        2   -1    0    0  501    0  0.00000000000E+00  0.00000000000E+00  0.32163244345E+04  0.32163244345E+04  0.25500000920E-02 0.  1.
       -2   -1    0    0    0  501  0.00000000000E+00  0.00000000000E+00 -0.12391210435E+04  0.12391210435E+04  0.25500000920E-02 0. -1.
    10030    2    1    2    0    0  0.00000000000E+00  0.00000000000E+00  0.19772033910E+04  0.44554454780E+04  0.39927009853E+04 0.  0.
        5    1    3    3  502    0  0.14284789955E+04  0.99872241708E+03  0.20747516152E+04  0.27097260123E+04  0.46999998093E+01 0.  1.
       -5    1    3    3    0  502 -0.14284789955E+04 -0.99872241708E+03 -0.97548224241E+02  0.17457194657E+04  0.46999998093E+01 0. -1.
</event>
<event>
 5   0  0.1773903E-07  0.3729756E+04  0.7818609E-02  0.8061399E-01
       -2   -1    0    0    0  501  0.00000000000E+00  0.00000000000E+00  0.19723527511E+04  0.19723527511E+04  0.25500000920E-02 0. -1.
        2   -1    0    0  501    0  0.00000000000E+00  0.00000000000E+00 -0.17632593811E+04  0.17632593811E+04  0.25500000920E-02 0.  1.
    10030    2    1    2    0    0  0.00000000000E+00  0.00000000000E+00  0.20909336996E+03  0.37356121323E+04  0.37297557514E+04 0.  0.
        3    1    3    3  502    0 -0.51052642034E+03  0.55098831055E+03 -0.16050441686E+04  0.17721151592E+04  0.10100000352E+00 0.  1.
       -3    1    3    3    0  502  0.51052642034E+03 -0.55098831055E+03  0.18141375385E+04  0.19634969730E+04  0.10100000352E+00 0. -1.
</event>
<event>
 5   0  0.5515000E-08  0.4054774E+04  0.7818609E-02  0.7993587E-01
        1   -1    0    0  501    0  0.00000000000E+00  0.00000000000E+00  0.21675056710E+04  0.21675056710E+04  0.50400001928E-02 0.  1.
       -1   -1    0    0    0  501  0.00000000000E+00  0.00000000000E+00 -0.18963267621E+04  0.18963267621E+04  0.50400001928E-02 0. -1.
    10030    2    1    2    0    0  0.00000000000E+00  0.00000000000E+00  0.27117890894E+03  0.40638324331E+04  0.40547744751E+04 0.  0.
        3    1    3    3  502    0 -0.10656968874E+04  0.45095824390E+03  0.18040081416E+04  0.21432495372E+04  0.10100000352E+00 0.  1.
       -3    1    3    3    0  502  0.10656968874E+04 -0.45095824390E+03 -0.15328292326E+04  0.19205828959E+04  0.10100000352E+00 0. -1.
</event>
<event>
 5   0  0.5515000E-08  0.3972706E+04  0.7818609E-02  0.8010075E-01
       -1   -1    0    0    0  501  0.00000000000E+00  0.00000000000E+00  0.17049792711E+04  0.17049792711E+04  0.50400001928E-02 0. -1.
        1   -1    0    0  501    0  0.00000000000E+00  0.00000000000E+00 -0.23141621449E+04  0.23141621449E+04  0.50400001928E-02 0.  1.
    10030    2    1    2    0    0  0.00000000000E+00  0.00000000000E+00 -0.60918287381E+03  0.40191414160E+04  0.39727061241E+04 0.  0.
        5    1    3    3  502    0 -0.13355381523E+04  0.83061377980E+03  0.92284783220E+03  0.18235272465E+04  0.46999998093E+01 0. -1.
       -5    1    3    3    0  502  0.13355381523E+04 -0.83061377980E+03 -0.15320307060E+04  0.21956141695E+04  0.46999998093E+01 0.  1.
</event>
<event>
 5   0  0.5515000E-08  0.4095169E+04  0.7818609E-02  0.7985618E-01
       -1   -1    0    0    0  501  0.00000000000E+00  0.00000000000E+00  0.14000191809E+04  0.14000191809E+04  0.50400001928E-02 0. -1.
        1   -1    0    0  501    0  0.00000000000E+00  0.00000000000E+00 -0.29946749404E+04  0.29946749404E+04  0.50400001928E-02 0.  1.
    10030    2    1    2    0    0  0.00000000000E+00  0.00000000000E+00 -0.15946557596E+04  0.43946941213E+04  0.40951690353E+04 0.  0.
        4    1    3    3  502    0 -0.18342342445E+04  0.53814514562E+03 -0.97671351514E+01  0.19115732974E+04  0.12699999809E+01 0.  1.
       -4    1    3    3    0  502  0.18342342445E+04 -0.53814514562E+03 -0.15848886244E+04  0.24831208239E+04  0.12699999809E+01 0. -1.
</event>
<event>
 5   0  0.1819906E-07  0.3891682E+04  0.7818609E-02  0.8026761E-01
       -2   -1    0    0    0  501  0.00000000000E+00  0.00000000000E+00  0.14338292389E+04  0.14338292389E+04  0.25500000920E-02 0. -1.
        2   -1    0    0  501    0  0.00000000000E+00  0.00000000000E+00 -0.26406892605E+04  0.26406892605E+04  0.25500000920E-02 0.  1.
    10030    2    1    2    0    0  0.00000000000E+00  0.00000000000E+00 -0.12068600216E+04  0.40745184994E+04  0.38916821415E+04 0.  0.
        1    1    3    3  502    0  0.87288009376E+02  0.28544285716E+03  0.14097167793E+04  0.14409712763E+04  0.50400001928E-02 0. -1.
       -1    1    3    3    0  502 -0.87288009376E+02 -0.28544285716E+03 -0.26165768009E+04  0.26335472231E+04  0.50400001928E-02 0.  1.
</event>
<event>
 5   0  0.5515000E-08  0.3978916E+04  0.7818609E-02  0.8008813E-01
       -1   -1    0    0    0  501  0.00000000000E+00  0.00000000000E+00  0.27325345758E+04  0.27325345758E+04  0.50400001928E-02 0. -1.
        1   -1    0    0  501    0  0.00000000000E+00  0.00000000000E+00 -0.14484510135E+04  0.14484510135E+04  0.50400001928E-02 0.  1.
    10030    2    1    2    0    0  0.00000000000E+00  0.00000000000E+00  0.12840835624E+04  0.41809855893E+04  0.39789156692E+04 0.  0.
        2    1    3    3  502    0  0.10246849593E+04 -0.15376281769E+04  0.14168223935E+04  0.23284469869E+04  0.25500000920E-02 0. -1.
       -2    1    3    3    0  502 -0.10246849593E+04  0.15376281769E+04 -0.13273883117E+03  0.18525386024E+04  0.25500000920E-02 0.  1.
</event>
<event>
 5   0  0.1785559E-07  0.4002487E+04  0.7818609E-02  0.8004045E-01
        2   -1    0    0  501    0  0.00000000000E+00  0.00000000000E+00  0.22969705225E+04  0.22969705225E+04  0.25500000920E-02 0. -1.
       -2   -1    0    0    0  501  0.00000000000E+00  0.00000000000E+00 -0.17435903451E+04  0.17435903451E+04  0.25500000920E-02 0.  1.
    10030    2    1    2    0    0  0.00000000000E+00  0.00000000000E+00  0.55338017735E+03  0.40405608676E+04  0.40024870399E+04 0.  0.
        2    1    3    3  502    0  0.11043513702E+04  0.15175575909E+04 -0.42446897922E+03  0.19242522976E+04  0.25500000920E-02 0.  1.
       -2    1    3    3    0  502 -0.11043513702E+04 -0.15175575909E+04  0.97784915657E+03  0.21163085700E+04  0.25500000920E-02 0. -1.
</event>
<event>
 5   0  0.1773903E-07  0.3981504E+04  0.7818609E-02  0.8008288E-01
       -2   -1    0    0    0  501  0.00000000000E+00  0.00000000000E+00  0.19353840603E+04  0.19353840603E+04  0.25500000920E-02 0.  1.
        2   -1    0    0  501    0  0.00000000000E+00  0.00000000000E+00 -0.20477039929E+04  0.20477039929E+04  0.25500000920E-02 0. -1.
    10030    2    1    2    0    0  0.00000000000E+00  0.00000000000E+00 -0.11231993254E+03  0.39830880532E+04  0.39815040716E+04 0.  0.
        3    1    3    3  502    0  0.97233862132E+03  0.31917414175E+03 -0.17644045594E+04  0.20397151729E+04  0.10100000352E+00 0. -1.
       -3    1    3    3    0  502 -0.97233862132E+03 -0.31917414175E+03  0.16520846268E+04  0.19433728803E+04  0.10100000352E+00 0.  1.
</event>
<event>
 5   0  0.5515000E-08  0.3562863E+04  0.7818609E-02  0.8099052E-01
        1   -1    0    0  501    0  0.00000000000E+00  0.00000000000E+00  0.21847764500E+04  0.21847764500E+04  0.50400001928E-02 0.  1.
       -1   -1    0    0    0  501  0.00000000000E+00  0.00000000000E+00 -0.14525502753E+04  0.14525502753E+04  0.50400001928E-02 0. -1.
    10030    2    1    2    0    0  0.00000000000E+00  0.00000000000E+00  0.73222617466E+03  0.36373267253E+04  0.35628626883E+04 0.  0.
        4    1    3    3  502    0  0.90025823069E+03 -0.91756290330E+03  0.16252224746E+04  0.20721332651E+04  0.12699999809E+01 0.  1.
       -4    1    3    3    0  502 -0.90025823069E+03  0.91756290330E+03 -0.89299629990E+03  0.15651934602E+04  0.12699999809E+01 0. -1.
</event>
<event>
 5   0  0.5515000E-08  0.4003789E+04  0.7818609E-02  0.8003783E-01
        1   -1    0    0  501    0  0.00000000000E+00  0.00000000000E+00  0.20422820570E+04  0.20422820570E+04  0.50400001928E-02 0. -1.
       -1   -1    0    0    0  501  0.00000000000E+00  0.00000000000E+00 -0.19623053575E+04  0.19623053575E+04  0.50400001928E-02 0.  1.
    10030    2    1    2    0    0  0.00000000000E+00  0.00000000000E+00  0.79976699496E+02  0.40045874146E+04  0.40037887167E+04 0.  0.
        3    1    3    3  502    0  0.13160139964E+04 -0.14948490098E+04  0.24279618042E+03  0.20063440374E+04  0.10100000352E+00 0.  1.
       -3    1    3    3    0  502 -0.13160139964E+04  0.14948490098E+04 -0.16281948092E+03  0.19982433772E+04  0.10100000352E+00 0. -1.
</event>
<event>
 5   0  0.1773903E-07  0.3997130E+04  0.7818609E-02  0.8005126E-01
       -2   -1    0    0    0  501  0.00000000000E+00  0.00000000000E+00  0.19950489760E+04  0.19950489760E+04  0.25500000920E-02 0. -1.
        2   -1    0    0  501    0  0.00000000000E+00  0.00000000000E+00 -0.20020874288E+04  0.20020874288E+04  0.25500000920E-02 0.  1.
    10030    2    1    2    0    0  0.00000000000E+00  0.00000000000E+00 -0.70384528151E+01  0.39971364048E+04  0.39971302079E+04 0.  0.
        3    1    3    3  502    0 -0.12371235441E+04  0.35232189207E+03 -0.15331153627E+04  0.20012616282E+04  0.10100000352E+00 0.  1.
       -3    1    3    3    0  502  0.12371235441E+04 -0.35232189207E+03  0.15260769099E+04  0.19958747766E+04  0.10100000352E+00 0. -1.
</event>
<event>
 5   0  0.1821433E-07  0.4020910E+04  0.7818609E-02  0.8000342E-01
        2   -1    0    0  501    0  0.00000000000E+00  0.00000000000E+00  0.21968494030E+04  0.21968494030E+04  0.25500000920E-02 0. -1.
       -2   -1    0    0    0  501  0.00000000000E+00  0.00000000000E+00 -0.18398757051E+04  0.18398757051E+04  0.25500000920E-02 0.  1.
    10030    2    1    2    0    0  0.00000000000E+00  0.00000000000E+00  0.35697369788E+03  0.40367251081E+04  0.40209102673E+04 0.  0.
        5    1    3    3  502    0  0.56033965595E+02  0.19914638027E+04  0.44943698979E+03  0.20423230842E+04  0.46999998093E+01 0. -1.
       -5    1    3    3    0  502 -0.56033965595E+02 -0.19914638027E+04 -0.92463291905E+02  0.19944020239E+04  0.46999998093E+01 0.  1.
</event>
<event>
 5   0  0.5515000E-08  0.3960198E+04  0.7818609E-02  0.8012624E-01
        1   -1    0    0  501    0  0.00000000000E+00  0.00000000000E+00  0.32015478841E+04  0.32015478841E+04  0.50400001928E-02 0. -1.
       -1   -1    0    0    0  501  0.00000000000E+00  0.00000000000E+00 -0.12246552583E+04  0.12246552583E+04  0.50400001928E-02 0.  1.
    10030    2    1    2    0    0  0.00000000000E+00  0.00000000000E+00  0.19768926258E+04  0.44262031424E+04  0.39601982026E+04 0.  0.
        3    1    3    3  502    0 -0.13808733536E+03 -0.19078682821E+04  0.41661424683E+03  0.19577019526E+04  0.10100000352E+00 0.  1.
       -3    1    3    3    0  502  0.13808733536E+03  0.19078682821E+04  0.15602783790E+04  0.24685011898E+04  0.10100000352E+00 0. -1.
</event>
<event>
 5   0  0.5515000E-08  0.4011214E+04  0.7818609E-02  0.8002288E-01
       -1   -1    0    0    0  501  0.00000000000E+00  0.00000000000E+00  0.14056979543E+04  0.14056979543E+04  0.50400001928E-02 0. -1.
        1   -1    0    0  501    0  0.00000000000E+00  0.00000000000E+00 -0.28615388974E+04  0.28615388974E+04  0.50400001928E-02 0.  1.
    10030    2    1    2    0    0  0.00000000000E+00  0.00000000000E+00 -0.14558409431E+04  0.42672368516E+04  0.40112139679E+04 0.  0.
        4    1    3    3  502    0 -0.12426275414E+04  0.15740263170E+04 -0.69829126660E+03  0.21235099151E+04  0.12699999809E+01 0. -1.
       -4    1    3    3    0  502  0.12426275414E+04 -0.15740263170E+04 -0.75754967652E+03  0.21437269366E+04  0.12699999809E+01 0.  1.
</event>
<event>
 5   0  0.5515000E-08  0.3797995E+04  0.7818609E-02  0.8046585E-01
        1   -1    0    0  501    0  0.00000000000E+00  0.00000000000E+00  0.25165096647E+04  0.25165096647E+04  0.50400001928E-02 0.  1.
       -1   -1    0    0    0  501  0.00000000000E+00  0.00000000000E+00 -0.14330131150E+04  0.14330131150E+04  0.50400001928E-02 0. -1.
    10030    2    1    2    0    0  0.00000000000E+00  0.00000000000E+00  0.10834965498E+04  0.39495227797E+04  0.37979949202E+04 0.  0.
        2    1    3    3  502    0 -0.85278582945E+03 -0.16509757417E+04  0.94880748470E+03  0.20864324129E+04  0.25500000920E-02 0.  1.
       -2    1    3    3    0  502  0.85278582945E+03  0.16509757417E+04  0.13468906507E+03  0.18630903668E+04  0.25500000920E-02 0. -1.
</event>
<event>
 5   0  0.1776653E-07  0.3986317E+04  0.7818609E-02  0.8007313E-01
       -2   -1    0    0    0  501  0.00000000000E+00  0.00000000000E+00  0.15638237017E+04  0.15638237017E+04  0.25500000920E-02 0. -1.
        2   -1    0    0  501    0  0.00000000000E+00  0.00000000000E+00 -0.25403632735E+04  0.25403632735E+04  0.25500000920E-02 0.  1.
    10030    2    1    2    0    0  0.00000000000E+00  0.00000000000E+00 -0.97653957188E+03  0.41041869752E+04  0.39863167451E+04 0.  0.
        4    1    3    3  502    0  0.22837679473E+03 -0.18571257746E+04 -0.11953118673E+04  0.22203252411E+04  0.12699999809E+01 0.  1.
       -4    1    3    3    0  502 -0.22837679473E+03  0.18571257746E+04  0.21877229546E+03  0.18838617341E+04  0.12699999809E+01 0. -1.
</event>
<event>
 5   0  0.5515000E-08  0.3997630E+04  0.7818609E-02  0.8005025E-01
       -1   -1    0    0    0  501  0.00000000000E+00  0.00000000000E+00  0.15840218240E+04  0.15840218240E+04  0.50400001928E-02 0. -1.
        1   -1    0    0  501    0  0.00000000000E+00  0.00000000000E+00 -0.25222262712E+04  0.25222262712E+04  0.50400001928E-02 0.  1.
    10030    2    1    2    0    0  0.00000000000E+00  0.00000000000E+00 -0.93820444713E+03  0.41062480952E+04  0.39976300272E+04 0.  0.
        5    1    3    3  502    0  0.18451755875E+04  0.75149566530E+03 -0.63415638107E+03  0.20908359785E+04  0.46999998093E+01 0. -1.
       -5    1    3    3    0  502 -0.18451755875E+04 -0.75149566530E+03 -0.30404806606E+03  0.20154121167E+04  0.46999998093E+01 0.  1.
</event>
<event>
 5   0  0.1821433E-07  0.4111352E+04  0.7818609E-02  0.7982452E-01
        2   -1    0    0  501    0  0.00000000000E+00  0.00000000000E+00  0.23741194837E+04  0.23741194837E+04  0.25500000920E-02 0.  1.
       -2   -1    0    0    0  501  0.00000000000E+00  0.00000000000E+00 -0.17799457300E+04  0.17799457300E+04  0.25500000920E-02 0. -1.
    10030    2    1    2    0    0  0.00000000000E+00  0.00000000000E+00  0.59417375376E+03  0.41540652137E+04  0.41113520100E+04 0.  0.
        5    1    3    3  502    0 -0.30253178332E+02  0.28291529506E+03  0.23541222963E+04  0.23712592003E+04  0.46999998093E+01 0.  1.
       -5    1    3    3    0  502  0.30253178332E+02 -0.28291529506E+03 -0.17599485426E+04  0.17828060134E+04  0.46999998093E+01 0. -1.
</event>
<event>
 5   0  0.5515000E-08  0.4018500E+04  0.7818609E-02  0.8000825E-01
       -1   -1    0    0    0  501  0.00000000000E+00  0.00000000000E+00  0.33879256582E+04  0.33879256582E+04  0.50400001928E-02 0. -1.
        1   -1    0    0  501    0  0.00000000000E+00  0.00000000000E+00 -0.11916098519E+04  0.11916098519E+04  0.50400001928E-02 0.  1.
    10030    2    1    2    0    0  0.00000000000E+00  0.00000000000E+00  0.21963158063E+04  0.45795355101E+04  0.40185000146E+04 0.  0.
        2    1    3    3  502    0  0.37300774228E+03 -0.25091404147E+02 -0.11516247234E+04  0.12107864626E+04  0.25500000920E-02 0.  1.
       -2    1    3    3    0  502 -0.37300774228E+03  0.25091404147E+02  0.33479405298E+04  0.33687490475E+04  0.25500000920E-02 0. -1.
</event>
<event>
 5   0  0.1819906E-07  0.4027094E+04  0.7818609E-02  0.7999103E-01
        2   -1    0    0  501    0  0.00000000000E+00  0.00000000000E+00  0.12850772430E+04  0.12850772430E+04  0.25500000920E-02 0. -1.
       -2   -1    0    0    0  501  0.00000000000E+00  0.00000000000E+00 -0.31549632747E+04  0.31549632747E+04  0.25500000920E-02 0.  1.
    10030    2    1    2    0    0  0.00000000000E+00  0.00000000000E+00 -0.18698860317E+04  0.44400405177E+04  0.40270939928E+04 0.  0.
        1    1    3    3  502    0 -0.79704369000E+03 -0.17830734181E+04 -0.39510026595E+03  0.19926699873E+04  0.50400001928E-02 0. -1.
       -1    1    3    3    0  502  0.79704369000E+03  0.17830734181E+04 -0.14747857658E+04  0.24473705304E+04  0.50400001928E-02 0.  1.
</event>
<event>
 5   0  0.5515000E-08  0.4027087E+04  0.7818609E-02  0.7999104E-01
       -1   -1    0    0    0  501  0.00000000000E+00  0.00000000000E+00  0.22066785858E+04  0.22066785858E+04  0.50400001928E-02 0.  1.
        1   -1    0    0  501    0  0.00000000000E+00  0.00000000000E+00 -0.18373123075E+04  0.18373123075E+04  0.50400001928E-02 0. -1.
    10030    2    1    2    0    0  0.00000000000E+00  0.00000000000E+00  0.36936627836E+03  0.40439908933E+04  0.40270871480E+04 0.  0.
        5    1    3    3  502    0  0.18687997842E+03 -0.82638047066E+03  0.20189611074E+04  0.21895330214E+04  0.46999998093E+01 0.  1.
       -5    1    3    3    0  502 -0.18687997842E+03  0.82638047066E+03 -0.16495948291E+04  0.18544578719E+04  0.46999998093E+01 0. -1.
</event>
<event>
 5   0  0.5515000E-08  0.4037338E+04  0.7818609E-02  0.7997056E-01
       -1   -1    0    0    0  501  0.00000000000E+00  0.00000000000E+00  0.14986682205E+04  0.14986682205E+04  0.50400001928E-02 0.  1.
        1   -1    0    0  501    0  0.00000000000E+00  0.00000000000E+00 -0.27190976392E+04  0.27190976392E+04  0.50400001928E-02 0. -1.
    10030    2    1    2    0    0  0.00000000000E+00  0.00000000000E+00 -0.12204294187E+04  0.42177658597E+04  0.40373383412E+04 0.  0.
        2    1    3    3  502    0  0.14110711448E+04 -0.12244009190E+04 -0.14090751016E+04  0.23400367579E+04  0.25500000920E-02 0. -1.
       -2    1    3    3    0  502 -0.14110711448E+04  0.12244009190E+04  0.18864568293E+03  0.18777291019E+04  0.25500000920E-02 0.  1.
</event>
<event>
 5   0  0.1785559E-07  0.4018686E+04  0.7818609E-02  0.8000788E-01
       -2   -1    0    0    0  501  0.00000000000E+00  0.00000000000E+00  0.17918159253E+04  0.17918159253E+04  0.25500000920E-02 0.  1.
        2   -1    0    0  501    0  0.00000000000E+00  0.00000000000E+00 -0.22532775412E+04  0.22532775412E+04  0.25500000920E-02 0. -1.
    10030    2    1    2    0    0  0.00000000000E+00  0.00000000000E+00 -0.46146161587E+03  0.40450934665E+04  0.40186856471E+04 0.  0.
        2    1    3    3  502    0  0.76547694562E+03 -0.24985846363E+03 -0.20837720067E+04  0.22339404607E+04  0.25500000920E-02 0. -1.
       -2    1    3    3    0  502 -0.76547694562E+03  0.24985846363E+03  0.16223103909E+04  0.18111530058E+04  0.25500000920E-02 0.  1.
</event>
<event>
 5   0  0.1785559E-07  0.4024587E+04  0.7818609E-02  0.7999605E-01
        2   -1    0    0  501    0  0.00000000000E+00  0.00000000000E+00  0.14495376482E+04  0.14495376482E+04  0.25500000920E-02 0.  1.
       -2   -1    0    0    0  501  0.00000000000E+00  0.00000000000E+00 -0.27935293309E+04  0.27935293309E+04  0.25500000920E-02 0. -1.
    10030    2    1    2    0    0  0.00000000000E+00  0.00000000000E+00 -0.13439916827E+04  0.42430669792E+04  0.40245874008E+04 0.  0.
        2    1    3    3  502    0  0.13402175614E+04 -0.30155283221E+03  0.87827411545E+03  0.16304854015E+04  0.25500000920E-02 0.  1.
       -2    1    3    3    0  502 -0.13402175614E+04  0.30155283221E+03 -0.22222657981E+04  0.26125815777E+04  0.25500000920E-02 0. -1.
</event>
<event>
 5   0  0.1776653E-07  0.3978461E+04  0.7818609E-02  0.8008906E-01
       -2   -1    0    0    0  501  0.00000000000E+00  0.00000000000E+00  0.17258147915E+04  0.17258147915E+04  0.25500000920E-02 0.  1.
        2   -1    0    0  501    0  0.00000000000E+00  0.00000000000E+00 -0.22928515488E+04  0.22928515488E+04  0.25500000920E-02 0. -1.
    10030    2    1    2    0    0  0.00000000000E+00  0.00000000000E+00 -0.56703675734E+03  0.40186663403E+04  0.39784605654E+04 0.  0.
        4    1    3    3  502    0  0.82171392539E+03  0.59889411741E+03  0.14434813191E+04  0.17656522507E+04  0.12699999809E+01 0.  1.
       -4    1    3    3    0  502 -0.82171392539E+03 -0.59889411741E+03 -0.20105180764E+04  0.22530140895E+04  0.12699999809E+01 0. -1.
</event>
<event>
 5   0  0.1785559E-07  0.4004862E+04  0.7818609E-02  0.8003566E-01
       -2   -1    0    0    0  501  0.00000000000E+00  0.00000000000E+00  0.28775481628E+04  0.28775481628E+04  0.25500000920E-02 0.  1.
        2   -1    0    0  501    0  0.00000000000E+00  0.00000000000E+00 -0.13934537682E+04  0.13934537682E+04  0.25500000920E-02 0. -1.
    10030    2    1    2    0    0  0.00000000000E+00  0.00000000000E+00  0.14840943946E+04  0.42710019310E+04  0.40048622102E+04 0.  0.
        2    1    3    3  502    0  0.11104397612E+04 -0.28092932369E+03 -0.10095798310E+04  0.15268428810E+04  0.25500000920E-02 0. -1.
       -2    1    3    3    0  502 -0.11104397612E+04  0.28092932369E+03  0.24936742256E+04  0.27441590500E+04  0.25500000920E-02 0.  1.
</event>
<event>
 5   0  0.1785559E-07  0.4028485E+04  0.7818609E-02  0.7998825E-01
        2   -1    0    0  501    0  0.00000000000E+00  0.00000000000E+00  0.21533776254E+04  0.21533776254E+04  0.25500000920E-02 0.  1.
       -2   -1    0    0    0  501  0.00000000000E+00  0.00000000000E+00 -0.18840974584E+04  0.18840974584E+04  0.25500000920E-02 0. -1.
    10030    2    1    2    0    0  0.00000000000E+00  0.00000000000E+00  0.26928016695E+03  0.40374750838E+04  0.40284852295E+04 0.  0.
        2    1    3    3  502    0  0.19936956716E+04 -0.16396388116E+03 -0.10139923112E+03  0.20029948550E+04  0.25500000920E-02 0.  1.
       -2    1    3    3    0  502 -0.19936956716E+04  0.16396388116E+03  0.37067939807E+03  0.20344802288E+04  0.25500000920E-02 0. -1.
</event>
<event>
 5   0  0.1773903E-07  0.4067068E+04  0.7818609E-02  0.7991152E-01
        2   -1    0    0  501    0  0.00000000000E+00  0.00000000000E+00  0.23240404570E+04  0.23240404570E+04  0.25500000920E-02 0. -1.
       -2   -1    0    0    0  501  0.00000000000E+00  0.00000000000E+00 -0.17793412634E+04  0.17793412634E+04  0.25500000920E-02 0.  1.
    10030    2    1    2    0    0  0.00000000000E+00  0.00000000000E+00  0.54469919360E+03  0.41033817204E+04  0.40670682724E+04 0.  0.
        3    1    3    3  502    0 -0.10520459116E+04  0.12670484717E+04  0.14759167571E+04  0.22114571472E+04  0.10100000352E+00 0. -1.
       -3    1    3    3    0  502  0.10520459116E+04 -0.12670484717E+04 -0.93121756355E+03  0.18919245732E+04  0.10100000352E+00 0.  1.
</event>
<event>
 5   0  0.5515000E-08  0.3990815E+04  0.7818609E-02  0.8006402E-01
        1   -1    0    0  501    0  0.00000000000E+00  0.00000000000E+00  0.18548791876E+04  0.18548791876E+04  0.50400001928E-02 0.  1.
       -1   -1    0    0    0  501  0.00000000000E+00  0.00000000000E+00 -0.21465828070E+04  0.21465828070E+04  0.50400001928E-02 0. -1.
    10030    2    1    2    0    0  0.00000000000E+00  0.00000000000E+00 -0.29170361942E+03  0.40014619946E+04  0.39908153418E+04 0.  0.
        4    1    3    3  502    0 -0.13456032513E+04 -0.12868278963E+04  0.57375079559E+03  0.19482724997E+04  0.12699999809E+01 0.  1.
       -4    1    3    3    0  502  0.13456032513E+04  0.12868278963E+04 -0.86545441501E+03  0.20531894949E+04  0.12699999809E+01 0. -1.
</event>
<event>
 5   0  0.5515000E-08  0.3940463E+04  0.7818609E-02  0.8016666E-01
        1   -1    0    0  501    0  0.00000000000E+00  0.00000000000E+00  0.12630731848E+04  0.12630731848E+04  0.50400001928E-02 0.  1.
       -1   -1    0    0    0  501  0.00000000000E+00  0.00000000000E+00 -0.30733073437E+04  0.30733073437E+04  0.50400001928E-02 0. -1.
    10030    2    1    2    0    0  0.00000000000E+00  0.00000000000E+00 -0.18102341589E+04  0.43363805285E+04  0.39404629649E+04 0.  0.
        1    1    3    3  502    0  0.14643265355E+04  0.13165011028E+04 -0.83224654262E+03  0.21377702552E+04  0.50400001928E-02 0.  1.
       -1    1    3    3    0  502 -0.14643265355E+04 -0.13165011028E+04 -0.97798761628E+03  0.21986102733E+04  0.50400001928E-02 0. -1.
</event>
<event>
 5   0  0.5515000E-08  0.3764350E+04  0.7818609E-02  0.8053849E-01
        1   -1    0    0  501    0  0.00000000000E+00  0.00000000000E+00  0.15847498942E+04  0.15847498942E+04  0.50400001928E-02 0.  1.
       -1   -1    0    0    0  501  0.00000000000E+00  0.00000000000E+00 -0.22354204808E+04  0.22354204808E+04  0.50400001928E-02 0. -1.
    10030    2    1    2    0    0  0.00000000000E+00  0.00000000000E+00 -0.65067058660E+03  0.38201703751E+04  0.37643498087E+04 0.  0.
        3    1    3    3  502    0 -0.35182213087E+01  0.16334932485E+03  0.15775394912E+04  0.15859780063E+04  0.10100000352E+00 0.  1.
       -3    1    3    3    0  502  0.35182213087E+01 -0.16334932485E+03 -0.22282100778E+04  0.22341923688E+04  0.10100000352E+00 0. -1.
</event>
<event>
 5   0  0.5515000E-08  0.4016446E+04  0.7818609E-02  0.8001237E-01
       -1   -1    0    0    0  501  0.00000000000E+00  0.00000000000E+00  0.24726738942E+04  0.24726738942E+04  0.50400001928E-02 0. -1.
        1   -1    0    0  501    0  0.00000000000E+00  0.00000000000E+00 -0.16310112256E+04  0.16310112256E+04  0.50400001928E-02 0.  1.
    10030    2    1    2    0    0  0.00000000000E+00  0.00000000000E+00  0.84166266861E+03  0.41036851198E+04  0.40164456320E+04 0.  0.
        2    1    3    3  502    0  0.75331978095E+03 -0.18262698901E+04  0.52152311444E+02  0.19762267753E+04  0.25500000920E-02 0. -1.
       -2    1    3    3    0  502 -0.75331978095E+03  0.18262698901E+04  0.78951035716E+03  0.21274583446E+04  0.25500000920E-02 0.  1.
</event>
<event>
 5   0  0.5515000E-08  0.3833755E+04  0.7818609E-02  0.8038950E-01
       -1   -1    0    0    0  501  0.00000000000E+00  0.00000000000E+00  0.22081130867E+04  0.22081130867E+04  0.50400001928E-02 0. -1.
        1   -1    0    0  501    0  0.00000000000E+00  0.00000000000E+00 -0.16640535970E+04  0.16640535970E+04  0.50400001928E-02 0.  1.
    10030    2    1    2    0    0  0.00000000000E+00  0.00000000000E+00  0.54405948969E+03  0.38721666837E+04  0.38337545693E+04 0.  0.
        3    1    3    3  502    0 -0.17753894258E+04  0.15290587857E+03 -0.44146925124E+03  0.18358330346E+04  0.10100000352E+00 0. -1.
       -3    1    3    3    0  502  0.17753894258E+04 -0.15290587857E+03  0.98552874093E+03  0.20363336491E+04  0.10100000352E+00 0.  1.
</event>
<event>
 5   0  0.1776653E-07  0.4003734E+04  0.7818609E-02  0.8003794E-01
       -2   -1    0    0    0  501  0.00000000000E+00  0.00000000000E+00  0.14462184717E+04  0.14462184717E+04  0.25500000920E-02 0. -1.
        2   -1    0    0  501    0  0.00000000000E+00  0.00000000000E+00 -0.27710002703E+04  0.27710002703E+04  0.25500000920E-02 0.  1.
    10030    2    1    2    0    0  0.00000000000E+00  0.00000000000E+00 -0.13247817986E+04  0.42172187420E+04  0.40037341451E+04 0.  0.
        4    1    3    3  502    0 -0.15775662928E+04  0.10590191514E+04  0.14800448921E+01  0.19000633607E+04  0.12699999809E+01 0. -1.
       -4    1    3    3    0  502  0.15775662928E+04 -0.10590191514E+04 -0.13262618435E+04  0.23171553814E+04  0.12699999809E+01 0.  1.
</event>
<event>
 5   0  0.1776653E-07  0.3983209E+04  0.7818609E-02  0.8007943E-01
       -2   -1    0    0    0  501  0.00000000000E+00  0.00000000000E+00  0.23781943830E+04  0.23781943830E+04  0.25500000920E-02 0. -1.
        2   -1    0    0  501    0  0.00000000000E+00  0.00000000000E+00 -0.16678567377E+04  0.16678567377E+04  0.25500000920E-02 0.  1.
    10030    2    1    2    0    0  0.00000000000E+00  0.00000000000E+00  0.71033764537E+03  0.40460511207E+04  0.39832085184E+04 0.  0.
        4    1    3    3  502    0  0.11454137343E+04 -0.49697967019E+03  0.19312685034E+04  0.22997306495E+04  0.12699999809E+01 0. -1.
       -4    1    3    3    0  502 -0.11454137343E+04  0.49697967019E+03 -0.12209308580E+04  0.17463204712E+04  0.12699999809E+01 0.  1.
</event>
<event>
 5   0  0.1785559E-07  0.4057860E+04  0.7818609E-02  0.7992975E-01
        2   -1    0    0  501    0  0.00000000000E+00  0.00000000000E+00  0.15378975517E+04  0.15378975517E+04  0.25500000920E-02 0.  1.
       -2   -1    0    0    0  501  0.00000000000E+00  0.00000000000E+00 -0.26767435093E+04  0.26767435093E+04  0.25500000920E-02 0. -1.
    10030    2    1    2    0    0  0.00000000000E+00  0.00000000000E+00 -0.11388459576E+04  0.42146410610E+04  0.40578601698E+04 0.  0.
        2    1    3    3  502    0 -0.24560766612E+03  0.45183847826E+03 -0.26079240712E+04  0.26581476816E+04  0.25500000920E-02 0. -1.
       -2    1    3    3    0  502  0.24560766612E+03 -0.45183847826E+03  0.14690781136E+04  0.15564933794E+04  0.25500000920E-02 0.  1.
</event>
<event>
 5   0  0.5515000E-08  0.4035748E+04  0.7818609E-02  0.7997374E-01
        1   -1    0    0  501    0  0.00000000000E+00  0.00000000000E+00  0.14053011563E+04  0.14053011563E+04  0.50400001928E-02 0. -1.
       -1   -1    0    0    0  501  0.00000000000E+00  0.00000000000E+00 -0.28974682305E+04  0.28974682305E+04  0.50400001928E-02 0.  1.
    10030    2    1    2    0    0  0.00000000000E+00  0.00000000000E+00 -0.14921670742E+04  0.43027693867E+04  0.40357479874E+04 0.  0.
        1    1    3    3  502    0  0.85464270772E+03  0.11541774297E+04  0.76519252497E+03  0.16272858684E+04  0.50400001928E-02 0. -1.
       -1    1    3    3    0  502 -0.85464270772E+03 -0.11541774297E+04 -0.22573595992E+04  0.26754835184E+04  0.50400001928E-02 0.  1.
</event>
<event>
 5   0  0.5515000E-08  0.4011901E+04  0.7818609E-02  0.8002150E-01
       -1   -1    0    0    0  501  0.00000000000E+00  0.00000000000E+00  0.14378063981E+04  0.14378063981E+04  0.50400001928E-02 0.  1.
        1   -1    0    0  501    0  0.00000000000E+00  0.00000000000E+00 -0.27985944250E+04  0.27985944250E+04  0.50400001928E-02 0. -1.
    10030    2    1    2    0    0  0.00000000000E+00  0.00000000000E+00 -0.13607880268E+04  0.42364008231E+04  0.40119007814E+04 0.  0.
        3    1    3    3  502    0 -0.13573229080E+04  0.14348866748E+04 -0.31064004721E+03  0.19994305427E+04  0.10100000352E+00 0. -1.
       -3    1    3    3    0  502  0.13573229080E+04 -0.14348866748E+04 -0.10501479796E+04  0.22369702804E+04  0.10100000352E+00 0.  1.
</event>
<event>
 5   0  0.5515000E-08  0.3928174E+04  0.7818609E-02  0.8019195E-01
       -1   -1    0    0    0  501  0.00000000000E+00  0.00000000000E+00  0.13717038605E+04  0.13717038605E+04  0.50400001928E-02 0. -1.
        1   -1    0    0  501    0  0.00000000000E+00  0.00000000000E+00 -0.28122963890E+04  0.28122963890E+04  0.50400001928E-02 0.  1.
    10030    2    1    2    0    0  0.00000000000E+00  0.00000000000E+00 -0.14405925285E+04  0.41840002495E+04  0.39281740357E+04 0.  0.
        4    1    3    3  502    0 -0.43232631680E+03  0.12089796890E+04 -0.23033968100E+04  0.26370772476E+04  0.12699999809E+01 0.  1.
       -4    1    3    3    0  502  0.43232631680E+03 -0.12089796890E+04  0.86280428149E+03  0.15469230019E+04  0.12699999809E+01 0. -1.
</event>
<event>
 5   0  0.5515000E-08  0.4026681E+04  0.7818609E-02  0.7999186E-01
       -1   -1    0    0    0  501  0.00000000000E+00  0.00000000000E+00  0.26789540525E+04  0.26789540525E+04  0.50400001928E-02 0. -1.
        1   -1    0    0  501    0  0.00000000000E+00  0.00000000000E+00 -0.15131057558E+04  0.15131057558E+04  0.50400001928E-02 0.  1.
    10030    2    1    2    0    0  0.00000000000E+00  0.00000000000E+00  0.11658482967E+04  0.41920598084E+04  0.40266814110E+04 0.  0.
        4    1    3    3  502    0  0.21310180502E+03 -0.92940794140E+03  0.24289768700E+04  0.26094332237E+04  0.12699999809E+01 0. -1.
       -4    1    3    3    0  502 -0.21310180502E+03  0.92940794140E+03 -0.12631285733E+04  0.15826265847E+04  0.12699999809E+01 0.  1.
</event>
<event>
 5   0  0.1819906E-07  0.3942109E+04  0.7818609E-02  0.8016328E-01
       -2   -1    0    0    0  501  0.00000000000E+00  0.00000000000E+00  0.17895812672E+04  0.17895812672E+04  0.25500000920E-02 0. -1.
        2   -1    0    0  501    0  0.00000000000E+00  0.00000000000E+00 -0.21709303776E+04  0.21709303776E+04  0.25500000920E-02 0.  1.
    10030    2    1    2    0    0  0.00000000000E+00  0.00000000000E+00 -0.38134911041E+03  0.39605116448E+04  0.39421092507E+04 0.  0.
        1    1    3    3  502    0 -0.18219689175E+04  0.42025063222E+03  0.43583493485E+03  0.19199305770E+04  0.50400001928E-02 0.  1.
       -1    1    3    3    0  502  0.18219689175E+04 -0.42025063222E+03 -0.81718404526E+03  0.20405810678E+04  0.50400001928E-02 0. -1.
</event>
<event>
 5   0  0.1785559E-07  0.3964467E+04  0.7818609E-02  0.8011753E-01
       -2   -1    0    0    0  501  0.00000000000E+00  0.00000000000E+00  0.17301084633E+04  0.17301084634E+04  0.25500000920E-02 0. -1.
        2   -1    0    0  501    0  0.00000000000E+00  0.00000000000E+00 -0.22711005990E+04  0.22711005991E+04  0.25500000920E-02 0.  1.
    10030    2    1    2    0    0  0.00000000000E+00  0.00000000000E+00 -0.54099213570E+03  0.40012090624E+04  0.39644673627E+04 0.  0.
        2    1    3    3  502    0 -0.57657212672E+03  0.18873361297E+04 -0.82281070808E+02  0.19751565150E+04  0.25500000920E-02 0.  1.
       -2    1    3    3    0  502  0.57657212672E+03 -0.18873361297E+04 -0.45871106489E+03  0.20260525474E+04  0.25500000920E-02 0. -1.
</event>
<event>
 5   0  0.1773903E-07  0.3961725E+04  0.7818609E-02  0.8012313E-01
        2   -1    0    0  501    0  0.00000000000E+00  0.00000000000E+00  0.12955234889E+04  0.12955234889E+04  0.25500000920E-02 0.  1.
       -2   -1    0    0    0  501  0.00000000000E+00  0.00000000000E+00 -0.30287502497E+04  0.30287502497E+04  0.25500000920E-02 0. -1.
    10030    2    1    2    0    0  0.00000000000E+00  0.00000000000E+00 -0.17332267608E+04  0.43242737387E+04  0.39617254274E+04 0.  0.
        3    1    3    3  502    0  0.59534214245E+03 -0.10352145380E+04 -0.25916578888E+04  0.28535577844E+04  0.10100000352E+00 0. -1.
       -3    1    3    3    0  502 -0.59534214245E+03  0.10352145380E+04  0.85843112800E+03  0.14707159542E+04  0.10100000352E+00 0.  1.
</event>
<event>
 5   0  0.1821433E-07  0.3996408E+04  0.7818609E-02  0.8005271E-01
        2   -1    0    0  501    0  0.00000000000E+00  0.00000000000E+00  0.21403444262E+04  0.21403444262E+04  0.25500000920E-02 0. -1.
       -2   -1    0    0    0  501  0.00000000000E+00  0.00000000000E+00 -0.18655034426E+04  0.18655034426E+04  0.25500000920E-02 0.  1.
    10030    2    1    2    0    0  0.00000000000E+00  0.00000000000E+00  0.27484098361E+03  0.40058478688E+04  0.39964083352E+04 0.  0.
        5    1    3    3  502    0 -0.11203750776E+04 -0.10370658654E+02 -0.15210115839E+04  0.18891390085E+04  0.46999998093E+01 0.  1.
       -5    1    3    3    0  502  0.11203750776E+04  0.10370658654E+02  0.17958525675E+04  0.21167088603E+04  0.46999998093E+01 0. -1.
</event>
<event>
 5   0  0.5515000E-08  0.4020310E+04  0.7818609E-02  0.8000462E-01
       -1   -1    0    0    0  501  0.00000000000E+00  0.00000000000E+00  0.14959618291E+04  0.14959618291E+04  0.50400001928E-02 0. -1.
        1   -1    0    0  501    0  0.00000000000E+00  0.00000000000E+00 -0.27010866046E+04  0.27010866047E+04  0.50400001928E-02 0.  1.
    10030    2    1    2    0    0  0.00000000000E+00  0.00000000000E+00 -0.12051247756E+04  0.41970484337E+04  0.40203096684E+04 0.  0.
        5    1    3    3  502    0  0.19247783332E+04  0.40779780487E+03 -0.17259511179E+03  0.19750650228E+04  0.46999998093E+01 0. -1.
       -5    1    3    3    0  502 -0.19247783332E+04 -0.40779780487E+03 -0.10325296638E+04  0.22219834109E+04  0.46999998093E+01 0.  1.
</event>
<event>
 5   0  0.5515000E-08  0.3930067E+04  0.7818609E-02  0.8018805E-01
        1   -1    0    0  501    0  0.00000000000E+00  0.00000000000E+00  0.26514894160E+04  0.26514894160E+04  0.50400001928E-02 0. -1.
       -1   -1    0    0    0  501  0.00000000000E+00  0.00000000000E+00 -0.14562970710E+04  0.14562970711E+04  0.50400001928E-02 0.  1.
    10030    2    1    2    0    0  0.00000000000E+00  0.00000000000E+00  0.11951923449E+04  0.41077864870E+04  0.39300668037E+04 0.  0.
        2    1    3    3  502    0 -0.42968413557E+03 -0.12920264069E+03 -0.14020378545E+04  0.14720842110E+04  0.25500000920E-02 0.  1.
       -2    1    3    3    0  502  0.42968413557E+03  0.12920264069E+03  0.25972301995E+04  0.26357022760E+04  0.25500000920E-02 0. -1.
</event>
<event>
 5   0  0.5515000E-08  0.4025266E+04  0.7818609E-02  0.7999469E-01
       -1   -1    0    0    0  501  0.00000000000E+00  0.00000000000E+00  0.31943212342E+04  0.31943212342E+04  0.50400001928E-02 0.  1.
        1   -1    0    0  501    0  0.00000000000E+00  0.00000000000E+00 -0.12680912369E+04  0.12680912369E+04  0.50400001928E-02 0. -1.
    10030    2    1    2    0    0  0.00000000000E+00  0.00000000000E+00  0.19262299973E+04  0.44624124711E+04  0.40252655888E+04 0.  0.
        5    1    3    3  502    0 -0.36492061688E+03 -0.19693486976E+04  0.11825152544E+04  0.23259118139E+04  0.46999998093E+01 0. -1.
       -5    1    3    3    0  502  0.36492061688E+03  0.19693486976E+04  0.74371474288E+03  0.21365006572E+04  0.46999998093E+01 0.  1.
</event>
<event>
 5   0  0.1785559E-07  0.3851323E+04  0.7818609E-02  0.8035230E-01
        2   -1    0    0  501    0  0.00000000000E+00  0.00000000000E+00  0.24154279147E+04  0.24154279147E+04  0.25500000920E-02 0. -1.
       -2   -1    0    0    0  501  0.00000000000E+00  0.00000000000E+00 -0.15352030714E+04  0.15352030714E+04  0.25500000920E-02 0.  1.
    10030    2    1    2    0    0  0.00000000000E+00  0.00000000000E+00  0.88022484338E+03  0.39506309861E+04  0.38513230731E+04 0.  0.
        2    1    3    3  502    0 -0.18297658140E+04 -0.26821710940E+03  0.99078723763E+03  0.20980092236E+04  0.25500000920E-02 0. -1.
       -2    1    3    3    0  502  0.18297658140E+04  0.26821710940E+03 -0.11056239425E+03  0.18526217625E+04  0.25500000920E-02 0.  1.
</event>
<event>
 5   0  0.1819906E-07  0.3969215E+04  0.7818609E-02  0.8010786E-01
       -2   -1    0    0    0  501  0.00000000000E+00  0.00000000000E+00  0.19331621448E+04  0.19331621448E+04  0.25500000920E-02 0. -1.
        2   -1    0    0  501    0  0.00000000000E+00  0.00000000000E+00 -0.20374223394E+04  0.20374223394E+04  0.25500000920E-02 0.  1.
    10030    2    1    2    0    0  0.00000000000E+00  0.00000000000E+00 -0.10426019460E+03  0.39705844842E+04  0.39692154084E+04 0.  0.
        1    1    3    3  502    0 -0.55141094963E+03 -0.10304237019E+04 -0.16566910564E+04  0.20274250411E+04  0.50400001928E-02 0.  1.
       -1    1    3    3    0  502  0.55141094963E+03  0.10304237019E+04  0.15524308618E+04  0.19431594431E+04  0.50400001928E-02 0. -1.
</event>
<event>
 5   0  0.1819906E-07  0.3675613E+04  0.7818609E-02  0.8073388E-01
        2   -1    0    0  501    0  0.00000000000E+00  0.00000000000E+00  0.26031363430E+04  0.26031363430E+04  0.25500000920E-02 0.  1.
       -2   -1    0    0    0  501  0.00000000000E+00  0.00000000000E+00 -0.12974860342E+04  0.12974860342E+04  0.25500000920E-02 0. -1.
    10030    2    1    2    0    0  0.00000000000E+00  0.00000000000E+00  0.13056503088E+04  0.39006223772E+04  0.36756131734E+04 0.  0.
        1    1    3    3  502    0  0.56658279013E+03 -0.11581454338E+04  0.20426610902E+04  0.24155291828E+04  0.50400001928E-02 0.  1.
       -1    1    3    3    0  502 -0.56658279013E+03  0.11581454338E+04 -0.73701078142E+03  0.14850931943E+04  0.50400001928E-02 0. -1.
</event>
<event>
 5   0  0.1773903E-07  0.3894763E+04  0.7818609E-02  0.8026119E-01
        2   -1    0    0  501    0  0.00000000000E+00  0.00000000000E+00  0.12525837292E+04  0.12525837292E+04  0.25500000920E-02 0.  1.
       -2   -1    0    0    0  501  0.00000000000E+00  0.00000000000E+00 -0.30275781788E+04  0.30275781788E+04  0.25500000920E-02 0. -1.
    10030    2    1    2    0    0  0.00000000000E+00  0.00000000000E+00 -0.17749944496E+04  0.42801619080E+04  0.38947632357E+04 0.  0.
        3    1    3    3  502    0 -0.66857379462E+03 -0.26383196347E+02  0.11222977614E+04  0.13066136642E+04  0.10100000352E+00 0.  1.
       -3    1    3    3    0  502  0.66857379462E+03  0.26383196347E+02 -0.28972922110E+04  0.29735482438E+04  0.10100000352E+00 0. -1.
</event>
<event>
 5   0  0.5515000E-08  0.3983939E+04  0.7818609E-02  0.8007795E-01
        1   -1    0    0  501    0  0.00000000000E+00  0.00000000000E+00  0.14195386579E+04  0.14195386580E+04  0.50400001928E-02 0. -1.
       -1   -1    0    0    0  501  0.00000000000E+00  0.00000000000E+00 -0.27952332107E+04  0.27952332107E+04  0.50400001928E-02 0.  1.
    10030    2    1    2    0    0  0.00000000000E+00  0.00000000000E+00 -0.13756945528E+04  0.42147718687E+04  0.39839385541E+04 0.  0.
        4    1    3    3  502    0  0.14492591423E+03  0.10463641805E+04 -0.24745020888E+04  0.26905471041E+04  0.12699999809E+01 0.  1.
       -4    1    3    3    0  502 -0.14492591423E+03 -0.10463641805E+04  0.10988075361E+04  0.15242247646E+04  0.12699999809E+01 0. -1.
</event>
<event>
 5   0  0.1773903E-07  0.3995327E+04  0.7818609E-02  0.8005490E-01
       -2   -1    0    0    0  501  0.00000000000E+00  0.00000000000E+00  0.18473805666E+04  0.18473805666E+04  0.25500000920E-02 0. -1.
        2   -1    0    0  501    0  0.00000000000E+00  0.00000000000E+00 -0.21601718134E+04  0.21601718134E+04  0.25500000920E-02 0.  1.
    10030    2    1    2    0    0  0.00000000000E+00  0.00000000000E+00 -0.31279124681E+03  0.40075523800E+04  0.39953269846E+04 0.  0.
        3    1    3    3  502    0  0.16435497882E+04 -0.39503915046E+03 -0.12242411681E+04  0.20871220100E+04  0.10100000352E+00 0.  1.
       -3    1    3    3    0  502 -0.16435497882E+04  0.39503915046E+03  0.91144992134E+03  0.19204303700E+04  0.10100000352E+00 0. -1.
</event>
<event>
 5   0  0.5515000E-08  0.4067914E+04  0.7818609E-02  0.7990985E-01
        1   -1    0    0  501    0  0.00000000000E+00  0.00000000000E+00  0.17900998890E+04  0.17900998890E+04  0.50400001928E-02 0.  1.
       -1   -1    0    0    0  501  0.00000000000E+00  0.00000000000E+00 -0.23110337654E+04  0.23110337655E+04  0.50400001928E-02 0. -1.
    10030    2    1    2    0    0  0.00000000000E+00  0.00000000000E+00 -0.52093387640E+03  0.41011336545E+04  0.40679141029E+04 0.  0.
        2    1    3    3  502    0  0.27963063417E+03 -0.19186978776E+04 -0.87980147742E+03  0.21292358904E+04  0.25500000920E-02 0.  1.
       -2    1    3    3    0  502 -0.27963063417E+03  0.19186978776E+04  0.35886760101E+03  0.19718977641E+04  0.25500000920E-02 0. -1.
</event>
<event>
 5   0  0.5515000E-08  0.3841933E+04  0.7818609E-02  0.8037216E-01
       -1   -1    0    0    0  501  0.00000000000E+00  0.00000000000E+00  0.13806902528E+04  0.13806902528E+04  0.50400001928E-02 0. -1.
        1   -1    0    0  501    0  0.00000000000E+00  0.00000000000E+00 -0.26726569338E+04  0.26726569338E+04  0.50400001928E-02 0.  1.
    10030    2    1    2    0    0  0.00000000000E+00  0.00000000000E+00 -0.12919666809E+04  0.40533471866E+04  0.38419325229E+04 0.  0.
        2    1    3    3  502    0 -0.13134338781E+04 -0.13744124861E+04 -0.93682142592E+03  0.21193755255E+04  0.25500000920E-02 0.  1.
       -2    1    3    3    0  502  0.13134338781E+04  0.13744124861E+04 -0.35514525501E+03  0.19339716611E+04  0.25500000920E-02 0. -1.
</event>
<event>
 5   0  0.1773903E-07  0.3284779E+04  0.7818609E-02  0.8166779E-01
        2   -1    0    0  501    0  0.00000000000E+00  0.00000000000E+00  0.22921138348E+04  0.22921138348E+04  0.25500000920E-02 0.  1.
       -2   -1    0    0    0  501  0.00000000000E+00  0.00000000000E+00 -0.11768363441E+04  0.11768363441E+04  0.25500000920E-02 0. -1.
    10030    2    1    2    0    0  0.00000000000E+00  0.00000000000E+00  0.11152774907E+04  0.34689501788E+04  0.32847787539E+04 0.  0.
        3    1    3    3  502    0  0.11907051482E+04 -0.88156922201E+03  0.13062561011E+04  0.19751577291E+04  0.10100000352E+00 0.  1.
       -3    1    3    3    0  502 -0.11907051482E+04  0.88156922201E+03 -0.19097861032E+03  0.14937924497E+04  0.10100000352E+00 0. -1.
</event>
<event>
 5   0  0.5515000E-08  0.4121124E+04  0.7818609E-02  0.7980548E-01
       -1   -1    0    0    0  501  0.00000000000E+00  0.00000000000E+00  0.17297364490E+04  0.17297364490E+04  0.50400001928E-02 0.  1.
        1   -1    0    0  501    0  0.00000000000E+00  0.00000000000E+00 -0.24546600387E+04  0.24546600388E+04  0.50400001928E-02 0. -1.
    10030    2    1    2    0    0  0.00000000000E+00  0.00000000000E+00 -0.72492358975E+03  0.41843964878E+04  0.41211236036E+04 0.  0.
        2    1    3    3  502    0  0.14128001409E+04 -0.53599325161E+03  0.10599833023E+04  0.18457674840E+04  0.25500000920E-02 0.  1.
       -2    1    3    3    0  502 -0.14128001409E+04  0.53599325161E+03 -0.17849068921E+04  0.23386290038E+04  0.25500000920E-02 0. -1.
</event>
<event>
 5   0  0.5515000E-08  0.4065444E+04  0.7818609E-02  0.7991473E-01
       -1   -1    0    0    0  501  0.00000000000E+00  0.00000000000E+00  0.14497832480E+04  0.14497832481E+04  0.50400001928E-02 0. -1.
        1   -1    0    0  501    0  0.00000000000E+00  0.00000000000E+00 -0.28500531070E+04  0.28500531070E+04  0.50400001928E-02 0.  1.
    10030    2    1    2    0    0  0.00000000000E+00  0.00000000000E+00 -0.14002698590E+04  0.42998363551E+04  0.40654442565E+04 0.  0.
        2    1    3    3  502    0 -0.24027243230E+03  0.10649108895E+04 -0.25136946089E+04  0.27405157600E+04  0.25500000920E-02 0.  1.
       -2    1    3    3    0  502  0.24027243230E+03 -0.10649108895E+04  0.11134247499E+04  0.15593205950E+04  0.25500000920E-02 0. -1.
</event>
<event>
 5   0  0.1785559E-07  0.4201152E+04  0.7818609E-02  0.7965153E-01
        2   -1    0    0  501    0  0.00000000000E+00  0.00000000000E+00  0.19571295396E+04  0.19571295396E+04  0.25500000920E-02 0.  1.
       -2   -1    0    0    0  501  0.00000000000E+00  0.00000000000E+00 -0.22545367146E+04  0.22545367146E+04  0.25500000920E-02 0. -1.
    10030    2    1    2    0    0  0.00000000000E+00  0.00000000000E+00 -0.29740717492E+03  0.42116662542E+04  0.42011524144E+04 0.  0.
        2    1    3    3  502    0  0.25614298565E+03 -0.17600337348E+04  0.97172143344E+03  0.20267142179E+04  0.25500000920E-02 0.  1.
       -2    1    3    3    0  502 -0.25614298565E+03  0.17600337348E+04 -0.12691286084E+04  0.21849520364E+04  0.25500000920E-02 0. -1.
</event>
<event>
 5   0  0.1785559E-07  0.3999942E+04  0.7818609E-02  0.8004558E-01
       -2   -1    0    0    0  501  0.00000000000E+00  0.00000000000E+00  0.12013079321E+04  0.12013079321E+04  0.25500000920E-02 0.  1.
        2   -1    0    0  501    0  0.00000000000E+00  0.00000000000E+00 -0.33296080942E+04  0.33296080942E+04  0.25500000920E-02 0. -1.
    10030    2    1    2    0    0  0.00000000000E+00  0.00000000000E+00 -0.21283001621E+04  0.45309160262E+04  0.39999423067E+04 0.  0.
        2    1    3    3  502    0  0.18777163983E+04 -0.56349809406E+03 -0.61598408457E+03  0.20549416942E+04  0.25500000920E-02 0. -1.
       -2    1    3    3    0  502 -0.18777163983E+04  0.56349809406E+03 -0.15123160776E+04  0.24759743320E+04  0.25500000920E-02 0.  1.
</event>
<event>
 5   0  0.5515000E-08  0.3998546E+04  0.7818609E-02  0.8004840E-01
        1   -1    0    0  501    0  0.00000000000E+00  0.00000000000E+00  0.21546788409E+04  0.21546788409E+04  0.50400001928E-02 0.  1.
       -1   -1    0    0    0  501  0.00000000000E+00  0.00000000000E+00 -0.18550761554E+04  0.18550761555E+04  0.50400001928E-02 0. -1.
    10030    2    1    2    0    0  0.00000000000E+00  0.00000000000E+00  0.29960268549E+03  0.40097549964E+04  0.39985464061E+04 0.  0.
        3    1    3    3  502    0  0.74552799225E+03 -0.11921390165E+04 -0.12754800523E+04  0.18983826790E+04  0.10100000352E+00 0. -1.
       -3    1    3    3    0  502 -0.74552799225E+03  0.11921390165E+04  0.15750827378E+04  0.21113723174E+04  0.10100000352E+00 0.  1.
</event>
<event>
 5   0  0.1776653E-07  0.3987618E+04  0.7818609E-02  0.8007049E-01
        2   -1    0    0  501    0  0.00000000000E+00  0.00000000000E+00  0.27266380973E+04  0.27266380973E+04  0.25500000920E-02 0.  1.
       -2   -1    0    0    0  501  0.00000000000E+00  0.00000000000E+00 -0.14579400716E+04  0.14579400716E+04  0.25500000920E-02 0. -1.
    10030    2    1    2    0    0  0.00000000000E+00  0.00000000000E+00  0.12686980257E+04  0.41845781690E+04  0.39876183082E+04 0.  0.
        4    1    3    3  502    0 -0.14855400751E+04  0.27160805031E+03  0.20004445400E+04  0.25064676775E+04  0.12699999809E+01 0.  1.
       -4    1    3    3    0  502  0.14855400751E+04 -0.27160805031E+03 -0.73174651432E+03  0.16781104915E+04  0.12699999809E+01 0. -1.
</event>
<event>
 5   0  0.5515000E-08  0.3516688E+04  0.7818609E-02  0.8109846E-01
       -1   -1    0    0    0  501  0.00000000000E+00  0.00000000000E+00  0.18374904841E+04  0.18374904841E+04  0.50400001928E-02 0.  1.
        1   -1    0    0  501    0  0.00000000000E+00  0.00000000000E+00 -0.16826065929E+04  0.16826065929E+04  0.50400001928E-02 0. -1.
    10030    2    1    2    0    0  0.00000000000E+00  0.00000000000E+00  0.15488389116E+03  0.35200970770E+04  0.35166879890E+04 0.  0.
        1    1    3    3  502    0  0.21739329684E+03 -0.89170787089E+03 -0.14238022178E+04  0.16939939575E+04  0.50400001928E-02 0. -1.
       -1    1    3    3    0  502 -0.21739329684E+03  0.89170787089E+03  0.15786861090E+04  0.18261031196E+04  0.50400001928E-02 0.  1.
</event>
<event>
 5   0  0.1785559E-07  0.3993914E+04  0.7818609E-02  0.8005775E-01
        2   -1    0    0  501    0  0.00000000000E+00  0.00000000000E+00  0.22849019237E+04  0.22849019237E+04  0.25500000920E-02 0. -1.
       -2   -1    0    0    0  501  0.00000000000E+00  0.00000000000E+00 -0.17452993922E+04  0.17452993922E+04  0.25500000920E-02 0.  1.
    10030    2    1    2    0    0  0.00000000000E+00  0.00000000000E+00  0.53960253144E+03  0.40302013159E+04  0.39939143399E+04 0.  0.
        2    1    3    3  502    0  0.13138555222E+03 -0.15901758170E+04  0.14815095364E+04  0.21773359407E+04  0.25500000920E-02 0. -1.
       -2    1    3    3    0  502 -0.13138555222E+03  0.15901758170E+04 -0.94190700494E+03  0.18528653751E+04  0.25500000920E-02 0.  1.
</event>
<event>
 5   0  0.5515000E-08  0.4041750E+04  0.7818609E-02  0.7996177E-01
       -1   -1    0    0    0  501  0.00000000000E+00  0.00000000000E+00  0.29240624792E+04  0.29240624792E+04  0.50400001928E-02 0. -1.
        1   -1    0    0  501    0  0.00000000000E+00  0.00000000000E+00 -0.13966648429E+04  0.13966648429E+04  0.50400001928E-02 0.  1.
    10030    2    1    2    0    0  0.00000000000E+00  0.00000000000E+00  0.15273976362E+04  0.43207273221E+04  0.40417497514E+04 0.  0.
        5    1    3    3  502    0  0.64072157345E+03  0.10288055503E+04  0.24923962317E+04  0.27714664098E+04  0.46999998093E+01 0. -1.
       -5    1    3    3    0  502 -0.64072157345E+03 -0.10288055503E+04 -0.96499859547E+03  0.15492609123E+04  0.46999998093E+01 0.  1.
</event>
<event>
 5   0  0.1819906E-07  0.4010928E+04  0.7818609E-02  0.8002346E-01
       -2   -1    0    0    0  501  0.00000000000E+00  0.00000000000E+00  0.17550849234E+04  0.17550849234E+04  0.25500000920E-02 0.  1.
        2   -1    0    0  501    0  0.00000000000E+00  0.00000000000E+00 -0.22915618616E+04  0.22915618616E+04  0.25500000920E-02 0. -1.
    10030    2    1    2    0    0  0.00000000000E+00  0.00000000000E+00 -0.53647693812E+03  0.40466467850E+04  0.40109279098E+04 0.  0.
        1    1    3    3  502    0 -0.15144848581E+04  0.90058683084E+03 -0.12344541813E+04  0.21514177072E+04  0.50400001928E-02 0.  1.
       -1    1    3    3    0  502  0.15144848581E+04 -0.90058683084E+03  0.69797724317E+03  0.18952290778E+04  0.50400001928E-02 0. -1.
</event>
<event>
 5   0  0.5515000E-08  0.3977187E+04  0.7818609E-02  0.8009165E-01
       -1   -1    0    0    0  501  0.00000000000E+00  0.00000000000E+00  0.16632554499E+04  0.16632554499E+04  0.50400001928E-02 0. -1.
        1   -1    0    0  501    0  0.00000000000E+00  0.00000000000E+00 -0.23775686938E+04  0.23775686938E+04  0.50400001928E-02 0.  1.
    10030    2    1    2    0    0  0.00000000000E+00  0.00000000000E+00 -0.71431324387E+03  0.40408241437E+04  0.39771869896E+04 0.  0.
        2    1    3    3  502    0  0.33078283719E+03  0.52854748216E+03  0.15613699756E+04  0.16812661678E+04  0.25500000920E-02 0. -1.
       -2    1    3    3    0  502 -0.33078283719E+03 -0.52854748216E+03 -0.22756832195E+04  0.23595579759E+04  0.25500000920E-02 0.  1.
</event>
<event>
 5   0  0.5515000E-08  0.4042615E+04  0.7818609E-02  0.7996005E-01
       -1   -1    0    0    0  501  0.00000000000E+00  0.00000000000E+00  0.23392000156E+04  0.23392000156E+04  0.50400001928E-02 0. -1.
        1   -1    0    0  501    0  0.00000000000E+00  0.00000000000E+00 -0.17466158173E+04  0.17466158173E+04  0.50400001928E-02 0.  1.
    10030    2    1    2    0    0  0.00000000000E+00  0.00000000000E+00  0.59258419829E+03  0.40858158328E+04  0.40426148701E+04 0.  0.
        3    1    3    3  502    0  0.88562435877E+03 -0.63635711933E+03 -0.14237770276E+04  0.17934385751E+04  0.10100000352E+00 0.  1.
       -3    1    3    3    0  502 -0.88562435877E+03  0.63635711933E+03  0.20163612259E+04  0.22923772577E+04  0.10100000352E+00 0. -1.
</event>
<event>
 5   0  0.5515000E-08  0.3410309E+04  0.7818609E-02  0.8135381E-01
       -1   -1    0    0    0  501  0.00000000000E+00  0.00000000000E+00  0.16992488666E+04  0.16992488666E+04  0.50400001928E-02 0.  1.
        1   -1    0    0  501    0  0.00000000000E+00  0.00000000000E+00 -0.17110810698E+04  0.17110810699E+04  0.50400001928E-02 0. -1.
    10030    2    1    2    0    0  0.00000000000E+00  0.00000000000E+00 -0.11832203251E+02  0.34103299365E+04  0.34103094104E+04 0.  0.
        4    1    3    3  502    0  0.16090504489E+04 -0.54832384688E+03 -0.13951543678E+03  0.17056284936E+04  0.12699999809E+01 0. -1.
       -4    1    3    3    0  502 -0.16090504489E+04  0.54832384688E+03  0.12768323353E+03  0.17047014428E+04  0.12699999809E+01 0.  1.
</event>
<event>
 5   0  0.5515000E-08  0.4015813E+04  0.7818609E-02  0.8001364E-01
        1   -1    0    0  501    0  0.00000000000E+00  0.00000000000E+00  0.20930220344E+04  0.20930220344E+04  0.50400001928E-02 0.  1.
       -1   -1    0    0    0  501  0.00000000000E+00  0.00000000000E+00 -0.19262523086E+04  0.19262523086E+04  0.50400001928E-02 0. -1.
    10030    2    1    2    0    0  0.00000000000E+00  0.00000000000E+00  0.16676972587E+03  0.40192743430E+04  0.40158130065E+04 0.  0.
        1    1    3    3  502    0  0.58268244730E+03  0.94584466872E+02  0.20042116494E+04  0.20893370699E+04  0.50400001928E-02 0.  1.
       -1    1    3    3    0  502 -0.58268244730E+03 -0.94584466872E+02 -0.18374419236E+04  0.19299372731E+04  0.50400001928E-02 0. -1.
</event>
<event>
 5   0  0.1785559E-07  0.3931880E+04  0.7818609E-02  0.8018431E-01
        2   -1    0    0  501    0  0.00000000000E+00  0.00000000000E+00  0.14394676991E+04  0.14394676991E+04  0.25500000920E-02 0. -1.
       -2   -1    0    0    0  501  0.00000000000E+00  0.00000000000E+00 -0.26849647099E+04  0.26849647099E+04  0.25500000920E-02 0.  1.
    10030    2    1    2    0    0  0.00000000000E+00  0.00000000000E+00 -0.12454970108E+04  0.41244324090E+04  0.39318799439E+04 0.  0.
        2    1    3    3  502    0 -0.16464654805E+04  0.10737217423E+04 -0.65898005066E+03  0.20731574146E+04  0.25500000920E-02 0.  1.
       -2    1    3    3    0  502  0.16464654805E+04 -0.10737217423E+04 -0.58651696013E+03  0.20512749945E+04  0.25500000920E-02 0. -1.
</event>
<event>
 5   0  0.1785559E-07  0.3962309E+04  0.7818609E-02  0.8012193E-01
        2   -1    0    0  501    0  0.00000000000E+00  0.00000000000E+00  0.27264942282E+04  0.27264942283E+04  0.25500000920E-02 0. -1.
       -2   -1    0    0    0  501  0.00000000000E+00  0.00000000000E+00 -0.14395677975E+04  0.14395677975E+04  0.25500000920E-02 0.  1.
    10030    2    1    2    0    0  0.00000000000E+00  0.00000000000E+00  0.12869264307E+04  0.41660620258E+04  0.39623090698E+04 0.  0.
        2    1    3    3  502    0  0.18720035234E+03  0.13207709319E+04  0.21835350592E+04  0.25587702479E+04  0.25500000920E-02 0. -1.
       -2    1    3    3    0  502 -0.18720035234E+03 -0.13207709319E+04 -0.89660862850E+03  0.16072917779E+04  0.25500000920E-02 0.  1.
</event>
<event>
 5   0  0.1776653E-07  0.3990397E+04  0.7818609E-02  0.8006487E-01
       -2   -1    0    0    0  501  0.00000000000E+00  0.00000000000E+00  0.16809314903E+04  0.16809314903E+04  0.25500000920E-02 0. -1.
        2   -1    0    0  501    0  0.00000000000E+00  0.00000000000E+00 -0.23682209267E+04  0.23682209267E+04  0.25500000920E-02 0.  1.
    10030    2    1    2    0    0  0.00000000000E+00  0.00000000000E+00 -0.68728943643E+03  0.40491524170E+04  0.39903970388E+04 0.  0.
        4    1    3    3  502    0  0.58482608241E+03  0.13523592514E+04 -0.17087857364E+04  0.22562906278E+04  0.12699999809E+01 0.  1.
       -4    1    3    3    0  502 -0.58482608241E+03 -0.13523592514E+04  0.10214963000E+04  0.17928617892E+04  0.12699999809E+01 0. -1.
</event>
<event>
 5   0  0.1821433E-07  0.3998966E+04  0.7818609E-02  0.8004755E-01
       -2   -1    0    0    0  501  0.00000000000E+00  0.00000000000E+00  0.22202530721E+04  0.22202530721E+04  0.25500000920E-02 0.  1.
        2   -1    0    0  501    0  0.00000000000E+00  0.00000000000E+00 -0.18006654564E+04  0.18006654564E+04  0.25500000920E-02 0. -1.
    10030    2    1    2    0    0  0.00000000000E+00  0.00000000000E+00  0.41958761569E+03  0.40209185284E+04  0.39989663721E+04 0.  0.
        5    1    3    3  502    0 -0.22569852062E+03  0.10060796724E+04 -0.15127287239E+04  0.18307119958E+04  0.46999998093E+01 0. -1.
       -5    1    3    3    0  502  0.22569852062E+03 -0.10060796724E+04  0.19323163396E+04  0.21902065327E+04  0.46999998093E+01 0.  1.
</event>
<event>
 5   0  0.1785559E-07  0.4003641E+04  0.7818609E-02  0.8003813E-01
       -2   -1    0    0    0  501  0.00000000000E+00  0.00000000000E+00  0.18988217803E+04  0.18988217803E+04  0.25500000920E-02 0. -1.
        2   -1    0    0  501    0  0.00000000000E+00  0.00000000000E+00 -0.21104058903E+04  0.21104058903E+04  0.25500000920E-02 0.  1.
    10030    2    1    2    0    0  0.00000000000E+00  0.00000000000E+00 -0.21158411000E+03  0.40092276707E+04  0.40036406781E+04 0.  0.
        2    1    3    3  502    0 -0.18951081731E+04  0.66780016982E+01  0.53993729229E+03  0.19705359329E+04  0.25500000920E-02 0. -1.
       -2    1    3    3    0  502  0.18951081731E+04 -0.66780016982E+01 -0.75152140229E+03  0.20386917377E+04  0.25500000920E-02 0.  1.
</event>
<event>
 5   0  0.1819906E-07  0.3991583E+04  0.7818609E-02  0.8006247E-01
       -2   -1    0    0    0  501  0.00000000000E+00  0.00000000000E+00  0.26639027046E+04  0.26639027046E+04  0.25500000920E-02 0. -1.
        2   -1    0    0  501    0  0.00000000000E+00  0.00000000000E+00 -0.14952439799E+04  0.14952439799E+04  0.25500000920E-02 0.  1.
    10030    2    1    2    0    0  0.00000000000E+00  0.00000000000E+00  0.11686587247E+04  0.41591466844E+04  0.39915833860E+04 0.  0.
        1    1    3    3  502    0 -0.17443493979E+04 -0.36388021917E+01 -0.42613065218E+03  0.17956490179E+04  0.50400001928E-02 0.  1.
       -1    1    3    3    0  502  0.17443493979E+04  0.36388021917E+01  0.15947893769E+04  0.23634976665E+04  0.50400001928E-02 0. -1.
</event>
<event>
 5   0  0.1776653E-07  0.3996592E+04  0.7818609E-02  0.8005234E-01
       -2   -1    0    0    0  501  0.00000000000E+00  0.00000000000E+00  0.12663368494E+04  0.12663368494E+04  0.25500000920E-02 0.  1.
        2   -1    0    0  501    0  0.00000000000E+00  0.00000000000E+00 -0.31533377059E+04  0.31533377059E+04  0.25500000920E-02 0. -1.
    10030    2    1    2    0    0  0.00000000000E+00  0.00000000000E+00 -0.18870008566E+04  0.44196745553E+04  0.39965924163E+04 0.  0.
        4    1    3    3  502    0  0.16275764075E+04  0.30004687649E+03  0.29494164382E+03  0.16810786051E+04  0.12699999809E+01 0.  1.
       -4    1    3    3    0  502 -0.16275764075E+04 -0.30004687649E+03 -0.21819425004E+04  0.27385959502E+04  0.12699999809E+01 0. -1.
</event>
<event>
 5   0  0.1776653E-07  0.4012831E+04  0.7818609E-02  0.8001963E-01
       -2   -1    0    0    0  501  0.00000000000E+00  0.00000000000E+00  0.15253211218E+04  0.15253211218E+04  0.25500000920E-02 0.  1.
        2   -1    0    0  501    0  0.00000000000E+00  0.00000000000E+00 -0.26392496802E+04  0.26392496802E+04  0.25500000920E-02 0. -1.
    10030    2    1    2    0    0  0.00000000000E+00  0.00000000000E+00 -0.11139285585E+04  0.41645708020E+04  0.40128310619E+04 0.  0.
        4    1    3    3  502    0 -0.15369577687E+04  0.82923060152E+03  0.46823544422E+03  0.18080676474E+04  0.12699999809E+01 0.  1.
       -4    1    3    3    0  502  0.15369577687E+04 -0.82923060152E+03 -0.15821640027E+04  0.23565031546E+04  0.12699999809E+01 0. -1.
</event>
<event>
 5   0  0.1821433E-07  0.3978648E+04  0.7818609E-02  0.8008868E-01
        2   -1    0    0  501    0  0.00000000000E+00  0.00000000000E+00  0.19480406197E+04  0.19480406197E+04  0.25500000920E-02 0.  1.
       -2   -1    0    0    0  501  0.00000000000E+00  0.00000000000E+00 -0.20314825817E+04  0.20314825817E+04  0.25500000920E-02 0. -1.
    10030    2    1    2    0    0  0.00000000000E+00  0.00000000000E+00 -0.83441961995E+02  0.39795232014E+04  0.39786483068E+04 0.  0.
        5    1    3    3  502    0  0.13600594989E+04 -0.54505899596E+03 -0.13875789603E+04  0.20179813207E+04  0.46999998093E+01 0. -1.
       -5    1    3    3    0  502 -0.13600594989E+04  0.54505899596E+03  0.13041369983E+04  0.19615418807E+04  0.46999998093E+01 0.  1.
</event>
<event>
 5   0  0.5515000E-08  0.4012882E+04  0.7818609E-02  0.8001953E-01
       -1   -1    0    0    0  501  0.00000000000E+00  0.00000000000E+00  0.19497593122E+04  0.19497593123E+04  0.50400001928E-02 0.  1.
        1   -1    0    0  501    0  0.00000000000E+00  0.00000000000E+00 -0.20647706110E+04  0.20647706110E+04  0.50400001928E-02 0. -1.
    10030    2    1    2    0    0  0.00000000000E+00  0.00000000000E+00 -0.11501129876E+03  0.40145299233E+04  0.40128821196E+04 0.  0.
        4    1    3    3  502    0  0.11759496355E+03  0.43593441443E+03  0.18982745430E+04  0.19512342870E+04  0.12699999809E+01 0.  1.
       -4    1    3    3    0  502 -0.11759496355E+03 -0.43593441443E+03 -0.20132858418E+04  0.20632956363E+04  0.12699999809E+01 0. -1.
</event>
<event>
 5   0  0.1821433E-07  0.3974995E+04  0.7818609E-02  0.8009610E-01
       -2   -1    0    0    0  501  0.00000000000E+00  0.00000000000E+00  0.22079076797E+04  0.22079076797E+04  0.25500000920E-02 0. -1.
        2   -1    0    0  501    0  0.00000000000E+00  0.00000000000E+00 -0.17890903939E+04  0.17890903939E+04  0.25500000920E-02 0.  1.
    10030    2    1    2    0    0  0.00000000000E+00  0.00000000000E+00  0.41881728581E+03  0.39969980735E+04  0.39749950542E+04 0.  0.
        5    1    3    3  502    0  0.20503892874E+03  0.56191043763E+03 -0.16964297216E+04  0.17987996533E+04  0.46999998093E+01 0.  1.
       -5    1    3    3    0  502 -0.20503892874E+03 -0.56191043763E+03  0.21152470075E+04  0.21981984202E+04  0.46999998093E+01 0. -1.
</event>
<event>
 5   0  0.1773903E-07  0.3890000E+04  0.7818609E-02  0.8027112E-01
        2   -1    0    0  501    0  0.00000000000E+00  0.00000000000E+00  0.23759029578E+04  0.23759029578E+04  0.25500000920E-02 0.  1.
       -2   -1    0    0    0  501  0.00000000000E+00  0.00000000000E+00 -0.15922469086E+04  0.15922469086E+04  0.25500000920E-02 0. -1.
    10030    2    1    2    0    0  0.00000000000E+00  0.00000000000E+00  0.78365604921E+03  0.39681498665E+04  0.38899995577E+04 0.  0.
        3    1    3    3  502    0 -0.95905519378E+03  0.75538803083E+03  0.19363892866E+04  0.22891049389E+04  0.10100000352E+00 0.  1.
       -3    1    3    3    0  502  0.95905519378E+03 -0.75538803083E+03 -0.11527332374E+04  0.16790449275E+04  0.10100000352E+00 0. -1.
</event>
<event>
 5   0  0.5515000E-08  0.3973165E+04  0.7818609E-02  0.8009982E-01
       -1   -1    0    0    0  501  0.00000000000E+00  0.00000000000E+00  0.26270729057E+04  0.26270729057E+04  0.50400001928E-02 0.  1.
        1   -1    0    0  501    0  0.00000000000E+00  0.00000000000E+00 -0.15022463205E+04  0.15022463205E+04  0.50400001928E-02 0. -1.
    10030    2    1    2    0    0  0.00000000000E+00  0.00000000000E+00  0.11248265852E+04  0.41293192262E+04  0.39731652904E+04 0.  0.
        2    1    3    3  502    0 -0.14743761399E+04  0.13078971593E+04  0.30335667723E+03  0.19940925893E+04  0.25500000920E-02 0.  1.
       -2    1    3    3    0  502  0.14743761399E+04 -0.13078971593E+04  0.82146990802E+03  0.21352266369E+04  0.25500000920E-02 0. -1.
</event>
<event>
 5   0  0.5515000E-08  0.4013853E+04  0.7818609E-02  0.8001758E-01
       -1   -1    0    0    0  501  0.00000000000E+00  0.00000000000E+00  0.17829496599E+04  0.17829496599E+04  0.50400001928E-02 0.  1.
        1   -1    0    0  501    0  0.00000000000E+00  0.00000000000E+00 -0.22590398850E+04  0.22590398850E+04  0.50400001928E-02 0. -1.
    10030    2    1    2    0    0  0.00000000000E+00  0.00000000000E+00 -0.47609022510E+03  0.40419895448E+04  0.40138532083E+04 0.  0.
        1    1    3    3  502    0  0.10063661241E+04 -0.16880712106E+04  0.17149626375E+03  0.19727564868E+04  0.50400001928E-02 0.  1.
       -1    1    3    3    0  502 -0.10063661241E+04  0.16880712106E+04 -0.64758648885E+03  0.20692330580E+04  0.50400001928E-02 0. -1.
</event>
<event>
 5   0  0.5515000E-08  0.3964488E+04  0.7818609E-02  0.8011749E-01
       -3   -1    0    0    0  501  0.00000000000E+00  0.00000000000E+00  0.17230202383E+04  0.17230202413E+04  0.10100000352E+00 0.  1.
        3   -1    0    0  501    0  0.00000000000E+00  0.00000000000E+00 -0.22804675943E+04  0.22804675965E+04  0.10100000352E+00 0. -1.
    10030    2    1    2    0    0  0.00000000000E+00  0.00000000000E+00 -0.55744735596E+03  0.40034878378E+04  0.39644882788E+04 0.  0.
        1    1    3    3  502    0  0.10725802435E+04 -0.12441815258E+04 -0.13990859830E+04  0.21577436446E+04  0.50400001928E-02 0. -1.
       -1    1    3    3    0  502 -0.10725802435E+04  0.12441815258E+04  0.84163862708E+03  0.18457441932E+04  0.50400001928E-02 0.  1.
</event>
<event>
 5   0  0.5515000E-08  0.4078797E+04  0.7818609E-02  0.7988837E-01
        1   -1    0    0  501    0  0.00000000000E+00  0.00000000000E+00  0.23301839566E+04  0.23301839566E+04  0.50400001928E-02 0.  1.
       -1   -1    0    0    0  501  0.00000000000E+00  0.00000000000E+00 -0.17849003883E+04  0.17849003884E+04  0.50400001928E-02 0. -1.
    10030    2    1    2    0    0  0.00000000000E+00  0.00000000000E+00  0.54528356827E+03  0.41150843450E+04  0.40787970036E+04 0.  0.
        5    1    3    3  502    0 -0.12069802724E+04 -0.13313521481E+04  0.12454944678E+04  0.21864534021E+04  0.46999998093E+01 0.  1.
       -5    1    3    3    0  502  0.12069802724E+04  0.13313521481E+04 -0.70021089950E+03  0.19286309429E+04  0.46999998093E+01 0. -1.
</event>
<event>
 5   0  0.1819906E-07  0.3937602E+04  0.7818609E-02  0.8017254E-01
        2   -1    0    0  501    0  0.00000000000E+00  0.00000000000E+00  0.23481927764E+04  0.23481927764E+04  0.25500000920E-02 0.  1.
       -2   -1    0    0    0  501  0.00000000000E+00  0.00000000000E+00 -0.16507068881E+04  0.16507068881E+04  0.25500000920E-02 0. -1.
    10030    2    1    2    0    0  0.00000000000E+00  0.00000000000E+00  0.69748588835E+03  0.39988996645E+04  0.39376023114E+04 0.  0.
        1    1    3    3  502    0  0.14040764808E+04 -0.13706132498E+04  0.51302187028E+03  0.20281032725E+04  0.50400001928E-02 0.  1.
       -1    1    3    3    0  502 -0.14040764808E+04  0.13706132498E+04  0.18446401807E+03  0.19707963920E+04  0.50400001928E-02 0. -1.
</event>
<event>
 5   0  0.1819906E-07  0.4004103E+04  0.7818609E-02  0.8003719E-01
       -2   -1    0    0    0  501  0.00000000000E+00  0.00000000000E+00  0.30092707510E+04  0.30092707510E+04  0.25500000920E-02 0. -1.
        2   -1    0    0  501    0  0.00000000000E+00  0.00000000000E+00 -0.13319538581E+04  0.13319538581E+04  0.25500000920E-02 0.  1.
    10030    2    1    2    0    0  0.00000000000E+00  0.00000000000E+00  0.16773168929E+04  0.43412246091E+04  0.40041027893E+04 0.  0.
        1    1    3    3  502    0 -0.14337812949E+04  0.52638686105E+03 -0.56469160990E+03  0.16284006090E+04  0.50400001928E-02 0.  1.
       -1    1    3    3    0  502  0.14337812949E+04 -0.52638686105E+03  0.22420085028E+04  0.27128240001E+04  0.50400001928E-02 0. -1.
</event>
<event>
 5   0  0.5515000E-08  0.3974406E+04  0.7818609E-02  0.8009730E-01
       -1   -1    0    0    0  501  0.00000000000E+00  0.00000000000E+00  0.19890779688E+04  0.19890779688E+04  0.50400001928E-02 0.  1.
        1   -1    0    0  501    0  0.00000000000E+00  0.00000000000E+00 -0.19853293074E+04  0.19853293074E+04  0.50400001928E-02 0. -1.
    10030    2    1    2    0    0  0.00000000000E+00  0.00000000000E+00  0.37486614374E+01  0.39744072762E+04  0.39744055083E+04 0.  0.
        1    1    3    3  502    0 -0.10716124799E+04  0.86745262119E+03 -0.14292613201E+04  0.19858537908E+04  0.50400001928E-02 0. -1.
       -1    1    3    3    0  502  0.10716124799E+04 -0.86745262119E+03  0.14330099816E+04  0.19885534854E+04  0.50400001928E-02 0.  1.
</event>
<event>
 5   0  0.1785559E-07  0.3386434E+04  0.7818609E-02  0.8141244E-01
        2   -1    0    0  501    0  0.00000000000E+00  0.00000000000E+00  0.11480920889E+04  0.11480920889E+04  0.25500000920E-02 0. -1.
       -2   -1    0    0    0  501  0.00000000000E+00  0.00000000000E+00 -0.24971718756E+04  0.24971718756E+04  0.25500000920E-02 0.  1.
    10030    2    1    2    0    0  0.00000000000E+00  0.00000000000E+00 -0.13490797867E+04  0.36452639645E+04  0.33864336846E+04 0.  0.
        2    1    3    3  502    0  0.45001632848E+03  0.15890363955E+03 -0.24232751125E+04  0.24698233405E+04  0.25500000920E-02 0.  1.
       -2    1    3    3    0  502 -0.45001632848E+03 -0.15890363955E+03  0.10741953258E+04  0.11754406240E+04  0.25500000920E-02 0. -1.
</event>
<event>
 5   0  0.1821433E-07  0.4020967E+04  0.7818609E-02  0.8000330E-01
        2   -1    0    0  501    0  0.00000000000E+00  0.00000000000E+00  0.25543936929E+04  0.25543936929E+04  0.25500000920E-02 0. -1.
       -2   -1    0    0    0  501  0.00000000000E+00  0.00000000000E+00 -0.15823890855E+04  0.15823890855E+04  0.25500000920E-02 0.  1.
    10030    2    1    2    0    0  0.00000000000E+00  0.00000000000E+00  0.97200460738E+03  0.41367827785E+04  0.40209673960E+04 0.  0.
        5    1    3    3  502    0  0.19596806893E+04  0.42752759652E+03  0.62741820991E+03  0.21016193637E+04  0.46999998093E+01 0. -1.
       -5    1    3    3    0  502 -0.19596806893E+04 -0.42752759652E+03  0.34458639747E+03  0.20351634148E+04  0.46999998093E+01 0.  1.
</event>
<event>
 5   0  0.1821433E-07  0.3872980E+04  0.7818609E-02  0.8030672E-01
        2   -1    0    0  501    0  0.00000000000E+00  0.00000000000E+00  0.26609823764E+04  0.26609823764E+04  0.25500000920E-02 0.  1.
       -2   -1    0    0    0  501  0.00000000000E+00  0.00000000000E+00 -0.14092515857E+04  0.14092515857E+04  0.25500000920E-02 0. -1.
    10030    2    1    2    0    0  0.00000000000E+00  0.00000000000E+00  0.12517307907E+04  0.40702339622E+04  0.38729800586E+04 0.  0.
        5    1    3    3  502    0  0.97209581121E+03 -0.88955488667E+03 -0.86545440527E+03  0.15764871012E+04  0.46999998093E+01 0. -1.
       -5    1    3    3    0  502 -0.97209581121E+03  0.88955488667E+03  0.21171851960E+04  0.24937468610E+04  0.46999998093E+01 0.  1.
</event>
<event>
 5   0  0.5515000E-08  0.4006177E+04  0.7818609E-02  0.8003302E-01
       -1   -1    0    0    0  501  0.00000000000E+00  0.00000000000E+00  0.26199267127E+04  0.26199267127E+04  0.50400001928E-02 0.  1.
        1   -1    0    0  501    0  0.00000000000E+00  0.00000000000E+00 -0.15314791285E+04  0.15314791285E+04  0.50400001928E-02 0. -1.
    10030    2    1    2    0    0  0.00000000000E+00  0.00000000000E+00  0.10884475842E+04  0.41514058412E+04  0.40061767703E+04 0.  0.
        1    1    3    3  502    0 -0.10674635859E+03 -0.90219247073E+03 -0.13057146465E+04  0.15906718007E+04  0.50400001928E-02 0. -1.
       -1    1    3    3    0  502  0.10674635859E+03  0.90219247073E+03  0.23941622308E+04  0.25607340406E+04  0.50400001928E-02 0.  1.
</event>
<event>
 5   0  0.5515000E-08  0.3931822E+04  0.7818609E-02  0.8018443E-01
        1   -1    0    0  501    0  0.00000000000E+00  0.00000000000E+00  0.14995286143E+04  0.14995286143E+04  0.50400001928E-02 0. -1.
       -1   -1    0    0    0  501  0.00000000000E+00  0.00000000000E+00 -0.25773468969E+04  0.25773468969E+04  0.50400001928E-02 0.  1.
    10030    2    1    2    0    0  0.00000000000E+00  0.00000000000E+00 -0.10778182826E+04  0.40768755112E+04  0.39318216749E+04 0.  0.
        4    1    3    3  502    0 -0.17665523789E+04  0.56336912946E+03  0.13842181649E+03  0.18593693274E+04  0.12699999809E+01 0. -1.
       -4    1    3    3    0  502  0.17665523789E+04 -0.56336912946E+03 -0.12162400991E+04  0.22175061838E+04  0.12699999809E+01 0.  1.
</event>
<event>
 5   0  0.1773903E-07  0.4082507E+04  0.7818609E-02  0.7988106E-01
       -2   -1    0    0    0  501  0.00000000000E+00  0.00000000000E+00  0.28503537700E+04  0.28503537700E+04  0.25500000920E-02 0. -1.
        2   -1    0    0  501    0  0.00000000000E+00  0.00000000000E+00 -0.14618240689E+04  0.14618240689E+04  0.25500000920E-02 0.  1.
    10030    2    1    2    0    0  0.00000000000E+00  0.00000000000E+00  0.13885297011E+04  0.43121778389E+04  0.40825069484E+04 0.  0.
        3    1    3    3  502    0  0.40299098722E+03  0.56630398913E+02  0.28070717844E+04  0.28364168860E+04  0.10100000352E+00 0. -1.
       -3    1    3    3    0  502 -0.40299098722E+03 -0.56630398913E+02 -0.14185420833E+04  0.14757609529E+04  0.10100000352E+00 0.  1.
</event>
<event>
 5   0  0.1819906E-07  0.3954583E+04  0.7818609E-02  0.8013772E-01
       -2   -1    0    0    0  501  0.00000000000E+00  0.00000000000E+00  0.12970978713E+04  0.12970978713E+04  0.25500000920E-02 0.  1.
        2   -1    0    0  501    0  0.00000000000E+00  0.00000000000E+00 -0.30141761585E+04  0.30141761585E+04  0.25500000920E-02 0. -1.
    10030    2    1    2    0    0  0.00000000000E+00  0.00000000000E+00 -0.17170782872E+04  0.43112740299E+04  0.39545829004E+04 0.  0.
        1    1    3    3  502    0  0.14835279729E+04  0.12805413295E+04 -0.11449937187E+04  0.22697250845E+04  0.50400001928E-02 0. -1.
       -1    1    3    3    0  502 -0.14835279729E+04 -0.12805413295E+04 -0.57208456846E+03  0.20415489454E+04  0.50400001928E-02 0.  1.
</event>
<event>
 5   0  0.1821433E-07  0.3978703E+04  0.7818609E-02  0.8008857E-01
       -2   -1    0    0    0  501  0.00000000000E+00  0.00000000000E+00  0.23239902476E+04  0.23239902476E+04  0.25500000920E-02 0.  1.
        2   -1    0    0  501    0  0.00000000000E+00  0.00000000000E+00 -0.17028982041E+04  0.17028982041E+04  0.25500000920E-02 0. -1.
    10030    2    1    2    0    0  0.00000000000E+00  0.00000000000E+00  0.62109204353E+03  0.40268884517E+04  0.39787027127E+04 0.  0.
        5    1    3    3  502    0  0.60319567061E+03  0.11034409166E+04  0.18706649706E+04  0.22540710715E+04  0.46999998093E+01 0.  1.
       -5    1    3    3    0  502 -0.60319567061E+03 -0.11034409166E+04 -0.12495729270E+04  0.17728173802E+04  0.46999998093E+01 0. -1.
</event>
<event>
 5   0  0.5515000E-08  0.3715053E+04  0.7818609E-02  0.8064634E-01
        1   -1    0    0  501    0  0.00000000000E+00  0.00000000000E+00  0.22219565513E+04  0.22219565513E+04  0.50400001928E-02 0.  1.
       -1   -1    0    0    0  501  0.00000000000E+00  0.00000000000E+00 -0.15528674847E+04  0.15528674847E+04  0.50400001928E-02 0. -1.
    10030    2    1    2    0    0  0.00000000000E+00  0.00000000000E+00  0.66908906664E+03  0.37748240361E+04  0.37150526677E+04 0.  0.
        2    1    3    3  502    0 -0.12489362981E+04  0.79378668732E+03  0.14753119675E+04  0.20896135009E+04  0.25500000920E-02 0. -1.
       -2    1    3    3    0  502  0.12489362981E+04 -0.79378668732E+03 -0.80622290089E+03  0.16852105351E+04  0.25500000920E-02 0.  1.
</event>
<event>
 5   0  0.1773903E-07  0.3988437E+04  0.7818609E-02  0.8006883E-01
        2   -1    0    0  501    0  0.00000000000E+00  0.00000000000E+00  0.15481362519E+04  0.15481362519E+04  0.25500000920E-02 0. -1.
       -2   -1    0    0    0  501  0.00000000000E+00  0.00000000000E+00 -0.25688361654E+04  0.25688361654E+04  0.25500000920E-02 0.  1.
    10030    2    1    2    0    0  0.00000000000E+00  0.00000000000E+00 -0.10206999135E+04  0.41169724173E+04  0.39884374849E+04 0.  0.
        3    1    3    3  502    0  0.17634515245E+04  0.38727777847E+03  0.36379632266E+03  0.18417635928E+04  0.10100000352E+00 0. -1.
       -3    1    3    3    0  502 -0.17634515245E+04 -0.38727777847E+03 -0.13844962362E+04  0.22752088245E+04  0.10100000352E+00 0.  1.
</event>
<event>
 5   0  0.1776653E-07  0.4002270E+04  0.7818609E-02  0.8004089E-01
        2   -1    0    0  501    0  0.00000000000E+00  0.00000000000E+00  0.21249615352E+04  0.21249615352E+04  0.25500000920E-02 0.  1.
       -2   -1    0    0    0  501  0.00000000000E+00  0.00000000000E+00 -0.18845239014E+04  0.18845239014E+04  0.25500000920E-02 0. -1.
    10030    2    1    2    0    0  0.00000000000E+00  0.00000000000E+00  0.24043763374E+03  0.40094854366E+04  0.40022697573E+04 0.  0.
        4    1    3    3  502    0 -0.12664764422E+04  0.15217445329E+04  0.41206892905E+03  0.20222441537E+04  0.12699999809E+01 0.  1.
       -4    1    3    3    0  502  0.12664764422E+04 -0.15217445329E+04 -0.17163129531E+03  0.19872412829E+04  0.12699999809E+01 0. -1.
</event>
<event>
 5   0  0.1773903E-07  0.3983105E+04  0.7818609E-02  0.8007964E-01
       -2   -1    0    0    0  501  0.00000000000E+00  0.00000000000E+00  0.17801179473E+04  0.17801179473E+04  0.25500000920E-02 0.  1.
        2   -1    0    0  501    0  0.00000000000E+00  0.00000000000E+00 -0.22281003035E+04  0.22281003035E+04  0.25500000920E-02 0. -1.
    10030    2    1    2    0    0  0.00000000000E+00  0.00000000000E+00 -0.44798235624E+03  0.40082182508E+04  0.39831049891E+04 0.  0.
        3    1    3    3  502    0  0.10863453022E+04 -0.44035064362E+02 -0.19031026147E+04  0.21917766252E+04  0.10100000352E+00 0. -1.
       -3    1    3    3    0  502 -0.10863453022E+04  0.44035064362E+02  0.14551202584E+04  0.18164416256E+04  0.10100000352E+00 0.  1.
</event>
<event>
 5   0  0.1776653E-07  0.4012642E+04  0.7818609E-02  0.8002001E-01
       -2   -1    0    0    0  501  0.00000000000E+00  0.00000000000E+00  0.25178807520E+04  0.25178807520E+04  0.25500000920E-02 0.  1.
        2   -1    0    0  501    0  0.00000000000E+00  0.00000000000E+00 -0.15986951025E+04  0.15986951025E+04  0.25500000920E-02 0. -1.
    10030    2    1    2    0    0  0.00000000000E+00  0.00000000000E+00  0.91918564946E+03  0.41165758545E+04  0.40126418365E+04 0.  0.
        4    1    3    3  502    0 -0.89819009509E+03 -0.57597765154E+03 -0.12834820908E+04  0.16690786657E+04  0.12699999809E+01 0. -1.
       -4    1    3    3    0  502  0.89819009509E+03  0.57597765154E+03  0.22026677403E+04  0.24474971888E+04  0.12699999809E+01 0.  1.
</event>
<event>
 5   0  0.1819906E-07  0.3982045E+04  0.7818609E-02  0.8008178E-01
        2   -1    0    0  501    0  0.00000000000E+00  0.00000000000E+00  0.15185775717E+04  0.15185775717E+04  0.25500000920E-02 0.  1.
       -2   -1    0    0    0  501  0.00000000000E+00  0.00000000000E+00 -0.26104497236E+04  0.26104497236E+04  0.25500000920E-02 0. -1.
    10030    2    1    2    0    0  0.00000000000E+00  0.00000000000E+00 -0.10918721518E+04  0.41290272953E+04  0.39820449030E+04 0.  0.
        1    1    3    3  502    0 -0.61481909837E+03 -0.42460927764E+03 -0.24595571409E+04  0.25705479750E+04  0.50400001928E-02 0. -1.
       -1    1    3    3    0  502  0.61481909837E+03  0.42460927764E+03  0.13676849891E+04  0.15584793203E+04  0.50400001928E-02 0.  1.
</event>
<event>
 5   0  0.5515000E-08  0.4005869E+04  0.7818609E-02  0.8003364E-01
       -1   -1    0    0    0  501  0.00000000000E+00  0.00000000000E+00  0.29327571802E+04  0.29327571802E+04  0.50400001928E-02 0. -1.
        1   -1    0    0  501    0  0.00000000000E+00  0.00000000000E+00 -0.13679097141E+04  0.13679097141E+04  0.50400001928E-02 0.  1.
    10030    2    1    2    0    0  0.00000000000E+00  0.00000000000E+00  0.15648474661E+04  0.43006668944E+04  0.40058692121E+04 0.  0.
        4    1    3    3  502    0 -0.19409913750E+03 -0.11437173327E+04  0.25353660074E+04  0.27881617988E+04  0.12699999809E+01 0. -1.
       -4    1    3    3    0  502  0.19409913750E+03  0.11437173327E+04 -0.97051854125E+03  0.15125050956E+04  0.12699999809E+01 0.  1.
</event>
<event>
 5   0  0.1773903E-07  0.3876004E+04  0.7818609E-02  0.8030039E-01
        2   -1    0    0  501    0  0.00000000000E+00  0.00000000000E+00  0.20672335759E+04  0.20672335759E+04  0.25500000920E-02 0. -1.
       -2   -1    0    0    0  501  0.00000000000E+00  0.00000000000E+00 -0.18168491071E+04  0.18168491071E+04  0.25500000920E-02 0.  1.
    10030    2    1    2    0    0  0.00000000000E+00  0.00000000000E+00  0.25038446873E+03  0.38840826830E+04  0.38760038579E+04 0.  0.
        3    1    3    3  502    0 -0.13470485771E+04 -0.74700850603E+03  0.13037771194E+04  0.20180179296E+04  0.10100000352E+00 0. -1.
       -3    1    3    3    0  502  0.13470485771E+04  0.74700850603E+03 -0.10533926506E+04  0.18660647534E+04  0.10100000352E+00 0.  1.
</event>
<event>
 5   0  0.1821433E-07  0.3698223E+04  0.7818609E-02  0.8068356E-01
        2   -1    0    0  501    0  0.00000000000E+00  0.00000000000E+00  0.29533772976E+04  0.29533772976E+04  0.25500000920E-02 0. -1.
       -2   -1    0    0    0  501  0.00000000000E+00  0.00000000000E+00 -0.11577299057E+04  0.11577299057E+04  0.25500000920E-02 0.  1.
    10030    2    1    2    0    0  0.00000000000E+00  0.00000000000E+00  0.17956473919E+04  0.41111072033E+04  0.36982229356E+04 0.  0.
        5    1    3    3  502    0 -0.47397092033E+03  0.15536519290E+04 -0.84399383995E+02  0.16265386856E+04  0.46999998093E+01 0.  1.
       -5    1    3    3    0  502  0.47397092033E+03 -0.15536519290E+04  0.18800467759E+04  0.24845685177E+04  0.46999998093E+01 0. -1.
</event>
<event>
 5   0  0.5515000E-08  0.3982515E+04  0.7818609E-02  0.8008083E-01
        1   -1    0    0  501    0  0.00000000000E+00  0.00000000000E+00  0.26697598573E+04  0.26697598573E+04  0.50400001928E-02 0. -1.
       -1   -1    0    0    0  501  0.00000000000E+00  0.00000000000E+00 -0.14851921156E+04  0.14851921156E+04  0.50400001928E-02 0.  1.
    10030    2    1    2    0    0  0.00000000000E+00  0.00000000000E+00  0.11845677417E+04  0.41549519729E+04  0.39825149293E+04 0.  0.
        3    1    3    3  502    0 -0.13300139175E+04 -0.14019034617E+04  0.91027030146E+02  0.19345687549E+04  0.10100000352E+00 0.  1.
       -3    1    3    3    0  502  0.13300139175E+04  0.14019034617E+04  0.10935407116E+04  0.22203832180E+04  0.10100000352E+00 0. -1.
</event>
<event>
 5   0  0.5515000E-08  0.3535559E+04  0.7818609E-02  0.8105414E-01
       -1   -1    0    0    0  501  0.00000000000E+00  0.00000000000E+00  0.17372939776E+04  0.17372939776E+04  0.50400001928E-02 0. -1.
        1   -1    0    0  501    0  0.00000000000E+00  0.00000000000E+00 -0.17987995710E+04  0.17987995710E+04  0.50400001928E-02 0.  1.
    10030    2    1    2    0    0  0.00000000000E+00  0.00000000000E+00 -0.61505593406E+02  0.35360935487E+04  0.35355586047E+04 0.  0.
        4    1    3    3  502    0  0.89832756036E+03  0.31314234593E+03  0.14594362357E+04  0.17421269395E+04  0.12699999809E+01 0. -1.
       -4    1    3    3    0  502 -0.89832756036E+03 -0.31314234593E+03 -0.15209418291E+04  0.17939666092E+04  0.12699999809E+01 0.  1.
</event>
<event>
 5   0  0.1776653E-07  0.3983547E+04  0.7818609E-02  0.8007874E-01
        2   -1    0    0  501    0  0.00000000000E+00  0.00000000000E+00  0.27902042775E+04  0.27902042775E+04  0.25500000920E-02 0.  1.
       -2   -1    0    0    0  501  0.00000000000E+00  0.00000000000E+00 -0.14218175933E+04  0.14218175933E+04  0.25500000920E-02 0. -1.
    10030    2    1    2    0    0  0.00000000000E+00  0.00000000000E+00  0.13683866842E+04  0.42120218708E+04  0.39835469273E+04 0.  0.
        4    1    3    3  502    0 -0.99049276087E+03  0.34536696409E+03 -0.11060819057E+04  0.15243926805E+04  0.12699999809E+01 0. -1.
       -4    1    3    3    0  502  0.99049276087E+03 -0.34536696409E+03  0.24744685899E+04  0.26876291903E+04  0.12699999809E+01 0.  1.
</event>
<event>
 5   0  0.5515000E-08  0.3594662E+04  0.7818609E-02  0.8091716E-01
       -1   -1    0    0    0  501  0.00000000000E+00  0.00000000000E+00  0.18792228095E+04  0.18792228095E+04  0.50400001928E-02 0. -1.
        1   -1    0    0  501    0  0.00000000000E+00  0.00000000000E+00 -0.17190073593E+04  0.17190073593E+04  0.50400001928E-02 0.  1.
    10030    2    1    2    0    0  0.00000000000E+00  0.00000000000E+00  0.16021545014E+03  0.35982301688E+04  0.35946615080E+04 0.  0.
        3    1    3    3  502    0 -0.73077815890E+03  0.49310287027E+03  0.16479355285E+04  0.18689244700E+04  0.10100000352E+00 0. -1.
       -3    1    3    3    0  502  0.73077815890E+03 -0.49310287027E+03 -0.14877200784E+04  0.17293056988E+04  0.10100000352E+00 0.  1.
</event>
<event>
 5   0  0.1821433E-07  0.4007598E+04  0.7818609E-02  0.8003016E-01
       -2   -1    0    0    0  501  0.00000000000E+00  0.00000000000E+00  0.21238425315E+04  0.21238425315E+04  0.25500000920E-02 0.  1.
        2   -1    0    0  501    0  0.00000000000E+00  0.00000000000E+00 -0.18905401897E+04  0.18905401897E+04  0.25500000920E-02 0. -1.
    10030    2    1    2    0    0  0.00000000000E+00  0.00000000000E+00  0.23330234178E+03  0.40143827212E+04  0.40075976157E+04 0.  0.
        5    1    3    3  502    0 -0.10409353228E+04  0.54839889732E+03 -0.15080998755E+04  0.19127663269E+04  0.46999998093E+01 0. -1.
       -5    1    3    3    0  502  0.10409353228E+04 -0.54839889732E+03  0.17414022172E+04  0.21016163944E+04  0.46999998093E+01 0.  1.
</event>
<event>
 5   0  0.1785559E-07  0.4001556E+04  0.7818609E-02  0.8004233E-01
       -2   -1    0    0    0  501  0.00000000000E+00  0.00000000000E+00  0.18526864826E+04  0.18526864826E+04  0.25500000920E-02 0. -1.
        2   -1    0    0  501    0  0.00000000000E+00  0.00000000000E+00 -0.21607069988E+04  0.21607069988E+04  0.25500000920E-02 0.  1.
    10030    2    1    2    0    0  0.00000000000E+00  0.00000000000E+00 -0.30802051621E+03  0.40133934814E+04  0.40015560221E+04 0.  0.
        2    1    3    3  502    0  0.86424906447E+03 -0.17538394076E+04 -0.57980534081E+03  0.20393757247E+04  0.25500000920E-02 0. -1.
       -2    1    3    3    0  502 -0.86424906447E+03  0.17538394076E+04  0.27178482460E+03  0.19740177568E+04  0.25500000920E-02 0.  1.
</event>
<event>
 5   0  0.1821433E-07  0.4031556E+04  0.7818609E-02  0.7998211E-01
       -2   -1    0    0    0  501  0.00000000000E+00  0.00000000000E+00  0.14540820392E+04  0.14540820392E+04  0.25500000920E-02 0.  1.
        2   -1    0    0  501    0  0.00000000000E+00  0.00000000000E+00 -0.27944508059E+04  0.27944508059E+04  0.25500000920E-02 0. -1.
    10030    2    1    2    0    0  0.00000000000E+00  0.00000000000E+00 -0.13403687667E+04  0.42485328451E+04  0.40315558914E+04 0.  0.
        5    1    3    3  502    0  0.26522780455E+03  0.19538511181E+04 -0.22876266728E+03  0.19850023748E+04  0.46999998093E+01 0. -1.
       -5    1    3    3    0  502 -0.26522780455E+03 -0.19538511181E+04 -0.11116060994E+04  0.22635304703E+04  0.46999998093E+01 0.  1.
</event>
<event>
 5   0  0.5515000E-08  0.3957622E+04  0.7818609E-02  0.8013150E-01
        1   -1    0    0  501    0  0.00000000000E+00  0.00000000000E+00  0.14872374464E+04  0.14872374464E+04  0.50400001928E-02 0. -1.
       -1   -1    0    0    0  501  0.00000000000E+00  0.00000000000E+00 -0.26328639553E+04  0.26328639554E+04  0.50400001928E-02 0.  1.
    10030    2    1    2    0    0  0.00000000000E+00  0.00000000000E+00 -0.11456265090E+04  0.41201014017E+04  0.39576224507E+04 0.  0.
        5    1    3    3  502    0  0.22119163678E+03  0.18672575819E+04  0.69016301936E+02  0.18815849588E+04  0.46999998093E+01 0.  1.
       -5    1    3    3    0  502 -0.22119163678E+03 -0.18672575819E+04 -0.12146428109E+04  0.22385164429E+04  0.46999998093E+01 0. -1.
</event>
<event>
 5   0  0.5515000E-08  0.4038745E+04  0.7818609E-02  0.7996776E-01
       -1   -1    0    0    0  501  0.00000000000E+00  0.00000000000E+00  0.18698083015E+04  0.18698083015E+04  0.50400001928E-02 0.  1.
        1   -1    0    0  501    0  0.00000000000E+00  0.00000000000E+00 -0.21809007137E+04  0.21809007137E+04  0.50400001928E-02 0. -1.
    10030    2    1    2    0    0  0.00000000000E+00  0.00000000000E+00 -0.31109241219E+03  0.40507090152E+04  0.40387454781E+04 0.  0.
        4    1    3    3  502    0  0.88615046869E+03 -0.52766403783E+03  0.15857338452E+04  0.18916250767E+04  0.12699999809E+01 0.  1.
       -4    1    3    3    0  502 -0.88615046869E+03  0.52766403783E+03 -0.18968262574E+04  0.21590839385E+04  0.12699999809E+01 0. -1.
</event>
<event>
 5   0  0.1773903E-07  0.3852436E+04  0.7818609E-02  0.8034995E-01
       -2   -1    0    0    0  501  0.00000000000E+00  0.00000000000E+00  0.25536311074E+04  0.25536311074E+04  0.25500000920E-02 0.  1.
        2   -1    0    0  501    0  0.00000000000E+00  0.00000000000E+00 -0.14529569482E+04  0.14529569483E+04  0.25500000920E-02 0. -1.
    10030    2    1    2    0    0  0.00000000000E+00  0.00000000000E+00  0.11006741592E+04  0.40065880557E+04  0.38524361440E+04 0.  0.
        3    1    3    3  502    0 -0.16949377005E+04 -0.82781022215E+03  0.95611919512E+03  0.21147688994E+04  0.10100000352E+00 0.  1.
       -3    1    3    3    0  502  0.16949377005E+04  0.82781022215E+03  0.14455496407E+03  0.18918191563E+04  0.10100000352E+00 0. -1.
</event>
<event>
 5   0  0.5515000E-08  0.3996575E+04  0.7818609E-02  0.8005238E-01
       -1   -1    0    0    0  501  0.00000000000E+00  0.00000000000E+00  0.33157207079E+04  0.33157207079E+04  0.50400001928E-02 0. -1.
        1   -1    0    0  501    0  0.00000000000E+00  0.00000000000E+00 -0.12043093015E+04  0.12043093015E+04  0.50400001928E-02 0.  1.
    10030    2    1    2    0    0  0.00000000000E+00  0.00000000000E+00  0.21114114064E+04  0.45200300094E+04  0.39965751786E+04 0.  0.
        2    1    3    3  502    0 -0.85943666742E+03  0.16789803874E+04  0.30930725698E+03  0.19113548874E+04  0.25500000920E-02 0.  1.
       -2    1    3    3    0  502  0.85943666742E+03 -0.16789803874E+04  0.18021041494E+04  0.26086751219E+04  0.25500000920E-02 0. -1.
</event>
<event>
 5   0  0.1776653E-07  0.3926925E+04  0.7818609E-02  0.8019452E-01
       -2   -1    0    0    0  501  0.00000000000E+00  0.00000000000E+00  0.13583919116E+04  0.13583919116E+04  0.25500000920E-02 0. -1.
        2   -1    0    0  501    0  0.00000000000E+00  0.00000000000E+00 -0.28380507160E+04  0.28380507160E+04  0.25500000920E-02 0.  1.
    10030    2    1    2    0    0  0.00000000000E+00  0.00000000000E+00 -0.14796588044E+04  0.41964426276E+04  0.39269250756E+04 0.  0.
        4    1    3    3  502    0 -0.18111190694E+04 -0.45483128187E+03 -0.91423699814E+02  0.18695945240E+04  0.12699999809E+01 0. -1.
       -4    1    3    3    0  502  0.18111190694E+04  0.45483128187E+03 -0.13882351046E+04  0.23268481036E+04  0.12699999809E+01 0.  1.
</event>
<event>
 5   0  0.5515000E-08  0.3911100E+04  0.7818609E-02  0.8022724E-01
        1   -1    0    0  501    0  0.00000000000E+00  0.00000000000E+00  0.30846816525E+04  0.30846816526E+04  0.50400001928E-02 0. -1.
       -1   -1    0    0    0  501  0.00000000000E+00  0.00000000000E+00 -0.12397313371E+04  0.12397313371E+04  0.50400001928E-02 0.  1.
    10030    2    1    2    0    0  0.00000000000E+00  0.00000000000E+00  0.18449503155E+04  0.43244129896E+04  0.39111003615E+04 0.  0.
        4    1    3    3  502    0 -0.16167183661E+04 -0.19295852046E+03  0.21200633305E+04  0.26731407378E+04  0.12699999809E+01 0. -1.
       -4    1    3    3    0  502  0.16167183661E+04  0.19295852046E+03 -0.27511301499E+03  0.16512722518E+04  0.12699999809E+01 0.  1.
</event>
<event>
 5   0  0.5515000E-08  0.3978459E+04  0.7818609E-02  0.8008906E-01
        1   -1    0    0  501    0  0.00000000000E+00  0.00000000000E+00  0.15390269410E+04  0.15390269411E+04  0.50400001928E-02 0. -1.
       -1   -1    0    0    0  501  0.00000000000E+00  0.00000000000E+00 -0.25711267004E+04  0.25711267004E+04  0.50400001928E-02 0.  1.
    10030    2    1    2    0    0  0.00000000000E+00  0.00000000000E+00 -0.10320997593E+04  0.41101536414E+04  0.39784586265E+04 0.  0.
        1    1    3    3  502    0 -0.10451060999E+04 -0.11907156362E+03  0.12282132293E+04  0.16170753025E+04  0.50400001928E-02 0. -1.
       -1    1    3    3    0  502  0.10451060999E+04  0.11907156362E+03 -0.22603129886E+04  0.24930783389E+04  0.50400001928E-02 0.  1.
</event>
<event>
 5   0  0.5515000E-08  0.4002639E+04  0.7818609E-02  0.8004014E-01
        1   -1    0    0  501    0  0.00000000000E+00  0.00000000000E+00  0.24205883451E+04  0.24205883451E+04  0.50400001928E-02 0.  1.
       -1   -1    0    0    0  501  0.00000000000E+00  0.00000000000E+00 -0.16546720118E+04  0.16546720118E+04  0.50400001928E-02 0. -1.
    10030    2    1    2    0    0  0.00000000000E+00  0.00000000000E+00  0.76591633332E+03  0.40752603568E+04  0.40026390228E+04 0.  0.
        5    1    3    3  502    0 -0.32489083257E+03  0.19383190052E+04 -0.15484668554E+01  0.19653648788E+04  0.46999998093E+01 0.  1.
       -5    1    3    3    0  502  0.32489083257E+03 -0.19383190052E+04  0.76746480017E+03  0.21098954781E+04  0.46999998093E+01 0. -1.
</event>
<event>
 5   0  0.5515000E-08  0.4013407E+04  0.7818609E-02  0.8001847E-01
        1   -1    0    0  501    0  0.00000000000E+00  0.00000000000E+00  0.19887357316E+04  0.19887357316E+04  0.50400001928E-02 0. -1.
       -1   -1    0    0    0  501  0.00000000000E+00  0.00000000000E+00 -0.20248335967E+04  0.20248335967E+04  0.50400001928E-02 0.  1.
    10030    2    1    2    0    0  0.00000000000E+00  0.00000000000E+00 -0.36097865102E+02  0.40135693282E+04  0.40134069936E+04 0.  0.
        3    1    3    3  502    0 -0.12449993043E+04  0.78976703178E+03  0.13432936378E+04  0.19945408092E+04  0.10100000352E+00 0. -1.
       -3    1    3    3    0  502  0.12449993043E+04 -0.78976703178E+03 -0.13793915029E+04  0.20190285190E+04  0.10100000352E+00 0.  1.
</event>
<event>
 5   0  0.1785559E-07  0.3957190E+04  0.7818609E-02  0.8013239E-01
        2   -1    0    0  501    0  0.00000000000E+00  0.00000000000E+00  0.18818511297E+04  0.18818511297E+04  0.25500000920E-02 0.  1.
       -2   -1    0    0    0  501  0.00000000000E+00  0.00000000000E+00 -0.20803122633E+04  0.20803122633E+04  0.25500000920E-02 0. -1.
    10030    2    1    2    0    0  0.00000000000E+00  0.00000000000E+00 -0.19846113360E+03  0.39621633929E+04  0.39571899033E+04 0.  0.
        2    1    3    3  502    0  0.16568974543E+04  0.37455562114E+03 -0.11150187630E+04  0.20319615964E+04  0.25500000920E-02 0. -1.
       -2    1    3    3    0  502 -0.16568974543E+04 -0.37455562114E+03  0.91655762942E+03  0.19302017965E+04  0.25500000920E-02 0.  1.
</event>
<event>
 5   0  0.5515000E-08  0.4028535E+04  0.7818609E-02  0.7998815E-01
       -1   -1    0    0    0  501  0.00000000000E+00  0.00000000000E+00  0.17502173411E+04  0.17502173411E+04  0.50400001928E-02 0. -1.
        1   -1    0    0  501    0  0.00000000000E+00  0.00000000000E+00 -0.23181544458E+04  0.23181544458E+04  0.50400001928E-02 0.  1.
    10030    2    1    2    0    0  0.00000000000E+00  0.00000000000E+00 -0.56793710475E+03  0.40683717869E+04  0.40285352724E+04 0.  0.
        4    1    3    3  502    0 -0.12108590240E+04 -0.14806103492E+04 -0.92178808382E+03  0.21232243091E+04  0.12699999809E+01 0.  1.
       -4    1    3    3    0  502  0.12108590240E+04  0.14806103492E+04  0.35385097907E+03  0.19451474778E+04  0.12699999809E+01 0. -1.
</event>
<event>
 5   0  0.1821433E-07  0.3965265E+04  0.7818609E-02  0.8011591E-01
       -2   -1    0    0    0  501  0.00000000000E+00  0.00000000000E+00  0.13821301328E+04  0.13821301328E+04  0.25500000920E-02 0. -1.
        2   -1    0    0  501    0  0.00000000000E+00  0.00000000000E+00 -0.28440390886E+04  0.28440390886E+04  0.25500000920E-02 0.  1.
    10030    2    1    2    0    0  0.00000000000E+00  0.00000000000E+00 -0.14619089558E+04  0.42261692214E+04  0.39652652488E+04 0.  0.
        5    1    3    3  502    0  0.18244882809E+04  0.13788887862E+03 -0.15447654065E+04  0.23945966426E+04  0.46999998093E+01 0.  1.
       -5    1    3    3    0  502 -0.18244882809E+04 -0.13788887862E+03  0.82856450759E+02  0.18315725788E+04  0.46999998093E+01 0. -1.
</event>
<event>
 5   0  0.1776653E-07  0.4084785E+04  0.7818609E-02  0.7987658E-01
       -2   -1    0    0    0  501  0.00000000000E+00  0.00000000000E+00  0.19150292980E+04  0.19150292980E+04  0.25500000920E-02 0.  1.
        2   -1    0    0  501    0  0.00000000000E+00  0.00000000000E+00 -0.21782267080E+04  0.21782267080E+04  0.25500000920E-02 0. -1.
    10030    2    1    2    0    0  0.00000000000E+00  0.00000000000E+00 -0.26319740992E+03  0.40932560060E+04  0.40847854110E+04 0.  0.
        4    1    3    3  502    0 -0.33033788870E+03 -0.16381359910E+04  0.10450396678E+04  0.19709698542E+04  0.12699999809E+01 0.  1.
       -4    1    3    3    0  502  0.33033788870E+03  0.16381359910E+04 -0.13082370778E+04  0.21222861518E+04  0.12699999809E+01 0. -1.
</event>
<event>
 5   0  0.5515000E-08  0.4073818E+04  0.7818609E-02  0.7989819E-01
        1   -1    0    0  501    0  0.00000000000E+00  0.00000000000E+00  0.16586412189E+04  0.16586412189E+04  0.50400001928E-02 0. -1.
       -1   -1    0    0    0  501  0.00000000000E+00  0.00000000000E+00 -0.25014438351E+04  0.25014438351E+04  0.50400001928E-02 0.  1.
    10030    2    1    2    0    0  0.00000000000E+00  0.00000000000E+00 -0.84280261615E+03  0.41600850540E+04  0.40738177925E+04 0.  0.
        3    1    3    3  502    0 -0.12249222965E+04 -0.12001175389E+04 -0.15438967879E+04  0.23074518503E+04  0.10100000352E+00 0.  1.
       -3    1    3    3    0  502  0.12249222965E+04  0.12001175389E+04  0.70109417173E+03  0.18526332037E+04  0.10100000352E+00 0. -1.
</event>
<event>
 5   0  0.1821433E-07  0.4193494E+04  0.7818609E-02  0.7966611E-01
        2   -1    0    0  501    0  0.00000000000E+00  0.00000000000E+00  0.23432295071E+04  0.23432295071E+04  0.25500000920E-02 0.  1.
       -2   -1    0    0    0  501  0.00000000000E+00  0.00000000000E+00 -0.18761918528E+04  0.18761918528E+04  0.25500000920E-02 0. -1.
    10030    2    1    2    0    0  0.00000000000E+00  0.00000000000E+00  0.46703765426E+03  0.42194213599E+04  0.41934940612E+04 0.  0.
        5    1    3    3  502    0 -0.26480126904E+03  0.14907619073E+04  0.16929470075E+04  0.22712512932E+04  0.46999998093E+01 0.  1.
       -5    1    3    3    0  502  0.26480126904E+03 -0.14907619073E+04 -0.12259093533E+04  0.19481700667E+04  0.46999998093E+01 0. -1.
</event>
<event>
 5   0  0.1819906E-07  0.4025288E+04  0.7818609E-02  0.7999465E-01
        2   -1    0    0  501    0  0.00000000000E+00  0.00000000000E+00  0.28573758607E+04  0.28573758607E+04  0.25500000920E-02 0. -1.
       -2   -1    0    0    0  501  0.00000000000E+00  0.00000000000E+00 -0.14176419214E+04  0.14176419214E+04  0.25500000920E-02 0.  1.
    10030    2    1    2    0    0  0.00000000000E+00  0.00000000000E+00  0.14397339393E+04  0.42750177821E+04  0.40252879675E+04 0.  0.
        1    1    3    3  502    0  0.10866081376E+04 -0.10169561905E+04  0.21588506257E+04  0.26221276022E+04  0.50400001928E-02 0. -1.
       -1    1    3    3    0  502 -0.10866081376E+04  0.10169561905E+04 -0.71911668641E+03  0.16528901799E+04  0.50400001928E-02 0.  1.
</event>
<event>
 5   0  0.1773903E-07  0.3975412E+04  0.7818609E-02  0.8009525E-01
       -2   -1    0    0    0  501  0.00000000000E+00  0.00000000000E+00  0.26005753709E+04  0.26005753709E+04  0.25500000920E-02 0.  1.
        2   -1    0    0  501    0  0.00000000000E+00  0.00000000000E+00 -0.15192698015E+04  0.15192698015E+04  0.25500000920E-02 0. -1.
    10030    2    1    2    0    0  0.00000000000E+00  0.00000000000E+00  0.10813055694E+04  0.41198451724E+04  0.39754122440E+04 0.  0.
        3    1    3    3  502    0  0.11125641949E+04  0.13104813873E+04  0.15748135799E+04  0.23313511911E+04  0.10100000352E+00 0.  1.
       -3    1    3    3    0  502 -0.11125641949E+04 -0.13104813873E+04 -0.49350801053E+03  0.17884939813E+04  0.10100000352E+00 0. -1.
</event>
<event>
 5   0  0.5515000E-08  0.3905366E+04  0.7818609E-02  0.8023914E-01
        1   -1    0    0  501    0  0.00000000000E+00  0.00000000000E+00  0.22071977260E+04  0.22071977260E+04  0.50400001928E-02 0.  1.
       -1   -1    0    0    0  501  0.00000000000E+00  0.00000000000E+00 -0.17275169249E+04  0.17275169249E+04  0.50400001928E-02 0. -1.
    10030    2    1    2    0    0  0.00000000000E+00  0.00000000000E+00  0.47968080114E+03  0.39347146509E+04  0.39053662713E+04 0.  0.
        1    1    3    3  502    0  0.98529735227E+03 -0.40376256389E+03 -0.14092667678E+04  0.17663147804E+04  0.50400001928E-02 0. -1.
       -1    1    3    3    0  502 -0.98529735227E+03  0.40376256389E+03  0.18889475690E+04  0.21683998706E+04  0.50400001928E-02 0.  1.
</event>
<event>
 5   0  0.5515000E-08  0.3946951E+04  0.7818609E-02  0.8015335E-01
        1   -1    0    0  501    0  0.00000000000E+00  0.00000000000E+00  0.20207644811E+04  0.20207644811E+04  0.50400001928E-02 0. -1.
       -1   -1    0    0    0  501  0.00000000000E+00  0.00000000000E+00 -0.19272930760E+04  0.19272930760E+04  0.50400001928E-02 0.  1.
    10030    2    1    2    0    0  0.00000000000E+00  0.00000000000E+00  0.93471405039E+02  0.39480575571E+04  0.39469509208E+04 0.  0.
        2    1    3    3  502    0 -0.15564318571E+03 -0.38774409640E+03 -0.18825443259E+04  0.19283525157E+04  0.25500000920E-02 0.  1.
       -2    1    3    3    0  502  0.15564318571E+03  0.38774409640E+03  0.19760157310E+04  0.20197050415E+04  0.25500000920E-02 0. -1.
</event>
<event>
 5   0  0.1819906E-07  0.3963309E+04  0.7818609E-02  0.8011989E-01
        2   -1    0    0  501    0  0.00000000000E+00  0.00000000000E+00  0.18626987646E+04  0.18626987646E+04  0.25500000920E-02 0. -1.
       -2   -1    0    0    0  501  0.00000000000E+00  0.00000000000E+00 -0.21082074399E+04  0.21082074399E+04  0.25500000920E-02 0.  1.
    10030    2    1    2    0    0  0.00000000000E+00  0.00000000000E+00 -0.24550867531E+03  0.39709062045E+04  0.39633094221E+04 0.  0.
        1    1    3    3  502    0 -0.19421980249E+04 -0.34292041653E+03 -0.31606927665E+03  0.19974051586E+04  0.50400001928E-02 0.  1.
       -1    1    3    3    0  502  0.19421980249E+04  0.34292041653E+03  0.70560601343E+02  0.19735010460E+04  0.50400001928E-02 0. -1.
</event>
<event>
 5   0  0.1773903E-07  0.4069626E+04  0.7818609E-02  0.7990646E-01
        2   -1    0    0  501    0  0.00000000000E+00  0.00000000000E+00  0.23764010618E+04  0.23764010618E+04  0.25500000920E-02 0. -1.
       -2   -1    0    0    0  501  0.00000000000E+00  0.00000000000E+00 -0.17423254821E+04  0.17423254821E+04  0.25500000920E-02 0.  1.
    10030    2    1    2    0    0  0.00000000000E+00  0.00000000000E+00  0.63407557968E+03  0.41187265438E+04  0.40696260887E+04 0.  0.
        3    1    3    3  502    0 -0.11363122065E+04  0.16790187066E+04  0.14129109614E+03  0.20323071696E+04  0.10100000352E+00 0.  1.
       -3    1    3    3    0  502  0.11363122065E+04 -0.16790187066E+04  0.49278448354E+03  0.20864193742E+04  0.10100000352E+00 0. -1.
</event>
<event>
 5   0  0.5515000E-08  0.4009264E+04  0.7818609E-02  0.8002680E-01
       -3   -1    0    0    0  501  0.00000000000E+00  0.00000000000E+00  0.20137032908E+04  0.20137032934E+04  0.10100000352E+00 0.  1.
        3   -1    0    0  501    0  0.00000000000E+00  0.00000000000E+00 -0.19956015621E+04  0.19956015646E+04  0.10100000352E+00 0. -1.
    10030    2    1    2    0    0  0.00000000000E+00  0.00000000000E+00  0.18101728740E+02  0.40093048580E+04  0.40092639938E+04 0.  0.
        4    1    3    3  502    0  0.65935669588E+03  0.11705029726E+04  0.14969233372E+04  0.20113700683E+04  0.12699999809E+01 0.  1.
       -4    1    3    3    0  502 -0.65935669588E+03 -0.11705029726E+04 -0.14788216085E+04  0.19979347897E+04  0.12699999809E+01 0. -1.
</event>
<event>
 5   0  0.1773903E-07  0.4181040E+04  0.7818609E-02  0.7968989E-01
       -2   -1    0    0    0  501  0.00000000000E+00  0.00000000000E+00  0.26933998231E+04  0.26933998231E+04  0.25500000920E-02 0.  1.
        2   -1    0    0  501    0  0.00000000000E+00  0.00000000000E+00 -0.16225866946E+04  0.16225866946E+04  0.25500000920E-02 0. -1.
    10030    2    1    2    0    0  0.00000000000E+00  0.00000000000E+00  0.10708131284E+04  0.43159865177E+04  0.41810404046E+04 0.  0.
        3    1    3    3  502    0  0.24392113469E+03 -0.85247390055E+03 -0.14188594520E+04  0.16731322200E+04  0.10100000352E+00 0. -1.
       -3    1    3    3    0  502 -0.24392113469E+03  0.85247390055E+03  0.24896725804E+04  0.26428542977E+04  0.10100000352E+00 0.  1.
</event>
<event>
 5   0  0.5515000E-08  0.3724683E+04  0.7818609E-02  0.8062514E-01
        1   -1    0    0  501    0  0.00000000000E+00  0.00000000000E+00  0.26060384677E+04  0.26060384677E+04  0.50400001928E-02 0.  1.
       -1   -1    0    0    0  501  0.00000000000E+00  0.00000000000E+00 -0.13308769942E+04  0.13308769942E+04  0.50400001928E-02 0. -1.
    10030    2    1    2    0    0  0.00000000000E+00  0.00000000000E+00  0.12751614735E+04  0.39369154619E+04  0.37246834188E+04 0.  0.
        4    1    3    3  502    0  0.42630688392E+03  0.10460020220E+03  0.25505789268E+04  0.25880751991E+04  0.12699999809E+01 0.  1.
       -4    1    3    3    0  502 -0.42630688392E+03 -0.10460020220E+03 -0.12754174532E+04  0.13488402628E+04  0.12699999809E+01 0. -1.
</event>
<event>
 5   0  0.5515000E-08  0.3694010E+04  0.7818609E-02  0.8069290E-01
        1   -1    0    0  501    0  0.00000000000E+00  0.00000000000E+00  0.15333432165E+04  0.15333432165E+04  0.50400001928E-02 0. -1.
       -1   -1    0    0    0  501  0.00000000000E+00  0.00000000000E+00 -0.22248301348E+04  0.22248301348E+04  0.50400001928E-02 0.  1.
    10030    2    1    2    0    0  0.00000000000E+00  0.00000000000E+00 -0.69148691827E+03  0.37581733514E+04  0.36940103926E+04 0.  0.
        4    1    3    3  502    0 -0.12033608221E+04 -0.11195310521E+04 -0.12029939228E+04  0.20368168882E+04  0.12699999809E+01 0.  1.
       -4    1    3    3    0  502  0.12033608221E+04  0.11195310521E+04  0.51150700458E+03  0.17213564632E+04  0.12699999809E+01 0. -1.
</event>
<event>
 5   0  0.1773903E-07  0.3973807E+04  0.7818609E-02  0.8009851E-01
       -2   -1    0    0    0  501  0.00000000000E+00  0.00000000000E+00  0.17443438507E+04  0.17443438507E+04  0.25500000920E-02 0. -1.
        2   -1    0    0  501    0  0.00000000000E+00  0.00000000000E+00 -0.22631923116E+04  0.22631923116E+04  0.25500000920E-02 0.  1.
    10030    2    1    2    0    0  0.00000000000E+00  0.00000000000E+00 -0.51884846089E+03  0.40075361622E+04  0.39738070369E+04 0.  0.
        3    1    3    3  502    0 -0.53923738927E+03 -0.11247513454E+03  0.16657994270E+04  0.17545128552E+04  0.10100000352E+00 0. -1.
       -3    1    3    3    0  502  0.53923738927E+03  0.11247513454E+03 -0.21846478879E+04  0.22530233070E+04  0.10100000352E+00 0.  1.
</event>
<event>
 5   0  0.5515000E-08  0.3973588E+04  0.7818609E-02  0.8009896E-01
       -1   -1    0    0    0  501  0.00000000000E+00  0.00000000000E+00  0.19753039315E+04  0.19753039315E+04  0.50400001928E-02 0.  1.
        1   -1    0    0  501    0  0.00000000000E+00  0.00000000000E+00 -0.19983510407E+04  0.19983510407E+04  0.50400001928E-02 0. -1.
    10030    2    1    2    0    0  0.00000000000E+00  0.00000000000E+00 -0.23047109238E+02  0.39736549722E+04  0.39735881353E+04 0.  0.
        5    1    3    3  502    0 -0.43507899233E+03 -0.18424894237E+04  0.59120340824E+03  0.19833316833E+04  0.46999998093E+01 0.  1.
       -5    1    3    3    0  502  0.43507899233E+03  0.18424894237E+04 -0.61425051748E+03  0.19903232889E+04  0.46999998093E+01 0. -1.
</event>
<event>
 5   0  0.5515000E-08  0.4006961E+04  0.7818609E-02  0.8003144E-01
       -1   -1    0    0    0  501  0.00000000000E+00  0.00000000000E+00  0.30274520932E+04  0.30274520932E+04  0.50400001928E-02 0.  1.
        1   -1    0    0  501    0  0.00000000000E+00  0.00000000000E+00 -0.13258458207E+04  0.13258458207E+04  0.50400001928E-02 0. -1.
    10030    2    1    2    0    0  0.00000000000E+00  0.00000000000E+00  0.17016062726E+04  0.43532979139E+04  0.40069612951E+04 0.  0.
        1    1    3    3  502    0 -0.94823271600E+03  0.26243647719E+03 -0.10453012341E+04  0.14355043916E+04  0.50400001928E-02 0. -1.
       -1    1    3    3    0  502  0.94823271600E+03 -0.26243647719E+03  0.27469075067E+04  0.29177935223E+04  0.50400001928E-02 0.  1.
</event>
<event>
 5   0  0.5515000E-08  0.4010553E+04  0.7818609E-02  0.8002421E-01
       -1   -1    0    0    0  501  0.00000000000E+00  0.00000000000E+00  0.18836725766E+04  0.18836725766E+04  0.50400001928E-02 0. -1.
        1   -1    0    0  501    0  0.00000000000E+00  0.00000000000E+00 -0.21347311935E+04  0.21347311935E+04  0.50400001928E-02 0.  1.
    10030    2    1    2    0    0  0.00000000000E+00  0.00000000000E+00 -0.25105861689E+03  0.40184037701E+04  0.40105533821E+04 0.  0.
        4    1    3    3  502    0  0.18374356493E+04  0.73601034358E+03  0.19642816851E+03  0.19890868833E+04  0.12699999809E+01 0. -1.
       -4    1    3    3    0  502 -0.18374356493E+04 -0.73601034358E+03 -0.44748678540E+03  0.20293168868E+04  0.12699999809E+01 0.  1.
</event>
<event>
 5   0  0.1785559E-07  0.4005649E+04  0.7818609E-02  0.8003408E-01
        2   -1    0    0  501    0  0.00000000000E+00  0.00000000000E+00  0.19543214384E+04  0.19543214384E+04  0.25500000920E-02 0. -1.
       -2   -1    0    0    0  501  0.00000000000E+00  0.00000000000E+00 -0.20525310411E+04  0.20525310411E+04  0.25500000920E-02 0.  1.
    10030    2    1    2    0    0  0.00000000000E+00  0.00000000000E+00 -0.98209602644E+02  0.40068524795E+04  0.40056487198E+04 0.  0.
        2    1    3    3  502    0 -0.17641891803E+04 -0.55849246337E+03 -0.81551265387E+03  0.20222112115E+04  0.25500000920E-02 0.  1.
       -2    1    3    3    0  502  0.17641891803E+04  0.55849246337E+03  0.71730305123E+03  0.19846412680E+04  0.25500000920E-02 0. -1.
</event>
<event>
 5   0  0.1785559E-07  0.3994485E+04  0.7818609E-02  0.8005660E-01
       -2   -1    0    0    0  501  0.00000000000E+00  0.00000000000E+00  0.14440814211E+04  0.14440814211E+04  0.25500000920E-02 0.  1.
        2   -1    0    0  501    0  0.00000000000E+00  0.00000000000E+00 -0.27622934342E+04  0.27622934342E+04  0.25500000920E-02 0. -1.
    10030    2    1    2    0    0  0.00000000000E+00  0.00000000000E+00 -0.13182120131E+04  0.42063748552E+04  0.39944845113E+04 0.  0.
        2    1    3    3  502    0 -0.99416270436E+02 -0.16844476782E+04  0.46609149008E+03  0.17505681513E+04  0.25500000920E-02 0.  1.
       -2    1    3    3    0  502  0.99416270436E+02  0.16844476782E+04 -0.17843035032E+04  0.24558067039E+04  0.25500000920E-02 0. -1.
</event>
<event>
 5   0  0.1785559E-07  0.4002030E+04  0.7818609E-02  0.8004137E-01
        2   -1    0    0  501    0  0.00000000000E+00  0.00000000000E+00  0.13713592259E+04  0.13713592259E+04  0.25500000920E-02 0.  1.
       -2   -1    0    0    0  501  0.00000000000E+00  0.00000000000E+00 -0.29197755900E+04  0.29197755900E+04  0.25500000920E-02 0. -1.
    10030    2    1    2    0    0  0.00000000000E+00  0.00000000000E+00 -0.15484163641E+04  0.42911348159E+04  0.40020300813E+04 0.  0.
        2    1    3    3  502    0  0.11922049141E+03  0.17307110971E+04 -0.18434878636E+04  0.25314071048E+04  0.25500000920E-02 0. -1.
       -2    1    3    3    0  502 -0.11922049141E+03 -0.17307110971E+04  0.29507149946E+03  0.17597277111E+04  0.25500000920E-02 0.  1.
</event>
<event>
 5   0  0.5515000E-08  0.3992658E+04  0.7818609E-02  0.8006029E-01
       -1   -1    0    0    0  501  0.00000000000E+00  0.00000000000E+00  0.19343448999E+04  0.19343448999E+04  0.50400001928E-02 0. -1.
        1   -1    0    0  501    0  0.00000000000E+00  0.00000000000E+00 -0.20602995427E+04  0.20602995428E+04  0.50400001928E-02 0.  1.
    10030    2    1    2    0    0  0.00000000000E+00  0.00000000000E+00 -0.12595464288E+03  0.39946444426E+04  0.39926582186E+04 0.  0.
        2    1    3    3  502    0 -0.92147566859E+03 -0.71703908685E+03  0.15571081382E+04  0.19462395058E+04  0.25500000920E-02 0. -1.
       -2    1    3    3    0  502  0.92147566859E+03  0.71703908685E+03 -0.16830627811E+04  0.20484049368E+04  0.25500000920E-02 0.  1.
</event>
<event>
 5   0  0.5515000E-08  0.3994394E+04  0.7818609E-02  0.8005678E-01
        1   -1    0    0  501    0  0.00000000000E+00  0.00000000000E+00  0.22012990540E+04  0.22012990540E+04  0.50400001928E-02 0.  1.
       -1   -1    0    0    0  501  0.00000000000E+00  0.00000000000E+00 -0.18120192588E+04  0.18120192588E+04  0.50400001928E-02 0. -1.
    10030    2    1    2    0    0  0.00000000000E+00  0.00000000000E+00  0.38927979522E+03  0.40133183128E+04  0.39943942120E+04 0.  0.
        4    1    3    3  502    0  0.15170889830E+04  0.36880287724E+03  0.14460204402E+04  0.21280393020E+04  0.12699999809E+01 0.  1.
       -4    1    3    3    0  502 -0.15170889830E+04 -0.36880287724E+03 -0.10567406450E+04  0.18852790107E+04  0.12699999809E+01 0. -1.
</event>
<event>
 5   0  0.5515000E-08  0.3811133E+04  0.7818609E-02  0.8043770E-01
        1   -1    0    0  501    0  0.00000000000E+00  0.00000000000E+00  0.14955349767E+04  0.14955349767E+04  0.50400001928E-02 0.  1.
       -1   -1    0    0    0  501  0.00000000000E+00  0.00000000000E+00 -0.24280169975E+04  0.24280169975E+04  0.50400001928E-02 0. -1.
    10030    2    1    2    0    0  0.00000000000E+00  0.00000000000E+00 -0.93248202082E+03  0.39235519742E+04  0.38111333452E+04 0.  0.
        5    1    3    3  502    0  0.14242383434E+04  0.55276544605E+03  0.70628278235E+03  0.16831107973E+04  0.46999998093E+01 0.  1.
       -5    1    3    3    0  502 -0.14242383434E+04 -0.55276544605E+03 -0.16387648032E+04  0.22404411769E+04  0.46999998093E+01 0. -1.
</event>
<event>
 5   0  0.1821433E-07  0.4022867E+04  0.7818609E-02  0.7999949E-01
       -2   -1    0    0    0  501  0.00000000000E+00  0.00000000000E+00  0.14405786811E+04  0.14405786811E+04  0.25500000920E-02 0.  1.
        2   -1    0    0  501    0  0.00000000000E+00  0.00000000000E+00 -0.28084996456E+04  0.28084996456E+04  0.25500000920E-02 0. -1.
    10030    2    1    2    0    0  0.00000000000E+00  0.00000000000E+00 -0.13679209645E+04  0.42490783267E+04  0.40228669952E+04 0.  0.
        5    1    3    3  502    0  0.19618573427E+03 -0.32328448563E+03 -0.27706098972E+04  0.27963016635E+04  0.46999998093E+01 0. -1.
       -5    1    3    3    0  502 -0.19618573427E+03  0.32328448563E+03  0.14026889327E+04  0.14527766631E+04  0.46999998093E+01 0.  1.
</event>
<event>
 5   0  0.5515000E-08  0.3751074E+04  0.7818609E-02  0.8056736E-01
       -1   -1    0    0    0  501  0.00000000000E+00  0.00000000000E+00  0.13775977541E+04  0.13775977541E+04  0.50400001928E-02 0. -1.
        1   -1    0    0  501    0  0.00000000000E+00  0.00000000000E+00 -0.25534593370E+04  0.25534593370E+04  0.50400001928E-02 0.  1.
    10030    2    1    2    0    0  0.00000000000E+00  0.00000000000E+00 -0.11758615829E+04  0.39310570911E+04  0.37510744316E+04 0.  0.
        4    1    3    3  502    0  0.12901515469E+04 -0.10607992847E+04  0.30614685851E+03  0.16980911779E+04  0.12699999809E+01 0. -1.
       -4    1    3    3    0  502 -0.12901515469E+04  0.10607992847E+04 -0.14820084414E+04  0.22329659132E+04  0.12699999809E+01 0.  1.
</event>
<event>
 5   0  0.1821433E-07  0.4040598E+04  0.7818609E-02  0.7996406E-01
        2   -1    0    0  501    0  0.00000000000E+00  0.00000000000E+00  0.22101792916E+04  0.22101792916E+04  0.25500000920E-02 0. -1.
       -2   -1    0    0    0  501  0.00000000000E+00  0.00000000000E+00 -0.18467316819E+04  0.18467316819E+04  0.25500000920E-02 0.  1.
    10030    2    1    2    0    0  0.00000000000E+00  0.00000000000E+00  0.36344760976E+03  0.40569109735E+04  0.40405980352E+04 0.  0.
        5    1    3    3  502    0 -0.11015145549E+04  0.80436977528E+03 -0.13146760859E+04  0.18943970943E+04  0.46999998093E+01 0.  1.
       -5    1    3    3    0  502  0.11015145549E+04 -0.80436977528E+03  0.16781236956E+04  0.21625138792E+04  0.46999998093E+01 0. -1.
</event>
<event>
 5   0  0.5515000E-08  0.4015912E+04  0.7818609E-02  0.8001344E-01
       -1   -1    0    0    0  501  0.00000000000E+00  0.00000000000E+00  0.32176945244E+04  0.32176945244E+04  0.50400001928E-02 0.  1.
        1   -1    0    0  501    0  0.00000000000E+00  0.00000000000E+00 -0.12530362881E+04  0.12530362882E+04  0.50400001928E-02 0. -1.
    10030    2    1    2    0    0  0.00000000000E+00  0.00000000000E+00  0.19646582362E+04  0.44707308125E+04  0.40159123513E+04 0.  0.
        4    1    3    3  502    0  0.37893356856E+03 -0.33246190937E+02 -0.12125580739E+04  0.12708243994E+04  0.12699999809E+01 0. -1.
       -4    1    3    3    0  502 -0.37893356856E+03  0.33246190937E+02  0.31772163101E+04  0.31999064131E+04  0.12699999809E+01 0.  1.
</event>
<event>
 5   0  0.5515000E-08  0.3584244E+04  0.7818609E-02  0.8094110E-01
        1   -1    0    0  501    0  0.00000000000E+00  0.00000000000E+00  0.11377054190E+04  0.11377054190E+04  0.50400001928E-02 0.  1.
       -1   -1    0    0    0  501  0.00000000000E+00  0.00000000000E+00 -0.28229637957E+04  0.28229637957E+04  0.50400001928E-02 0. -1.
    10030    2    1    2    0    0  0.00000000000E+00  0.00000000000E+00 -0.16852583767E+04  0.39606692147E+04  0.35842439693E+04 0.  0.
        3    1    3    3  502    0  0.19939207104E+03 -0.17607348568E+04 -0.11386364955E+04  0.21062852401E+04  0.10100000352E+00 0.  1.
       -3    1    3    3    0  502 -0.19939207104E+03  0.17607348568E+04 -0.54662188118E+03  0.18543839745E+04  0.10100000352E+00 0. -1.
</event>
<event>
 5   0  0.5515000E-08  0.3963668E+04  0.7818609E-02  0.8011916E-01
       -1   -1    0    0    0  501  0.00000000000E+00  0.00000000000E+00  0.29356665971E+04  0.29356665971E+04  0.50400001928E-02 0. -1.
        1   -1    0    0  501    0  0.00000000000E+00  0.00000000000E+00 -0.13379130006E+04  0.13379130006E+04  0.50400001928E-02 0.  1.
    10030    2    1    2    0    0  0.00000000000E+00  0.00000000000E+00  0.15977535964E+04  0.42735795977E+04  0.39636682534E+04 0.  0.
        3    1    3    3  502    0  0.14853511861E+04 -0.89699760633E+03 -0.23348112651E+03  0.17508244625E+04  0.10100000352E+00 0. -1.
       -3    1    3    3    0  502 -0.14853511861E+04  0.89699760633E+03  0.18312347229E+04  0.25227551352E+04  0.10100000352E+00 0.  1.
</event>
<event>
 5   0  0.1776653E-07  0.4005814E+04  0.7818609E-02  0.8003375E-01
        2   -1    0    0  501    0  0.00000000000E+00  0.00000000000E+00  0.20837266242E+04  0.20837266242E+04  0.25500000920E-02 0.  1.
       -2   -1    0    0    0  501  0.00000000000E+00  0.00000000000E+00 -0.19252223886E+04  0.19252223886E+04  0.25500000920E-02 0. -1.
    10030    2    1    2    0    0  0.00000000000E+00  0.00000000000E+00  0.15850423567E+03  0.40089490128E+04  0.40058143485E+04 0.  0.
        4    1    3    3  502    0 -0.16890452702E+04 -0.97308126043E+03 -0.38140632065E+03  0.19862611758E+04  0.12699999809E+01 0. -1.
       -4    1    3    3    0  502  0.16890452702E+04  0.97308126043E+03  0.53991055632E+03  0.20226878370E+04  0.12699999809E+01 0.  1.
</event>
<event>
 5   0  0.1785559E-07  0.4002444E+04  0.7818609E-02  0.8004054E-01
       -2   -1    0    0    0  501  0.00000000000E+00  0.00000000000E+00  0.17992705269E+04  0.17992705269E+04  0.25500000920E-02 0. -1.
        2   -1    0    0  501    0  0.00000000000E+00  0.00000000000E+00 -0.22258409023E+04  0.22258409023E+04  0.25500000920E-02 0.  1.
    10030    2    1    2    0    0  0.00000000000E+00  0.00000000000E+00 -0.42657037546E+03  0.40251114292E+04  0.40024442198E+04 0.  0.
        2    1    3    3  502    0 -0.74702766422E+03 -0.17626712621E+04 -0.79953570221E+03  0.20746849516E+04  0.25500000920E-02 0.  1.
       -2    1    3    3    0  502  0.74702766422E+03  0.17626712621E+04  0.37296532675E+03  0.19504264776E+04  0.25500000920E-02 0. -1.
</event>
<event>
 5   0  0.5515000E-08  0.3999390E+04  0.7818609E-02  0.8004670E-01
        1   -1    0    0  501    0  0.00000000000E+00  0.00000000000E+00  0.21983293188E+04  0.21983293188E+04  0.50400001928E-02 0. -1.
       -1   -1    0    0    0  501  0.00000000000E+00  0.00000000000E+00 -0.18190090975E+04  0.18190090975E+04  0.50400001928E-02 0.  1.
    10030    2    1    2    0    0  0.00000000000E+00  0.00000000000E+00  0.37932022126E+03  0.40173384163E+04  0.39993904686E+04 0.  0.
        3    1    3    3  502    0 -0.24109116432E+03 -0.17446923672E+04 -0.76153435082E+03  0.19188566865E+04  0.10100000352E+00 0.  1.
       -3    1    3    3    0  502  0.24109116432E+03  0.17446923672E+04  0.11408545721E+04  0.20984817298E+04  0.10100000352E+00 0. -1.
</event>
<event>
 5   0  0.1773903E-07  0.3918650E+04  0.7818609E-02  0.8021162E-01
        2   -1    0    0  501    0  0.00000000000E+00  0.00000000000E+00  0.23185733678E+04  0.23185733678E+04  0.25500000920E-02 0. -1.
       -2   -1    0    0    0  501  0.00000000000E+00  0.00000000000E+00 -0.16557397207E+04  0.16557397207E+04  0.25500000920E-02 0.  1.
    10030    2    1    2    0    0  0.00000000000E+00  0.00000000000E+00  0.66283364710E+03  0.39743130885E+04  0.39186497779E+04 0.  0.
        3    1    3    3  502    0  0.11795459515E+04 -0.82028064272E+03 -0.10197098161E+04  0.17618164217E+04  0.10100000352E+00 0.  1.
       -3    1    3    3    0  502 -0.11795459515E+04  0.82028064272E+03  0.16825434632E+04  0.22124966668E+04  0.10100000352E+00 0. -1.
</event>
<event>
 5   0  0.5515000E-08  0.3861497E+04  0.7818609E-02  0.8033085E-01
       -1   -1    0    0    0  501  0.00000000000E+00  0.00000000000E+00  0.21990237972E+04  0.21990237972E+04  0.50400001928E-02 0.  1.
        1   -1    0    0  501    0  0.00000000000E+00  0.00000000000E+00 -0.16952025074E+04  0.16952025074E+04  0.50400001928E-02 0. -1.
    10030    2    1    2    0    0  0.00000000000E+00  0.00000000000E+00  0.50382128977E+03  0.38942263046E+04  0.38614974581E+04 0.  0.
        1    1    3    3  502    0  0.15995224446E+03 -0.53525934213E+03 -0.16119159607E+04  0.17059778276E+04  0.50400001928E-02 0. -1.
       -1    1    3    3    0  502 -0.15995224446E+03  0.53525934213E+03  0.21157372505E+04  0.21882484770E+04  0.50400001928E-02 0.  1.
</event>
<event>
 5   0  0.5515000E-08  0.4021308E+04  0.7818609E-02  0.8000262E-01
       -1   -1    0    0    0  501  0.00000000000E+00  0.00000000000E+00  0.23408216912E+04  0.23408216912E+04  0.50400001928E-02 0. -1.
        1   -1    0    0  501    0  0.00000000000E+00  0.00000000000E+00 -0.17270556347E+04  0.17270556347E+04  0.50400001928E-02 0.  1.
    10030    2    1    2    0    0  0.00000000000E+00  0.00000000000E+00  0.61376605650E+03  0.40678773259E+04  0.40213078926E+04 0.  0.
        4    1    3    3  502    0  0.88735641742E+02 -0.49979588369E+03 -0.16611699075E+04  0.17369965498E+04  0.12699999809E+01 0.  1.
       -4    1    3    3    0  502 -0.88735641742E+02  0.49979588369E+03  0.22749359640E+04  0.23308807762E+04  0.12699999809E+01 0. -1.
</event>
<event>
 5   0  0.5515000E-08  0.4010163E+04  0.7818609E-02  0.8002499E-01
       -3   -1    0    0    0  501  0.00000000000E+00  0.00000000000E+00  0.20632909600E+04  0.20632909625E+04  0.10100000352E+00 0.  1.
        3   -1    0    0  501    0  0.00000000000E+00  0.00000000000E+00 -0.19485144983E+04  0.19485145009E+04  0.10100000352E+00 0. -1.
    10030    2    1    2    0    0  0.00000000000E+00  0.00000000000E+00  0.11477646176E+03  0.40118054634E+04  0.40101632685E+04 0.  0.
        2    1    3    3  502    0  0.16161820103E+04 -0.26811512191E+03  0.12138989861E+04  0.20389901318E+04  0.25500000920E-02 0.  1.
       -2    1    3    3    0  502 -0.16161820103E+04  0.26811512191E+03 -0.10991225243E+04  0.19728153316E+04  0.25500000920E-02 0. -1.
</event>
<event>
 5   0  0.1773903E-07  0.4002901E+04  0.7818609E-02  0.8003962E-01
       -2   -1    0    0    0  501  0.00000000000E+00  0.00000000000E+00  0.20621807301E+04  0.20621807301E+04  0.25500000920E-02 0.  1.
        2   -1    0    0  501    0  0.00000000000E+00  0.00000000000E+00 -0.19425088077E+04  0.19425088077E+04  0.25500000920E-02 0. -1.
    10030    2    1    2    0    0  0.00000000000E+00  0.00000000000E+00  0.11967192240E+03  0.40046895379E+04  0.40029010637E+04 0.  0.
        3    1    3    3  502    0 -0.39594707852E+03  0.19017302095E+04  0.54218449283E+03  0.20167587642E+04  0.10100000352E+00 0.  1.
       -3    1    3    3    0  502  0.39594707852E+03 -0.19017302095E+04 -0.42251257042E+03  0.19879307737E+04  0.10100000352E+00 0. -1.
</event>
<event>
 5   0  0.5515000E-08  0.3828938E+04  0.7818609E-02  0.8039973E-01
       -1   -1    0    0    0  501  0.00000000000E+00  0.00000000000E+00  0.19142711530E+04  0.19142711530E+04  0.50400001928E-02 0.  1.
        1   -1    0    0  501    0  0.00000000000E+00  0.00000000000E+00 -0.19146667912E+04  0.19146667912E+04  0.50400001928E-02 0. -1.
    10030    2    1    2    0    0  0.00000000000E+00  0.00000000000E+00 -0.39563811616E+00  0.38289379442E+04  0.38289379238E+04 0.  0.
        1    1    3    3  502    0  0.51832773720E+03 -0.11766685893E+04  0.14182445715E+04  0.19143224067E+04  0.50400001928E-02 0.  1.
       -1    1    3    3    0  502 -0.51832773720E+03  0.11766685893E+04 -0.14186402096E+04  0.19146155375E+04  0.50400001928E-02 0. -1.
</event>
<event>
 5   0  0.1819906E-07  0.4014368E+04  0.7818609E-02  0.8001654E-01
        2   -1    0    0  501    0  0.00000000000E+00  0.00000000000E+00  0.21107472802E+04  0.21107472802E+04  0.25500000920E-02 0.  1.
       -2   -1    0    0    0  501  0.00000000000E+00  0.00000000000E+00 -0.19087019546E+04  0.19087019546E+04  0.25500000920E-02 0. -1.
    10030    2    1    2    0    0  0.00000000000E+00  0.00000000000E+00  0.20204532567E+03  0.40194492348E+04  0.40143679250E+04 0.  0.
        1    1    3    3  502    0  0.79082370759E+03  0.44992058572E+02  0.19476350320E+04  0.21025481302E+04  0.50400001928E-02 0.  1.
       -1    1    3    3    0  502 -0.79082370759E+03 -0.44992058572E+02 -0.17455897064E+04  0.19169011046E+04  0.50400001928E-02 0. -1.
</event>
<event>
 5   0  0.5515000E-08  0.4018161E+04  0.7818609E-02  0.8000893E-01
        1   -1    0    0  501    0  0.00000000000E+00  0.00000000000E+00  0.21334715486E+04  0.21334715486E+04  0.50400001928E-02 0.  1.
       -1   -1    0    0    0  501  0.00000000000E+00  0.00000000000E+00 -0.18919423889E+04  0.18919423889E+04  0.50400001928E-02 0. -1.
    10030    2    1    2    0    0  0.00000000000E+00  0.00000000000E+00  0.24152915974E+03  0.40254139375E+04  0.40181613996E+04 0.  0.
        1    1    3    3  502    0  0.13676907359E+04  0.88432035547E+03  0.12992401604E+04  0.20834167693E+04  0.50400001928E-02 0.  1.
       -1    1    3    3    0  502 -0.13676907359E+04 -0.88432035547E+03 -0.10577110007E+04  0.19419971682E+04  0.50400001928E-02 0. -1.
</event>
<event>
 5   0  0.5515000E-08  0.3989477E+04  0.7818609E-02  0.8006673E-01
       -1   -1    0    0    0  501  0.00000000000E+00  0.00000000000E+00  0.16536886526E+04  0.16536886526E+04  0.50400001928E-02 0. -1.
        1   -1    0    0  501    0  0.00000000000E+00  0.00000000000E+00 -0.24061255417E+04  0.24061255417E+04  0.50400001928E-02 0.  1.
    10030    2    1    2    0    0  0.00000000000E+00  0.00000000000E+00 -0.75243688915E+03  0.40598141943E+04  0.39894774119E+04 0.  0.
        5    1    3    3  502    0  0.15687438632E+04 -0.37554489848E+03 -0.15703502067E+04  0.22512248091E+04  0.46999998093E+01 0.  1.
       -5    1    3    3    0  502 -0.15687438632E+04  0.37554489848E+03  0.81791331755E+03  0.18085893852E+04  0.46999998093E+01 0. -1.
</event>
<event>
 5   0  0.5515000E-08  0.3996307E+04  0.7818609E-02  0.8005292E-01
       -1   -1    0    0    0  501  0.00000000000E+00  0.00000000000E+00  0.30632264090E+04  0.30632264090E+04  0.50400001928E-02 0.  1.
        1   -1    0    0  501    0  0.00000000000E+00  0.00000000000E+00 -0.13034027042E+04  0.13034027042E+04  0.50400001928E-02 0. -1.
    10030    2    1    2    0    0  0.00000000000E+00  0.00000000000E+00  0.17598237048E+04  0.43666291132E+04  0.39963070878E+04 0.  0.
        2    1    3    3  502    0 -0.17772623534E+04  0.85513757502E+03  0.52975399322E+03  0.20421951519E+04  0.25500000920E-02 0. -1.
       -2    1    3    3    0  502  0.17772623534E+04 -0.85513757502E+03  0.12300697116E+04  0.23244339613E+04  0.25500000920E-02 0.  1.
</event>
<event>
 5   0  0.5515000E-08  0.3968842E+04  0.7818609E-02  0.8010862E-01
        1   -1    0    0  501    0  0.00000000000E+00  0.00000000000E+00  0.12446583247E+04  0.12446583247E+04  0.50400001928E-02 0. -1.
       -1   -1    0    0    0  501  0.00000000000E+00  0.00000000000E+00 -0.31638614365E+04  0.31638614365E+04  0.50400001928E-02 0.  1.
    10030    2    1    2    0    0  0.00000000000E+00  0.00000000000E+00 -0.19192031118E+04  0.44085197612E+04  0.39688418841E+04 0.  0.
        4    1    3    3  502    0  0.17972748206E+04  0.84125590335E+03 -0.95507771165E+03  0.22022904722E+04  0.12699999809E+01 0. -1.
       -4    1    3    3    0  502 -0.17972748206E+04 -0.84125590335E+03 -0.96412540011E+03  0.22062292890E+04  0.12699999809E+01 0.  1.
</event>
<event>
 5   0  0.5515000E-08  0.4117820E+04  0.7818609E-02  0.7981191E-01
        1   -1    0    0  501    0  0.00000000000E+00  0.00000000000E+00  0.14079196968E+04  0.14079196968E+04  0.50400001928E-02 0. -1.
       -1   -1    0    0    0  501  0.00000000000E+00  0.00000000000E+00 -0.30109040125E+04  0.30109040125E+04  0.50400001928E-02 0.  1.
    10030    2    1    2    0    0  0.00000000000E+00  0.00000000000E+00 -0.16029843157E+04  0.44188237093E+04  0.41178203285E+04 0.  0.
        5    1    3    3  502    0  0.10433622203E+03  0.10295586794E+04  0.11085651140E+04  0.15165143665E+04  0.46999998093E+01 0. -1.
       -5    1    3    3    0  502 -0.10433622203E+03 -0.10295586794E+04 -0.27115494297E+04  0.29023093428E+04  0.46999998093E+01 0.  1.
</event>
<event>
 5   0  0.1785559E-07  0.4039446E+04  0.7818609E-02  0.7996636E-01
       -2   -1    0    0    0  501  0.00000000000E+00  0.00000000000E+00  0.20997651103E+04  0.20997651103E+04  0.25500000920E-02 0.  1.
        2   -1    0    0  501    0  0.00000000000E+00  0.00000000000E+00 -0.19427318516E+04  0.19427318516E+04  0.25500000920E-02 0. -1.
    10030    2    1    2    0    0  0.00000000000E+00  0.00000000000E+00  0.15703325865E+03  0.40424969619E+04  0.40394457841E+04 0.  0.
        2    1    3    3  502    0  0.19011787729E+04 -0.49199520177E+03 -0.39379383520E+03  0.20029012931E+04  0.25500000920E-02 0.  1.
       -2    1    3    3    0  502 -0.19011787729E+04  0.49199520177E+03  0.55082709385E+03  0.20395956688E+04  0.25500000920E-02 0. -1.
</event>
<event>
 5   0  0.5515000E-08  0.3989952E+04  0.7818609E-02  0.8006577E-01
       -1   -1    0    0    0  501  0.00000000000E+00  0.00000000000E+00  0.21353309218E+04  0.21353309218E+04  0.50400001928E-02 0.  1.
        1   -1    0    0  501    0  0.00000000000E+00  0.00000000000E+00 -0.18638468221E+04  0.18638468221E+04  0.50400001928E-02 0. -1.
    10030    2    1    2    0    0  0.00000000000E+00  0.00000000000E+00  0.27148409967E+03  0.39991777439E+04  0.39899522568E+04 0.  0.
        1    1    3    3  502    0 -0.71131189318E+03  0.65394198748E+03  0.18851501238E+04  0.21183474034E+04  0.50400001928E-02 0.  1.
       -1    1    3    3    0  502  0.71131189318E+03 -0.65394198748E+03 -0.16136660241E+04  0.18808303405E+04  0.50400001928E-02 0. -1.
</event>
<event>
 5   0  0.5515000E-08  0.3980838E+04  0.7818609E-02  0.8008423E-01
        1   -1    0    0  501    0  0.00000000000E+00  0.00000000000E+00  0.20572285562E+04  0.20572285562E+04  0.50400001928E-02 0. -1.
       -1   -1    0    0    0  501  0.00000000000E+00  0.00000000000E+00 -0.19257795568E+04  0.19257795568E+04  0.50400001928E-02 0.  1.
    10030    2    1    2    0    0  0.00000000000E+00  0.00000000000E+00  0.13144899943E+03  0.39830081131E+04  0.39808384531E+04 0.  0.
        1    1    3    3  502    0 -0.47336058803E+03 -0.27026436642E+03  0.19810968855E+04  0.20547160251E+04  0.50400001928E-02 0. -1.
       -1    1    3    3    0  502  0.47336058803E+03  0.27026436642E+03 -0.18496478861E+04  0.19282920880E+04  0.50400001928E-02 0.  1.
</event>
<event>
 5   0  0.5515000E-08  0.3755084E+04  0.7818609E-02  0.8055863E-01
       -1   -1    0    0    0  501  0.00000000000E+00  0.00000000000E+00  0.15479777689E+04  0.15479777689E+04  0.50400001928E-02 0.  1.
        1   -1    0    0  501    0  0.00000000000E+00  0.00000000000E+00 -0.22772701349E+04  0.22772701349E+04  0.50400001928E-02 0. -1.
    10030    2    1    2    0    0  0.00000000000E+00  0.00000000000E+00 -0.72929236605E+03  0.38252479038E+04  0.37550837768E+04 0.  0.
        3    1    3    3  502    0  0.15986271014E+04 -0.96710592534E+03 -0.55320216004E+03  0.19485725853E+04  0.10100000352E+00 0. -1.
       -3    1    3    3    0  502 -0.15986271014E+04  0.96710592534E+03 -0.17609020600E+03  0.18766753185E+04  0.10100000352E+00 0.  1.
</event>
<event>
 5   0  0.1776653E-07  0.3210804E+04  0.7818609E-02  0.8185970E-01
       -2   -1    0    0    0  501  0.00000000000E+00  0.00000000000E+00  0.17642203386E+04  0.17642203386E+04  0.25500000920E-02 0.  1.
        2   -1    0    0  501    0  0.00000000000E+00  0.00000000000E+00 -0.14608806344E+04  0.14608806344E+04  0.25500000920E-02 0. -1.
    10030    2    1    2    0    0  0.00000000000E+00  0.00000000000E+00  0.30333970420E+03  0.32251009731E+04  0.32108038418E+04 0.  0.
        4    1    3    3  502    0  0.14114067198E+04 -0.15927966250E+03 -0.59990976385E+03  0.15418600058E+04  0.12699999809E+01 0. -1.
       -4    1    3    3    0  502 -0.14114067198E+04  0.15927966250E+03  0.90324946806E+03  0.16832409673E+04  0.12699999809E+01 0.  1.
</event>
<event>
 5   0  0.5515000E-08  0.3579442E+04  0.7818609E-02  0.8095217E-01
        1   -1    0    0  501    0  0.00000000000E+00  0.00000000000E+00  0.16945587833E+04  0.16945587833E+04  0.50400001928E-02 0.  1.
       -1   -1    0    0    0  501  0.00000000000E+00  0.00000000000E+00 -0.18902269215E+04  0.18902269215E+04  0.50400001928E-02 0. -1.
    10030    2    1    2    0    0  0.00000000000E+00  0.00000000000E+00 -0.19566813813E+03  0.35847857048E+04  0.35794416505E+04 0.  0.
        3    1    3    3  502    0 -0.15176940694E+04 -0.38822147662E+03 -0.96456790880E+03  0.18397017324E+04  0.10100000352E+00 0. -1.
       -3    1    3    3    0  502  0.15176940694E+04  0.38822147662E+03  0.76889977067E+03  0.17450839724E+04  0.10100000352E+00 0.  1.
</event>
<event>
 5   0  0.1776653E-07  0.3974194E+04  0.7818609E-02  0.8009773E-01
       -2   -1    0    0    0  501  0.00000000000E+00  0.00000000000E+00  0.30029483123E+04  0.30029483123E+04  0.25500000920E-02 0.  1.
        2   -1    0    0  501    0  0.00000000000E+00  0.00000000000E+00 -0.13148923607E+04  0.13148923607E+04  0.25500000920E-02 0. -1.
    10030    2    1    2    0    0  0.00000000000E+00  0.00000000000E+00  0.16880559516E+04  0.43178406730E+04  0.39741936518E+04 0.  0.
        4    1    3    3  502    0 -0.97037387476E+03 -0.10778028861E+04  0.23198951500E+04  0.27359092890E+04  0.12699999809E+01 0.  1.
       -4    1    3    3    0  502  0.97037387476E+03  0.10778028861E+04 -0.63183919834E+03  0.15819313840E+04  0.12699999809E+01 0. -1.
</event>
<event>
 5   0  0.1773903E-07  0.4042951E+04  0.7818609E-02  0.7995938E-01
       -2   -1    0    0    0  501  0.00000000000E+00  0.00000000000E+00  0.30558714942E+04  0.30558714942E+04  0.25500000920E-02 0. -1.
        2   -1    0    0  501    0  0.00000000000E+00  0.00000000000E+00 -0.13372169811E+04  0.13372169811E+04  0.25500000920E-02 0.  1.
    10030    2    1    2    0    0  0.00000000000E+00  0.00000000000E+00  0.17186545131E+04  0.43930884753E+04  0.40429510281E+04 0.  0.
        3    1    3    3  502    0  0.12692865786E+04 -0.48016291043E+03 -0.76866525461E+03  0.15596445502E+04  0.10100000352E+00 0.  1.
       -3    1    3    3    0  502 -0.12692865786E+04  0.48016291043E+03  0.24873197677E+04  0.28334439250E+04  0.10100000352E+00 0. -1.
</event>
<event>
 5   0  0.1819906E-07  0.4000955E+04  0.7818609E-02  0.8004354E-01
        2   -1    0    0  501    0  0.00000000000E+00  0.00000000000E+00  0.20979760354E+04  0.20979760354E+04  0.25500000920E-02 0.  1.
       -2   -1    0    0    0  501  0.00000000000E+00  0.00000000000E+00 -0.19075098566E+04  0.19075098566E+04  0.25500000920E-02 0. -1.
    10030    2    1    2    0    0  0.00000000000E+00  0.00000000000E+00  0.19046617881E+03  0.40054858921E+04  0.40009548693E+04 0.  0.
        1    1    3    3  502    0 -0.13420070787E+04  0.12275985403E+03 -0.13849056511E+04  0.19323603813E+04  0.50400001928E-02 0. -1.
       -1    1    3    3    0  502  0.13420070787E+04 -0.12275985403E+03  0.15753718299E+04  0.20731255107E+04  0.50400001928E-02 0.  1.
</event>
<event>
 5   0  0.1776653E-07  0.3674500E+04  0.7818609E-02  0.8073636E-01
       -2   -1    0    0    0  501  0.00000000000E+00  0.00000000000E+00  0.28468408294E+04  0.28468408294E+04  0.25500000920E-02 0.  1.
        2   -1    0    0  501    0  0.00000000000E+00  0.00000000000E+00 -0.11856960390E+04  0.11856960390E+04  0.25500000920E-02 0. -1.
    10030    2    1    2    0    0  0.00000000000E+00  0.00000000000E+00  0.16611447904E+04  0.40325368683E+04  0.36745001809E+04 0.  0.
        4    1    3    3  502    0 -0.93706460044E+03 -0.10579258766E+04 -0.45777941531E+03  0.14855506830E+04  0.12699999809E+01 0. -1.
       -4    1    3    3    0  502  0.93706460044E+03  0.10579258766E+04  0.21189242057E+04  0.25469861853E+04  0.12699999809E+01 0.  1.
</event>
<event>
 5   0  0.5515000E-08  0.3957593E+04  0.7818609E-02  0.8013156E-01
        1   -1    0    0  501    0  0.00000000000E+00  0.00000000000E+00  0.16210732864E+04  0.16210732865E+04  0.50400001928E-02 0.  1.
       -1   -1    0    0    0  501  0.00000000000E+00  0.00000000000E+00 -0.24154585033E+04  0.24154585033E+04  0.50400001928E-02 0. -1.
    10030    2    1    2    0    0  0.00000000000E+00  0.00000000000E+00 -0.79438521683E+03  0.40365317897E+04  0.39575928311E+04 0.  0.
        3    1    3    3  502    0 -0.44748935550E+03 -0.84998968906E+02 -0.23612614924E+04  0.24047925885E+04  0.10100000352E+00 0. -1.
       -3    1    3    3    0  502  0.44748935550E+03  0.84998968906E+02  0.15668762755E+04  0.16317392013E+04  0.10100000352E+00 0.  1.
</event>
<event>
 5   0  0.1773903E-07  0.3974336E+04  0.7818609E-02  0.8009744E-01
       -2   -1    0    0    0  501  0.00000000000E+00  0.00000000000E+00  0.25352664593E+04  0.25352664593E+04  0.25500000920E-02 0.  1.
        2   -1    0    0  501    0  0.00000000000E+00  0.00000000000E+00 -0.15575624508E+04  0.15575624508E+04  0.25500000920E-02 0. -1.
    10030    2    1    2    0    0  0.00000000000E+00  0.00000000000E+00  0.97770400851E+03  0.40928289102E+04  0.39743355872E+04 0.  0.
        3    1    3    3  502    0 -0.30815677344E+03  0.15327611173E+04 -0.77430645294E+03  0.17446683733E+04  0.10100000352E+00 0. -1.
       -3    1    3    3    0  502  0.30815677344E+03 -0.15327611173E+04  0.17520104615E+04  0.23481605369E+04  0.10100000352E+00 0.  1.
</event>
<event>
 5   0  0.5515000E-08  0.3990312E+04  0.7818609E-02  0.8006504E-01
       -1   -1    0    0    0  501  0.00000000000E+00  0.00000000000E+00  0.14775220516E+04  0.14775220516E+04  0.50400001928E-02 0. -1.
        1   -1    0    0  501    0  0.00000000000E+00  0.00000000000E+00 -0.26941377653E+04  0.26941377653E+04  0.50400001928E-02 0.  1.
    10030    2    1    2    0    0  0.00000000000E+00  0.00000000000E+00 -0.12166157137E+04  0.41716598168E+04  0.39903122475E+04 0.  0.
        3    1    3    3  502    0  0.31532227985E+03 -0.10558012739E+04  0.11305641465E+04  0.15787082599E+04  0.10100000352E+00 0. -1.
       -3    1    3    3    0  502 -0.31532227985E+03  0.10558012739E+04 -0.23471798602E+04  0.25929515570E+04  0.10100000352E+00 0.  1.
</event>
<event>
 5   0  0.1776653E-07  0.4077881E+04  0.7818609E-02  0.7989017E-01
        2   -1    0    0  501    0  0.00000000000E+00  0.00000000000E+00  0.26457934929E+04  0.26457934929E+04  0.25500000920E-02 0.  1.
       -2   -1    0    0    0  501  0.00000000000E+00  0.00000000000E+00 -0.15712785003E+04  0.15712785003E+04  0.25500000920E-02 0. -1.
    10030    2    1    2    0    0  0.00000000000E+00  0.00000000000E+00  0.10745149926E+04  0.42170719932E+04  0.40778810339E+04 0.  0.
        4    1    3    3  502    0 -0.83581706701E+03  0.14715859939E+04 -0.63871211263E+03  0.18088975324E+04  0.12699999809E+01 0. -1.
       -4    1    3    3    0  502  0.83581706701E+03 -0.14715859939E+04  0.17132271052E+04  0.24081744608E+04  0.12699999809E+01 0.  1.
</event>
<event>
 5   0  0.1785559E-07  0.3767671E+04  0.7818609E-02  0.8053128E-01
       -2   -1    0    0    0  501  0.00000000000E+00  0.00000000000E+00  0.17730906283E+04  0.17730906283E+04  0.25500000920E-02 0.  1.
        2   -1    0    0  501    0  0.00000000000E+00  0.00000000000E+00 -0.20014969216E+04  0.20014969216E+04  0.25500000920E-02 0. -1.
    10030    2    1    2    0    0  0.00000000000E+00  0.00000000000E+00 -0.22840629323E+03  0.37745875499E+04  0.37676705983E+04 0.  0.
        2    1    3    3  502    0 -0.10598929365E+04 -0.31701008027E+03  0.14133804075E+04  0.17948572657E+04  0.25500000920E-02 0.  1.
       -2    1    3    3    0  502  0.10598929365E+04  0.31701008027E+03 -0.16417867007E+04  0.19797302843E+04  0.25500000920E-02 0. -1.
</event>
<event>
 5   0  0.1819906E-07  0.4130005E+04  0.7818609E-02  0.7978822E-01
        2   -1    0    0  501    0  0.00000000000E+00  0.00000000000E+00  0.17169881310E+04  0.17169881310E+04  0.25500000920E-02 0.  1.
       -2   -1    0    0    0  501  0.00000000000E+00  0.00000000000E+00 -0.24835552279E+04  0.24835552279E+04  0.25500000920E-02 0. -1.
    10030    2    1    2    0    0  0.00000000000E+00  0.00000000000E+00 -0.76656709687E+03  0.42005433589E+04  0.41300047695E+04 0.  0.
        1    1    3    3  502    0 -0.32535331606E+03  0.14490112986E+04  0.10760559501E+04  0.18339533613E+04  0.50400001928E-02 0.  1.
       -1    1    3    3    0  502  0.32535331606E+03 -0.14490112986E+04 -0.18426230469E+04  0.23665899976E+04  0.50400001928E-02 0. -1.
</event>
<event>
 5   0  0.1773903E-07  0.3844371E+04  0.7818609E-02  0.8036699E-01
        2   -1    0    0  501    0  0.00000000000E+00  0.00000000000E+00  0.24398737107E+04  0.24398737107E+04  0.25500000920E-02 0. -1.
       -2   -1    0    0    0  501  0.00000000000E+00  0.00000000000E+00 -0.15143393968E+04  0.15143393968E+04  0.25500000920E-02 0.  1.
    10030    2    1    2    0    0  0.00000000000E+00  0.00000000000E+00  0.92553431394E+03  0.39542131074E+04  0.38443708891E+04 0.  0.
        3    1    3    3  502    0  0.14979683987E+04  0.22283204362E+03  0.16803262162E+04  0.22620918739E+04  0.10100000352E+00 0. -1.
       -3    1    3    3    0  502 -0.14979683987E+04 -0.22283204362E+03 -0.75479190223E+03  0.16921212335E+04  0.10100000352E+00 0.  1.
</event>
<event>
 5   0  0.1785559E-07  0.3984452E+04  0.7818609E-02  0.8007690E-01
       -2   -1    0    0    0  501  0.00000000000E+00  0.00000000000E+00  0.16977325043E+04  0.16977325043E+04  0.25500000920E-02 0. -1.
        2   -1    0    0  501    0  0.00000000000E+00  0.00000000000E+00 -0.23378034853E+04  0.23378034853E+04  0.25500000920E-02 0.  1.
    10030    2    1    2    0    0  0.00000000000E+00  0.00000000000E+00 -0.64007098098E+03  0.40355359897E+04  0.39844522664E+04 0.  0.
        2    1    3    3  502    0 -0.15240213459E+04  0.10665429462E+04 -0.10424898825E+04  0.21323555224E+04  0.25500000920E-02 0.  1.
       -2    1    3    3    0  502  0.15240213459E+04 -0.10665429462E+04  0.40241890151E+03  0.19031804673E+04  0.25500000920E-02 0. -1.
</event>
<event>
 5   0  0.5515000E-08  0.3995115E+04  0.7818609E-02  0.8005533E-01
        1   -1    0    0  501    0  0.00000000000E+00  0.00000000000E+00  0.14048396930E+04  0.14048396930E+04  0.50400001928E-02 0.  1.
       -1   -1    0    0    0  501  0.00000000000E+00  0.00000000000E+00 -0.28403496829E+04  0.28403496829E+04  0.50400001928E-02 0. -1.
    10030    2    1    2    0    0  0.00000000000E+00  0.00000000000E+00 -0.14355099899E+04  0.42451893759E+04  0.39951150054E+04 0.  0.
        4    1    3    3  502    0  0.19700843793E+04 -0.29810352369E+02 -0.10671423914E+04  0.22407399704E+04  0.12699999809E+01 0.  1.
       -4    1    3    3    0  502 -0.19700843793E+04  0.29810352369E+02 -0.36836759853E+03  0.20044494055E+04  0.12699999809E+01 0. -1.
</event>
<event>
 5   0  0.5515000E-08  0.3982823E+04  0.7818609E-02  0.8008021E-01
       -1   -1    0    0    0  501  0.00000000000E+00  0.00000000000E+00  0.22551736465E+04  0.22551736465E+04  0.50400001928E-02 0. -1.
        1   -1    0    0  501    0  0.00000000000E+00  0.00000000000E+00 -0.17584984070E+04  0.17584984070E+04  0.50400001928E-02 0.  1.
    10030    2    1    2    0    0  0.00000000000E+00  0.00000000000E+00  0.49667523950E+03  0.40136720536E+04  0.39828227503E+04 0.  0.
        2    1    3    3  502    0 -0.78998868210E+03  0.13110562647E+03 -0.15890919773E+04  0.17794617488E+04  0.25500000920E-02 0.  1.
       -2    1    3    3    0  502  0.78998868210E+03 -0.13110562647E+03  0.20857672168E+04  0.22342103047E+04  0.25500000920E-02 0. -1.
</event>
<event>
 5   0  0.5515000E-08  0.4003995E+04  0.7818609E-02  0.8003741E-01
       -1   -1    0    0    0  501  0.00000000000E+00  0.00000000000E+00  0.15618862401E+04  0.15618862401E+04  0.50400001928E-02 0. -1.
        1   -1    0    0  501    0  0.00000000000E+00  0.00000000000E+00 -0.25661240164E+04  0.25661240164E+04  0.50400001928E-02 0.  1.
    10030    2    1    2    0    0  0.00000000000E+00  0.00000000000E+00 -0.10042377763E+04  0.41280102565E+04  0.40039949009E+04 0.  0.
        4    1    3    3  502    0  0.12412146433E+04 -0.12085848456E+04  0.53230255482E+03  0.18123572337E+04  0.12699999809E+01 0.  1.
       -4    1    3    3    0  502 -0.12412146433E+04  0.12085848456E+04 -0.15365403312E+04  0.23156530228E+04  0.12699999809E+01 0. -1.
</event>
<event>
 5   0  0.5515000E-08  0.4044287E+04  0.7818609E-02  0.7995672E-01
        3   -1    0    0  501    0  0.00000000000E+00  0.00000000000E+00  0.17425897364E+04  0.17425897394E+04  0.10100000352E+00 0. -1.
       -3   -1    0    0    0  501  0.00000000000E+00  0.00000000000E+00 -0.23465446176E+04  0.23465446198E+04  0.10100000352E+00 0.  1.
    10030    2    1    2    0    0  0.00000000000E+00  0.00000000000E+00 -0.60395488117E+03  0.40891343592E+04  0.40442871200E+04 0.  0.
        4    1    3    3  502    0  0.12836289845E+04  0.11139700733E+04  0.80581365357E+03  0.18809492155E+04  0.12699999809E+01 0.  1.
       -4    1    3    3    0  502 -0.12836289845E+04 -0.11139700733E+04 -0.14097685347E+04  0.22081851436E+04  0.12699999809E+01 0. -1.
</event>
<event>
 5   0  0.5515000E-08  0.3960092E+04  0.7818609E-02  0.8012646E-01
        1   -1    0    0  501    0  0.00000000000E+00  0.00000000000E+00  0.21116456439E+04  0.21116456439E+04  0.50400001928E-02 0. -1.
       -1   -1    0    0    0  501  0.00000000000E+00  0.00000000000E+00 -0.18566476967E+04  0.18566476967E+04  0.50400001928E-02 0.  1.
    10030    2    1    2    0    0  0.00000000000E+00  0.00000000000E+00  0.25499794713E+03  0.39682933406E+04  0.39600919287E+04 0.  0.
        5    1    3    3  502    0 -0.56634515646E+03 -0.18887620166E+04  0.30784709147E+03  0.19957356321E+04  0.46999998093E+01 0. -1.
       -5    1    3    3    0  502  0.56634515646E+03  0.18887620166E+04 -0.52849144334E+02  0.19725577085E+04  0.46999998093E+01 0.  1.
</event>
<event>
 5   0  0.1773903E-07  0.3939536E+04  0.7818609E-02  0.8016856E-01
       -2   -1    0    0    0  501  0.00000000000E+00  0.00000000000E+00  0.17013389613E+04  0.17013389613E+04  0.25500000920E-02 0.  1.
        2   -1    0    0  501    0  0.00000000000E+00  0.00000000000E+00 -0.22805481194E+04  0.22805481194E+04  0.25500000920E-02 0. -1.
    10030    2    1    2    0    0  0.00000000000E+00  0.00000000000E+00 -0.57920915813E+03  0.39818870807E+04  0.39395356927E+04 0.  0.
        3    1    3    3  502    0 -0.19537797649E+04 -0.16195754215E+03 -0.48270748291E+03  0.20190324761E+04  0.10100000352E+00 0. -1.
       -3    1    3    3    0  502  0.19537797649E+04  0.16195754215E+03 -0.96501675217E+02  0.19628546046E+04  0.10100000352E+00 0.  1.
</event>
<event>
 5   0  0.1773903E-07  0.3994513E+04  0.7818609E-02  0.8005654E-01
       -2   -1    0    0    0  501  0.00000000000E+00  0.00000000000E+00  0.24960563533E+04  0.24960563533E+04  0.25500000920E-02 0. -1.
        2   -1    0    0  501    0  0.00000000000E+00  0.00000000000E+00 -0.15981340093E+04  0.15981340093E+04  0.25500000920E-02 0.  1.
    10030    2    1    2    0    0  0.00000000000E+00  0.00000000000E+00  0.89792234406E+03  0.40941903626E+04  0.39945125096E+04 0.  0.
        3    1    3    3  502    0 -0.12015716258E+04  0.15951026655E+04  0.47980617658E+03  0.20538599910E+04  0.10100000352E+00 0.  1.
       -3    1    3    3    0  502  0.12015716258E+04 -0.15951026655E+04  0.41811616748E+03  0.20403303716E+04  0.10100000352E+00 0. -1.
</event>
<event>
 5   0  0.1819906E-07  0.3985355E+04  0.7818609E-02  0.8007507E-01
       -2   -1    0    0    0  501  0.00000000000E+00  0.00000000000E+00  0.25457367042E+04  0.25457367042E+04  0.25500000920E-02 0. -1.
        2   -1    0    0  501    0  0.00000000000E+00  0.00000000000E+00 -0.15597701109E+04  0.15597701109E+04  0.25500000920E-02 0.  1.
    10030    2    1    2    0    0  0.00000000000E+00  0.00000000000E+00  0.98596659327E+03  0.41055068151E+04  0.39853552020E+04 0.  0.
        1    1    3    3  502    0  0.15363868302E+04  0.10492972611E+04  0.12281186398E+04  0.22293013766E+04  0.50400001928E-02 0. -1.
       -1    1    3    3    0  502 -0.15363868302E+04 -0.10492972611E+04 -0.24215204650E+03  0.18762054386E+04  0.50400001928E-02 0.  1.
</event>
<event>
 5   0  0.5515000E-08  0.3377911E+04  0.7818609E-02  0.8143349E-01
        1   -1    0    0  501    0  0.00000000000E+00  0.00000000000E+00  0.25002004875E+04  0.25002004875E+04  0.50400001928E-02 0.  1.
       -1   -1    0    0    0  501  0.00000000000E+00  0.00000000000E+00 -0.11409366720E+04  0.11409366720E+04  0.50400001928E-02 0. -1.
    10030    2    1    2    0    0  0.00000000000E+00  0.00000000000E+00  0.13592638156E+04  0.36411371595E+04  0.33779108476E+04 0.  0.
        2    1    3    3  502    0  0.22145053617E+03  0.16202399243E+04  0.22440422423E+03  0.16506286706E+04  0.25500000920E-02 0.  1.
       -2    1    3    3    0  502 -0.22145053617E+03 -0.16202399243E+04  0.11348595913E+04  0.19905084889E+04  0.25500000920E-02 0. -1.
</event>
<event>
 5   0  0.1773903E-07  0.3989818E+04  0.7818609E-02  0.8006604E-01
        2   -1    0    0  501    0  0.00000000000E+00  0.00000000000E+00  0.23320279802E+04  0.23320279802E+04  0.25500000920E-02 0.  1.
       -2   -1    0    0    0  501  0.00000000000E+00  0.00000000000E+00 -0.17065239139E+04  0.17065239139E+04  0.25500000920E-02 0. -1.
    10030    2    1    2    0    0  0.00000000000E+00  0.00000000000E+00  0.62550406627E+03  0.40385518941E+04  0.39898177984E+04 0.  0.
        3    1    3    3  502    0 -0.41746313690E+03  0.27681538327E+03  0.22673380072E+04  0.23220085866E+04  0.10100000352E+00 0.  1.
       -3    1    3    3    0  502  0.41746313690E+03 -0.27681538327E+03 -0.16418339409E+04  0.17165433076E+04  0.10100000352E+00 0. -1.
</event>
<event>
 5   0  0.1776653E-07  0.3982245E+04  0.7818609E-02  0.8008138E-01
        2   -1    0    0  501    0  0.00000000000E+00  0.00000000000E+00  0.25245430143E+04  0.25245430143E+04  0.25500000920E-02 0. -1.
       -2   -1    0    0    0  501  0.00000000000E+00  0.00000000000E+00 -0.15704105942E+04  0.15704105942E+04  0.25500000920E-02 0.  1.
    10030    2    1    2    0    0  0.00000000000E+00  0.00000000000E+00  0.95413242015E+03  0.40949536085E+04  0.39822451432E+04 0.  0.
        4    1    3    3  502    0 -0.12616927141E+04 -0.98817234678E+03  0.16921243234E+04  0.23305877865E+04  0.12699999809E+01 0. -1.
       -4    1    3    3    0  502  0.12616927141E+04  0.98817234678E+03 -0.73799190324E+03  0.17643658220E+04  0.12699999809E+01 0.  1.
</event>
<event>
 5   0  0.1821433E-07  0.4051954E+04  0.7818609E-02  0.7994147E-01
        2   -1    0    0  501    0  0.00000000000E+00  0.00000000000E+00  0.21432782901E+04  0.21432782901E+04  0.25500000920E-02 0. -1.
       -2   -1    0    0    0  501  0.00000000000E+00  0.00000000000E+00 -0.19150954023E+04  0.19150954023E+04  0.25500000920E-02 0.  1.
    10030    2    1    2    0    0  0.00000000000E+00  0.00000000000E+00  0.22818288777E+03  0.40583736924E+04  0.40519537999E+04 0.  0.
        5    1    3    3  502    0  0.21739030034E+03 -0.12122219545E+04 -0.14971274888E+04  0.19385957334E+04  0.46999998093E+01 0.  1.
       -5    1    3    3    0  502 -0.21739030034E+03  0.12122219545E+04  0.17253103766E+04  0.21197779590E+04  0.46999998093E+01 0. -1.
</event>
<event>
 5   0  0.5515000E-08  0.4034561E+04  0.7818609E-02  0.7997611E-01
        1   -1    0    0  501    0  0.00000000000E+00  0.00000000000E+00  0.21076246117E+04  0.21076246117E+04  0.50400001928E-02 0.  1.
       -1   -1    0    0    0  501  0.00000000000E+00  0.00000000000E+00 -0.19308089098E+04  0.19308089098E+04  0.50400001928E-02 0. -1.
    10030    2    1    2    0    0  0.00000000000E+00  0.00000000000E+00  0.17681570194E+03  0.40384335215E+04  0.40345608825E+04 0.  0.
        3    1    3    3  502    0  0.10390103445E+04  0.39841680599E+03 -0.15958069705E+04  0.19454763799E+04  0.10100000352E+00 0. -1.
       -3    1    3    3    0  502 -0.10390103445E+04 -0.39841680599E+03  0.17726226725E+04  0.20929571416E+04  0.10100000352E+00 0.  1.
</event>
<event>
 5   0  0.5515000E-08  0.3962530E+04  0.7818609E-02  0.8012148E-01
        1   -1    0    0  501    0  0.00000000000E+00  0.00000000000E+00  0.21712291492E+04  0.21712291492E+04  0.50400001928E-02 0. -1.
       -1   -1    0    0    0  501  0.00000000000E+00  0.00000000000E+00 -0.18079209489E+04  0.18079209489E+04  0.50400001928E-02 0.  1.
    10030    2    1    2    0    0  0.00000000000E+00  0.00000000000E+00  0.36330820031E+03  0.39791500982E+04  0.39625298302E+04 0.  0.
        3    1    3    3  502    0 -0.12970991146E+04 -0.63005071803E+03  0.15460215417E+04  0.21141458412E+04  0.10100000352E+00 0. -1.
       -3    1    3    3    0  502  0.12970991146E+04  0.63005071803E+03 -0.11827133414E+04  0.18650042570E+04  0.10100000352E+00 0.  1.
</event>
<event>
 5   0  0.5515000E-08  0.3984836E+04  0.7818609E-02  0.8007613E-01
       -1   -1    0    0    0  501  0.00000000000E+00  0.00000000000E+00  0.29423417357E+04  0.29423417357E+04  0.50400001928E-02 0. -1.
        1   -1    0    0  501    0  0.00000000000E+00  0.00000000000E+00 -0.13491735979E+04  0.13491735980E+04  0.50400001928E-02 0.  1.
    10030    2    1    2    0    0  0.00000000000E+00  0.00000000000E+00  0.15931681378E+04  0.42915153337E+04  0.39848361502E+04 0.  0.
        4    1    3    3  502    0 -0.88952331782E+03 -0.16560259248E+04  0.15077494778E+04  0.24097683908E+04  0.12699999809E+01 0. -1.
       -4    1    3    3    0  502  0.88952331782E+03  0.16560259248E+04  0.85418659937E+02  0.18817469429E+04  0.12699999809E+01 0.  1.
</event>
<event>
 5   0  0.5515000E-08  0.4041120E+04  0.7818609E-02  0.7996302E-01
       -1   -1    0    0    0  501  0.00000000000E+00  0.00000000000E+00  0.20798184043E+04  0.20798184043E+04  0.50400001928E-02 0. -1.
        1   -1    0    0  501    0  0.00000000000E+00  0.00000000000E+00 -0.19629904172E+04  0.19629904172E+04  0.50400001928E-02 0.  1.
    10030    2    1    2    0    0  0.00000000000E+00  0.00000000000E+00  0.11682798711E+03  0.40428088216E+04  0.40411204374E+04 0.  0.
        5    1    3    3  502    0 -0.15820007672E+04  0.75917749360E+03  0.10606132596E+04  0.20503656919E+04  0.46999998093E+01 0. -1.
       -5    1    3    3    0  502  0.15820007672E+04 -0.75917749360E+03 -0.94378527247E+03  0.19924431296E+04  0.46999998093E+01 0.  1.
</event>
<event>
 5   0  0.1773903E-07  0.3975515E+04  0.7818609E-02  0.8009504E-01
       -2   -1    0    0    0  501  0.00000000000E+00  0.00000000000E+00  0.32926646999E+04  0.32926646999E+04  0.25500000920E-02 0.  1.
        2   -1    0    0  501    0  0.00000000000E+00  0.00000000000E+00 -0.11999945361E+04  0.11999945361E+04  0.25500000920E-02 0. -1.
    10030    2    1    2    0    0  0.00000000000E+00  0.00000000000E+00  0.20926701638E+04  0.44926592359E+04  0.39755148844E+04 0.  0.
        3    1    3    3  502    0  0.14348812285E+04  0.74371198490E+03 -0.26143340156E+03  0.16371741172E+04  0.10100000352E+00 0. -1.
       -3    1    3    3    0  502 -0.14348812285E+04 -0.74371198490E+03  0.23541035654E+04  0.28554851187E+04  0.10100000352E+00 0.  1.
</event>
<event>
 5   0  0.5515000E-08  0.4061156E+04  0.7818609E-02  0.7992322E-01
       -1   -1    0    0    0  501  0.00000000000E+00  0.00000000000E+00  0.30027757098E+04  0.30027757098E+04  0.50400001928E-02 0. -1.
        1   -1    0    0  501    0  0.00000000000E+00  0.00000000000E+00 -0.13731452090E+04  0.13731452090E+04  0.50400001928E-02 0.  1.
    10030    2    1    2    0    0  0.00000000000E+00  0.00000000000E+00  0.16296305008E+04  0.43759209189E+04  0.40611560324E+04 0.  0.
        2    1    3    3  502    0 -0.67073543707E+03 -0.99114792679E+03  0.25823809942E+04  0.28462171103E+04  0.25500000920E-02 0. -1.
       -2    1    3    3    0  502  0.67073543707E+03  0.99114792679E+03 -0.95275049346E+03  0.15297038086E+04  0.25500000920E-02 0.  1.
</event>
<event>
 5   0  0.5515000E-08  0.3944381E+04  0.7818609E-02  0.8015862E-01
        1   -1    0    0  501    0  0.00000000000E+00  0.00000000000E+00  0.13114830400E+04  0.13114830400E+04  0.50400001928E-02 0. -1.
       -1   -1    0    0    0  501  0.00000000000E+00  0.00000000000E+00 -0.29657539662E+04  0.29657539662E+04  0.50400001928E-02 0.  1.
    10030    2    1    2    0    0  0.00000000000E+00  0.00000000000E+00 -0.16542709262E+04  0.42772370062E+04  0.39443813342E+04 0.  0.
        4    1    3    3  502    0 -0.21940279693E+03  0.11443227366E+04 -0.25526141838E+04  0.28059673728E+04  0.12699999809E+01 0.  1.
       -4    1    3    3    0  502  0.21940279693E+03 -0.11443227366E+04  0.89834325758E+03  0.14712696334E+04  0.12699999809E+01 0. -1.
</event>
<event>
 5   0  0.5515000E-08  0.4013948E+04  0.7818609E-02  0.8001739E-01
       -1   -1    0    0    0  501  0.00000000000E+00  0.00000000000E+00  0.20761536194E+04  0.20761536194E+04  0.50400001928E-02 0.  1.
        1   -1    0    0  501    0  0.00000000000E+00  0.00000000000E+00 -0.19400998859E+04  0.19400998859E+04  0.50400001928E-02 0. -1.
    10030    2    1    2    0    0  0.00000000000E+00  0.00000000000E+00  0.13605373352E+03  0.40162535054E+04  0.40139483804E+04 0.  0.
        3    1    3    3  502    0 -0.91420731048E+03  0.12417230583E+04  0.13534023885E+04  0.20516698553E+04  0.10100000352E+00 0.  1.
       -3    1    3    3    0  502  0.91420731048E+03 -0.12417230583E+04 -0.12173486550E+04  0.19645836500E+04  0.10100000352E+00 0. -1.
</event>
<event>
 5   0  0.5515000E-08  0.3988360E+04  0.7818609E-02  0.8006899E-01
       -1   -1    0    0    0  501  0.00000000000E+00  0.00000000000E+00  0.23124677100E+04  0.23124677100E+04  0.50400001928E-02 0. -1.
        1   -1    0    0  501    0  0.00000000000E+00  0.00000000000E+00 -0.17197010378E+04  0.17197010378E+04  0.50400001928E-02 0.  1.
    10030    2    1    2    0    0  0.00000000000E+00  0.00000000000E+00  0.59276667220E+03  0.40321687477E+04  0.39883596230E+04 0.  0.
        4    1    3    3  502    0 -0.16027915622E+04 -0.11471420108E+04 -0.10056516912E+02  0.19710348377E+04  0.12699999809E+01 0.  1.
       -4    1    3    3    0  502  0.16027915622E+04  0.11471420108E+04  0.60282318912E+03  0.20611339101E+04  0.12699999809E+01 0. -1.
</event>
<event>
 5   0  0.1785559E-07  0.3733802E+04  0.7818609E-02  0.8060512E-01
       -2   -1    0    0    0  501  0.00000000000E+00  0.00000000000E+00  0.11823537830E+04  0.11823537830E+04  0.25500000920E-02 0.  1.
        2   -1    0    0  501    0  0.00000000000E+00  0.00000000000E+00 -0.29477809292E+04  0.29477809292E+04  0.25500000920E-02 0. -1.
    10030    2    1    2    0    0  0.00000000000E+00  0.00000000000E+00 -0.17654271463E+04  0.41301347122E+04  0.37338023156E+04 0.  0.
        2    1    3    3  502    0 -0.41954261202E+03 -0.29750443917E+03  0.11024415130E+04  0.12165123034E+04  0.25500000920E-02 0.  1.
       -2    1    3    3    0  502  0.41954261202E+03  0.29750443917E+03 -0.28678686593E+04  0.29136224089E+04  0.25500000920E-02 0. -1.
</event>
<event>
 5   0  0.1821433E-07  0.4017337E+04  0.7818609E-02  0.8001058E-01
        2   -1    0    0  501    0  0.00000000000E+00  0.00000000000E+00  0.19952285776E+04  0.19952285776E+04  0.25500000920E-02 0.  1.
       -2   -1    0    0    0  501  0.00000000000E+00  0.00000000000E+00 -0.20221986410E+04  0.20221986410E+04  0.25500000920E-02 0. -1.
    10030    2    1    2    0    0  0.00000000000E+00  0.00000000000E+00 -0.26970063491E+02  0.40174272186E+04  0.40173366890E+04 0.  0.
        5    1    3    3  502    0  0.26898831832E+03  0.98886632696E+03  0.17141288175E+04  0.19971156754E+04  0.46999998093E+01 0.  1.
       -5    1    3    3    0  502 -0.26898831832E+03 -0.98886632696E+03 -0.17410988810E+04  0.20203115432E+04  0.46999998093E+01 0. -1.
</event>
<event>
 5   0  0.1773903E-07  0.4085056E+04  0.7818609E-02  0.7987605E-01
        2   -1    0    0  501    0  0.00000000000E+00  0.00000000000E+00  0.15623657685E+04  0.15623657685E+04  0.25500000920E-02 0. -1.
       -2   -1    0    0    0  501  0.00000000000E+00  0.00000000000E+00 -0.26702581990E+04  0.26702581991E+04  0.25500000920E-02 0.  1.
    10030    2    1    2    0    0  0.00000000000E+00  0.00000000000E+00 -0.11078924306E+04  0.42326239675E+04  0.40850556928E+04 0.  0.
        3    1    3    3  502    0 -0.18568070683E+04 -0.60198337437E+03  0.69283424616E+02  0.19531811680E+04  0.10100000352E+00 0.  1.
       -3    1    3    3    0  502  0.18568070683E+04  0.60198337437E+03 -0.11771758552E+04  0.22794427995E+04  0.10100000352E+00 0. -1.
</event>
<event>
 5   0  0.1821433E-07  0.3926224E+04  0.7818609E-02  0.8019597E-01
        2   -1    0    0  501    0  0.00000000000E+00  0.00000000000E+00  0.25690651256E+04  0.25690651256E+04  0.25500000920E-02 0. -1.
       -2   -1    0    0    0  501  0.00000000000E+00  0.00000000000E+00 -0.15000820877E+04  0.15000820877E+04  0.25500000920E-02 0.  1.
    10030    2    1    2    0    0  0.00000000000E+00  0.00000000000E+00  0.10689830378E+04  0.40691472133E+04  0.39262239249E+04 0.  0.
        5    1    3    3  502    0  0.14133029080E+04  0.13610543334E+04  0.46983065846E+03  0.20175869116E+04  0.46999998093E+01 0.  1.
       -5    1    3    3    0  502 -0.14133029080E+04 -0.13610543334E+04  0.59915237937E+03  0.20515603018E+04  0.46999998093E+01 0. -1.
</event>
<event>
 5   0  0.5515000E-08  0.3683173E+04  0.7818609E-02  0.8071701E-01
       -1   -1    0    0    0  501  0.00000000000E+00  0.00000000000E+00  0.26372119735E+04  0.26372119735E+04  0.50400001928E-02 0. -1.
        1   -1    0    0  501    0  0.00000000000E+00  0.00000000000E+00 -0.12859945331E+04  0.12859945331E+04  0.50400001928E-02 0.  1.
    10030    2    1    2    0    0  0.00000000000E+00  0.00000000000E+00  0.13512174404E+04  0.39232065065E+04  0.36831726435E+04 0.  0.
        4    1    3    3  502    0  0.16937214587E+04 -0.37315965992E+03  0.15978299887E+02  0.17344155876E+04  0.12699999809E+01 0.  1.
       -4    1    3    3    0  502 -0.16937214587E+04  0.37315965992E+03  0.13352391405E+04  0.21887909189E+04  0.12699999809E+01 0. -1.
</event>
<event>
 5   0  0.5515000E-08  0.3936617E+04  0.7818609E-02  0.8017456E-01
        1   -1    0    0  501    0  0.00000000000E+00  0.00000000000E+00  0.16945038895E+04  0.16945038895E+04  0.50400001928E-02 0. -1.
       -1   -1    0    0    0  501  0.00000000000E+00  0.00000000000E+00 -0.22863551984E+04  0.22863551984E+04  0.50400001928E-02 0.  1.
    10030    2    1    2    0    0  0.00000000000E+00  0.00000000000E+00 -0.59185130889E+03  0.39808590879E+04  0.39366167081E+04 0.  0.
        5    1    3    3  502    0 -0.97356044863E+03 -0.62606130237E+03  0.13139596516E+04  0.17510810254E+04  0.46999998093E+01 0. -1.
       -5    1    3    3    0  502  0.97356044863E+03  0.62606130237E+03 -0.19058109604E+04  0.22297780626E+04  0.46999998093E+01 0.  1.
</event>
<event>
 5   0  0.5515000E-08  0.4059386E+04  0.7818609E-02  0.7992672E-01
       -1   -1    0    0    0  501  0.00000000000E+00  0.00000000000E+00  0.14238946864E+04  0.14238946864E+04  0.50400001928E-02 0.  1.
        1   -1    0    0  501    0  0.00000000000E+00  0.00000000000E+00 -0.28932298301E+04  0.28932298301E+04  0.50400001928E-02 0. -1.
    10030    2    1    2    0    0  0.00000000000E+00  0.00000000000E+00 -0.14693351438E+04  0.43171245165E+04  0.40593864470E+04 0.  0.
        3    1    3    3  502    0  0.14164581015E+04  0.45827754402E+03 -0.22018557831E+04  0.26579203826E+04  0.10100000352E+00 0. -1.
       -3    1    3    3    0  502 -0.14164581015E+04 -0.45827754402E+03  0.73252063927E+03  0.16592041339E+04  0.10100000352E+00 0.  1.
</event>
<event>
 5   0  0.5515000E-08  0.3930357E+04  0.7818609E-02  0.8018745E-01
       -1   -1    0    0    0  501  0.00000000000E+00  0.00000000000E+00  0.22735511522E+04  0.22735511522E+04  0.50400001928E-02 0. -1.
        1   -1    0    0  501    0  0.00000000000E+00  0.00000000000E+00 -0.16986319634E+04  0.16986319634E+04  0.50400001928E-02 0.  1.
    10030    2    1    2    0    0  0.00000000000E+00  0.00000000000E+00  0.57491918876E+03  0.39721831156E+04  0.39303570614E+04 0.  0.
        5    1    3    3  502    0  0.72557596161E+03 -0.11293313176E+04  0.17380227700E+04  0.21960407419E+04  0.46999998093E+01 0. -1.
       -5    1    3    3    0  502 -0.72557596161E+03  0.11293313176E+04 -0.11631035812E+04  0.17761423737E+04  0.46999998093E+01 0.  1.
</event>
<event>
 5   0  0.1785559E-07  0.3981163E+04  0.7818609E-02  0.8008357E-01
        2   -1    0    0  501    0  0.00000000000E+00  0.00000000000E+00  0.14579339836E+04  0.14579339836E+04  0.25500000920E-02 0. -1.
       -2   -1    0    0    0  501  0.00000000000E+00  0.00000000000E+00 -0.27178290864E+04  0.27178290864E+04  0.25500000920E-02 0.  1.
    10030    2    1    2    0    0  0.00000000000E+00  0.00000000000E+00 -0.12598951028E+04  0.41757630700E+04  0.39811633409E+04 0.  0.
        2    1    3    3  502    0  0.72635619642E+02 -0.35170060058E+03 -0.26835696815E+04  0.27074924711E+04  0.25500000920E-02 0.  1.
       -2    1    3    3    0  502 -0.72635619642E+02  0.35170060058E+03  0.14236745787E+04  0.14682705989E+04  0.25500000920E-02 0. -1.
</event>
<event>
 5   0  0.1773903E-07  0.3941116E+04  0.7818609E-02  0.8016532E-01
        2   -1    0    0  501    0  0.00000000000E+00  0.00000000000E+00  0.25690595425E+04  0.25690595425E+04  0.25500000920E-02 0. -1.
       -2   -1    0    0    0  501  0.00000000000E+00  0.00000000000E+00 -0.15114863590E+04  0.15114863590E+04  0.25500000920E-02 0.  1.
    10030    2    1    2    0    0  0.00000000000E+00  0.00000000000E+00  0.10575731835E+04  0.40805459015E+04  0.39411158085E+04 0.  0.
        3    1    3    3  502    0 -0.15927691417E+04 -0.78146528969E+03 -0.35916542098E+03  0.18101384885E+04  0.10100000352E+00 0.  1.
       -3    1    3    3    0  502  0.15927691417E+04  0.78146528969E+03  0.14167386044E+04  0.22704074130E+04  0.10100000352E+00 0. -1.
</event>
<event>
 5   0  0.1773903E-07  0.3364464E+04  0.7818609E-02  0.8146683E-01
       -2   -1    0    0    0  501  0.00000000000E+00  0.00000000000E+00  0.14528609699E+04  0.14528609699E+04  0.25500000920E-02 0.  1.
        2   -1    0    0  501    0  0.00000000000E+00  0.00000000000E+00 -0.19478151357E+04  0.19478151357E+04  0.25500000920E-02 0. -1.
    10030    2    1    2    0    0  0.00000000000E+00  0.00000000000E+00 -0.49495416573E+03  0.34006761056E+04  0.33644640508E+04 0.  0.
        3    1    3    3  502    0  0.44749460441E+03 -0.13551975912E+04 -0.11476197311E+04  0.18313500456E+04  0.10100000352E+00 0. -1.
       -3    1    3    3    0  502 -0.44749460441E+03  0.13551975912E+04  0.65266556538E+03  0.15693260600E+04  0.10100000352E+00 0.  1.
</event>
<event>
 5   0  0.5515000E-08  0.3983275E+04  0.7818609E-02  0.8007929E-01
       -1   -1    0    0    0  501  0.00000000000E+00  0.00000000000E+00  0.11476657209E+04  0.11476657209E+04  0.50400001928E-02 0.  1.
        1   -1    0    0  501    0  0.00000000000E+00  0.00000000000E+00 -0.34562499342E+04  0.34562499342E+04  0.50400001928E-02 0. -1.
    10030    2    1    2    0    0  0.00000000000E+00  0.00000000000E+00 -0.23085842133E+04  0.46039156551E+04  0.39832748197E+04 0.  0.
        2    1    3    3  502    0 -0.14092638476E+04  0.34499413923E+02  0.47183464326E+03  0.14865539790E+04  0.25500000920E-02 0.  1.
       -2    1    3    3    0  502  0.14092638476E+04 -0.34499413923E+02 -0.27804188566E+04  0.31173616761E+04  0.25500000920E-02 0. -1.
</event>
<event>
 5   0  0.1776653E-07  0.3998223E+04  0.7818609E-02  0.8004905E-01
        2   -1    0    0  501    0  0.00000000000E+00  0.00000000000E+00  0.14915396753E+04  0.14915396753E+04  0.25500000920E-02 0.  1.
       -2   -1    0    0    0  501  0.00000000000E+00  0.00000000000E+00 -0.26794108342E+04  0.26794108342E+04  0.25500000920E-02 0. -1.
    10030    2    1    2    0    0  0.00000000000E+00  0.00000000000E+00 -0.11878711589E+04  0.41709505094E+04  0.39982233882E+04 0.  0.
        4    1    3    3  502    0 -0.10845809792E+04  0.21726197287E+03 -0.23310851855E+04  0.25802089877E+04  0.12699999809E+01 0. -1.
       -4    1    3    3    0  502  0.10845809792E+04 -0.21726197287E+03  0.11432140266E+04  0.15907415217E+04  0.12699999809E+01 0.  1.
</event>
<event>
 5   0  0.1773903E-07  0.3924547E+04  0.7818609E-02  0.8019943E-01
       -2   -1    0    0    0  501  0.00000000000E+00  0.00000000000E+00  0.14722523551E+04  0.14722523551E+04  0.25500000920E-02 0.  1.
        2   -1    0    0  501    0  0.00000000000E+00  0.00000000000E+00 -0.26153926639E+04  0.26153926639E+04  0.25500000920E-02 0. -1.
    10030    2    1    2    0    0  0.00000000000E+00  0.00000000000E+00 -0.11431403089E+04  0.40876450190E+04  0.39245473670E+04 0.  0.
        3    1    3    3  502    0 -0.16241650159E+04 -0.16051006640E+03 -0.17062677815E+04  0.23611491340E+04  0.10100000352E+00 0. -1.
       -3    1    3    3    0  502  0.16241650159E+04  0.16051006640E+03  0.56312747269E+03  0.17264958850E+04  0.10100000352E+00 0.  1.
</event>
<event>
 5   0  0.1773903E-07  0.4002038E+04  0.7818609E-02  0.8004136E-01
       -2   -1    0    0    0  501  0.00000000000E+00  0.00000000000E+00  0.13999115242E+04  0.13999115242E+04  0.25500000920E-02 0.  1.
        2   -1    0    0  501    0  0.00000000000E+00  0.00000000000E+00 -0.28602360652E+04  0.28602360652E+04  0.25500000920E-02 0. -1.
    10030    2    1    2    0    0  0.00000000000E+00  0.00000000000E+00 -0.14603245410E+04  0.42601475894E+04  0.40020381955E+04 0.  0.
        3    1    3    3  502    0  0.50449995989E+03 -0.19934406844E+03  0.13201489358E+04  0.14272531275E+04  0.10100000352E+00 0.  1.
       -3    1    3    3    0  502 -0.50449995989E+03  0.19934406844E+03 -0.27804734768E+04  0.28328944619E+04  0.10100000352E+00 0. -1.
</event>
<event>
 5   0  0.1773903E-07  0.3983646E+04  0.7818609E-02  0.8007854E-01
       -2   -1    0    0    0  501  0.00000000000E+00  0.00000000000E+00  0.11202909639E+04  0.11202909639E+04  0.25500000920E-02 0.  1.
        2   -1    0    0  501    0  0.00000000000E+00  0.00000000000E+00 -0.35413652594E+04  0.35413652594E+04  0.25500000920E-02 0. -1.
    10030    2    1    2    0    0  0.00000000000E+00  0.00000000000E+00 -0.24210742955E+04  0.46616562234E+04  0.39836463197E+04 0.  0.
        3    1    3    3  502    0  0.10783273620E+02  0.13694208455E+04 -0.29030540662E+04  0.32098524347E+04  0.10100000352E+00 0. -1.
       -3    1    3    3    0  502 -0.10783273620E+02 -0.13694208455E+04  0.48197977072E+03  0.14518037887E+04  0.10100000352E+00 0.  1.
</event>
<event>
 5   0  0.1821433E-07  0.3995521E+04  0.7818609E-02  0.8005451E-01
       -2   -1    0    0    0  501  0.00000000000E+00  0.00000000000E+00  0.20149000997E+04  0.20149000997E+04  0.25500000920E-02 0.  1.
        2   -1    0    0  501    0  0.00000000000E+00  0.00000000000E+00 -0.19807664622E+04  0.19807664622E+04  0.25500000920E-02 0. -1.
    10030    2    1    2    0    0  0.00000000000E+00  0.00000000000E+00  0.34133637531E+02  0.39956665619E+04  0.39955207631E+04 0.  0.
        5    1    3    3  502    0  0.12434138777E+04  0.17789094673E+03  0.15706038542E+04  0.20111046261E+04  0.46999998093E+01 0.  1.
       -5    1    3    3    0  502 -0.12434138777E+04 -0.17789094673E+03 -0.15364702167E+04  0.19845619358E+04  0.46999998093E+01 0. -1.
</event>
<event>
 5   0  0.5515000E-08  0.3218493E+04  0.7818609E-02  0.8183950E-01
        1   -1    0    0  501    0  0.00000000000E+00  0.00000000000E+00  0.17072880119E+04  0.17072880120E+04  0.50400001928E-02 0.  1.
       -1   -1    0    0    0  501  0.00000000000E+00  0.00000000000E+00 -0.15168353409E+04  0.15168353409E+04  0.50400001928E-02 0. -1.
    10030    2    1    2    0    0  0.00000000000E+00  0.00000000000E+00  0.19045267109E+03  0.32241233528E+04  0.32184933081E+04 0.  0.
        5    1    3    3  502    0 -0.10616612450E+04  0.91647804599E+03 -0.69520151707E+03  0.15653701949E+04  0.46999998093E+01 0. -1.
       -5    1    3    3    0  502  0.10616612450E+04 -0.91647804599E+03  0.88565418816E+03  0.16587531579E+04  0.46999998093E+01 0.  1.
</event>
<event>
 5   0  0.5515000E-08  0.4022750E+04  0.7818609E-02  0.7999973E-01
        1   -1    0    0  501    0  0.00000000000E+00  0.00000000000E+00  0.20224076392E+04  0.20224076392E+04  0.50400001928E-02 0.  1.
       -1   -1    0    0    0  501  0.00000000000E+00  0.00000000000E+00 -0.20004020988E+04  0.20004020988E+04  0.50400001928E-02 0. -1.
    10030    2    1    2    0    0  0.00000000000E+00  0.00000000000E+00  0.22005540426E+02  0.40228097379E+04  0.40227495502E+04 0.  0.
        2    1    3    3  502    0  0.77234584745E+03  0.11241215598E+04  0.14893553987E+04  0.20194917412E+04  0.25500000920E-02 0.  1.
       -2    1    3    3    0  502 -0.77234584745E+03 -0.11241215598E+04 -0.14673498583E+04  0.20033179967E+04  0.25500000920E-02 0. -1.
</event>
<event>
 5   0  0.5515000E-08  0.4004108E+04  0.7818609E-02  0.8003718E-01
        1   -1    0    0  501    0  0.00000000000E+00  0.00000000000E+00  0.24147767926E+04  0.24147767926E+04  0.50400001928E-02 0.  1.
       -1   -1    0    0    0  501  0.00000000000E+00  0.00000000000E+00 -0.16598719561E+04  0.16598719561E+04  0.50400001928E-02 0. -1.
    10030    2    1    2    0    0  0.00000000000E+00  0.00000000000E+00  0.75490483647E+03  0.40746487487E+04  0.40041080297E+04 0.  0.
        4    1    3    3  502    0  0.14107141289E+03  0.81651556621E+02  0.24080130463E+04  0.24135236822E+04  0.12699999809E+01 0.  1.
       -4    1    3    3    0  502 -0.14107141289E+03 -0.81651556621E+02 -0.16531082099E+04  0.16611250665E+04  0.12699999809E+01 0. -1.
</event>
<event>
 5   0  0.1773903E-07  0.4015405E+04  0.7818609E-02  0.8001446E-01
       -2   -1    0    0    0  501  0.00000000000E+00  0.00000000000E+00  0.21517637704E+04  0.21517637704E+04  0.25500000920E-02 0.  1.
        2   -1    0    0  501    0  0.00000000000E+00  0.00000000000E+00 -0.18732865192E+04  0.18732865192E+04  0.25500000920E-02 0. -1.
    10030    2    1    2    0    0  0.00000000000E+00  0.00000000000E+00  0.27847725121E+03  0.40250502896E+04  0.40154053661E+04 0.  0.
        3    1    3    3  502    0  0.23616548711E+03 -0.85319751591E+03  0.19455519505E+04  0.21374967932E+04  0.10100000352E+00 0.  1.
       -3    1    3    3    0  502 -0.23616548711E+03  0.85319751591E+03 -0.16670746993E+04  0.18875534964E+04  0.10100000352E+00 0. -1.
</event>
<event>
 5   0  0.1773903E-07  0.4030535E+04  0.7818609E-02  0.7998415E-01
       -2   -1    0    0    0  501  0.00000000000E+00  0.00000000000E+00  0.17262379123E+04  0.17262379123E+04  0.25500000920E-02 0. -1.
        2   -1    0    0  501    0  0.00000000000E+00  0.00000000000E+00 -0.23526907491E+04  0.23526907491E+04  0.25500000920E-02 0.  1.
    10030    2    1    2    0    0  0.00000000000E+00  0.00000000000E+00 -0.62645283676E+03  0.40789286614E+04  0.40305354320E+04 0.  0.
        3    1    3    3  502    0 -0.18515549140E+04 -0.78755793944E+03 -0.19872713744E+03  0.20218792231E+04  0.10100000352E+00 0. -1.
       -3    1    3    3    0  502  0.18515549140E+04  0.78755793944E+03 -0.42772569933E+03  0.20570494383E+04  0.10100000352E+00 0.  1.
</event>
<event>
 5   0  0.1819906E-07  0.3962374E+04  0.7818609E-02  0.8012180E-01
        2   -1    0    0  501    0  0.00000000000E+00  0.00000000000E+00  0.18722985580E+04  0.18722985580E+04  0.25500000920E-02 0.  1.
       -2   -1    0    0    0  501  0.00000000000E+00  0.00000000000E+00 -0.20964083465E+04  0.20964083465E+04  0.25500000920E-02 0. -1.
    10030    2    1    2    0    0  0.00000000000E+00  0.00000000000E+00 -0.22410978849E+03  0.39687069044E+04  0.39623741994E+04 0.  0.
        1    1    3    3  502    0  0.92937103143E+03 -0.94595222715E+03 -0.15863265511E+04  0.20676044247E+04  0.50400001928E-02 0. -1.
       -1    1    3    3    0  502 -0.92937103143E+03  0.94595222715E+03  0.13622167626E+04  0.19011024798E+04  0.50400001928E-02 0.  1.
</event>
<event>
 5   0  0.5515000E-08  0.4012328E+04  0.7818609E-02  0.8002064E-01
       -1   -1    0    0    0  501  0.00000000000E+00  0.00000000000E+00  0.14297158657E+04  0.14297158658E+04  0.50400001928E-02 0.  1.
        1   -1    0    0  501    0  0.00000000000E+00  0.00000000000E+00 -0.28150310140E+04  0.28150310140E+04  0.50400001928E-02 0. -1.
    10030    2    1    2    0    0  0.00000000000E+00  0.00000000000E+00 -0.13853151482E+04  0.42447468797E+04  0.40123282534E+04 0.  0.
        1    1    3    3  502    0  0.16173539195E+04 -0.27020883087E+03 -0.19153968499E+04  0.25214265022E+04  0.50400001928E-02 0. -1.
       -1    1    3    3    0  502 -0.16173539195E+04  0.27020883087E+03  0.53008170162E+03  0.17233203776E+04  0.50400001928E-02 0.  1.
</event>
<event>
 5   0  0.1785559E-07  0.4104098E+04  0.7818609E-02  0.7983870E-01
       -2   -1    0    0    0  501  0.00000000000E+00  0.00000000000E+00  0.18861415280E+04  0.18861415280E+04  0.25500000920E-02 0. -1.
        2   -1    0    0  501    0  0.00000000000E+00  0.00000000000E+00 -0.22325494882E+04  0.22325494882E+04  0.25500000920E-02 0.  1.
    10030    2    1    2    0    0  0.00000000000E+00  0.00000000000E+00 -0.34640796020E+03  0.41186910162E+04  0.41040976124E+04 0.  0.
        2    1    3    3  502    0 -0.31546846836E+03  0.19285949402E+04  0.45504560871E+03  0.20065057448E+04  0.25500000920E-02 0. -1.
       -2    1    3    3    0  502  0.31546846836E+03 -0.19285949402E+04 -0.80145356891E+03  0.21121852714E+04  0.25500000920E-02 0.  1.
</event>
<event>
 5   0  0.1773903E-07  0.3954962E+04  0.7818609E-02  0.8013694E-01
       -2   -1    0    0    0  501  0.00000000000E+00  0.00000000000E+00  0.15586624217E+04  0.15586624217E+04  0.25500000920E-02 0. -1.
        2   -1    0    0  501    0  0.00000000000E+00  0.00000000000E+00 -0.25088374954E+04  0.25088374954E+04  0.25500000920E-02 0.  1.
    10030    2    1    2    0    0  0.00000000000E+00  0.00000000000E+00 -0.95017507373E+03  0.40674999171E+04  0.39549618083E+04 0.  0.
        3    1    3    3  502    0 -0.14468371491E+04  0.12155690961E+04  0.12414501240E+03  0.18937681901E+04  0.10100000352E+00 0. -1.
       -3    1    3    3    0  502  0.14468371491E+04 -0.12155690961E+04 -0.10743200861E+04  0.21737317270E+04  0.10100000352E+00 0.  1.
</event>
<event>
 5   0  0.5515000E-08  0.3988793E+04  0.7818609E-02  0.8006811E-01
       -1   -1    0    0    0  501  0.00000000000E+00  0.00000000000E+00  0.15757449388E+04  0.15757449388E+04  0.50400001928E-02 0. -1.
        1   -1    0    0  501    0  0.00000000000E+00  0.00000000000E+00 -0.25242769073E+04  0.25242769073E+04  0.50400001928E-02 0.  1.
    10030    2    1    2    0    0  0.00000000000E+00  0.00000000000E+00 -0.94853196849E+03  0.41000218461E+04  0.39887925796E+04 0.  0.
        1    1    3    3  502    0  0.18185902315E+04  0.81540505470E+03 -0.39830860542E+03  0.20324383332E+04  0.50400001928E-02 0. -1.
       -1    1    3    3    0  502 -0.18185902315E+04 -0.81540505470E+03 -0.55022336307E+03  0.20675835128E+04  0.50400001928E-02 0.  1.
</event>
<event>
 5   0  0.1776653E-07  0.4008799E+04  0.7818609E-02  0.8002774E-01
       -2   -1    0    0    0  501  0.00000000000E+00  0.00000000000E+00  0.29945220671E+04  0.29945220671E+04  0.25500000920E-02 0.  1.
        2   -1    0    0  501    0  0.00000000000E+00  0.00000000000E+00 -0.13416556725E+04  0.13416556725E+04  0.25500000920E-02 0. -1.
    10030    2    1    2    0    0  0.00000000000E+00  0.00000000000E+00  0.16528663946E+04  0.43361777397E+04  0.40087990809E+04 0.  0.
        4    1    3    3  502    0 -0.18148204080E+04  0.49955388941E+03  0.81348362643E+02  0.18840770607E+04  0.12699999809E+01 0.  1.
       -4    1    3    3    0  502  0.18148204080E+04 -0.49955388941E+03  0.15715180320E+04  0.24521006789E+04  0.12699999809E+01 0. -1.
</event>
<event>
 5   0  0.1821433E-07  0.3932324E+04  0.7818609E-02  0.8018340E-01
       -2   -1    0    0    0  501  0.00000000000E+00  0.00000000000E+00  0.22052530433E+04  0.22052530433E+04  0.25500000920E-02 0. -1.
        2   -1    0    0  501    0  0.00000000000E+00  0.00000000000E+00 -0.17529929725E+04  0.17529929725E+04  0.25500000920E-02 0.  1.
    10030    2    1    2    0    0  0.00000000000E+00  0.00000000000E+00  0.45226007086E+03  0.39582460158E+04  0.39323240393E+04 0.  0.
        5    1    3    3  502    0  0.17952841953E+04  0.61482050751E+03 -0.29177246748E+03  0.19199486610E+04  0.46999998093E+01 0.  1.
       -5    1    3    3    0  502 -0.17952841953E+04 -0.61482050751E+03  0.74403253833E+03  0.20382973548E+04  0.46999998093E+01 0. -1.
</event>
<event>
 5   0  0.1776653E-07  0.3967420E+04  0.7818609E-02  0.8011151E-01
        2   -1    0    0  501    0  0.00000000000E+00  0.00000000000E+00  0.21153360329E+04  0.21153360329E+04  0.25500000920E-02 0.  1.
       -2   -1    0    0    0  501  0.00000000000E+00  0.00000000000E+00 -0.18602743246E+04  0.18602743246E+04  0.25500000920E-02 0. -1.
    10030    2    1    2    0    0  0.00000000000E+00  0.00000000000E+00  0.25506170827E+03  0.39756103575E+04  0.39674199727E+04 0.  0.
        4    1    3    3  502    0 -0.14629281851E+04 -0.93259341847E+03 -0.83633548833E+03  0.19259667756E+04  0.12699999809E+01 0. -1.
       -4    1    3    3    0  502  0.14629281851E+04  0.93259341847E+03  0.10913971966E+04  0.20496435818E+04  0.12699999809E+01 0.  1.
</event>
<event>
 5   0  0.1773903E-07  0.4014489E+04  0.7818609E-02  0.8001630E-01
       -2   -1    0    0    0  501  0.00000000000E+00  0.00000000000E+00  0.22552088540E+04  0.22552088540E+04  0.25500000920E-02 0.  1.
        2   -1    0    0  501    0  0.00000000000E+00  0.00000000000E+00 -0.17865446688E+04  0.17865446688E+04  0.25500000920E-02 0. -1.
    10030    2    1    2    0    0  0.00000000000E+00  0.00000000000E+00  0.46866418515E+03  0.40417535228E+04  0.40144894346E+04 0.  0.
        3    1    3    3  502    0 -0.70705514230E+03  0.79577390001E+03  0.19476083946E+04  0.22195408406E+04  0.10100000352E+00 0. -1.
       -3    1    3    3    0  502  0.70705514230E+03 -0.79577390001E+03 -0.14789442095E+04  0.18222126822E+04  0.10100000352E+00 0.  1.
</event>
<event>
 5   0  0.1773903E-07  0.4022628E+04  0.7818609E-02  0.7999997E-01
        2   -1    0    0  501    0  0.00000000000E+00  0.00000000000E+00  0.26161357369E+04  0.26161357369E+04  0.25500000920E-02 0. -1.
       -2   -1    0    0    0  501  0.00000000000E+00  0.00000000000E+00 -0.15463201384E+04  0.15463201384E+04  0.25500000920E-02 0.  1.
    10030    2    1    2    0    0  0.00000000000E+00  0.00000000000E+00  0.10698155985E+04  0.41624558754E+04  0.40226276859E+04 0.  0.
        3    1    3    3  502    0 -0.14443845224E+03 -0.18812380534E+04  0.12558798792E+04  0.22665289235E+04  0.10100000352E+00 0. -1.
       -3    1    3    3    0  502  0.14443845224E+03  0.18812380534E+04 -0.18606428074E+03  0.18959269518E+04  0.10100000352E+00 0.  1.
</event>
<event>
 5   0  0.1776653E-07  0.3983986E+04  0.7818609E-02  0.8007785E-01
        2   -1    0    0  501    0  0.00000000000E+00  0.00000000000E+00  0.15382450384E+04  0.15382450384E+04  0.25500000920E-02 0.  1.
       -2   -1    0    0    0  501  0.00000000000E+00  0.00000000000E+00 -0.25795868679E+04  0.25795868679E+04  0.25500000920E-02 0. -1.
    10030    2    1    2    0    0  0.00000000000E+00  0.00000000000E+00 -0.10413418295E+04  0.41178319063E+04  0.39839862954E+04 0.  0.
        4    1    3    3  502    0 -0.79011952032E+03 -0.72198978460E+03  0.12157938806E+04  0.16197884054E+04  0.12699999809E+01 0.  1.
       -4    1    3    3    0  502  0.79011952032E+03  0.72198978460E+03 -0.22571357101E+04  0.24980435008E+04  0.12699999809E+01 0. -1.
</event>
<event>
 5   0  0.1773903E-07  0.3623182E+04  0.7818609E-02  0.8085202E-01
       -2   -1    0    0    0  501  0.00000000000E+00  0.00000000000E+00  0.25855274486E+04  0.25855274486E+04  0.25500000920E-02 0. -1.
        2   -1    0    0  501    0  0.00000000000E+00  0.00000000000E+00 -0.12693199654E+04  0.12693199654E+04  0.25500000920E-02 0.  1.
    10030    2    1    2    0    0  0.00000000000E+00  0.00000000000E+00  0.13162074832E+04  0.38548474140E+04  0.36231818125E+04 0.  0.
        3    1    3    3  502    0  0.11163528827E+04  0.10815928471E+04 -0.33186053628E+03  0.15894081513E+04  0.10100000352E+00 0.  1.
       -3    1    3    3    0  502 -0.11163528827E+04 -0.10815928471E+04  0.16480680195E+04  0.22654392626E+04  0.10100000352E+00 0. -1.
</event>
<event>
 5   0  0.5515000E-08  0.4007601E+04  0.7818609E-02  0.8003015E-01
       -1   -1    0    0    0  501  0.00000000000E+00  0.00000000000E+00  0.22261916961E+04  0.22261916962E+04  0.50400001928E-02 0. -1.
        1   -1    0    0  501    0  0.00000000000E+00  0.00000000000E+00 -0.18036253490E+04  0.18036253490E+04  0.50400001928E-02 0.  1.
    10030    2    1    2    0    0  0.00000000000E+00  0.00000000000E+00  0.42256634712E+03  0.40298170452E+04  0.40076006662E+04 0.  0.
        5    1    3    3  502    0 -0.18131224933E+04 -0.85058939114E+03  0.27705369332E+03  0.20218052149E+04  0.46999998093E+01 0.  1.
       -5    1    3    3    0  502  0.18131224933E+04  0.85058939114E+03  0.14551265380E+03  0.20080118303E+04  0.46999998093E+01 0. -1.
</event>
<event>
 5   0  0.1819906E-07  0.3998473E+04  0.7818609E-02  0.8004855E-01
       -2   -1    0    0    0  501  0.00000000000E+00  0.00000000000E+00  0.17005656431E+04  0.17005656431E+04  0.25500000920E-02 0. -1.
        2   -1    0    0  501    0  0.00000000000E+00  0.00000000000E+00 -0.23503630486E+04  0.23503630486E+04  0.25500000920E-02 0.  1.
    10030    2    1    2    0    0  0.00000000000E+00  0.00000000000E+00 -0.64979740552E+03  0.40509286917E+04  0.39984730332E+04 0.  0.
        1    1    3    3  502    0 -0.45647435912E+03 -0.17405907420E+04  0.55769110134E+03  0.18838907442E+04  0.50400001928E-02 0. -1.
       -1    1    3    3    0  502  0.45647435912E+03  0.17405907420E+04 -0.12074885069E+04  0.21670379475E+04  0.50400001928E-02 0.  1.
</event>
<event>
 5   0  0.5515000E-08  0.3432698E+04  0.7818609E-02  0.8129927E-01
        1   -1    0    0  501    0  0.00000000000E+00  0.00000000000E+00  0.10442199138E+04  0.10442199138E+04  0.50400001928E-02 0. -1.
       -1   -1    0    0    0  501  0.00000000000E+00  0.00000000000E+00 -0.28211051518E+04  0.28211051518E+04  0.50400001928E-02 0.  1.
    10030    2    1    2    0    0  0.00000000000E+00  0.00000000000E+00 -0.17768852380E+04  0.38653250656E+04  0.34326981681E+04 0.  0.
        3    1    3    3  502    0  0.13025338277E+03  0.36809109597E+03  0.99354494421E+03  0.10675151357E+04  0.10100000352E+00 0. -1.
       -3    1    3    3    0  502 -0.13025338277E+03 -0.36809109597E+03 -0.27704301822E+04  0.27978099298E+04  0.10100000352E+00 0.  1.
</event>
<event>
 5   0  0.1776653E-07  0.3898185E+04  0.7818609E-02  0.8025407E-01
       -2   -1    0    0    0  501  0.00000000000E+00  0.00000000000E+00  0.16054922813E+04  0.16054922813E+04  0.25500000920E-02 0.  1.
        2   -1    0    0  501    0  0.00000000000E+00  0.00000000000E+00 -0.23662288805E+04  0.23662288805E+04  0.25500000920E-02 0. -1.
    10030    2    1    2    0    0  0.00000000000E+00  0.00000000000E+00 -0.76073659928E+03  0.39717211618E+04  0.38981853231E+04 0.  0.
        4    1    3    3  502    0 -0.62134492235E+03 -0.16620318851E+04 -0.12021446442E+04  0.21432622001E+04  0.12699999809E+01 0. -1.
       -4    1    3    3    0  502  0.62134492235E+03  0.16620318851E+04  0.44140804491E+03  0.18284589617E+04  0.12699999809E+01 0.  1.
</event>
<event>
 5   0  0.1776653E-07  0.4050321E+04  0.7818609E-02  0.7994471E-01
       -2   -1    0    0    0  501  0.00000000000E+00  0.00000000000E+00  0.21730418449E+04  0.21730418449E+04  0.25500000920E-02 0. -1.
        2   -1    0    0  501    0  0.00000000000E+00  0.00000000000E+00 -0.18873427911E+04  0.18873427911E+04  0.25500000920E-02 0.  1.
    10030    2    1    2    0    0  0.00000000000E+00  0.00000000000E+00  0.28569905373E+03  0.40603846360E+04  0.40503209062E+04 0.  0.
        4    1    3    3  502    0  0.82220901664E+03  0.18152957659E+04 -0.21852758478E+03  0.20047648996E+04  0.12699999809E+01 0.  1.
       -4    1    3    3    0  502 -0.82220901664E+03 -0.18152957659E+04  0.50422663851E+03  0.20556197364E+04  0.12699999809E+01 0. -1.
</event>
<event>
 5   0  0.1776653E-07  0.3942425E+04  0.7818609E-02  0.8016263E-01
       -2   -1    0    0    0  501  0.00000000000E+00  0.00000000000E+00  0.19683009904E+04  0.19683009904E+04  0.25500000920E-02 0.  1.
        2   -1    0    0  501    0  0.00000000000E+00  0.00000000000E+00 -0.19741286906E+04  0.19741286906E+04  0.25500000920E-02 0. -1.
    10030    2    1    2    0    0  0.00000000000E+00  0.00000000000E+00 -0.58277002503E+01  0.39424296810E+04  0.39424253738E+04 0.  0.
        4    1    3    3  502    0 -0.11996564487E+04 -0.73152825045E+03 -0.13854379347E+04  0.19732584879E+04  0.12699999809E+01 0. -1.
       -4    1    3    3    0  502  0.11996564487E+04  0.73152825045E+03  0.13796102344E+04  0.19691711932E+04  0.12699999809E+01 0.  1.
</event>
<event>
 5   0  0.1819906E-07  0.3999367E+04  0.7818609E-02  0.8004674E-01
        2   -1    0    0  501    0  0.00000000000E+00  0.00000000000E+00  0.23738078932E+04  0.23738078932E+04  0.25500000920E-02 0. -1.
       -2   -1    0    0    0  501  0.00000000000E+00  0.00000000000E+00 -0.16845228627E+04  0.16845228627E+04  0.25500000920E-02 0.  1.
    10030    2    1    2    0    0  0.00000000000E+00  0.00000000000E+00  0.68928503044E+03  0.40583307559E+04  0.39993667838E+04 0.  0.
        1    1    3    3  502    0 -0.12675533406E+04 -0.15323560242E+04  0.55732073740E+03  0.20652875976E+04  0.50400001928E-02 0.  1.
       -1    1    3    3    0  502  0.12675533406E+04  0.15323560242E+04  0.13196429304E+03  0.19930431583E+04  0.50400001928E-02 0. -1.
</event>
<event>
 5   0  0.5515000E-08  0.4024582E+04  0.7818609E-02  0.7999606E-01
       -1   -1    0    0    0  501  0.00000000000E+00  0.00000000000E+00  0.24572862809E+04  0.24572862809E+04  0.50400001928E-02 0.  1.
        1   -1    0    0  501    0  0.00000000000E+00  0.00000000000E+00 -0.16478808700E+04  0.16478808700E+04  0.50400001928E-02 0. -1.
    10030    2    1    2    0    0  0.00000000000E+00  0.00000000000E+00  0.80940541093E+03  0.41051671509E+04  0.40245819929E+04 0.  0.
        1    1    3    3  502    0  0.11147659558E+04 -0.15628372982E+04 -0.21082997440E+03  0.19312205558E+04  0.50400001928E-02 0. -1.
       -1    1    3    3    0  502 -0.11147659558E+04  0.15628372982E+04  0.10202353853E+04  0.21739465951E+04  0.50400001928E-02 0.  1.
</event>
<event>
 5   0  0.5515000E-08  0.3951110E+04  0.7818609E-02  0.8014482E-01
        1   -1    0    0  501    0  0.00000000000E+00  0.00000000000E+00  0.14004223767E+04  0.14004223767E+04  0.50400001928E-02 0.  1.
       -1   -1    0    0    0  501  0.00000000000E+00  0.00000000000E+00 -0.27868858552E+04  0.27868858552E+04  0.50400001928E-02 0. -1.
    10030    2    1    2    0    0  0.00000000000E+00  0.00000000000E+00 -0.13864634785E+04  0.41873082319E+04  0.39511098759E+04 0.  0.
        5    1    3    3  502    0 -0.40669121584E+03  0.10235376985E+04  0.10448621781E+04  0.15181522409E+04  0.46999998093E+01 0.  1.
       -5    1    3    3    0  502  0.40669121584E+03 -0.10235376985E+04 -0.24313256567E+04  0.26691559910E+04  0.46999998093E+01 0. -1.
</event>
<event>
 5   0  0.1776653E-07  0.3921159E+04  0.7818609E-02  0.8020643E-01
        2   -1    0    0  501    0  0.00000000000E+00  0.00000000000E+00  0.26429623454E+04  0.26429623454E+04  0.25500000920E-02 0. -1.
       -2   -1    0    0    0  501  0.00000000000E+00  0.00000000000E+00 -0.14543798279E+04  0.14543798279E+04  0.25500000920E-02 0.  1.
    10030    2    1    2    0    0  0.00000000000E+00  0.00000000000E+00  0.11885825175E+04  0.40973421733E+04  0.39211585640E+04 0.  0.
        4    1    3    3  502    0 -0.23609370486E+03 -0.19433123324E+04  0.48142680543E+03  0.20159306636E+04  0.12699999809E+01 0. -1.
       -4    1    3    3    0  502  0.23609370486E+03  0.19433123324E+04  0.70715571205E+03  0.20814115097E+04  0.12699999809E+01 0.  1.
</event>
<event>
 5   0  0.1819906E-07  0.3956814E+04  0.7818609E-02  0.8013316E-01
        2   -1    0    0  501    0  0.00000000000E+00  0.00000000000E+00  0.17651942594E+04  0.17651942594E+04  0.25500000920E-02 0. -1.
       -2   -1    0    0    0  501  0.00000000000E+00  0.00000000000E+00 -0.22173725633E+04  0.22173725633E+04  0.25500000920E-02 0.  1.
    10030    2    1    2    0    0  0.00000000000E+00  0.00000000000E+00 -0.45217830389E+03  0.39825668228E+04  0.39568135260E+04 0.  0.
        1    1    3    3  502    0 -0.99535674930E+03 -0.14861559627E+04  0.62481175941E+03  0.18946726204E+04  0.50400001928E-02 0. -1.
       -1    1    3    3    0  502  0.99535674930E+03  0.14861559627E+04 -0.10769900633E+04  0.20878942024E+04  0.50400001928E-02 0.  1.
</event>
<event>
 5   0  0.1785559E-07  0.4244448E+04  0.7818609E-02  0.7956971E-01
        2   -1    0    0  501    0  0.00000000000E+00  0.00000000000E+00  0.16337994996E+04  0.16337994996E+04  0.25500000920E-02 0. -1.
       -2   -1    0    0    0  501  0.00000000000E+00  0.00000000000E+00 -0.27566628146E+04  0.27566628146E+04  0.25500000920E-02 0.  1.
    10030    2    1    2    0    0  0.00000000000E+00  0.00000000000E+00 -0.11228633150E+04  0.43904623142E+04  0.42444478214E+04 0.  0.
        2    1    3    3  502    0 -0.11552523763E+04  0.15362703593E+04  0.36901196474E+03  0.19572696544E+04  0.25500000920E-02 0. -1.
       -2    1    3    3    0  502  0.11552523763E+04 -0.15362703593E+04 -0.14918752797E+04  0.24331926599E+04  0.25500000920E-02 0.  1.
</event>
<event>
 5   0  0.1821433E-07  0.3981352E+04  0.7818609E-02  0.8008319E-01
       -2   -1    0    0    0  501  0.00000000000E+00  0.00000000000E+00  0.12411429930E+04  0.12411429930E+04  0.25500000920E-02 0.  1.
        2   -1    0    0  501    0  0.00000000000E+00  0.00000000000E+00 -0.31928554653E+04  0.31928554653E+04  0.25500000920E-02 0. -1.
    10030    2    1    2    0    0  0.00000000000E+00  0.00000000000E+00 -0.19517124723E+04  0.44339984583E+04  0.39813516240E+04 0.  0.
        5    1    3    3  502    0 -0.15518417971E+04 -0.12419686256E+04 -0.10982056441E+04  0.22708537507E+04  0.46999998093E+01 0. -1.
       -5    1    3    3    0  502  0.15518417971E+04  0.12419686256E+04 -0.85350682823E+03  0.21631447076E+04  0.46999998093E+01 0.  1.
</event>
<event>
 5   0  0.1785559E-07  0.4028926E+04  0.7818609E-02  0.7998737E-01
       -2   -1    0    0    0  501  0.00000000000E+00  0.00000000000E+00  0.17750189323E+04  0.17750189323E+04  0.25500000920E-02 0.  1.
        2   -1    0    0  501    0  0.00000000000E+00  0.00000000000E+00 -0.22862074951E+04  0.22862074951E+04  0.25500000920E-02 0. -1.
    10030    2    1    2    0    0  0.00000000000E+00  0.00000000000E+00 -0.51118856272E+03  0.40612264274E+04  0.40289262028E+04 0.  0.
        2    1    3    3  502    0 -0.60315986022E+03 -0.10490041306E+04 -0.18790495560E+04  0.22349583255E+04  0.25500000920E-02 0. -1.
       -2    1    3    3    0  502  0.60315986022E+03  0.10490041306E+04  0.13678609933E+04  0.18262681019E+04  0.25500000920E-02 0.  1.
</event>
<event>
 5   0  0.5515000E-08  0.3942825E+04  0.7818609E-02  0.8016181E-01
        1   -1    0    0  501    0  0.00000000000E+00  0.00000000000E+00  0.20138299294E+04  0.20138299294E+04  0.50400001928E-02 0. -1.
       -1   -1    0    0    0  501  0.00000000000E+00  0.00000000000E+00 -0.19298882127E+04  0.19298882127E+04  0.50400001928E-02 0.  1.
    10030    2    1    2    0    0  0.00000000000E+00  0.00000000000E+00  0.83941716734E+02  0.39437181422E+04  0.39428246947E+04 0.  0.
        3    1    3    3  502    0 -0.10660620853E+04  0.14024538646E+04  0.92710156290E+03  0.19906990054E+04  0.10100000352E+00 0. -1.
       -3    1    3    3    0  502  0.10660620853E+04 -0.14024538646E+04 -0.84315984616E+03  0.19530191367E+04  0.10100000352E+00 0.  1.
</event>
<event>
 5   0  0.1819906E-07  0.4052007E+04  0.7818609E-02  0.7994136E-01
        2   -1    0    0  501    0  0.00000000000E+00  0.00000000000E+00  0.16055418100E+04  0.16055418100E+04  0.25500000920E-02 0.  1.
       -2   -1    0    0    0  501  0.00000000000E+00  0.00000000000E+00 -0.25565769012E+04  0.25565769012E+04  0.25500000920E-02 0. -1.
    10030    2    1    2    0    0  0.00000000000E+00  0.00000000000E+00 -0.95103509124E+03  0.41621187112E+04  0.40520074558E+04 0.  0.
        1    1    3    3  502    0  0.14870654151E+04 -0.72622913981E+03 -0.16760023504E+04  0.23553675277E+04  0.50400001928E-02 0. -1.
       -1    1    3    3    0  502 -0.14870654151E+04  0.72622913981E+03  0.72496725914E+03  0.18067511835E+04  0.50400001928E-02 0.  1.
</event>
<event>
 5   0  0.5515000E-08  0.3951016E+04  0.7818609E-02  0.8014502E-01
        1   -1    0    0  501    0  0.00000000000E+00  0.00000000000E+00  0.24529822568E+04  0.24529822568E+04  0.50400001928E-02 0. -1.
       -1   -1    0    0    0  501  0.00000000000E+00  0.00000000000E+00 -0.15909746774E+04  0.15909746774E+04  0.50400001928E-02 0.  1.
    10030    2    1    2    0    0  0.00000000000E+00  0.00000000000E+00  0.86200757934E+03  0.40439569342E+04  0.39510164033E+04 0.  0.
        4    1    3    3  502    0  0.12114483012E+04  0.85370723442E+03  0.17679492099E+04  0.23069609989E+04  0.12699999809E+01 0. -1.
       -4    1    3    3    0  502 -0.12114483012E+04 -0.85370723442E+03 -0.90594163053E+03  0.17369959354E+04  0.12699999809E+01 0.  1.
</event>
<event>
 5   0  0.5515000E-08  0.3957106E+04  0.7818609E-02  0.8013256E-01
        1   -1    0    0  501    0  0.00000000000E+00  0.00000000000E+00  0.11143095324E+04  0.11143095324E+04  0.50400001928E-02 0. -1.
       -1   -1    0    0    0  501  0.00000000000E+00  0.00000000000E+00 -0.35130920711E+04  0.35130920711E+04  0.50400001928E-02 0.  1.
    10030    2    1    2    0    0  0.00000000000E+00  0.00000000000E+00 -0.23987825388E+04  0.46274016035E+04  0.39571060046E+04 0.  0.
        4    1    3    3  502    0  0.11604719032E+02  0.15756033828E+04 -0.25987610310E+04  0.30391152000E+04  0.12699999809E+01 0.  1.
       -4    1    3    3    0  502 -0.11604719032E+02 -0.15756033828E+04  0.19997849227E+03  0.15882864035E+04  0.12699999809E+01 0. -1.
</event>
<event>
 5   0  0.1773903E-07  0.4037194E+04  0.7818609E-02  0.7997085E-01
        2   -1    0    0  501    0  0.00000000000E+00  0.00000000000E+00  0.19940034499E+04  0.19940034499E+04  0.25500000920E-02 0. -1.
       -2   -1    0    0    0  501  0.00000000000E+00  0.00000000000E+00 -0.20434935402E+04  0.20434935402E+04  0.25500000920E-02 0.  1.
    10030    2    1    2    0    0  0.00000000000E+00  0.00000000000E+00 -0.49490090232E+02  0.40374969901E+04  0.40371936635E+04 0.  0.
        3    1    3    3  502    0  0.13861101096E+04  0.12197280624E+04 -0.84070791932E+03  0.20287502552E+04  0.10100000352E+00 0.  1.
       -3    1    3    3    0  502 -0.13861101096E+04 -0.12197280624E+04  0.79121782908E+03  0.20087467350E+04  0.10100000352E+00 0. -1.
</event>
<event>
 5   0  0.1821433E-07  0.4078176E+04  0.7818609E-02  0.7988959E-01
        2   -1    0    0  501    0  0.00000000000E+00  0.00000000000E+00  0.15549231088E+04  0.15549231088E+04  0.25500000920E-02 0.  1.
       -2   -1    0    0    0  501  0.00000000000E+00  0.00000000000E+00 -0.26740093924E+04  0.26740093924E+04  0.25500000920E-02 0. -1.
    10030    2    1    2    0    0  0.00000000000E+00  0.00000000000E+00 -0.11190862835E+04  0.42289325012E+04  0.40781755712E+04 0.  0.
        5    1    3    3  502    0  0.17689825961E+04 -0.46897096219E+03  0.37293373796E+03  0.18677084493E+04  0.46999998093E+01 0.  1.
       -5    1    3    3    0  502 -0.17689825961E+04  0.46897096219E+03 -0.14920200215E+04  0.23612240519E+04  0.46999998093E+01 0. -1.
</event>
<event>
 5   0  0.1821433E-07  0.3957679E+04  0.7818609E-02  0.8013139E-01
       -2   -1    0    0    0  501  0.00000000000E+00  0.00000000000E+00  0.17003206145E+04  0.17003206145E+04  0.25500000920E-02 0. -1.
        2   -1    0    0  501    0  0.00000000000E+00  0.00000000000E+00 -0.23029804337E+04  0.23029804337E+04  0.25500000920E-02 0.  1.
    10030    2    1    2    0    0  0.00000000000E+00  0.00000000000E+00 -0.60265981929E+03  0.40033010482E+04  0.39576786662E+04 0.  0.
        5    1    3    3  502    0 -0.18091275655E+04 -0.26573460733E+03 -0.10665059397E+04  0.21168406740E+04  0.46999998093E+01 0.  1.
       -5    1    3    3    0  502  0.18091275655E+04  0.26573460733E+03  0.46384612039E+03  0.18864603742E+04  0.46999998093E+01 0. -1.
</event>
<event>
 5   0  0.1819906E-07  0.3835191E+04  0.7818609E-02  0.8038645E-01
       -2   -1    0    0    0  501  0.00000000000E+00  0.00000000000E+00  0.13333198980E+04  0.13333198980E+04  0.25500000920E-02 0.  1.
        2   -1    0    0  501    0  0.00000000000E+00  0.00000000000E+00 -0.27579077476E+04  0.27579077476E+04  0.25500000920E-02 0. -1.
    10030    2    1    2    0    0  0.00000000000E+00  0.00000000000E+00 -0.14245878497E+04  0.40912276456E+04  0.38351914042E+04 0.  0.
        1    1    3    3  502    0  0.10186060905E+04  0.38467833749E+03 -0.23961657490E+04  0.26319472046E+04  0.50400001928E-02 0. -1.
       -1    1    3    3    0  502 -0.10186060905E+04 -0.38467833749E+03  0.97157789936E+03  0.14592804410E+04  0.50400001928E-02 0.  1.
</event>
<event>
 5   0  0.5515000E-08  0.3985744E+04  0.7818609E-02  0.8007429E-01
        1   -1    0    0  501    0  0.00000000000E+00  0.00000000000E+00  0.25040210838E+04  0.25040210838E+04  0.50400001928E-02 0.  1.
       -1   -1    0    0    0  501  0.00000000000E+00  0.00000000000E+00 -0.15860642954E+04  0.15860642954E+04  0.50400001928E-02 0. -1.
    10030    2    1    2    0    0  0.00000000000E+00  0.00000000000E+00  0.91795678845E+03  0.40900853792E+04  0.39857438131E+04 0.  0.
        1    1    3    3  502    0  0.31336780636E+03  0.96328907974E+03  0.22201274239E+04  0.24403055160E+04  0.50400001928E-02 0.  1.
       -1    1    3    3    0  502 -0.31336780636E+03 -0.96328907974E+03 -0.13021706354E+04  0.16497798632E+04  0.50400001928E-02 0. -1.
</event>
<event>
 5   0  0.1821433E-07  0.4020310E+04  0.7818609E-02  0.8000462E-01
        2   -1    0    0  501    0  0.00000000000E+00  0.00000000000E+00  0.24413313107E+04  0.24413313107E+04  0.25500000920E-02 0.  1.
       -2   -1    0    0    0  501  0.00000000000E+00  0.00000000000E+00 -0.16551311828E+04  0.16551311828E+04  0.25500000920E-02 0. -1.
    10030    2    1    2    0    0  0.00000000000E+00  0.00000000000E+00  0.78620012793E+03  0.40964624936E+04  0.40203102268E+04 0.  0.
        5    1    3    3  502    0  0.32140582634E+03 -0.40569919533E+03 -0.15860638568E+04  0.16683867028E+04  0.46999998093E+01 0. -1.
       -5    1    3    3    0  502 -0.32140582634E+03  0.40569919533E+03  0.23722639847E+04  0.24280757907E+04  0.46999998093E+01 0.  1.
</event>
<event>
 5   0  0.1785559E-07  0.3975704E+04  0.7818609E-02  0.8009466E-01
       -2   -1    0    0    0  501  0.00000000000E+00  0.00000000000E+00  0.12580159091E+04  0.12580159091E+04  0.25500000920E-02 0.  1.
        2   -1    0    0  501    0  0.00000000000E+00  0.00000000000E+00 -0.31411021162E+04  0.31411021162E+04  0.25500000920E-02 0. -1.
    10030    2    1    2    0    0  0.00000000000E+00  0.00000000000E+00 -0.18830862071E+04  0.43991180252E+04  0.39757044327E+04 0.  0.
        2    1    3    3  502    0 -0.15013043220E+04  0.79819355239E+03  0.19795278202E+03  0.17117864698E+04  0.25500000920E-02 0.  1.
       -2    1    3    3    0  502  0.15013043220E+04 -0.79819355239E+03 -0.20810389891E+04  0.26873315554E+04  0.25500000920E-02 0. -1.
</event>
<event>
 5   0  0.1773903E-07  0.3979966E+04  0.7818609E-02  0.8008600E-01
       -2   -1    0    0    0  501  0.00000000000E+00  0.00000000000E+00  0.14858284526E+04  0.14858284526E+04  0.25500000920E-02 0.  1.
        2   -1    0    0  501    0  0.00000000000E+00  0.00000000000E+00 -0.26652020108E+04  0.26652020108E+04  0.25500000920E-02 0. -1.
    10030    2    1    2    0    0  0.00000000000E+00  0.00000000000E+00 -0.11793735582E+04  0.41510304634E+04  0.39799663213E+04 0.  0.
        3    1    3    3  502    0  0.11087870981E+04 -0.14950207359E+04 -0.13238871988E+04  0.22841132097E+04  0.10100000352E+00 0.  1.
       -3    1    3    3    0  502 -0.11087870981E+04  0.14950207359E+04  0.14451364059E+03  0.18669172537E+04  0.10100000352E+00 0. -1.
</event>
<event>
 5   0  0.5515000E-08  0.3987048E+04  0.7818609E-02  0.8007164E-01
        1   -1    0    0  501    0  0.00000000000E+00  0.00000000000E+00  0.24658355431E+04  0.24658355431E+04  0.50400001928E-02 0.  1.
       -1   -1    0    0    0  501  0.00000000000E+00  0.00000000000E+00 -0.16116803142E+04  0.16116803143E+04  0.50400001928E-02 0. -1.
    10030    2    1    2    0    0  0.00000000000E+00  0.00000000000E+00  0.85415522888E+03  0.40775158574E+04  0.39870483333E+04 0.  0.
        1    1    3    3  502    0 -0.92759942187E+03  0.16857295742E+04 -0.10630586704E+03  0.19270251223E+04  0.50400001928E-02 0. -1.
       -1    1    3    3    0  502  0.92759942187E+03 -0.16857295742E+04  0.96046109593E+03  0.21504907350E+04  0.50400001928E-02 0.  1.
</event>
<event>
 5   0  0.1773903E-07  0.4061905E+04  0.7818609E-02  0.7992174E-01
       -2   -1    0    0    0  501  0.00000000000E+00  0.00000000000E+00  0.15819894388E+04  0.15819894388E+04  0.25500000920E-02 0.  1.
        2   -1    0    0  501    0  0.00000000000E+00  0.00000000000E+00 -0.26073294692E+04  0.26073294692E+04  0.25500000920E-02 0. -1.
    10030    2    1    2    0    0  0.00000000000E+00  0.00000000000E+00 -0.10253400304E+04  0.41893189081E+04  0.40619048162E+04 0.  0.
        3    1    3    3  502    0 -0.56021789363E+03 -0.85389546352E+03 -0.23232383774E+04  0.25377978878E+04  0.10100000352E+00 0. -1.
       -3    1    3    3    0  502  0.56021789363E+03  0.85389546352E+03  0.12978983470E+04  0.16515210203E+04  0.10100000352E+00 0.  1.
</event>
<event>
 5   0  0.1821433E-07  0.3982263E+04  0.7818609E-02  0.8008134E-01
        2   -1    0    0  501    0  0.00000000000E+00  0.00000000000E+00  0.28311711580E+04  0.28311711580E+04  0.25500000920E-02 0.  1.
       -2   -1    0    0    0  501  0.00000000000E+00  0.00000000000E+00 -0.14003411337E+04  0.14003411337E+04  0.25500000920E-02 0. -1.
    10030    2    1    2    0    0  0.00000000000E+00  0.00000000000E+00  0.14308300243E+04  0.42315122917E+04  0.39822633911E+04 0.  0.
        5    1    3    3  502    0 -0.18358179841E+04  0.17853815169E+03  0.15123430184E+04  0.23852268315E+04  0.46999998093E+01 0.  1.
       -5    1    3    3    0  502  0.18358179841E+04 -0.17853815169E+03 -0.81512994124E+02  0.18462854602E+04  0.46999998093E+01 0. -1.
</event>
<event>
 5   0  0.5515000E-08  0.4011763E+04  0.7818609E-02  0.8002178E-01
       -1   -1    0    0    0  501  0.00000000000E+00  0.00000000000E+00  0.16027362528E+04  0.16027362528E+04  0.50400001928E-02 0.  1.
        1   -1    0    0  501    0  0.00000000000E+00  0.00000000000E+00 -0.25104319846E+04  0.25104319846E+04  0.50400001928E-02 0. -1.
    10030    2    1    2    0    0  0.00000000000E+00  0.00000000000E+00 -0.90769573180E+03  0.41131682374E+04  0.40117628803E+04 0.  0.
        1    1    3    3  502    0 -0.67937294902E+03 -0.14509994862E+04  0.78356134447E+03  0.17835121231E+04  0.50400001928E-02 0.  1.
       -1    1    3    3    0  502  0.67937294902E+03  0.14509994862E+04 -0.16912570763E+04  0.23296561143E+04  0.50400001928E-02 0. -1.
</event>
<event>
 5   0  0.5515000E-08  0.3918045E+04  0.7818609E-02  0.8021287E-01
        1   -1    0    0  501    0  0.00000000000E+00  0.00000000000E+00  0.21760935946E+04  0.21760935947E+04  0.50400001928E-02 0. -1.
       -1   -1    0    0    0  501  0.00000000000E+00  0.00000000000E+00 -0.17636049118E+04  0.17636049118E+04  0.50400001928E-02 0.  1.
    10030    2    1    2    0    0  0.00000000000E+00  0.00000000000E+00  0.41248868280E+03  0.39396985065E+04  0.39180451004E+04 0.  0.
        2    1    3    3  502    0  0.12819977003E+04  0.41795004963E+03 -0.12227249811E+04  0.18202353494E+04  0.25500000920E-02 0.  1.
       -2    1    3    3    0  502 -0.12819977003E+04 -0.41795004963E+03  0.16352136639E+04  0.21194631571E+04  0.25500000920E-02 0. -1.
</event>
<event>
 5   0  0.1776653E-07  0.4088283E+04  0.7818609E-02  0.7986970E-01
       -2   -1    0    0    0  501  0.00000000000E+00  0.00000000000E+00  0.22890295533E+04  0.22890295533E+04  0.25500000920E-02 0.  1.
        2   -1    0    0  501    0  0.00000000000E+00  0.00000000000E+00 -0.18254521213E+04  0.18254521213E+04  0.25500000920E-02 0. -1.
    10030    2    1    2    0    0  0.00000000000E+00  0.00000000000E+00  0.46357743202E+03  0.41144816746E+04  0.40882826976E+04 0.  0.
        4    1    3    3  502    0 -0.11710980032E+04  0.15827406316E+04 -0.32125421581E+03  0.19949296539E+04  0.12699999809E+01 0. -1.
       -4    1    3    3    0  502  0.11710980032E+04 -0.15827406316E+04  0.78483164783E+03  0.21195520207E+04  0.12699999809E+01 0.  1.
</event>
<event>
 5   0  0.1776653E-07  0.4011648E+04  0.7818609E-02  0.8002201E-01
       -2   -1    0    0    0  501  0.00000000000E+00  0.00000000000E+00  0.18550722421E+04  0.18550722421E+04  0.25500000920E-02 0. -1.
        2   -1    0    0  501    0  0.00000000000E+00  0.00000000000E+00 -0.21688268873E+04  0.21688268873E+04  0.25500000920E-02 0.  1.
    10030    2    1    2    0    0  0.00000000000E+00  0.00000000000E+00 -0.31375464526E+03  0.40238991294E+04  0.40116483178E+04 0.  0.
        4    1    3    3  502    0 -0.91570362444E+03 -0.17186242797E+04 -0.63912239634E+03  0.20495515590E+04  0.12699999809E+01 0.  1.
       -4    1    3    3    0  502  0.91570362444E+03  0.17186242797E+04  0.32536775108E+03  0.19743475704E+04  0.12699999809E+01 0. -1.
</event>
<event>
 5   0  0.1785559E-07  0.4002659E+04  0.7818609E-02  0.8004010E-01
       -2   -1    0    0    0  501  0.00000000000E+00  0.00000000000E+00  0.13903038076E+04  0.13903038076E+04  0.25500000920E-02 0.  1.
        2   -1    0    0  501    0  0.00000000000E+00  0.00000000000E+00 -0.28808959693E+04  0.28808959693E+04  0.25500000920E-02 0. -1.
    10030    2    1    2    0    0  0.00000000000E+00  0.00000000000E+00 -0.14905921617E+04  0.42711997770E+04  0.40026594337E+04 0.  0.
        2    1    3    3  502    0  0.14709072619E+04 -0.14615526662E+03  0.69444234955E+03  0.16331502417E+04  0.25500000920E-02 0.  1.
       -2    1    3    3    0  502 -0.14709072619E+04  0.14615526662E+03 -0.21850345112E+04  0.26380495353E+04  0.25500000920E-02 0. -1.
</event>
<event>
 5   0  0.1819906E-07  0.4181648E+04  0.7818609E-02  0.7968872E-01
       -2   -1    0    0    0  501  0.00000000000E+00  0.00000000000E+00  0.16627291452E+04  0.16627291452E+04  0.25500000920E-02 0. -1.
        2   -1    0    0  501    0  0.00000000000E+00  0.00000000000E+00 -0.26291382205E+04  0.26291382205E+04  0.25500000920E-02 0.  1.
    10030    2    1    2    0    0  0.00000000000E+00  0.00000000000E+00 -0.96640907537E+03  0.42918673657E+04  0.41816478790E+04 0.  0.
        1    1    3    3  502    0 -0.37105066494E+03 -0.12853329994E+04  0.11659406376E+04  0.17745920900E+04  0.50400001928E-02 0. -1.
       -1    1    3    3    0  502  0.37105066494E+03  0.12853329994E+04 -0.21323497130E+04  0.25172752757E+04  0.50400001928E-02 0.  1.
</event>
<event>
 5   0  0.1776653E-07  0.4005410E+04  0.7818609E-02  0.8003456E-01
        2   -1    0    0  501    0  0.00000000000E+00  0.00000000000E+00  0.15628334660E+04  0.15628334660E+04  0.25500000920E-02 0.  1.
       -2   -1    0    0    0  501  0.00000000000E+00  0.00000000000E+00 -0.25663818259E+04  0.25663818259E+04  0.25500000920E-02 0. -1.
    10030    2    1    2    0    0  0.00000000000E+00  0.00000000000E+00 -0.10035483600E+04  0.41292152919E+04  0.40054100435E+04 0.  0.
        4    1    3    3  502    0 -0.17238468605E+04  0.42319604536E+03  0.45429804389E+03  0.18322475861E+04  0.12699999809E+01 0.  1.
       -4    1    3    3    0  502  0.17238468605E+04 -0.42319604536E+03 -0.14578464038E+04  0.22969677058E+04  0.12699999809E+01 0. -1.
</event>
<event>
 5   0  0.1821433E-07  0.3433920E+04  0.7818609E-02  0.8129631E-01
       -2   -1    0    0    0  501  0.00000000000E+00  0.00000000000E+00  0.11569600488E+04  0.11569600488E+04  0.25500000920E-02 0. -1.
        2   -1    0    0  501    0  0.00000000000E+00  0.00000000000E+00 -0.25480145641E+04  0.25480145641E+04  0.25500000920E-02 0.  1.
    10030    2    1    2    0    0  0.00000000000E+00  0.00000000000E+00 -0.13910545153E+04  0.37049746129E+04  0.34339196580E+04 0.  0.
        5    1    3    3  502    0  0.13799713835E+04 -0.26724715942E+03  0.36829724514E+03  0.14530681382E+04  0.46999998093E+01 0. -1.
       -5    1    3    3    0  502 -0.13799713835E+04  0.26724715942E+03 -0.17593517604E+04  0.22519064746E+04  0.46999998093E+01 0.  1.
</event>
<event>
 5   0  0.5515000E-08  0.3985185E+04  0.7818609E-02  0.8007542E-01
       -1   -1    0    0    0  501  0.00000000000E+00  0.00000000000E+00  0.16834143908E+04  0.16834143908E+04  0.50400001928E-02 0.  1.
        1   -1    0    0  501    0  0.00000000000E+00  0.00000000000E+00 -0.23585550684E+04  0.23585550684E+04  0.50400001928E-02 0. -1.
    10030    2    1    2    0    0  0.00000000000E+00  0.00000000000E+00 -0.67514067760E+03  0.40419694592E+04  0.39851853375E+04 0.  0.
        3    1    3    3  502    0  0.77810892178E+03  0.11794001210E+04  0.10874356560E+04  0.17829622698E+04  0.10100000352E+00 0.  1.
       -3    1    3    3    0  502 -0.77810892178E+03 -0.11794001210E+04 -0.17625763336E+04  0.22590071893E+04  0.10100000352E+00 0. -1.
</event>
<event>
 5   0  0.5515000E-08  0.3977233E+04  0.7818609E-02  0.8009155E-01
       -1   -1    0    0    0  501  0.00000000000E+00  0.00000000000E+00  0.29928607376E+04  0.29928607376E+04  0.50400001928E-02 0.  1.
        1   -1    0    0  501    0  0.00000000000E+00  0.00000000000E+00 -0.13213432282E+04  0.13213432282E+04  0.50400001928E-02 0. -1.
    10030    2    1    2    0    0  0.00000000000E+00  0.00000000000E+00  0.16715175094E+04  0.43142039658E+04  0.39772333442E+04 0.  0.
        3    1    3    3  502    0  0.20622346145E+03  0.88263719150E+03  0.27557584814E+04  0.29009966125E+04  0.10100000352E+00 0.  1.
       -3    1    3    3    0  502 -0.20622346145E+03 -0.88263719150E+03 -0.10842409720E+04  0.14132073533E+04  0.10100000352E+00 0. -1.
</event>
<event>
 5   0  0.5515000E-08  0.4008675E+04  0.7818609E-02  0.8002799E-01
       -1   -1    0    0    0  501  0.00000000000E+00  0.00000000000E+00  0.19361493782E+04  0.19361493782E+04  0.50400001928E-02 0. -1.
        1   -1    0    0  501    0  0.00000000000E+00  0.00000000000E+00 -0.20749268461E+04  0.20749268461E+04  0.50400001928E-02 0.  1.
    10030    2    1    2    0    0  0.00000000000E+00  0.00000000000E+00 -0.13877746785E+03  0.40110762243E+04  0.40086747550E+04 0.  0.
        4    1    3    3  502    0  0.11925570301E+04  0.59239885598E+03  0.14295868308E+04  0.19536757137E+04  0.12699999809E+01 0. -1.
       -4    1    3    3    0  502 -0.11925570301E+04 -0.59239885598E+03 -0.15683642987E+04  0.20574005106E+04  0.12699999809E+01 0.  1.
</event>
<event>
 5   0  0.5515000E-08  0.3990260E+04  0.7818609E-02  0.8006514E-01
       -1   -1    0    0    0  501  0.00000000000E+00  0.00000000000E+00  0.15012399538E+04  0.15012399538E+04  0.50400001928E-02 0.  1.
        1   -1    0    0  501    0  0.00000000000E+00  0.00000000000E+00 -0.26515041897E+04  0.26515041897E+04  0.50400001928E-02 0. -1.
    10030    2    1    2    0    0  0.00000000000E+00  0.00000000000E+00 -0.11502642359E+04  0.41527441436E+04  0.39902601556E+04 0.  0.
        3    1    3    3  502    0 -0.11791275475E+04 -0.11677194843E+04 -0.17277659548E+04  0.23956389069E+04  0.10100000352E+00 0. -1.
       -3    1    3    3    0  502  0.11791275475E+04  0.11677194843E+04  0.57750171893E+03  0.17571052367E+04  0.10100000352E+00 0.  1.
</event>
<event>
 5   0  0.1819906E-07  0.4007300E+04  0.7818609E-02  0.8003075E-01
        2   -1    0    0  501    0  0.00000000000E+00  0.00000000000E+00  0.29783009097E+04  0.29783009097E+04  0.25500000920E-02 0. -1.
       -2   -1    0    0    0  501  0.00000000000E+00  0.00000000000E+00 -0.13479543929E+04  0.13479543929E+04  0.25500000920E-02 0.  1.
    10030    2    1    2    0    0  0.00000000000E+00  0.00000000000E+00  0.16303465168E+04  0.43262553025E+04  0.40073002356E+04 0.  0.
        1    1    3    3  502    0  0.63283000319E+03 -0.50206546406E+03 -0.11643638827E+04  0.14171403581E+04  0.50400001928E-02 0.  1.
       -1    1    3    3    0  502 -0.63283000319E+03  0.50206546406E+03  0.27947103995E+04  0.29091149445E+04  0.50400001928E-02 0. -1.
</event>
<event>
 5   0  0.1776653E-07  0.3986757E+04  0.7818609E-02  0.8007223E-01
       -2   -1    0    0    0  501  0.00000000000E+00  0.00000000000E+00  0.16676130004E+04  0.16676130004E+04  0.25500000920E-02 0.  1.
        2   -1    0    0  501    0  0.00000000000E+00  0.00000000000E+00 -0.23827818315E+04  0.23827818315E+04  0.25500000920E-02 0. -1.
    10030    2    1    2    0    0  0.00000000000E+00  0.00000000000E+00 -0.71516883117E+03  0.40503948319E+04  0.39867570577E+04 0.  0.
        4    1    3    3  502    0 -0.56712980962E+03 -0.18796322436E+04 -0.70791136377E+03  0.20870538335E+04  0.12699999809E+01 0.  1.
       -4    1    3    3    0  502  0.56712980962E+03  0.18796322436E+04 -0.72574673984E+01  0.19633409984E+04  0.12699999809E+01 0. -1.
</event>
<event>
 5   0  0.1785559E-07  0.4069565E+04  0.7818609E-02  0.7990658E-01
        2   -1    0    0  501    0  0.00000000000E+00  0.00000000000E+00  0.14483729997E+04  0.14483729997E+04  0.25500000920E-02 0.  1.
       -2   -1    0    0    0  501  0.00000000000E+00  0.00000000000E+00 -0.28586149532E+04  0.28586149532E+04  0.25500000920E-02 0. -1.
    10030    2    1    2    0    0  0.00000000000E+00  0.00000000000E+00 -0.14102419535E+04  0.43069879529E+04  0.40695654386E+04 0.  0.
        2    1    3    3  502    0 -0.11568699327E+04 -0.14968140107E+04 -0.14981994455E+04  0.24131725595E+04  0.25500000920E-02 0. -1.
       -2    1    3    3    0  502  0.11568699327E+04  0.14968140107E+04  0.87957491980E+02  0.18938153934E+04  0.25500000920E-02 0.  1.
</event>
<event>
 5   0  0.5515000E-08  0.4001031E+04  0.7818609E-02  0.8004339E-01
        1   -1    0    0  501    0  0.00000000000E+00  0.00000000000E+00  0.20320755524E+04  0.20320755524E+04  0.50400001928E-02 0.  1.
       -1   -1    0    0    0  501  0.00000000000E+00  0.00000000000E+00 -0.19694455501E+04  0.19694455501E+04  0.50400001928E-02 0. -1.
    10030    2    1    2    0    0  0.00000000000E+00  0.00000000000E+00  0.62630002309E+02  0.40015211026E+04  0.40010309443E+04 0.  0.
        3    1    3    3  502    0 -0.12590902090E+04 -0.10610684236E+04 -0.11049966188E+04  0.19829755147E+04  0.10100000352E+00 0. -1.
       -3    1    3    3    0  502  0.12590902090E+04  0.10610684236E+04  0.11676266211E+04  0.20185455879E+04  0.10100000352E+00 0.  1.
</event>
<event>
 5   0  0.1819906E-07  0.3995528E+04  0.7818609E-02  0.8005449E-01
       -2   -1    0    0    0  501  0.00000000000E+00  0.00000000000E+00  0.15682476817E+04  0.15682476817E+04  0.25500000920E-02 0.  1.
        2   -1    0    0  501    0  0.00000000000E+00  0.00000000000E+00 -0.25449170980E+04  0.25449170980E+04  0.25500000920E-02 0. -1.
    10030    2    1    2    0    0  0.00000000000E+00  0.00000000000E+00 -0.97666941634E+03  0.41131647796E+04  0.39955276692E+04 0.  0.
        1    1    3    3  502    0 -0.15007678102E+04 -0.46148726845E+03  0.78326012040E+03  0.17546426802E+04  0.50400001928E-02 0.  1.
       -1    1    3    3    0  502  0.15007678102E+04  0.46148726845E+03 -0.17599295367E+04  0.23585220994E+04  0.50400001928E-02 0. -1.
</event>
<event>
 5   0  0.5515000E-08  0.3996448E+04  0.7818609E-02  0.8005263E-01
       -1   -1    0    0    0  501  0.00000000000E+00  0.00000000000E+00  0.23296283852E+04  0.23296283853E+04  0.50400001928E-02 0. -1.
        1   -1    0    0  501    0  0.00000000000E+00  0.00000000000E+00 -0.17139641582E+04  0.17139641582E+04  0.50400001928E-02 0.  1.
    10030    2    1    2    0    0  0.00000000000E+00  0.00000000000E+00  0.61566422704E+03  0.40435925435E+04  0.39964482002E+04 0.  0.
        4    1    3    3  502    0  0.87776181352E+03  0.31306403122E+03  0.20962875184E+04  0.22941006651E+04  0.12699999809E+01 0. -1.
       -4    1    3    3    0  502 -0.87776181352E+03 -0.31306403122E+03 -0.14806232913E+04  0.17494918784E+04  0.12699999809E+01 0.  1.
</event>
<event>
 5   0  0.5515000E-08  0.3998211E+04  0.7818609E-02  0.8004908E-01
        1   -1    0    0  501    0  0.00000000000E+00  0.00000000000E+00  0.19331846489E+04  0.19331846489E+04  0.50400001928E-02 0. -1.
       -1   -1    0    0    0  501  0.00000000000E+00  0.00000000000E+00 -0.20672741081E+04  0.20672741081E+04  0.50400001928E-02 0.  1.
    10030    2    1    2    0    0  0.00000000000E+00  0.00000000000E+00 -0.13408945919E+03  0.40004587570E+04  0.39982108853E+04 0.  0.
        3    1    3    3  502    0 -0.68769381128E+03 -0.59628592568E+03  0.17138275389E+04  0.19405371747E+04  0.10100000352E+00 0. -1.
       -3    1    3    3    0  502  0.68769381128E+03  0.59628592568E+03 -0.18479169981E+04  0.20599215823E+04  0.10100000352E+00 0.  1.
</event>
<event>
 5   0  0.5515000E-08  0.3964958E+04  0.7818609E-02  0.8011653E-01
       -1   -1    0    0    0  501  0.00000000000E+00  0.00000000000E+00  0.16121058832E+04  0.16121058832E+04  0.50400001928E-02 0.  1.
        1   -1    0    0  501    0  0.00000000000E+00  0.00000000000E+00 -0.24379430753E+04  0.24379430753E+04  0.50400001928E-02 0. -1.
    10030    2    1    2    0    0  0.00000000000E+00  0.00000000000E+00 -0.82583719214E+03  0.40500489585E+04  0.39649576919E+04 0.  0.
        1    1    3    3  502    0 -0.31468954192E+03  0.54823887705E+03 -0.23322396827E+04  0.24163893129E+04  0.50400001928E-02 0. -1.
       -1    1    3    3    0  502  0.31468954192E+03 -0.54823887705E+03  0.15064024905E+04  0.16336596456E+04  0.50400001928E-02 0.  1.
</event>
<event>
 5   0  0.5515000E-08  0.4026897E+04  0.7818609E-02  0.7999143E-01
        1   -1    0    0  501    0  0.00000000000E+00  0.00000000000E+00  0.17836823796E+04  0.17836823796E+04  0.50400001928E-02 0. -1.
       -1   -1    0    0    0  501  0.00000000000E+00  0.00000000000E+00 -0.22728116566E+04  0.22728116566E+04  0.50400001928E-02 0.  1.
    10030    2    1    2    0    0  0.00000000000E+00  0.00000000000E+00 -0.48912927699E+03  0.40564940362E+04  0.40268966234E+04 0.  0.
        3    1    3    3  502    0 -0.56694773244E+03  0.11583190878E+04 -0.18021638961E+04  0.22160612714E+04  0.10100000352E+00 0.  1.
       -3    1    3    3    0  502  0.56694773244E+03 -0.11583190878E+04  0.13130346191E+04  0.18404327647E+04  0.10100000352E+00 0. -1.
</event>
<event>
 5   0  0.1776653E-07  0.3968325E+04  0.7818609E-02  0.8010967E-01
        2   -1    0    0  501    0  0.00000000000E+00  0.00000000000E+00  0.11254136734E+04  0.11254136734E+04  0.25500000920E-02 0. -1.
       -2   -1    0    0    0  501  0.00000000000E+00  0.00000000000E+00 -0.34981810544E+04  0.34981810544E+04  0.25500000920E-02 0.  1.
    10030    2    1    2    0    0  0.00000000000E+00  0.00000000000E+00 -0.23727673810E+04  0.46235947278E+04  0.39683249820E+04 0.  0.
        4    1    3    3  502    0 -0.80506277333E+02 -0.18004196752E+04 -0.21932507290E+03  0.18155157306E+04  0.12699999809E+01 0. -1.
       -4    1    3    3    0  502  0.80506277333E+02  0.18004196752E+04 -0.21534423081E+04  0.28080789972E+04  0.12699999809E+01 0.  1.
</event>
<event>
 5   0  0.1819906E-07  0.4193236E+04  0.7818609E-02  0.7966660E-01
       -2   -1    0    0    0  501  0.00000000000E+00  0.00000000000E+00  0.19409080808E+04  0.19409080808E+04  0.25500000920E-02 0.  1.
        2   -1    0    0  501    0  0.00000000000E+00  0.00000000000E+00 -0.22648200767E+04  0.22648200767E+04  0.25500000920E-02 0. -1.
    10030    2    1    2    0    0  0.00000000000E+00  0.00000000000E+00 -0.32391199590E+03  0.42057281575E+04  0.41932362625E+04 0.  0.
        1    1    3    3  502    0 -0.25225452874E+02  0.20878132416E+04 -0.35280457910E+03  0.21175626381E+04  0.50400001928E-02 0.  1.
       -1    1    3    3    0  502  0.25225452874E+02 -0.20878132416E+04  0.28892583192E+02  0.20881655194E+04  0.50400001928E-02 0. -1.
</event>
<event>
 5   0  0.5515000E-08  0.3907983E+04  0.7818609E-02  0.8023371E-01
       -1   -1    0    0    0  501  0.00000000000E+00  0.00000000000E+00  0.14509526892E+04  0.14509526892E+04  0.50400001928E-02 0. -1.
        1   -1    0    0  501    0  0.00000000000E+00  0.00000000000E+00 -0.26314316003E+04  0.26314316003E+04  0.50400001928E-02 0.  1.
    10030    2    1    2    0    0  0.00000000000E+00  0.00000000000E+00 -0.11804789111E+04  0.40823842895E+04  0.39079829871E+04 0.  0.
        4    1    3    3  502    0  0.10233932599E+04  0.14506084385E+03 -0.23224642476E+04  0.25420893390E+04  0.12699999809E+01 0.  1.
       -4    1    3    3    0  502 -0.10233932599E+04 -0.14506084385E+03  0.11419853365E+04  0.15402949505E+04  0.12699999809E+01 0. -1.
</event>
<event>
 5   0  0.1821433E-07  0.3996672E+04  0.7818609E-02  0.8005218E-01
        2   -1    0    0  501    0  0.00000000000E+00  0.00000000000E+00  0.21637344878E+04  0.21637344878E+04  0.25500000920E-02 0.  1.
       -2   -1    0    0    0  501  0.00000000000E+00  0.00000000000E+00 -0.18455805942E+04  0.18455805942E+04  0.25500000920E-02 0. -1.
    10030    2    1    2    0    0  0.00000000000E+00  0.00000000000E+00  0.31815389360E+03  0.40093150821E+04  0.39966718063E+04 0.  0.
        5    1    3    3  502    0 -0.13025676378E+04 -0.66067433780E+03 -0.12091112240E+04  0.18960867790E+04  0.46999998093E+01 0. -1.
       -5    1    3    3    0  502  0.13025676378E+04  0.66067433780E+03  0.15272651176E+04  0.21132283031E+04  0.46999998093E+01 0.  1.
</event>
<event>
 5   0  0.5515000E-08  0.4055923E+04  0.7818609E-02  0.7993359E-01
       -1   -1    0    0    0  501  0.00000000000E+00  0.00000000000E+00  0.35462656661E+04  0.35462656661E+04  0.50400001928E-02 0. -1.
        1   -1    0    0  501    0  0.00000000000E+00  0.00000000000E+00 -0.11597068816E+04  0.11597068816E+04  0.50400001928E-02 0.  1.
    10030    2    1    2    0    0  0.00000000000E+00  0.00000000000E+00  0.23865587845E+04  0.47059725477E+04  0.40559234198E+04 0.  0.
        4    1    3    3  502    0 -0.21219196397E+02 -0.15545375610E+04  0.27041248414E+04  0.31191874027E+04  0.12699999809E+01 0. -1.
       -4    1    3    3    0  502  0.21219196397E+02  0.15545375610E+04 -0.31756605684E+03  0.15867851449E+04  0.12699999809E+01 0.  1.
</event>
<event>
 5   0  0.5515000E-08  0.4046177E+04  0.7818609E-02  0.7995295E-01
       -1   -1    0    0    0  501  0.00000000000E+00  0.00000000000E+00  0.20452567060E+04  0.20452567060E+04  0.50400001928E-02 0. -1.
        1   -1    0    0  501    0  0.00000000000E+00  0.00000000000E+00 -0.20011606572E+04  0.20011606572E+04  0.50400001928E-02 0.  1.
    10030    2    1    2    0    0  0.00000000000E+00  0.00000000000E+00  0.44096048729E+02  0.40464173632E+04  0.40461770866E+04 0.  0.
        1    1    3    3  502    0  0.12104733449E+04 -0.16103591789E+04  0.20749056021E+03  0.20252295515E+04  0.50400001928E-02 0.  1.
       -1    1    3    3    0  502 -0.12104733449E+04  0.16103591789E+04 -0.16339451149E+03  0.20211878117E+04  0.50400001928E-02 0. -1.
</event>
<event>
 5   0  0.5515000E-08  0.3884777E+04  0.7818609E-02  0.8028203E-01
       -1   -1    0    0    0  501  0.00000000000E+00  0.00000000000E+00  0.16085382473E+04  0.16085382473E+04  0.50400001928E-02 0. -1.
        1   -1    0    0  501    0  0.00000000000E+00  0.00000000000E+00 -0.23455290737E+04  0.23455290737E+04  0.50400001928E-02 0.  1.
    10030    2    1    2    0    0  0.00000000000E+00  0.00000000000E+00 -0.73699082636E+03  0.39540673210E+04  0.38847770723E+04 0.  0.
        3    1    3    3  502    0 -0.11699938347E+04  0.13551270767E+04 -0.11353378380E+04  0.21199639109E+04  0.10100000352E+00 0.  1.
       -3    1    3    3    0  502  0.11699938347E+04 -0.13551270767E+04  0.39834701166E+03  0.18341034101E+04  0.10100000352E+00 0. -1.
</event>
<event>
 5   0  0.5515000E-08  0.3969552E+04  0.7818609E-02  0.8010717E-01
       -1   -1    0    0    0  501  0.00000000000E+00  0.00000000000E+00  0.29502416858E+04  0.29502416858E+04  0.50400001928E-02 0. -1.
        1   -1    0    0  501    0  0.00000000000E+00  0.00000000000E+00 -0.13352587530E+04  0.13352587530E+04  0.50400001928E-02 0.  1.
    10030    2    1    2    0    0  0.00000000000E+00  0.00000000000E+00  0.16149829329E+04  0.42855004388E+04  0.39695521331E+04 0.  0.
        3    1    3    3  502    0 -0.16625139299E+04  0.96515559964E+03  0.27436695624E+03  0.19418432315E+04  0.10100000352E+00 0.  1.
       -3    1    3    3    0  502  0.16625139299E+04 -0.96515559964E+03  0.13406159766E+04  0.23436572074E+04  0.10100000352E+00 0. -1.
</event>
<event>
 5   0  0.1821433E-07  0.3986321E+04  0.7818609E-02  0.8007312E-01
        2   -1    0    0  501    0  0.00000000000E+00  0.00000000000E+00  0.14787304275E+04  0.14787304276E+04  0.25500000920E-02 0.  1.
       -2   -1    0    0    0  501  0.00000000000E+00  0.00000000000E+00 -0.26865542536E+04  0.26865542536E+04  0.25500000920E-02 0. -1.
    10030    2    1    2    0    0  0.00000000000E+00  0.00000000000E+00 -0.12078238260E+04  0.41652846811E+04  0.39863213719E+04 0.  0.
        5    1    3    3  502    0 -0.11134260251E+04 -0.71651696419E+03  0.95278898490E+03  0.16312397166E+04  0.46999998093E+01 0.  1.
       -5    1    3    3    0  502  0.11134260251E+04  0.71651696419E+03 -0.21606128109E+04  0.25340449645E+04  0.46999998093E+01 0. -1.
</event>
<event>
 5   0  0.1819906E-07  0.4058422E+04  0.7818609E-02  0.7992864E-01
       -2   -1    0    0    0  501  0.00000000000E+00  0.00000000000E+00  0.13926652340E+04  0.13926652340E+04  0.25500000920E-02 0. -1.
        2   -1    0    0  501    0  0.00000000000E+00  0.00000000000E+00 -0.29567030681E+04  0.29567030681E+04  0.25500000920E-02 0.  1.
    10030    2    1    2    0    0  0.00000000000E+00  0.00000000000E+00 -0.15640378341E+04  0.43493683021E+04  0.40584221418E+04 0.  0.
        1    1    3    3  502    0 -0.10861755696E+04  0.12605977659E+04 -0.20266622419E+04  0.26222593194E+04  0.50400001928E-02 0.  1.
       -1    1    3    3    0  502  0.10861755696E+04 -0.12605977659E+04  0.46262440786E+03  0.17271089827E+04  0.50400001928E-02 0. -1.
</event>
<event>
 5   0  0.5515000E-08  0.3989636E+04  0.7818609E-02  0.8006640E-01
        1   -1    0    0  501    0  0.00000000000E+00  0.00000000000E+00  0.27592898505E+04  0.27592898505E+04  0.50400001928E-02 0. -1.
       -1   -1    0    0    0  501  0.00000000000E+00  0.00000000000E+00 -0.14421463058E+04  0.14421463058E+04  0.50400001928E-02 0.  1.
    10030    2    1    2    0    0  0.00000000000E+00  0.00000000000E+00  0.13171435447E+04  0.42014361562E+04  0.39896364067E+04 0.  0.
        4    1    3    3  502    0  0.87490738160E+03  0.87097604761E+03 -0.99153124555E+03  0.15834134096E+04  0.12699999809E+01 0.  1.
       -4    1    3    3    0  502 -0.87490738160E+03 -0.87097604761E+03  0.23086747902E+04  0.26180227466E+04  0.12699999809E+01 0. -1.
</event>
<event>
 5   0  0.5515000E-08  0.4012938E+04  0.7818609E-02  0.8001942E-01
        1   -1    0    0  501    0  0.00000000000E+00  0.00000000000E+00  0.20305271466E+04  0.20305271467E+04  0.50400001928E-02 0. -1.
       -1   -1    0    0    0  501  0.00000000000E+00  0.00000000000E+00 -0.19826957815E+04  0.19826957815E+04  0.50400001928E-02 0.  1.
    10030    2    1    2    0    0  0.00000000000E+00  0.00000000000E+00  0.47831365148E+02  0.40132229282E+04  0.40129378804E+04 0.  0.
        5    1    3    3  502    0  0.15058282848E+04  0.11768373060E+04 -0.58721744761E+03  0.19993277092E+04  0.46999998093E+01 0. -1.
       -5    1    3    3    0  502 -0.15058282848E+04 -0.11768373060E+04  0.63504881276E+03  0.20138952189E+04  0.46999998093E+01 0.  1.
</event>
<event>
 5   0  0.1821433E-07  0.4038806E+04  0.7818609E-02  0.7996764E-01
       -2   -1    0    0    0  501  0.00000000000E+00  0.00000000000E+00  0.25516208489E+04  0.25516208489E+04  0.25500000920E-02 0. -1.
        2   -1    0    0  501    0  0.00000000000E+00  0.00000000000E+00 -0.15981955298E+04  0.15981955298E+04  0.25500000920E-02 0.  1.
    10030    2    1    2    0    0  0.00000000000E+00  0.00000000000E+00  0.95342531912E+03  0.41498163787E+04  0.40388062763E+04 0.  0.
        5    1    3    3  502    0 -0.11414928876E+04 -0.68193102618E+03 -0.10849073399E+04  0.17161241106E+04  0.46999998093E+01 0.  1.
       -5    1    3    3    0  502  0.11414928876E+04  0.68193102618E+03  0.20383326590E+04  0.24336922681E+04  0.46999998093E+01 0. -1.
</event>
<event>
 5   0  0.5515000E-08  0.4007498E+04  0.7818609E-02  0.8003036E-01
       -1   -1    0    0    0  501  0.00000000000E+00  0.00000000000E+00  0.15652001091E+04  0.15652001091E+04  0.50400001928E-02 0.  1.
        1   -1    0    0  501    0  0.00000000000E+00  0.00000000000E+00 -0.25651741536E+04  0.25651741536E+04  0.50400001928E-02 0. -1.
    10030    2    1    2    0    0  0.00000000000E+00  0.00000000000E+00 -0.99997404449E+03  0.41303742628E+04  0.40074984044E+04 0.  0.
        5    1    3    3  502    0 -0.59618952659E+03  0.15259866277E+04 -0.16890111263E+04  0.23530528711E+04  0.46999998093E+01 0. -1.
       -5    1    3    3    0  502  0.59618952659E+03 -0.15259866277E+04  0.68903708177E+03  0.17773213917E+04  0.46999998093E+01 0.  1.
</event>
<event>
 5   0  0.5515000E-08  0.3744527E+04  0.7818609E-02  0.8058165E-01
        1   -1    0    0  501    0  0.00000000000E+00  0.00000000000E+00  0.28823487295E+04  0.28823487295E+04  0.50400001928E-02 0.  1.
       -1   -1    0    0    0  501  0.00000000000E+00  0.00000000000E+00 -0.12161505256E+04  0.12161505256E+04  0.50400001928E-02 0. -1.
    10030    2    1    2    0    0  0.00000000000E+00  0.00000000000E+00  0.16661982038E+04  0.40984992551E+04  0.37445266309E+04 0.  0.
        3    1    3    3  502    0  0.20496444400E+03 -0.18512929039E+04  0.10409852371E+04  0.21337633687E+04  0.10100000352E+00 0. -1.
       -3    1    3    3    0  502 -0.20496444400E+03  0.18512929039E+04  0.62521296671E+03  0.19647358864E+04  0.10100000352E+00 0.  1.
</event>
<event>
 5   0  0.1776653E-07  0.3969651E+04  0.7818609E-02  0.8010697E-01
       -2   -1    0    0    0  501  0.00000000000E+00  0.00000000000E+00  0.17412272758E+04  0.17412272758E+04  0.25500000920E-02 0.  1.
        2   -1    0    0  501    0  0.00000000000E+00  0.00000000000E+00 -0.22625034846E+04  0.22625034846E+04  0.25500000920E-02 0. -1.
    10030    2    1    2    0    0  0.00000000000E+00  0.00000000000E+00 -0.52127620882E+03  0.40037307604E+04  0.39696512587E+04 0.  0.
        4    1    3    3  502    0  0.25666084847E+03  0.14508041951E+04 -0.16020271867E+04  0.21765110437E+04  0.12699999809E+01 0. -1.
       -4    1    3    3    0  502 -0.25666084847E+03 -0.14508041951E+04  0.10807509779E+04  0.18272197166E+04  0.12699999809E+01 0.  1.
</event>
<event>
 5   0  0.1785559E-07  0.4143311E+04  0.7818609E-02  0.7976244E-01
       -2   -1    0    0    0  501  0.00000000000E+00  0.00000000000E+00  0.14833459513E+04  0.14833459513E+04  0.25500000920E-02 0. -1.
        2   -1    0    0  501    0  0.00000000000E+00  0.00000000000E+00 -0.28932948340E+04  0.28932948340E+04  0.25500000920E-02 0.  1.
    10030    2    1    2    0    0  0.00000000000E+00  0.00000000000E+00 -0.14099488827E+04  0.43766407854E+04  0.41433113222E+04 0.  0.
        2    1    3    3  502    0 -0.19352022267E+03 -0.15457612848E+04 -0.21475032836E+04  0.26530356913E+04  0.25500000920E-02 0.  1.
       -2    1    3    3    0  502  0.19352022267E+03  0.15457612848E+04  0.73755440093E+03  0.17236050941E+04  0.25500000920E-02 0. -1.
</event>
<event>
 5   0  0.5515000E-08  0.4079512E+04  0.7818609E-02  0.7988696E-01
       -1   -1    0    0    0  501  0.00000000000E+00  0.00000000000E+00  0.17714359086E+04  0.17714359086E+04  0.50400001928E-02 0. -1.
        1   -1    0    0  501    0  0.00000000000E+00  0.00000000000E+00 -0.23487180995E+04  0.23487180995E+04  0.50400001928E-02 0.  1.
    10030    2    1    2    0    0  0.00000000000E+00  0.00000000000E+00 -0.57728219086E+03  0.41201540081E+04  0.40795115299E+04 0.  0.
        2    1    3    3  502    0  0.20358935491E+04 -0.11972677246E+03 -0.25076362995E+03  0.20547699242E+04  0.25500000920E-02 0.  1.
       -2    1    3    3    0  502 -0.20358935491E+04  0.11972677246E+03 -0.32651856091E+03  0.20653840839E+04  0.25500000920E-02 0. -1.
</event>
<event>
 5   0  0.1785559E-07  0.3988859E+04  0.7818609E-02  0.8006798E-01
       -2   -1    0    0    0  501  0.00000000000E+00  0.00000000000E+00  0.14231596013E+04  0.14231596013E+04  0.25500000920E-02 0.  1.
        2   -1    0    0  501    0  0.00000000000E+00  0.00000000000E+00 -0.27950132592E+04  0.27950132592E+04  0.25500000920E-02 0. -1.
    10030    2    1    2    0    0  0.00000000000E+00  0.00000000000E+00 -0.13718536579E+04  0.42181728605E+04  0.39888594638E+04 0.  0.
        2    1    3    3  502    0 -0.39627256648E+03 -0.12406345200E+04  0.91138630124E+03  0.15896008774E+04  0.25500000920E-02 0.  1.
       -2    1    3    3    0  502  0.39627256648E+03  0.12406345200E+04 -0.22832399592E+04  0.26285719831E+04  0.25500000920E-02 0. -1.
</event>
<event>
 5   0  0.5515000E-08  0.3218603E+04  0.7818609E-02  0.8183921E-01
        1   -1    0    0  501    0  0.00000000000E+00  0.00000000000E+00  0.25190744599E+04  0.25190744599E+04  0.50400001928E-02 0. -1.
       -1   -1    0    0    0  501  0.00000000000E+00  0.00000000000E+00 -0.10280964108E+04  0.10280964108E+04  0.50400001928E-02 0.  1.
    10030    2    1    2    0    0  0.00000000000E+00  0.00000000000E+00  0.14909780491E+04  0.35471708707E+04  0.32186030577E+04 0.  0.
        2    1    3    3  502    0 -0.13814492083E+04 -0.80523257140E+03  0.94584413860E+03  0.18578004585E+04  0.25500000920E-02 0. -1.
       -2    1    3    3    0  502  0.13814492083E+04  0.80523257140E+03  0.54513391052E+03  0.16893704122E+04  0.25500000920E-02 0.  1.
</event>
<event>
 5   0  0.5515000E-08  0.3954341E+04  0.7818609E-02  0.8013821E-01
       -1   -1    0    0    0  501  0.00000000000E+00  0.00000000000E+00  0.16474680361E+04  0.16474680361E+04  0.50400001928E-02 0.  1.
        1   -1    0    0  501    0  0.00000000000E+00  0.00000000000E+00 -0.23728549078E+04  0.23728549078E+04  0.50400001928E-02 0. -1.
    10030    2    1    2    0    0  0.00000000000E+00  0.00000000000E+00 -0.72538687167E+03  0.40203229439E+04  0.39543407111E+04 0.  0.
        3    1    3    3  502    0 -0.11959335483E+04  0.40538763884E+03  0.11840754617E+04  0.17310779587E+04  0.10100000352E+00 0.  1.
       -3    1    3    3    0  502  0.11959335483E+04 -0.40538763884E+03 -0.19094623334E+04  0.22892449853E+04  0.10100000352E+00 0. -1.
</event>
<event>
 5   0  0.1785559E-07  0.3972731E+04  0.7818609E-02  0.8010070E-01
        2   -1    0    0  501    0  0.00000000000E+00  0.00000000000E+00  0.23142358442E+04  0.23142358442E+04  0.25500000920E-02 0.  1.
       -2   -1    0    0    0  501  0.00000000000E+00  0.00000000000E+00 -0.17049462390E+04  0.17049462390E+04  0.25500000920E-02 0. -1.
    10030    2    1    2    0    0  0.00000000000E+00  0.00000000000E+00  0.60928960522E+03  0.40191820832E+04  0.39727308988E+04 0.  0.
        2    1    3    3  502    0  0.17667424753E+04  0.15232490648E+03 -0.60084307756E+03  0.18723232240E+04  0.25500000920E-02 0. -1.
       -2    1    3    3    0  502 -0.17667424753E+04 -0.15232490648E+03  0.12101326828E+04  0.21468588592E+04  0.25500000920E-02 0.  1.
</event>
<event>
 5   0  0.1776653E-07  0.3998288E+04  0.7818609E-02  0.8004892E-01
        2   -1    0    0  501    0  0.00000000000E+00  0.00000000000E+00  0.19815543906E+04  0.19815543906E+04  0.25500000920E-02 0. -1.
       -2   -1    0    0    0  501  0.00000000000E+00  0.00000000000E+00 -0.20168892681E+04  0.20168892681E+04  0.25500000920E-02 0.  1.
    10030    2    1    2    0    0  0.00000000000E+00  0.00000000000E+00 -0.35334877515E+02  0.39984436588E+04  0.39982875258E+04 0.  0.
        4    1    3    3  502    0  0.17487523736E+04 -0.92710021928E+03  0.26327856164E+03  0.19967390652E+04  0.12699999809E+01 0. -1.
       -4    1    3    3    0  502 -0.17487523736E+04  0.92710021928E+03 -0.29861343916E+03  0.20017045935E+04  0.12699999809E+01 0.  1.
</event>
<event>
 5   0  0.1819906E-07  0.3996863E+04  0.7818609E-02  0.8005180E-01
       -2   -1    0    0    0  501  0.00000000000E+00  0.00000000000E+00  0.17353409982E+04  0.17353409982E+04  0.25500000920E-02 0. -1.
        2   -1    0    0  501    0  0.00000000000E+00  0.00000000000E+00 -0.23014082407E+04  0.23014082407E+04  0.25500000920E-02 0.  1.
    10030    2    1    2    0    0  0.00000000000E+00  0.00000000000E+00 -0.56606724255E+03  0.40367492389E+04  0.39968628066E+04 0.  0.
        1    1    3    3  502    0  0.17307442446E+04 -0.82294547204E+02  0.72263411833E+03  0.18773513528E+04  0.50400001928E-02 0. -1.
       -1    1    3    3    0  502 -0.17307442446E+04  0.82294547204E+02 -0.12887013609E+04  0.21593978861E+04  0.50400001928E-02 0.  1.
</event>
<event>
 5   0  0.1819906E-07  0.3881829E+04  0.7818609E-02  0.8028819E-01
       -2   -1    0    0    0  501  0.00000000000E+00  0.00000000000E+00  0.11773228302E+04  0.11773228302E+04  0.25500000920E-02 0. -1.
        2   -1    0    0  501    0  0.00000000000E+00  0.00000000000E+00 -0.31997583497E+04  0.31997583497E+04  0.25500000920E-02 0.  1.
    10030    2    1    2    0    0  0.00000000000E+00  0.00000000000E+00 -0.20224355195E+04  0.43770811799E+04  0.38818287218E+04 0.  0.
        1    1    3    3  502    0  0.81381624338E+03  0.13401274377E+04  0.27882215109E+03  0.15924761283E+04  0.50400001928E-02 0. -1.
       -1    1    3    3    0  502 -0.81381624338E+03 -0.13401274377E+04 -0.23012576706E+04  0.27846050517E+04  0.50400001928E-02 0.  1.
</event>
<event>
 5   0  0.5515000E-08  0.4015680E+04  0.7818609E-02  0.8001391E-01
       -1   -1    0    0    0  501  0.00000000000E+00  0.00000000000E+00  0.16441870800E+04  0.16441870801E+04  0.50400001928E-02 0.  1.
        1   -1    0    0  501    0  0.00000000000E+00  0.00000000000E+00 -0.24519242551E+04  0.24519242551E+04  0.50400001928E-02 0. -1.
    10030    2    1    2    0    0  0.00000000000E+00  0.00000000000E+00 -0.80773717506E+03  0.40961113352E+04  0.40156803566E+04 0.  0.
        2    1    3    3  502    0  0.11857544906E+04  0.66352512578E+03  0.11039619539E+04  0.17507173673E+04  0.25500000920E-02 0.  1.
       -2    1    3    3    0  502 -0.11857544906E+04 -0.66352512578E+03 -0.19116991290E+04  0.23453939678E+04  0.25500000920E-02 0. -1.
</event>
<event>
 5   0  0.5515000E-08  0.4016664E+04  0.7818609E-02  0.8001193E-01
        1   -1    0    0  501    0  0.00000000000E+00  0.00000000000E+00  0.24972701094E+04  0.24972701094E+04  0.50400001928E-02 0. -1.
       -1   -1    0    0    0  501  0.00000000000E+00  0.00000000000E+00 -0.16151227550E+04  0.16151227550E+04  0.50400001928E-02 0.  1.
    10030    2    1    2    0    0  0.00000000000E+00  0.00000000000E+00  0.88214735437E+03  0.41123928644E+04  0.40166641777E+04 0.  0.
        2    1    3    3  502    0 -0.10265627327E+04  0.15365734885E+04 -0.36412297857E+03  0.18834740968E+04  0.25500000920E-02 0.  1.
       -2    1    3    3    0  502  0.10265627327E+04 -0.15365734885E+04  0.12462703329E+04  0.22289187676E+04  0.25500000920E-02 0. -1.
</event>
<event>
 5   0  0.1819906E-07  0.3976221E+04  0.7818609E-02  0.8009361E-01
       -2   -1    0    0    0  501  0.00000000000E+00  0.00000000000E+00  0.14747071814E+04  0.14747071814E+04  0.25500000920E-02 0.  1.
        2   -1    0    0  501    0  0.00000000000E+00  0.00000000000E+00 -0.26802497581E+04  0.26802497581E+04  0.25500000920E-02 0. -1.
    10030    2    1    2    0    0  0.00000000000E+00  0.00000000000E+00 -0.12055425767E+04  0.41549569396E+04  0.39762211037E+04 0.  0.
        1    1    3    3  502    0 -0.14740340773E+04 -0.32597769947E+03  0.74903599569E+03  0.16852575009E+04  0.50400001928E-02 0.  1.
       -1    1    3    3    0  502  0.14740340773E+04  0.32597769947E+03 -0.19545785724E+04  0.24696994387E+04  0.50400001928E-02 0. -1.
</event>
<event>
 5   0  0.1821433E-07  0.3987848E+04  0.7818609E-02  0.8007003E-01
        2   -1    0    0  501    0  0.00000000000E+00  0.00000000000E+00  0.13260150955E+04  0.13260150955E+04  0.25500000920E-02 0. -1.
       -2   -1    0    0    0  501  0.00000000000E+00  0.00000000000E+00 -0.29982558958E+04  0.29982558958E+04  0.25500000920E-02 0.  1.
    10030    2    1    2    0    0  0.00000000000E+00  0.00000000000E+00 -0.16722408003E+04  0.43242709913E+04  0.39878478296E+04 0.  0.
        5    1    3    3  502    0 -0.13987150446E+04 -0.81306745511E+03  0.42762814344E+03  0.16734307220E+04  0.46999998093E+01 0. -1.
       -5    1    3    3    0  502  0.13987150446E+04  0.81306745511E+03 -0.20998689438E+04  0.26508402693E+04  0.46999998093E+01 0.  1.
</event>
<event>
 5   0  0.1776653E-07  0.4057227E+04  0.7818609E-02  0.7993101E-01
        2   -1    0    0  501    0  0.00000000000E+00  0.00000000000E+00  0.15698632686E+04  0.15698632686E+04  0.25500000920E-02 0. -1.
       -2   -1    0    0    0  501  0.00000000000E+00  0.00000000000E+00 -0.26214213306E+04  0.26214213306E+04  0.25500000920E-02 0.  1.
    10030    2    1    2    0    0  0.00000000000E+00  0.00000000000E+00 -0.10515580620E+04  0.41912845992E+04  0.40572271607E+04 0.  0.
        4    1    3    3  502    0  0.19917351555E+04  0.34808311114E+03 -0.69584123026E+03  0.21383094754E+04  0.12699999809E+01 0.  1.
       -4    1    3    3    0  502 -0.19917351555E+04 -0.34808311114E+03 -0.35571683178E+03  0.20529751238E+04  0.12699999809E+01 0. -1.
</event>
<event>
 5   0  0.5515000E-08  0.3949592E+04  0.7818609E-02  0.8014793E-01
       -1   -1    0    0    0  501  0.00000000000E+00  0.00000000000E+00  0.15650742426E+04  0.15650742426E+04  0.50400001928E-02 0. -1.
        1   -1    0    0  501    0  0.00000000000E+00  0.00000000000E+00 -0.24917788814E+04  0.24917788814E+04  0.50400001928E-02 0.  1.
    10030    2    1    2    0    0  0.00000000000E+00  0.00000000000E+00 -0.92670463885E+03  0.40568531240E+04  0.39495918501E+04 0.  0.
        3    1    3    3  502    0 -0.15004121814E+03 -0.36313764751E+03  0.15245193786E+04  0.15743381670E+04  0.10100000352E+00 0. -1.
       -3    1    3    3    0  502  0.15004121814E+03  0.36313764751E+03 -0.24512240174E+04  0.24825149570E+04  0.10100000352E+00 0.  1.
</event>
<event>
 5   0  0.1773903E-07  0.4080661E+04  0.7818609E-02  0.7988469E-01
        2   -1    0    0  501    0  0.00000000000E+00  0.00000000000E+00  0.22671313976E+04  0.22671313976E+04  0.25500000920E-02 0. -1.
       -2   -1    0    0    0  501  0.00000000000E+00  0.00000000000E+00 -0.18362186525E+04  0.18362186525E+04  0.25500000920E-02 0.  1.
    10030    2    1    2    0    0  0.00000000000E+00  0.00000000000E+00  0.43091274506E+03  0.41033500501E+04  0.40806612013E+04 0.  0.
        3    1    3    3  502    0 -0.15749696146E+03  0.68877114724E+02 -0.18289241059E+04  0.18369846884E+04  0.10100000352E+00 0.  1.
       -3    1    3    3    0  502  0.15749696146E+03 -0.68877114724E+02  0.22598368510E+04  0.22663653618E+04  0.10100000352E+00 0. -1.
</event>
<event>
 5   0  0.1819906E-07  0.4029910E+04  0.7818609E-02  0.7998540E-01
        2   -1    0    0  501    0  0.00000000000E+00  0.00000000000E+00  0.25828940629E+04  0.25828940629E+04  0.25500000920E-02 0. -1.
       -2   -1    0    0    0  501  0.00000000000E+00  0.00000000000E+00 -0.15718968394E+04  0.15718968394E+04  0.25500000920E-02 0.  1.
    10030    2    1    2    0    0  0.00000000000E+00  0.00000000000E+00  0.10109972236E+04  0.41547909023E+04  0.40299096834E+04 0.  0.
        1    1    3    3  502    0 -0.13544310495E+04  0.14190368099E+04  0.30914419139E+02  0.19619135142E+04  0.50400001928E-02 0. -1.
       -1    1    3    3    0  502  0.13544310495E+04 -0.14190368099E+04  0.98008280442E+03  0.21928773881E+04  0.50400001928E-02 0.  1.
</event>
<event>
 5   0  0.5515000E-08  0.4016026E+04  0.7818609E-02  0.8001321E-01
        1   -1    0    0  501    0  0.00000000000E+00  0.00000000000E+00  0.23869814304E+04  0.23869814304E+04  0.50400001928E-02 0.  1.
       -1   -1    0    0    0  501  0.00000000000E+00  0.00000000000E+00 -0.16892114731E+04  0.16892114731E+04  0.50400001928E-02 0. -1.
    10030    2    1    2    0    0  0.00000000000E+00  0.00000000000E+00  0.69776995729E+03  0.40761929035E+04  0.40160261047E+04 0.  0.
        4    1    3    3  502    0 -0.46486538396E+02 -0.16222545737E+04  0.15490740530E+04  0.22435469540E+04  0.12699999809E+01 0.  1.
       -4    1    3    3    0  502  0.46486538396E+02  0.16222545737E+04 -0.85130409570E+03  0.18326459495E+04  0.12699999809E+01 0. -1.
</event>
<event>
 5   0  0.1773903E-07  0.3971829E+04  0.7818609E-02  0.8010254E-01
       -2   -1    0    0    0  501  0.00000000000E+00  0.00000000000E+00  0.14685548118E+04  0.14685548118E+04  0.25500000920E-02 0.  1.
        2   -1    0    0  501    0  0.00000000000E+00  0.00000000000E+00 -0.26855360339E+04  0.26855360339E+04  0.25500000920E-02 0. -1.
    10030    2    1    2    0    0  0.00000000000E+00  0.00000000000E+00 -0.12169812221E+04  0.41540908456E+04  0.39718292334E+04 0.  0.
        3    1    3    3  502    0  0.11335820922E+03 -0.34735731299E+03  0.14330961359E+04  0.14789427749E+04  0.10100000352E+00 0.  1.
       -3    1    3    3    0  502 -0.11335820922E+03  0.34735731299E+03 -0.26500773580E+04  0.26751480707E+04  0.10100000352E+00 0. -1.
</event>
<event>
 5   0  0.1819906E-07  0.3891688E+04  0.7818609E-02  0.8026760E-01
        2   -1    0    0  501    0  0.00000000000E+00  0.00000000000E+00  0.21699564479E+04  0.21699564479E+04  0.25500000920E-02 0.  1.
       -2   -1    0    0    0  501  0.00000000000E+00  0.00000000000E+00 -0.17448781943E+04  0.17448781943E+04  0.25500000920E-02 0. -1.
    10030    2    1    2    0    0  0.00000000000E+00  0.00000000000E+00  0.42507825359E+03  0.39148346422E+04  0.38916884195E+04 0.  0.
        1    1    3    3  502    0 -0.10094295694E+04  0.49601183678E+03  0.18098540215E+04  0.21308560198E+04  0.50400001928E-02 0.  1.
       -1    1    3    3    0  502  0.10094295694E+04 -0.49601183678E+03 -0.13847757679E+04  0.17839786224E+04  0.50400001928E-02 0. -1.
</event>
<event>
 5   0  0.5515000E-08  0.4006470E+04  0.7818609E-02  0.8003243E-01
       -1   -1    0    0    0  501  0.00000000000E+00  0.00000000000E+00  0.17514891839E+04  0.17514891839E+04  0.50400001928E-02 0.  1.
        1   -1    0    0  501    0  0.00000000000E+00  0.00000000000E+00 -0.22911653600E+04  0.22911653600E+04  0.50400001928E-02 0. -1.
    10030    2    1    2    0    0  0.00000000000E+00  0.00000000000E+00 -0.53967617612E+03  0.40426545439E+04  0.40064704400E+04 0.  0.
        2    1    3    3  502    0  0.14938759533E+04  0.41443300408E+03 -0.15499690372E+04  0.21922189888E+04  0.25500000920E-02 0.  1.
       -2    1    3    3    0  502 -0.14938759533E+04 -0.41443300408E+03  0.10102928610E+04  0.18504355551E+04  0.25500000920E-02 0. -1.
</event>
<event>
 5   0  0.1821433E-07  0.4000021E+04  0.7818609E-02  0.8004542E-01
        2   -1    0    0  501    0  0.00000000000E+00  0.00000000000E+00  0.25375371865E+04  0.25375371865E+04  0.25500000920E-02 0. -1.
       -2   -1    0    0    0  501  0.00000000000E+00  0.00000000000E+00 -0.15763477868E+04  0.15763477868E+04  0.25500000920E-02 0.  1.
    10030    2    1    2    0    0  0.00000000000E+00  0.00000000000E+00  0.96118939976E+03  0.41138849733E+04  0.40000205638E+04 0.  0.
        5    1    3    3  502    0 -0.12174558139E+04 -0.15143471194E+04  0.96797600403E+03  0.21708167797E+04  0.46999998093E+01 0. -1.
       -5    1    3    3    0  502  0.12174558139E+04  0.15143471194E+04 -0.67866042769E+01  0.19430681935E+04  0.46999998093E+01 0.  1.
</event>
<event>
 5   0  0.5515000E-08  0.3933200E+04  0.7818609E-02  0.8018160E-01
       -1   -1    0    0    0  501  0.00000000000E+00  0.00000000000E+00  0.19474329442E+04  0.19474329442E+04  0.50400001928E-02 0.  1.
        1   -1    0    0  501    0  0.00000000000E+00  0.00000000000E+00 -0.19859554355E+04  0.19859554355E+04  0.50400001928E-02 0. -1.
    10030    2    1    2    0    0  0.00000000000E+00  0.00000000000E+00 -0.38522491312E+02  0.39333883797E+04  0.39331997359E+04 0.  0.
        3    1    3    3  502    0  0.11537425919E+04  0.10009203892E+04 -0.12580907901E+04  0.19788269354E+04  0.10100000352E+00 0. -1.
       -3    1    3    3    0  502 -0.11537425919E+04 -0.10009203892E+04  0.12195682987E+04  0.19545614443E+04  0.10100000352E+00 0.  1.
</event>
<event>
 5   0  0.1819906E-07  0.4039241E+04  0.7818609E-02  0.7996677E-01
       -2   -1    0    0    0  501  0.00000000000E+00  0.00000000000E+00  0.12414633147E+04  0.12414633147E+04  0.25500000920E-02 0.  1.
        2   -1    0    0  501    0  0.00000000000E+00  0.00000000000E+00 -0.32855323063E+04  0.32855323063E+04  0.25500000920E-02 0. -1.
    10030    2    1    2    0    0  0.00000000000E+00  0.00000000000E+00 -0.20440689916E+04  0.45269956210E+04  0.40392414276E+04 0.  0.
        1    1    3    3  502    0  0.12277490240E+04  0.12740361925E+04  0.69381845173E+02  0.17706918778E+04  0.50400001928E-02 0.  1.
       -1    1    3    3    0  502 -0.12277490240E+04 -0.12740361925E+04 -0.21134508368E+04  0.27563037432E+04  0.50400001928E-02 0. -1.
</event>
<event>
 5   0  0.1785559E-07  0.4014925E+04  0.7818609E-02  0.8001542E-01
        2   -1    0    0  501    0  0.00000000000E+00  0.00000000000E+00  0.22724500373E+04  0.22724500373E+04  0.25500000920E-02 0. -1.
       -2   -1    0    0    0  501  0.00000000000E+00  0.00000000000E+00 -0.17733748498E+04  0.17733748498E+04  0.25500000920E-02 0.  1.
    10030    2    1    2    0    0  0.00000000000E+00  0.00000000000E+00  0.49907518748E+03  0.40458248871E+04  0.40149250273E+04 0.  0.
        2    1    3    3  502    0 -0.17693971591E+04  0.31107303610E+03  0.11521842873E+04  0.21342589750E+04  0.25500000920E-02 0. -1.
       -2    1    3    3    0  502  0.17693971591E+04 -0.31107303610E+03 -0.65310909982E+03  0.19115659122E+04  0.25500000920E-02 0.  1.
</event>
<event>
 5   0  0.5515000E-08  0.4005969E+04  0.7818609E-02  0.8003343E-01
        1   -1    0    0  501    0  0.00000000000E+00  0.00000000000E+00  0.12040693291E+04  0.12040693291E+04  0.50400001928E-02 0. -1.
       -1   -1    0    0    0  501  0.00000000000E+00  0.00000000000E+00 -0.33319903956E+04  0.33319903956E+04  0.50400001928E-02 0.  1.
    10030    2    1    2    0    0  0.00000000000E+00  0.00000000000E+00 -0.21279210665E+04  0.45360597247E+04  0.40059692661E+04 0.  0.
        5    1    3    3  502    0  0.64778597732E+03 -0.12436921864E+04 -0.26834342736E+04  0.30277447907E+04  0.46999998093E+01 0.  1.
       -5    1    3    3    0  502 -0.64778597732E+03  0.12436921864E+04  0.55551320715E+03  0.15083149340E+04  0.46999998093E+01 0. -1.
</event>
<event>
 5   0  0.1773903E-07  0.4003799E+04  0.7818609E-02  0.8003781E-01
        2   -1    0    0  501    0  0.00000000000E+00  0.00000000000E+00  0.30993193539E+04  0.30993193539E+04  0.25500000920E-02 0.  1.
       -2   -1    0    0    0  501  0.00000000000E+00  0.00000000000E+00 -0.12930583838E+04  0.12930583838E+04  0.25500000920E-02 0. -1.
    10030    2    1    2    0    0  0.00000000000E+00  0.00000000000E+00  0.18062609701E+04  0.43923777377E+04  0.40037986336E+04 0.  0.
        3    1    3    3  502    0 -0.18482946458E+04  0.30749495760E+02  0.60138359722E+02  0.18495283890E+04  0.10100000352E+00 0. -1.
       -3    1    3    3    0  502  0.18482946458E+04 -0.30749495760E+02  0.17461226104E+04  0.25428493486E+04  0.10100000352E+00 0.  1.
</event>
<event>
 5   0  0.1821433E-07  0.3979048E+04  0.7818609E-02  0.8008787E-01
       -2   -1    0    0    0  501  0.00000000000E+00  0.00000000000E+00  0.13287965328E+04  0.13287965328E+04  0.25500000920E-02 0. -1.
        2   -1    0    0  501    0  0.00000000000E+00  0.00000000000E+00 -0.29787896017E+04  0.29787896017E+04  0.25500000920E-02 0.  1.
    10030    2    1    2    0    0  0.00000000000E+00  0.00000000000E+00 -0.16499930689E+04  0.43075861345E+04  0.39790477728E+04 0.  0.
        5    1    3    3  502    0 -0.15754055727E+04  0.12051417173E+04 -0.65758696849E+03  0.20896679134E+04  0.46999998093E+01 0. -1.
       -5    1    3    3    0  502  0.15754055727E+04 -0.12051417173E+04 -0.99240610036E+03  0.22179182210E+04  0.46999998093E+01 0.  1.
</event>
<event>
 5   0  0.1819906E-07  0.4009190E+04  0.7818609E-02  0.8002695E-01
        2   -1    0    0  501    0  0.00000000000E+00  0.00000000000E+00  0.22601438084E+04  0.22601438084E+04  0.25500000920E-02 0. -1.
       -2   -1    0    0    0  501  0.00000000000E+00  0.00000000000E+00 -0.17779402652E+04  0.17779402652E+04  0.25500000920E-02 0.  1.
    10030    2    1    2    0    0  0.00000000000E+00  0.00000000000E+00  0.48220354328E+03  0.40380840736E+04  0.40091897845E+04 0.  0.
        1    1    3    3  502    0  0.54060619277E+03  0.17824384199E+04 -0.50522361012E+03  0.19299203799E+04  0.50400001928E-02 0.  1.
       -1    1    3    3    0  502 -0.54060619277E+03 -0.17824384199E+04  0.98742715340E+03  0.21081636938E+04  0.50400001928E-02 0. -1.
</event>
<event>
 5   0  0.5515000E-08  0.3966889E+04  0.7818609E-02  0.8011260E-01
        1   -1    0    0  501    0  0.00000000000E+00  0.00000000000E+00  0.17516520059E+04  0.17516520059E+04  0.50400001928E-02 0.  1.
       -1   -1    0    0    0  501  0.00000000000E+00  0.00000000000E+00 -0.22459098830E+04  0.22459098830E+04  0.50400001928E-02 0. -1.
    10030    2    1    2    0    0  0.00000000000E+00  0.00000000000E+00 -0.49425787704E+03  0.39975618889E+04  0.39668892355E+04 0.  0.
        1    1    3    3  502    0  0.60418092329E+03 -0.12897148944E+04  0.11439990396E+04  0.18267821161E+04  0.50400001928E-02 0.  1.
       -1    1    3    3    0  502 -0.60418092329E+03  0.12897148944E+04 -0.16382569166E+04  0.21707797728E+04  0.50400001928E-02 0. -1.
</event>
<event>
 5   0  0.1773903E-07  0.3974726E+04  0.7818609E-02  0.8009665E-01
        2   -1    0    0  501    0  0.00000000000E+00  0.00000000000E+00  0.16771379850E+04  0.16771379850E+04  0.25500000920E-02 0. -1.
       -2   -1    0    0    0  501  0.00000000000E+00  0.00000000000E+00 -0.23549710327E+04  0.23549710327E+04  0.25500000920E-02 0.  1.
    10030    2    1    2    0    0  0.00000000000E+00  0.00000000000E+00 -0.67783304768E+03  0.40321090177E+04  0.39747258383E+04 0.  0.
        3    1    3    3  502    0  0.88109886069E+03  0.49258046854E+03  0.13977097681E+04  0.17241123300E+04  0.10100000352E+00 0. -1.
       -3    1    3    3    0  502 -0.88109886069E+03 -0.49258046854E+03 -0.20755428158E+04  0.23079966877E+04  0.10100000352E+00 0.  1.
</event>
<event>
 5   0  0.1776653E-07  0.3562481E+04  0.7818609E-02  0.8099140E-01
        2   -1    0    0  501    0  0.00000000000E+00  0.00000000000E+00  0.19682705112E+04  0.19682705112E+04  0.25500000920E-02 0. -1.
       -2   -1    0    0    0  501  0.00000000000E+00  0.00000000000E+00 -0.16119823187E+04  0.16119823187E+04  0.25500000920E-02 0.  1.
    10030    2    1    2    0    0  0.00000000000E+00  0.00000000000E+00  0.35628819250E+03  0.35802528298E+04  0.35624807437E+04 0.  0.
        4    1    3    3  502    0 -0.15102953261E+04 -0.28822989438E+03  0.10819341709E+04  0.18800669156E+04  0.12699999809E+01 0. -1.
       -4    1    3    3    0  502  0.15102953261E+04  0.28822989438E+03 -0.72564597840E+03  0.17001859142E+04  0.12699999809E+01 0.  1.
</event>
<event>
 5   0  0.1785559E-07  0.3699382E+04  0.7818609E-02  0.8068099E-01
       -2   -1    0    0    0  501  0.00000000000E+00  0.00000000000E+00  0.15873476643E+04  0.15873476643E+04  0.25500000920E-02 0.  1.
        2   -1    0    0  501    0  0.00000000000E+00  0.00000000000E+00 -0.21553926435E+04  0.21553926435E+04  0.25500000920E-02 0. -1.
    10030    2    1    2    0    0  0.00000000000E+00  0.00000000000E+00 -0.56804497920E+03  0.37427403079E+04  0.36993823692E+04 0.  0.
        2    1    3    3  502    0  0.97906351440E+03 -0.79868015434E+03 -0.16507447258E+04  0.20788009774E+04  0.25500000920E-02 0. -1.
       -2    1    3    3    0  502 -0.97906351440E+03  0.79868015434E+03  0.10826997466E+04  0.16639393304E+04  0.25500000920E-02 0.  1.
</event>
<event>
 5   0  0.1785559E-07  0.3967690E+04  0.7818609E-02  0.8011096E-01
       -2   -1    0    0    0  501  0.00000000000E+00  0.00000000000E+00  0.16210738678E+04  0.16210738678E+04  0.25500000920E-02 0. -1.
        2   -1    0    0  501    0  0.00000000000E+00  0.00000000000E+00 -0.24277991433E+04  0.24277991433E+04  0.25500000920E-02 0.  1.
    10030    2    1    2    0    0  0.00000000000E+00  0.00000000000E+00 -0.80672527544E+03  0.40488730111E+04  0.39676903849E+04 0.  0.
        2    1    3    3  502    0  0.14126942961E+04 -0.24785624629E+03 -0.18019913063E+04  0.23031088904E+04  0.25500000920E-02 0.  1.
       -2    1    3    3    0  502 -0.14126942961E+04  0.24785624629E+03  0.99526603086E+03  0.17457641207E+04  0.25500000920E-02 0. -1.
</event>
<event>
 5   0  0.1819906E-07  0.4000145E+04  0.7818609E-02  0.8004517E-01
        2   -1    0    0  501    0  0.00000000000E+00  0.00000000000E+00  0.20582486402E+04  0.20582486402E+04  0.25500000920E-02 0. -1.
       -2   -1    0    0    0  501  0.00000000000E+00  0.00000000000E+00 -0.19435411099E+04  0.19435411099E+04  0.25500000920E-02 0.  1.
    10030    2    1    2    0    0  0.00000000000E+00  0.00000000000E+00  0.11470753037E+03  0.40017897501E+04  0.40001454206E+04 0.  0.
        1    1    3    3  502    0 -0.19833470867E+04 -0.16354508914E+03  0.25713108155E+03  0.20066213035E+04  0.50400001928E-02 0. -1.
       -1    1    3    3    0  502  0.19833470867E+04  0.16354508914E+03 -0.14242355118E+03  0.19951684466E+04  0.50400001928E-02 0.  1.
</event>
<event>
 5   0  0.5515000E-08  0.3969744E+04  0.7818609E-02  0.8010678E-01
       -1   -1    0    0    0  501  0.00000000000E+00  0.00000000000E+00  0.28589127795E+04  0.28589127795E+04  0.50400001928E-02 0. -1.
        1   -1    0    0  501    0  0.00000000000E+00  0.00000000000E+00 -0.13780471884E+04  0.13780471884E+04  0.50400001928E-02 0.  1.
    10030    2    1    2    0    0  0.00000000000E+00  0.00000000000E+00  0.14808655910E+04  0.42369599679E+04  0.39697439302E+04 0.  0.
        1    1    3    3  502    0  0.14007412750E+04 -0.10419274047E+04  0.17484804927E+04  0.24708040938E+04  0.50400001928E-02 0. -1.
       -1    1    3    3    0  502 -0.14007412750E+04  0.10419274047E+04 -0.26761490170E+03  0.17661558742E+04  0.50400001928E-02 0.  1.
</event>
<event>
 5   0  0.1819906E-07  0.3990660E+04  0.7818609E-02  0.8006433E-01
        2   -1    0    0  501    0  0.00000000000E+00  0.00000000000E+00  0.28269138401E+04  0.28269138401E+04  0.25500000920E-02 0.  1.
       -2   -1    0    0    0  501  0.00000000000E+00  0.00000000000E+00 -0.14083702156E+04  0.14083702156E+04  0.25500000920E-02 0. -1.
    10030    2    1    2    0    0  0.00000000000E+00  0.00000000000E+00  0.14185436246E+04  0.42352840557E+04  0.39906597221E+04 0.  0.
        1    1    3    3  502    0  0.68516863172E+03 -0.18675222579E+04  0.87452743816E+03  0.21729918725E+04  0.50400001928E-02 0. -1.
       -1    1    3    3    0  502 -0.68516863172E+03  0.18675222579E+04  0.54401618642E+03  0.20622921832E+04  0.50400001928E-02 0.  1.
</event>
<event>
 5   0  0.5515000E-08  0.4010195E+04  0.7818609E-02  0.8002493E-01
        1   -1    0    0  501    0  0.00000000000E+00  0.00000000000E+00  0.17592908053E+04  0.17592908053E+04  0.50400001928E-02 0. -1.
       -1   -1    0    0    0  501  0.00000000000E+00  0.00000000000E+00 -0.22852484303E+04  0.22852484303E+04  0.50400001928E-02 0.  1.
    10030    2    1    2    0    0  0.00000000000E+00  0.00000000000E+00 -0.52595762498E+03  0.40445392355E+04  0.40101952826E+04 0.  0.
        4    1    3    3  502    0 -0.15651466779E+03  0.14184411290E+04  0.11576090868E+04  0.18375343503E+04  0.12699999809E+01 0. -1.
       -4    1    3    3    0  502  0.15651466779E+03 -0.14184411290E+04 -0.16835667118E+04  0.22070048853E+04  0.12699999809E+01 0.  1.
</event>
<event>
 5   0  0.5515000E-08  0.3980467E+04  0.7818609E-02  0.8008499E-01
       -1   -1    0    0    0  501  0.00000000000E+00  0.00000000000E+00  0.14195252059E+04  0.14195252060E+04  0.50400001928E-02 0.  1.
        1   -1    0    0  501    0  0.00000000000E+00  0.00000000000E+00 -0.27903900023E+04  0.27903900023E+04  0.50400001928E-02 0. -1.
    10030    2    1    2    0    0  0.00000000000E+00  0.00000000000E+00 -0.13708647963E+04  0.42099152082E+04  0.39804667780E+04 0.  0.
        5    1    3    3  502    0 -0.15927881051E+04 -0.96648653477E+03 -0.14257350825E+04  0.23460206276E+04  0.46999998093E+01 0. -1.
       -5    1    3    3    0  502  0.15927881051E+04  0.96648653477E+03  0.54870286165E+02  0.18638945807E+04  0.46999998093E+01 0.  1.
</event>
<event>
 5   0  0.5515000E-08  0.3919583E+04  0.7818609E-02  0.8020969E-01
        1   -1    0    0  501    0  0.00000000000E+00  0.00000000000E+00  0.23149755600E+04  0.23149755600E+04  0.50400001928E-02 0. -1.
       -1   -1    0    0    0  501  0.00000000000E+00  0.00000000000E+00 -0.16591029455E+04  0.16591029455E+04  0.50400001928E-02 0.  1.
    10030    2    1    2    0    0  0.00000000000E+00  0.00000000000E+00  0.65587261451E+03  0.39740785056E+04  0.39195830240E+04 0.  0.
        4    1    3    3  502    0 -0.63636412815E+03  0.90278403808E+02  0.22050742195E+04  0.22968377000E+04  0.12699999809E+01 0. -1.
       -4    1    3    3    0  502  0.63636412815E+03 -0.90278403808E+02 -0.15492016050E+04  0.16772408055E+04  0.12699999809E+01 0.  1.
</event>
<event>
 5   0  0.1819906E-07  0.4070254E+04  0.7818609E-02  0.7990522E-01
        2   -1    0    0  501    0  0.00000000000E+00  0.00000000000E+00  0.16940455397E+04  0.16940455397E+04  0.25500000920E-02 0.  1.
       -2   -1    0    0    0  501  0.00000000000E+00  0.00000000000E+00 -0.24448817381E+04  0.24448817381E+04  0.25500000920E-02 0. -1.
    10030    2    1    2    0    0  0.00000000000E+00  0.00000000000E+00 -0.75083619839E+03  0.41389272779E+04  0.40702535566E+04 0.  0.
        1    1    3    3  502    0  0.76372978559E+03 -0.13029723255E+04  0.10116792876E+04  0.18178325136E+04  0.50400001928E-02 0.  1.
       -1    1    3    3    0  502 -0.76372978559E+03  0.13029723255E+04 -0.17625154860E+04  0.23210947643E+04  0.50400001928E-02 0. -1.
</event>
<event>
 5   0  0.5515000E-08  0.3697181E+04  0.7818609E-02  0.8068587E-01
       -1   -1    0    0    0  501  0.00000000000E+00  0.00000000000E+00  0.22377140944E+04  0.22377140944E+04  0.50400001928E-02 0.  1.
        1   -1    0    0  501    0  0.00000000000E+00  0.00000000000E+00 -0.15271327498E+04  0.15271327498E+04  0.50400001928E-02 0. -1.
    10030    2    1    2    0    0  0.00000000000E+00  0.00000000000E+00  0.71058134456E+03  0.37648468442E+04  0.36971808061E+04 0.  0.
        2    1    3    3  502    0 -0.12968695212E+04 -0.88658322277E+03  0.13474880185E+04  0.20696918432E+04  0.25500000920E-02 0.  1.
       -2    1    3    3    0  502  0.12968695212E+04  0.88658322277E+03 -0.63690667399E+03  0.16951550009E+04  0.25500000920E-02 0. -1.
</event>
<event>
 5   0  0.5515000E-08  0.4134486E+04  0.7818609E-02  0.7977953E-01
       -1   -1    0    0    0  501  0.00000000000E+00  0.00000000000E+00  0.26066768912E+04  0.26066768912E+04  0.50400001928E-02 0.  1.
        1   -1    0    0  501    0  0.00000000000E+00  0.00000000000E+00 -0.16394410282E+04  0.16394410282E+04  0.50400001928E-02 0. -1.
    10030    2    1    2    0    0  0.00000000000E+00  0.00000000000E+00  0.96723586304E+03  0.42461179194E+04  0.41344857202E+04 0.  0.
        5    1    3    3  502    0  0.23086282586E+03 -0.14001504295E+04  0.20274531794E+04  0.24747337946E+04  0.46999998093E+01 0.  1.
       -5    1    3    3    0  502 -0.23086282586E+03  0.14001504295E+04 -0.10602173164E+04  0.17713841248E+04  0.46999998093E+01 0. -1.
</event>
<event>
 5   0  0.5515000E-08  0.4009595E+04  0.7818609E-02  0.8002614E-01
        3   -1    0    0  501    0  0.00000000000E+00  0.00000000000E+00  0.16285333569E+04  0.16285333600E+04  0.10100000352E+00 0. -1.
       -3   -1    0    0    0  501  0.00000000000E+00  0.00000000000E+00 -0.24679958006E+04  0.24679958027E+04  0.10100000352E+00 0.  1.
    10030    2    1    2    0    0  0.00000000000E+00  0.00000000000E+00 -0.83946244377E+03  0.40965291627E+04  0.40095952397E+04 0.  0.
        4    1    3    3  502    0  0.28418252712E+03 -0.18810930786E+04 -0.10658516674E+04  0.21806678492E+04  0.12699999809E+01 0.  1.
       -4    1    3    3    0  502 -0.28418252712E+03  0.18810930786E+04  0.22638922360E+03  0.19158613135E+04  0.12699999809E+01 0. -1.
</event>
<event>
 5   0  0.1819906E-07  0.3747312E+04  0.7818609E-02  0.8057557E-01
       -2   -1    0    0    0  501  0.00000000000E+00  0.00000000000E+00  0.16750495022E+04  0.16750495022E+04  0.25500000920E-02 0.  1.
        2   -1    0    0  501    0  0.00000000000E+00  0.00000000000E+00 -0.20958102302E+04  0.20958102302E+04  0.25500000920E-02 0. -1.
    10030    2    1    2    0    0  0.00000000000E+00  0.00000000000E+00 -0.42076072791E+03  0.37708597324E+04  0.37473115071E+04 0.  0.
        1    1    3    3  502    0 -0.39212844209E+03  0.23738684754E+03 -0.20385158857E+04  0.20894172026E+04  0.50400001928E-02 0. -1.
       -1    1    3    3    0  502  0.39212844209E+03 -0.23738684754E+03  0.16177551578E+04  0.16814425298E+04  0.50400001928E-02 0.  1.
</event>
<event>
 5   0  0.5515000E-08  0.4016550E+04  0.7818609E-02  0.8001216E-01
        1   -1    0    0  501    0  0.00000000000E+00  0.00000000000E+00  0.26543677802E+04  0.26543677802E+04  0.50400001928E-02 0.  1.
       -1   -1    0    0    0  501  0.00000000000E+00  0.00000000000E+00 -0.15194456964E+04  0.15194456965E+04  0.50400001928E-02 0. -1.
    10030    2    1    2    0    0  0.00000000000E+00  0.00000000000E+00  0.11349220837E+04  0.41738134766E+04  0.40165496140E+04 0.  0.
        5    1    3    3  502    0 -0.28911959155E+03  0.11694764189E+03 -0.14941216289E+04  0.15263316878E+04  0.46999998093E+01 0. -1.
       -5    1    3    3    0  502  0.28911959155E+03 -0.11694764189E+03  0.26290437126E+04  0.26474817888E+04  0.46999998093E+01 0.  1.
</event>
<event>
 5   0  0.1785559E-07  0.4011108E+04  0.7818609E-02  0.8002309E-01
       -2   -1    0    0    0  501  0.00000000000E+00  0.00000000000E+00  0.33472635950E+04  0.33472635950E+04  0.25500000920E-02 0. -1.
        2   -1    0    0  501    0  0.00000000000E+00  0.00000000000E+00 -0.12016524022E+04  0.12016524022E+04  0.25500000920E-02 0.  1.
    10030    2    1    2    0    0  0.00000000000E+00  0.00000000000E+00  0.21456111929E+04  0.45489159972E+04  0.40111082457E+04 0.  0.
        2    1    3    3  502    0 -0.37311263381E+03 -0.13638183697E+03  0.33021979060E+04  0.33260072239E+04  0.25500000920E-02 0. -1.
       -2    1    3    3    0  502  0.37311263381E+03  0.13638183697E+03 -0.11565867131E+04  0.12229087733E+04  0.25500000920E-02 0.  1.
</event>
<event>
 5   0  0.5515000E-08  0.3861050E+04  0.7818609E-02  0.8033179E-01
       -1   -1    0    0    0  501  0.00000000000E+00  0.00000000000E+00  0.23691864995E+04  0.23691864995E+04  0.50400001928E-02 0.  1.
        1   -1    0    0  501    0  0.00000000000E+00  0.00000000000E+00 -0.15730826614E+04  0.15730826614E+04  0.50400001928E-02 0. -1.
    10030    2    1    2    0    0  0.00000000000E+00  0.00000000000E+00  0.79610383817E+03  0.39422691609E+04  0.38610497039E+04 0.  0.
        2    1    3    3  502    0  0.55587139280E+03  0.16403820312E+04  0.12686786089E+04  0.21469493767E+04  0.25500000920E-02 0.  1.
       -2    1    3    3    0  502 -0.55587139280E+03 -0.16403820312E+04 -0.47257477076E+03  0.17953197842E+04  0.25500000920E-02 0. -1.
</event>
<event>
 5   0  0.1821433E-07  0.3505250E+04  0.7818609E-02  0.8112547E-01
       -2   -1    0    0    0  501  0.00000000000E+00  0.00000000000E+00  0.25070295098E+04  0.25070295098E+04  0.25500000920E-02 0.  1.
        2   -1    0    0  501    0  0.00000000000E+00  0.00000000000E+00 -0.12252329772E+04  0.12252329772E+04  0.25500000920E-02 0. -1.
    10030    2    1    2    0    0  0.00000000000E+00  0.00000000000E+00  0.12817965326E+04  0.37322624870E+04  0.35052504790E+04 0.  0.
        5    1    3    3  502    0 -0.10257632578E+04 -0.72196383717E+03  0.19442013551E+04  0.23137335721E+04  0.46999998093E+01 0.  1.
       -5    1    3    3    0  502  0.10257632578E+04  0.72196383717E+03 -0.66240482259E+03  0.14185289149E+04  0.46999998093E+01 0. -1.
</event>
<event>
 5   0  0.1776653E-07  0.3975232E+04  0.7818609E-02  0.8009562E-01
        2   -1    0    0  501    0  0.00000000000E+00  0.00000000000E+00  0.17661454190E+04  0.17661454190E+04  0.25500000920E-02 0.  1.
       -2   -1    0    0    0  501  0.00000000000E+00  0.00000000000E+00 -0.22368587099E+04  0.22368587099E+04  0.25500000920E-02 0. -1.
    10030    2    1    2    0    0  0.00000000000E+00  0.00000000000E+00 -0.47071329088E+03  0.40030041289E+04  0.39752322013E+04 0.  0.
        4    1    3    3  502    0 -0.55649912962E+03  0.17263944489E+03  0.16782141144E+04  0.17764852619E+04  0.12699999809E+01 0.  1.
       -4    1    3    3    0  502  0.55649912962E+03 -0.17263944489E+03 -0.21489274053E+04  0.22265188670E+04  0.12699999809E+01 0. -1.
</event>
<event>
 5   0  0.1776653E-07  0.4054987E+04  0.7818609E-02  0.7993545E-01
       -2   -1    0    0    0  501  0.00000000000E+00  0.00000000000E+00  0.14107386047E+04  0.14107386047E+04  0.25500000920E-02 0. -1.
        2   -1    0    0  501    0  0.00000000000E+00  0.00000000000E+00 -0.29138843199E+04  0.29138843199E+04  0.25500000920E-02 0.  1.
    10030    2    1    2    0    0  0.00000000000E+00  0.00000000000E+00 -0.15031457152E+04  0.43246229246E+04  0.40549866090E+04 0.  0.
        4    1    3    3  502    0 -0.10089940910E+04 -0.10314281358E+04 -0.22706505369E+04  0.26903101213E+04  0.12699999809E+01 0.  1.
       -4    1    3    3    0  502  0.10089940910E+04  0.10314281358E+04  0.76750482173E+03  0.16343128034E+04  0.12699999809E+01 0. -1.
</event>
<event>
 5   0  0.5515000E-08  0.4019793E+04  0.7818609E-02  0.8000566E-01
       -3   -1    0    0    0  501  0.00000000000E+00  0.00000000000E+00  0.18746066289E+04  0.18746066316E+04  0.10100000352E+00 0. -1.
        3   -1    0    0  501    0  0.00000000000E+00  0.00000000000E+00 -0.21549503577E+04  0.21549503601E+04  0.10100000352E+00 0.  1.
    10030    2    1    2    0    0  0.00000000000E+00  0.00000000000E+00 -0.28034372885E+03  0.40295569917E+04  0.40197931468E+04 0.  0.
        5    1    3    3  502    0  0.15989621796E+04  0.59413208156E+03 -0.12057633372E+04  0.20889136644E+04  0.46999998093E+01 0.  1.
       -5    1    3    3    0  502 -0.15989621796E+04 -0.59413208156E+03  0.92541960835E+03  0.19406433273E+04  0.46999998093E+01 0. -1.
</event>
<event>
 5   0  0.1819906E-07  0.4007508E+04  0.7818609E-02  0.8003034E-01
       -2   -1    0    0    0  501  0.00000000000E+00  0.00000000000E+00  0.19271593928E+04  0.19271593928E+04  0.25500000920E-02 0. -1.
        2   -1    0    0  501    0  0.00000000000E+00  0.00000000000E+00 -0.20833928280E+04  0.20833928280E+04  0.25500000920E-02 0.  1.
    10030    2    1    2    0    0  0.00000000000E+00  0.00000000000E+00 -0.15623343521E+03  0.40105522208E+04  0.40075079825E+04 0.  0.
        1    1    3    3  502    0 -0.13644887401E+04  0.10764903249E+04 -0.10760547931E+04  0.20441513787E+04  0.50400001928E-02 0.  1.
       -1    1    3    3    0  502  0.13644887401E+04 -0.10764903249E+04  0.91982135787E+03  0.19664008421E+04  0.50400001928E-02 0. -1.
</event>
<event>
 5   0  0.1821433E-07  0.3988040E+04  0.7818609E-02  0.8006964E-01
       -2   -1    0    0    0  501  0.00000000000E+00  0.00000000000E+00  0.16547693864E+04  0.16547693864E+04  0.25500000920E-02 0. -1.
        2   -1    0    0  501    0  0.00000000000E+00  0.00000000000E+00 -0.24028214872E+04  0.24028214872E+04  0.25500000920E-02 0.  1.
    10030    2    1    2    0    0  0.00000000000E+00  0.00000000000E+00 -0.74805210082E+03  0.40575908737E+04  0.39880398384E+04 0.  0.
        5    1    3    3  502    0 -0.17285460162E+04 -0.85370127565E+03  0.14418571834E+03  0.19332585988E+04  0.46999998093E+01 0. -1.
       -5    1    3    3    0  502  0.17285460162E+04  0.85370127565E+03 -0.89223781917E+03  0.21243322749E+04  0.46999998093E+01 0.  1.
</event>
<event>
 5   0  0.5515000E-08  0.3884510E+04  0.7818609E-02  0.8028259E-01
       -1   -1    0    0    0  501  0.00000000000E+00  0.00000000000E+00  0.29198587674E+04  0.29198587674E+04  0.50400001928E-02 0.  1.
        1   -1    0    0  501    0  0.00000000000E+00  0.00000000000E+00 -0.12919645039E+04  0.12919645040E+04  0.50400001928E-02 0. -1.
    10030    2    1    2    0    0  0.00000000000E+00  0.00000000000E+00  0.16278942634E+04  0.42118232713E+04  0.38845096906E+04 0.  0.
        5    1    3    3  502    0 -0.60206043064E+03 -0.18031991510E+04  0.38251489453E+03  0.19391605593E+04  0.46999998093E+01 0.  1.
       -5    1    3    3    0  502  0.60206043064E+03  0.18031991510E+04  0.12453793689E+04  0.22726627120E+04  0.46999998093E+01 0. -1.
</event>
<event>
 5   0  0.1776653E-07  0.3930541E+04  0.7818609E-02  0.8018707E-01
        2   -1    0    0  501    0  0.00000000000E+00  0.00000000000E+00  0.20637715746E+04  0.20637715746E+04  0.25500000920E-02 0.  1.
       -2   -1    0    0    0  501  0.00000000000E+00  0.00000000000E+00 -0.18714704418E+04  0.18714704418E+04  0.25500000920E-02 0. -1.
    10030    2    1    2    0    0  0.00000000000E+00  0.00000000000E+00  0.19230113275E+03  0.39352420164E+04  0.39305406755E+04 0.  0.
        4    1    3    3  502    0 -0.77021906055E+03  0.19020349949E+03 -0.17040187172E+04  0.18796532057E+04  0.12699999809E+01 0. -1.
       -4    1    3    3    0  502  0.77021906055E+03 -0.19020349949E+03  0.18963198499E+04  0.20555888107E+04  0.12699999809E+01 0.  1.
</event>
<event>
 5   0  0.1819906E-07  0.4063874E+04  0.7818609E-02  0.7991784E-01
       -2   -1    0    0    0  501  0.00000000000E+00  0.00000000000E+00  0.18007727838E+04  0.18007727838E+04  0.25500000920E-02 0.  1.
        2   -1    0    0  501    0  0.00000000000E+00  0.00000000000E+00 -0.22927761477E+04  0.22927761477E+04  0.25500000920E-02 0. -1.
    10030    2    1    2    0    0  0.00000000000E+00  0.00000000000E+00 -0.49200336392E+03  0.40935489315E+04  0.40638744498E+04 0.  0.
        1    1    3    3  502    0  0.69573353677E+02 -0.43879393237E+03  0.17512494465E+04  0.18067249903E+04  0.50400001928E-02 0.  1.
       -1    1    3    3    0  502 -0.69573353677E+02  0.43879393237E+03 -0.22432528104E+04  0.22868239412E+04  0.50400001928E-02 0. -1.
</event>
<event>
 5   0  0.5515000E-08  0.3971095E+04  0.7818609E-02  0.8010403E-01
        1   -1    0    0  501    0  0.00000000000E+00  0.00000000000E+00  0.13132607692E+04  0.13132607692E+04  0.50400001928E-02 0.  1.
       -1   -1    0    0    0  501  0.00000000000E+00  0.00000000000E+00 -0.30019918933E+04  0.30019918933E+04  0.50400001928E-02 0. -1.
    10030    2    1    2    0    0  0.00000000000E+00  0.00000000000E+00 -0.16887311241E+04  0.43152526625E+04  0.39710946515E+04 0.  0.
        3    1    3    3  502    0 -0.44189986365E+03 -0.12106347021E+04  0.79699851149E+03  0.15152948587E+04  0.10100000352E+00 0.  1.
       -3    1    3    3    0  502  0.44189986365E+03  0.12106347021E+04 -0.24857296356E+04  0.27999578037E+04  0.10100000352E+00 0. -1.
</event>
<event>
 5   0  0.1773903E-07  0.3844025E+04  0.7818609E-02  0.8036773E-01
        2   -1    0    0  501    0  0.00000000000E+00  0.00000000000E+00  0.16569287510E+04  0.16569287510E+04  0.25500000920E-02 0.  1.
       -2   -1    0    0    0  501  0.00000000000E+00  0.00000000000E+00 -0.22295060984E+04  0.22295060984E+04  0.25500000920E-02 0. -1.
    10030    2    1    2    0    0  0.00000000000E+00  0.00000000000E+00 -0.57257734734E+03  0.38864348494E+04  0.38440253667E+04 0.  0.
        3    1    3    3  502    0 -0.21542629962E+02  0.16022184243E+04  0.78681883031E+03  0.17851195607E+04  0.10100000352E+00 0.  1.
       -3    1    3    3    0  502  0.21542629962E+02 -0.16022184243E+04 -0.13593961776E+04  0.21013152886E+04  0.10100000352E+00 0. -1.
</event>
<event>
 5   0  0.5515000E-08  0.3996692E+04  0.7818609E-02  0.8005214E-01
        1   -1    0    0  501    0  0.00000000000E+00  0.00000000000E+00  0.23641754445E+04  0.23641754445E+04  0.50400001928E-02 0.  1.
       -1   -1    0    0    0  501  0.00000000000E+00  0.00000000000E+00 -0.16891247594E+04  0.16891247595E+04  0.50400001928E-02 0. -1.
    10030    2    1    2    0    0  0.00000000000E+00  0.00000000000E+00  0.67505068502E+03  0.40533002039E+04  0.39966922718E+04 0.  0.
        3    1    3    3  502    0  0.96403751466E+03 -0.14137957107E+04  0.13842290600E+04  0.22009717722E+04  0.10100000352E+00 0.  1.
       -3    1    3    3    0  502 -0.96403751466E+03  0.14137957107E+04 -0.70917837493E+03  0.18523284317E+04  0.10100000352E+00 0. -1.
</event>
<event>
 5   0  0.5515000E-08  0.3978801E+04  0.7818609E-02  0.8008837E-01
        1   -1    0    0  501    0  0.00000000000E+00  0.00000000000E+00  0.24849476169E+04  0.24849476169E+04  0.50400001928E-02 0. -1.
       -1   -1    0    0    0  501  0.00000000000E+00  0.00000000000E+00 -0.15926749392E+04  0.15926749392E+04  0.50400001928E-02 0.  1.
    10030    2    1    2    0    0  0.00000000000E+00  0.00000000000E+00  0.89227267772E+03  0.40776225561E+04  0.39788007212E+04 0.  0.
        5    1    3    3  502    0  0.52770657823E+03  0.21433545851E+02 -0.15195103050E+04  0.16086849556E+04  0.46999998093E+01 0.  1.
       -5    1    3    3    0  502 -0.52770657823E+03 -0.21433545851E+02  0.24117829827E+04  0.24689376005E+04  0.46999998093E+01 0. -1.
</event>
<event>
 5   0  0.5515000E-08  0.3921680E+04  0.7818609E-02  0.8020535E-01
       -1   -1    0    0    0  501  0.00000000000E+00  0.00000000000E+00  0.13457247091E+04  0.13457247091E+04  0.50400001928E-02 0. -1.
        1   -1    0    0  501    0  0.00000000000E+00  0.00000000000E+00 -0.28571179229E+04  0.28571179229E+04  0.50400001928E-02 0.  1.
    10030    2    1    2    0    0  0.00000000000E+00  0.00000000000E+00 -0.15113932137E+04  0.42028426320E+04  0.39216803469E+04 0.  0.
        1    1    3    3  502    0 -0.34204712855E+03  0.77035884357E+03  0.11416701092E+04  0.14191052196E+04  0.50400001928E-02 0. -1.
       -1    1    3    3    0  502  0.34204712855E+03 -0.77035884357E+03 -0.26530633229E+04  0.27837374124E+04  0.50400001928E-02 0.  1.
</event>
<event>
 5   0  0.5515000E-08  0.4031072E+04  0.7818609E-02  0.7998308E-01
        1   -1    0    0  501    0  0.00000000000E+00  0.00000000000E+00  0.20894536254E+04  0.20894536254E+04  0.50400001928E-02 0. -1.
       -1   -1    0    0    0  501  0.00000000000E+00  0.00000000000E+00 -0.19442332373E+04  0.19442332373E+04  0.50400001928E-02 0.  1.
    10030    2    1    2    0    0  0.00000000000E+00  0.00000000000E+00  0.14522038812E+03  0.40336868627E+04  0.40310719102E+04 0.  0.
        1    1    3    3  502    0  0.94769557444E+03 -0.50372620920E+03  0.17797409788E+04  0.20783033819E+04  0.50400001928E-02 0. -1.
       -1    1    3    3    0  502 -0.94769557444E+03  0.50372620920E+03 -0.16345205906E+04  0.19553834808E+04  0.50400001928E-02 0.  1.
</event>
<event>
 5   0  0.1773903E-07  0.3966699E+04  0.7818609E-02  0.8011298E-01
        2   -1    0    0  501    0  0.00000000000E+00  0.00000000000E+00  0.20437625603E+04  0.20437625603E+04  0.25500000920E-02 0.  1.
       -2   -1    0    0    0  501  0.00000000000E+00  0.00000000000E+00 -0.19247226942E+04  0.19247226942E+04  0.25500000920E-02 0. -1.
    10030    2    1    2    0    0  0.00000000000E+00  0.00000000000E+00  0.11903986607E+03  0.39684852544E+04  0.39666994750E+04 0.  0.
        3    1    3    3  502    0  0.15025517229E+04  0.10887465685E+04  0.76029612431E+03  0.20052633186E+04  0.10100000352E+00 0.  1.
       -3    1    3    3    0  502 -0.15025517229E+04 -0.10887465685E+04 -0.64125625824E+03  0.19632219358E+04  0.10100000352E+00 0. -1.
</event>
<event>
 5   0  0.5515000E-08  0.4019968E+04  0.7818609E-02  0.8000531E-01
        1   -1    0    0  501    0  0.00000000000E+00  0.00000000000E+00  0.23437143389E+04  0.23437143389E+04  0.50400001928E-02 0. -1.
       -1   -1    0    0    0  501  0.00000000000E+00  0.00000000000E+00 -0.17237744473E+04  0.17237744473E+04  0.50400001928E-02 0.  1.
    10030    2    1    2    0    0  0.00000000000E+00  0.00000000000E+00  0.61993989166E+03  0.40674887862E+04  0.40199676064E+04 0.  0.
        3    1    3    3  502    0 -0.90549800226E+03 -0.16179302889E+04  0.10952956905E+04  0.21534385786E+04  0.10100000352E+00 0. -1.
       -3    1    3    3    0  502  0.90549800226E+03  0.16179302889E+04 -0.47535579889E+03  0.19140502077E+04  0.10100000352E+00 0.  1.
</event>
<event>
 5   0  0.5515000E-08  0.3695448E+04  0.7818609E-02  0.8068971E-01
       -1   -1    0    0    0  501  0.00000000000E+00  0.00000000000E+00  0.12564750769E+04  0.12564750769E+04  0.50400001928E-02 0. -1.
        1   -1    0    0  501    0  0.00000000000E+00  0.00000000000E+00 -0.27171920401E+04  0.27171920401E+04  0.50400001928E-02 0.  1.
    10030    2    1    2    0    0  0.00000000000E+00  0.00000000000E+00 -0.14607169632E+04  0.39736671170E+04  0.36954480527E+04 0.  0.
        2    1    3    3  502    0  0.80676056183E+03  0.11568283225E+04  0.55323409422E+03  0.15149859190E+04  0.25500000920E-02 0. -1.
       -2    1    3    3    0  502 -0.80676056183E+03 -0.11568283225E+04 -0.20139510574E+04  0.24586811980E+04  0.25500000920E-02 0.  1.
</event>
<event>
 5   0  0.5515000E-08  0.3999821E+04  0.7818609E-02  0.8004583E-01
       -1   -1    0    0    0  501  0.00000000000E+00  0.00000000000E+00  0.18212544929E+04  0.18212544929E+04  0.50400001928E-02 0. -1.
        1   -1    0    0  501    0  0.00000000000E+00  0.00000000000E+00 -0.21960919377E+04  0.21960919377E+04  0.50400001928E-02 0.  1.
    10030    2    1    2    0    0  0.00000000000E+00  0.00000000000E+00 -0.37483744484E+03  0.40173464306E+04  0.39998211502E+04 0.  0.
        5    1    3    3  502    0 -0.14228963080E+04 -0.11778293639E+03  0.12191147625E+04  0.18774369810E+04  0.46999998093E+01 0. -1.
       -5    1    3    3    0  502  0.14228963080E+04  0.11778293639E+03 -0.15939522073E+04  0.21399094496E+04  0.46999998093E+01 0.  1.
</event>
<event>
 5   0  0.1819906E-07  0.3990334E+04  0.7818609E-02  0.8006499E-01
       -2   -1    0    0    0  501  0.00000000000E+00  0.00000000000E+00  0.27973133473E+04  0.27973133473E+04  0.25500000920E-02 0.  1.
        2   -1    0    0  501    0  0.00000000000E+00  0.00000000000E+00 -0.14230411252E+04  0.14230411252E+04  0.25500000920E-02 0. -1.
    10030    2    1    2    0    0  0.00000000000E+00  0.00000000000E+00  0.13742722221E+04  0.42203544724E+04  0.39903342883E+04 0.  0.
        1    1    3    3  502    0  0.10875865198E+04  0.10287396483E+04  0.20820812816E+04  0.25644126356E+04  0.50400001928E-02 0.  1.
       -1    1    3    3    0  502 -0.10875865198E+04 -0.10287396483E+04 -0.70780905954E+03  0.16559418368E+04  0.50400001928E-02 0. -1.
</event>
<event>
 5   0  0.1773903E-07  0.4004246E+04  0.7818609E-02  0.8003690E-01
       -2   -1    0    0    0  501  0.00000000000E+00  0.00000000000E+00  0.16892027109E+04  0.16892027109E+04  0.25500000920E-02 0.  1.
        2   -1    0    0  501    0  0.00000000000E+00  0.00000000000E+00 -0.23730114937E+04  0.23730114937E+04  0.25500000920E-02 0. -1.
    10030    2    1    2    0    0  0.00000000000E+00  0.00000000000E+00 -0.68380878282E+03  0.40622142046E+04  0.40042464700E+04 0.  0.
        3    1    3    3  502    0 -0.15229671800E+04  0.12996285524E+04 -0.34782258561E+03  0.20321033356E+04  0.10100000352E+00 0.  1.
       -3    1    3    3    0  502  0.15229671800E+04 -0.12996285524E+04 -0.33598619720E+03  0.20301108690E+04  0.10100000352E+00 0. -1.
</event>
<event>
 5   0  0.5515000E-08  0.4004648E+04  0.7818609E-02  0.8003610E-01
       -1   -1    0    0    0  501  0.00000000000E+00  0.00000000000E+00  0.29610901508E+04  0.29610901508E+04  0.50400001928E-02 0. -1.
        1   -1    0    0  501    0  0.00000000000E+00  0.00000000000E+00 -0.13539947310E+04  0.13539947310E+04  0.50400001928E-02 0.  1.
    10030    2    1    2    0    0  0.00000000000E+00  0.00000000000E+00  0.16070954198E+04  0.43150848818E+04  0.40046475312E+04 0.  0.
        1    1    3    3  502    0 -0.23924176803E+03 -0.13400631083E+04 -0.77871686044E+03  0.15682492488E+04  0.50400001928E-02 0.  1.
       -1    1    3    3    0  502  0.23924176803E+03  0.13400631083E+04  0.23858122803E+04  0.27468356330E+04  0.50400001928E-02 0. -1.
</event>
<event>
 5   0  0.5515000E-08  0.4038605E+04  0.7818609E-02  0.7996804E-01
        1   -1    0    0  501    0  0.00000000000E+00  0.00000000000E+00  0.19988609486E+04  0.19988609486E+04  0.50400001928E-02 0. -1.
       -1   -1    0    0    0  501  0.00000000000E+00  0.00000000000E+00 -0.20399526976E+04  0.20399526976E+04  0.50400001928E-02 0.  1.
    10030    2    1    2    0    0  0.00000000000E+00  0.00000000000E+00 -0.41091748926E+02  0.40388136462E+04  0.40386046027E+04 0.  0.
        2    1    3    3  502    0 -0.16271672596E+04 -0.92276679390E+03 -0.78111790771E+03  0.20271450447E+04  0.25500000920E-02 0. -1.
       -2    1    3    3    0  502  0.16271672596E+04  0.92276679390E+03  0.74002615879E+03  0.20116686015E+04  0.25500000920E-02 0.  1.
</event>
<event>
 5   0  0.5515000E-08  0.3983751E+04  0.7818609E-02  0.8007833E-01
       -1   -1    0    0    0  501  0.00000000000E+00  0.00000000000E+00  0.30302154800E+04  0.30302154800E+04  0.50400001928E-02 0.  1.
        1   -1    0    0  501    0  0.00000000000E+00  0.00000000000E+00 -0.13093352943E+04  0.13093352943E+04  0.50400001928E-02 0. -1.
    10030    2    1    2    0    0  0.00000000000E+00  0.00000000000E+00  0.17208801857E+04  0.43395507743E+04  0.39837510350E+04 0.  0.
        4    1    3    3  502    0  0.12451572945E+04  0.67475874652E+03 -0.66531746408E+03  0.15647252139E+04  0.12699999809E+01 0. -1.
       -4    1    3    3    0  502 -0.12451572945E+04 -0.67475874652E+03  0.23861976498E+04  0.27748255604E+04  0.12699999809E+01 0.  1.
</event>
<event>
 5   0  0.5515000E-08  0.3921909E+04  0.7818609E-02  0.8020488E-01
       -1   -1    0    0    0  501  0.00000000000E+00  0.00000000000E+00  0.21995826240E+04  0.21995826240E+04  0.50400001928E-02 0. -1.
        1   -1    0    0  501    0  0.00000000000E+00  0.00000000000E+00 -0.17482150617E+04  0.17482150617E+04  0.50400001928E-02 0.  1.
    10030    2    1    2    0    0  0.00000000000E+00  0.00000000000E+00  0.45136756226E+03  0.39477976857E+04  0.39219094700E+04 0.  0.
        3    1    3    3  502    0 -0.10879087448E+04 -0.54863034321E+03 -0.13209488785E+04  0.17970661202E+04  0.10100000352E+00 0.  1.
       -3    1    3    3    0  502  0.10879087448E+04  0.54863034321E+03  0.17723164408E+04  0.21507315655E+04  0.10100000352E+00 0. -1.
</event>
<event>
 5   0  0.5515000E-08  0.4025732E+04  0.7818609E-02  0.7999376E-01
       -1   -1    0    0    0  501  0.00000000000E+00  0.00000000000E+00  0.30481267475E+04  0.30481267476E+04  0.50400001928E-02 0. -1.
        1   -1    0    0  501    0  0.00000000000E+00  0.00000000000E+00 -0.13292193205E+04  0.13292193205E+04  0.50400001928E-02 0.  1.
    10030    2    1    2    0    0  0.00000000000E+00  0.00000000000E+00  0.17189074270E+04  0.43773460681E+04  0.40257317170E+04 0.  0.
        1    1    3    3  502    0  0.66888237013E+03 -0.85797954434E+03 -0.98200899695E+03  0.14655627567E+04  0.50400001928E-02 0.  1.
       -1    1    3    3    0  502 -0.66888237013E+03  0.85797954434E+03  0.27009164240E+04  0.29117833114E+04  0.50400001928E-02 0. -1.
</event>
<event>
 5   0  0.1776653E-07  0.3984079E+04  0.7818609E-02  0.8007766E-01
       -2   -1    0    0    0  501  0.00000000000E+00  0.00000000000E+00  0.27026701725E+04  0.27026701725E+04  0.25500000920E-02 0. -1.
        2   -1    0    0  501    0  0.00000000000E+00  0.00000000000E+00 -0.14682596534E+04  0.14682596534E+04  0.25500000920E-02 0.  1.
    10030    2    1    2    0    0  0.00000000000E+00  0.00000000000E+00  0.12344105191E+04  0.41709298259E+04  0.39840791009E+04 0.  0.
        4    1    3    3  502    0 -0.14404673969E+04 -0.97050451855E+03 -0.40393470902E+03  0.17832527033E+04  0.12699999809E+01 0.  1.
       -4    1    3    3    0  502  0.14404673969E+04  0.97050451855E+03  0.16383452281E+04  0.23876771225E+04  0.12699999809E+01 0. -1.
</event>
<event>
 5   0  0.1776653E-07  0.4164902E+04  0.7818609E-02  0.7972082E-01
        2   -1    0    0  501    0  0.00000000000E+00  0.00000000000E+00  0.13369968555E+04  0.13369968555E+04  0.25500000920E-02 0.  1.
       -2   -1    0    0    0  501  0.00000000000E+00  0.00000000000E+00 -0.32435395573E+04  0.32435395573E+04  0.25500000920E-02 0. -1.
    10030    2    1    2    0    0  0.00000000000E+00  0.00000000000E+00 -0.19065427017E+04  0.45805364128E+04  0.41649020103E+04 0.  0.
        4    1    3    3  502    0 -0.11108963462E+04 -0.11224165006E+04 -0.24461957610E+04  0.29116635806E+04  0.12699999809E+01 0. -1.
       -4    1    3    3    0  502  0.11108963462E+04  0.11224165006E+04  0.53965305925E+03  0.16688728322E+04  0.12699999809E+01 0.  1.
</event>
<event>
 5   0  0.5515000E-08  0.4045432E+04  0.7818609E-02  0.7995444E-01
        1   -1    0    0  501    0  0.00000000000E+00  0.00000000000E+00  0.16444004805E+04  0.16444004805E+04  0.50400001928E-02 0.  1.
       -1   -1    0    0    0  501  0.00000000000E+00  0.00000000000E+00 -0.24880681131E+04  0.24880681131E+04  0.50400001928E-02 0. -1.
    10030    2    1    2    0    0  0.00000000000E+00  0.00000000000E+00 -0.84366763260E+03  0.41324685937E+04  0.40454321900E+04 0.  0.
        3    1    3    3  502    0 -0.97099232370E+03 -0.10940326630E+04  0.10052361003E+04  0.17748896270E+04  0.10100000352E+00 0.  1.
       -3    1    3    3    0  502  0.97099232370E+03  0.10940326630E+04 -0.18489037329E+04  0.23575789667E+04  0.10100000352E+00 0. -1.
</event>
<event>
 5   0  0.5515000E-08  0.3989576E+04  0.7818609E-02  0.8006653E-01
        1   -1    0    0  501    0  0.00000000000E+00  0.00000000000E+00  0.11979475566E+04  0.11979475566E+04  0.50400001928E-02 0. -1.
       -1   -1    0    0    0  501  0.00000000000E+00  0.00000000000E+00 -0.33216642151E+04  0.33216642151E+04  0.50400001928E-02 0.  1.
    10030    2    1    2    0    0  0.00000000000E+00  0.00000000000E+00 -0.21237166585E+04  0.45196117718E+04  0.39895761832E+04 0.  0.
        4    1    3    3  502    0  0.61960477402E+03  0.18902694282E+04 -0.89325945584E+03  0.21805830999E+04  0.12699999809E+01 0.  1.
       -4    1    3    3    0  502 -0.61960477402E+03 -0.18902694282E+04 -0.12304572027E+04  0.23390286719E+04  0.12699999809E+01 0. -1.
</event>
<event>
 5   0  0.1776653E-07  0.3867589E+04  0.7818609E-02  0.8031804E-01
       -2   -1    0    0    0  501  0.00000000000E+00  0.00000000000E+00  0.13491279035E+04  0.13491279035E+04  0.25500000920E-02 0.  1.
        2   -1    0    0  501    0  0.00000000000E+00  0.00000000000E+00 -0.27718356757E+04  0.27718356757E+04  0.25500000920E-02 0. -1.
    10030    2    1    2    0    0  0.00000000000E+00  0.00000000000E+00 -0.14227077722E+04  0.41209635792E+04  0.38675888375E+04 0.  0.
        4    1    3    3  502    0  0.11947648329E+03 -0.11998292918E+04 -0.23222500564E+04  0.26166222304E+04  0.12699999809E+01 0. -1.
       -4    1    3    3    0  502 -0.11947648329E+03  0.11998292918E+04  0.89954228424E+03  0.15043413487E+04  0.12699999809E+01 0.  1.
</event>
<event>
 5   0  0.1776653E-07  0.3948443E+04  0.7818609E-02  0.8015029E-01
        2   -1    0    0  501    0  0.00000000000E+00  0.00000000000E+00  0.18788854529E+04  0.18788854529E+04  0.25500000920E-02 0. -1.
       -2   -1    0    0    0  501  0.00000000000E+00  0.00000000000E+00 -0.20743953484E+04  0.20743953484E+04  0.25500000920E-02 0.  1.
    10030    2    1    2    0    0  0.00000000000E+00  0.00000000000E+00 -0.19550989553E+03  0.39532808013E+04  0.39484433610E+04 0.  0.
        4    1    3    3  502    0  0.11914010071E+04  0.44094138255E+03 -0.16107926580E+04  0.20514678312E+04  0.12699999809E+01 0.  1.
       -4    1    3    3    0  502 -0.11914010071E+04 -0.44094138255E+03  0.14152827625E+04  0.19018129701E+04  0.12699999809E+01 0. -1.
</event>
<event>
 5   0  0.1821433E-07  0.3978610E+04  0.7818609E-02  0.8008876E-01
       -2   -1    0    0    0  501  0.00000000000E+00  0.00000000000E+00  0.13896743491E+04  0.13896743491E+04  0.25500000920E-02 0. -1.
        2   -1    0    0  501    0  0.00000000000E+00  0.00000000000E+00 -0.28476696779E+04  0.28476696779E+04  0.25500000920E-02 0.  1.
    10030    2    1    2    0    0  0.00000000000E+00  0.00000000000E+00 -0.14579953288E+04  0.42373440270E+04  0.39786095592E+04 0.  0.
        5    1    3    3  502    0 -0.17689108005E+04  0.90273674873E+03 -0.60602292861E+03  0.20763585763E+04  0.46999998093E+01 0. -1.
       -5    1    3    3    0  502  0.17689108005E+04 -0.90273674873E+03 -0.85197240014E+03  0.21609854507E+04  0.46999998093E+01 0.  1.
</event>
<event>
 5   0  0.1819906E-07  0.4012682E+04  0.7818609E-02  0.8001993E-01
       -2   -1    0    0    0  501  0.00000000000E+00  0.00000000000E+00  0.18592170185E+04  0.18592170185E+04  0.25500000920E-02 0.  1.
        2   -1    0    0  501    0  0.00000000000E+00  0.00000000000E+00 -0.21651075095E+04  0.21651075095E+04  0.25500000920E-02 0. -1.
    10030    2    1    2    0    0  0.00000000000E+00  0.00000000000E+00 -0.30589049101E+03  0.40243245281E+04  0.40126822594E+04 0.  0.
        1    1    3    3  502    0 -0.43776616632E+03 -0.96840379718E+03 -0.18596345746E+04  0.21418883915E+04  0.50400001928E-02 0. -1.
       -1    1    3    3    0  502  0.43776616632E+03  0.96840379718E+03  0.15537440836E+04  0.18824361365E+04  0.50400001928E-02 0.  1.
</event>
<event>
 5   0  0.1821433E-07  0.3991996E+04  0.7818609E-02  0.8006163E-01
        2   -1    0    0  501    0  0.00000000000E+00  0.00000000000E+00  0.19836657079E+04  0.19836657079E+04  0.25500000920E-02 0.  1.
       -2   -1    0    0    0  501  0.00000000000E+00  0.00000000000E+00 -0.20084072471E+04  0.20084072471E+04  0.25500000920E-02 0. -1.
    10030    2    1    2    0    0  0.00000000000E+00  0.00000000000E+00 -0.24741539199E+02  0.39920729551E+04  0.39919962844E+04 0.  0.
        5    1    3    3  502    0  0.47876203646E+03 -0.18794655216E+04 -0.48395459208E+03  0.19989591971E+04  0.46999998093E+01 0. -1.
       -5    1    3    3    0  502 -0.47876203646E+03  0.18794655216E+04  0.45921305288E+03  0.19931137580E+04  0.46999998093E+01 0.  1.
</event>
<event>
 5   0  0.5515000E-08  0.4020593E+04  0.7818609E-02  0.8000405E-01
       -1   -1    0    0    0  501  0.00000000000E+00  0.00000000000E+00  0.20136091897E+04  0.20136091897E+04  0.50400001928E-02 0.  1.
        1   -1    0    0  501    0  0.00000000000E+00  0.00000000000E+00 -0.20069888397E+04  0.20069888397E+04  0.50400001928E-02 0. -1.
    10030    2    1    2    0    0  0.00000000000E+00  0.00000000000E+00  0.66203499529E+01  0.40205980294E+04  0.40205925788E+04 0.  0.
        2    1    3    3  502    0  0.20246357229E+03 -0.19998446519E+04 -0.27038529011E+02  0.20102490423E+04  0.25500000920E-02 0.  1.
       -2    1    3    3    0  502 -0.20246357229E+03  0.19998446519E+04  0.33658878964E+02  0.20103489871E+04  0.25500000920E-02 0. -1.
</event>
<event>
 5   0  0.1821433E-07  0.3261073E+04  0.7818609E-02  0.8172872E-01
       -2   -1    0    0    0  501  0.00000000000E+00  0.00000000000E+00  0.12092125054E+04  0.12092125054E+04  0.25500000920E-02 0.  1.
        2   -1    0    0  501    0  0.00000000000E+00  0.00000000000E+00 -0.21986618852E+04  0.21986618852E+04  0.25500000920E-02 0. -1.
    10030    2    1    2    0    0  0.00000000000E+00  0.00000000000E+00 -0.98944937981E+03  0.34078743906E+04  0.32610731035E+04 0.  0.
        5    1    3    3  502    0 -0.15699683810E+04  0.36188400594E+03 -0.23270552995E+03  0.16278620042E+04  0.46999998093E+01 0.  1.
       -5    1    3    3    0  502  0.15699683810E+04 -0.36188400594E+03 -0.75674384986E+03  0.17800123863E+04  0.46999998093E+01 0. -1.
</event>
<event>
 5   0  0.5515000E-08  0.4024323E+04  0.7818609E-02  0.7999658E-01
       -1   -1    0    0    0  501  0.00000000000E+00  0.00000000000E+00  0.16757316805E+04  0.16757316805E+04  0.50400001928E-02 0.  1.
        1   -1    0    0  501    0  0.00000000000E+00  0.00000000000E+00 -0.24161354882E+04  0.24161354882E+04  0.50400001928E-02 0. -1.
    10030    2    1    2    0    0  0.00000000000E+00  0.00000000000E+00 -0.74040380771E+03  0.40918671687E+04  0.40243234373E+04 0.  0.
        3    1    3    3  502    0 -0.16964866540E+04 -0.58228244717E+03  0.55706649891E+03  0.18781487986E+04  0.10100000352E+00 0.  1.
       -3    1    3    3    0  502  0.16964866540E+04  0.58228244717E+03 -0.12974703066E+04  0.22137183701E+04  0.10100000352E+00 0. -1.
</event>
<event>
 5   0  0.5515000E-08  0.4006491E+04  0.7818609E-02  0.8003238E-01
        1   -1    0    0  501    0  0.00000000000E+00  0.00000000000E+00  0.15538662732E+04  0.15538662732E+04  0.50400001928E-02 0.  1.
       -1   -1    0    0    0  501  0.00000000000E+00  0.00000000000E+00 -0.25825851273E+04  0.25825851273E+04  0.50400001928E-02 0. -1.
    10030    2    1    2    0    0  0.00000000000E+00  0.00000000000E+00 -0.10287188541E+04  0.41364514006E+04  0.40064906974E+04 0.  0.
        4    1    3    3  502    0  0.93978977750E+03 -0.10220741546E+04  0.97648535406E+03  0.16974585895E+04  0.12699999809E+01 0.  1.
       -4    1    3    3    0  502 -0.93978977750E+03  0.10220741546E+04 -0.20052042082E+04  0.24389928111E+04  0.12699999809E+01 0. -1.
</event>
<event>
 5   0  0.5515000E-08  0.4036336E+04  0.7818609E-02  0.7997256E-01
       -1   -1    0    0    0  501  0.00000000000E+00  0.00000000000E+00  0.22171195042E+04  0.22171195042E+04  0.50400001928E-02 0.  1.
        1   -1    0    0  501    0  0.00000000000E+00  0.00000000000E+00 -0.18370691882E+04  0.18370691882E+04  0.50400001928E-02 0. -1.
    10030    2    1    2    0    0  0.00000000000E+00  0.00000000000E+00  0.38005031605E+03  0.40541886924E+04  0.40363359265E+04 0.  0.
        5    1    3    3  502    0  0.15150686482E+04  0.47265526307E+03  0.14421921723E+04  0.21444757770E+04  0.46999998093E+01 0.  1.
       -5    1    3    3    0  502 -0.15150686482E+04 -0.47265526307E+03 -0.10621418562E+04  0.19097129154E+04  0.46999998093E+01 0. -1.
</event>
<event>
 5   0  0.5515000E-08  0.3785140E+04  0.7818609E-02  0.8049351E-01
       -1   -1    0    0    0  501  0.00000000000E+00  0.00000000000E+00  0.14781147696E+04  0.14781147696E+04  0.50400001928E-02 0.  1.
        1   -1    0    0  501    0  0.00000000000E+00  0.00000000000E+00 -0.24232367607E+04  0.24232367607E+04  0.50400001928E-02 0. -1.
    10030    2    1    2    0    0  0.00000000000E+00  0.00000000000E+00 -0.94512199109E+03  0.39013515303E+04  0.37851404445E+04 0.  0.
        5    1    3    3  502    0 -0.82063896407E+03 -0.10257827594E+03  0.12820041132E+04  0.15256235605E+04  0.46999998093E+01 0.  1.
       -5    1    3    3    0  502  0.82063896407E+03  0.10257827594E+03 -0.22271261043E+04  0.23757279698E+04  0.46999998093E+01 0. -1.
</event>
<event>
 5   0  0.1785559E-07  0.4014858E+04  0.7818609E-02  0.8001556E-01
       -2   -1    0    0    0  501  0.00000000000E+00  0.00000000000E+00  0.23642869518E+04  0.23642869518E+04  0.25500000920E-02 0.  1.
        2   -1    0    0  501    0  0.00000000000E+00  0.00000000000E+00 -0.17044342432E+04  0.17044342432E+04  0.25500000920E-02 0. -1.
    10030    2    1    2    0    0  0.00000000000E+00  0.00000000000E+00  0.65985270860E+03  0.40687211950E+04  0.40148582248E+04 0.  0.
        2    1    3    3  502    0  0.20011088305E+04  0.34481738658E+02  0.48740120722E+03  0.20598993855E+04  0.25500000920E-02 0.  1.
       -2    1    3    3    0  502 -0.20011088305E+04 -0.34481738658E+02  0.17245150137E+03  0.20088218094E+04  0.25500000920E-02 0. -1.
</event>
<event>
 5   0  0.5515000E-08  0.3999244E+04  0.7818609E-02  0.8004699E-01
        1   -1    0    0  501    0  0.00000000000E+00  0.00000000000E+00  0.22720125309E+04  0.22720125309E+04  0.50400001928E-02 0. -1.
       -1   -1    0    0    0  501  0.00000000000E+00  0.00000000000E+00 -0.17598882097E+04  0.17598882097E+04  0.50400001928E-02 0.  1.
    10030    2    1    2    0    0  0.00000000000E+00  0.00000000000E+00  0.51212432119E+03  0.40319007406E+04  0.39992439613E+04 0.  0.
        5    1    3    3  502    0  0.17132039691E+04  0.67921275022E+03 -0.52620440736E+03  0.19165883669E+04  0.46999998093E+01 0. -1.
       -5    1    3    3    0  502 -0.17132039691E+04 -0.67921275022E+03  0.10383287286E+04  0.21153123737E+04  0.46999998093E+01 0.  1.
</event>
<event>
 5   0  0.5515000E-08  0.4166258E+04  0.7818609E-02  0.7971822E-01
        1   -1    0    0  501    0  0.00000000000E+00  0.00000000000E+00  0.17318436810E+04  0.17318436810E+04  0.50400001928E-02 0. -1.
       -1   -1    0    0    0  501  0.00000000000E+00  0.00000000000E+00 -0.25056688192E+04  0.25056688192E+04  0.50400001928E-02 0.  1.
    10030    2    1    2    0    0  0.00000000000E+00  0.00000000000E+00 -0.77382513819E+03  0.42375125002E+04  0.41662581347E+04 0.  0.
        2    1    3    3  502    0  0.53967664777E+03  0.31712991570E+03  0.16339260474E+04  0.17497247201E+04  0.25500000920E-02 0. -1.
       -2    1    3    3    0  502 -0.53967664777E+03 -0.31712991570E+03 -0.24077511856E+04  0.24877877802E+04  0.25500000920E-02 0.  1.
</event>
<event>
 5   0  0.5515000E-08  0.3883075E+04  0.7818609E-02  0.8028559E-01
       -1   -1    0    0    0  501  0.00000000000E+00  0.00000000000E+00  0.22606822190E+04  0.22606822190E+04  0.50400001928E-02 0. -1.
        1   -1    0    0  501    0  0.00000000000E+00  0.00000000000E+00 -0.16674466186E+04  0.16674466186E+04  0.50400001928E-02 0.  1.
    10030    2    1    2    0    0  0.00000000000E+00  0.00000000000E+00  0.59323560037E+03  0.39281288376E+04  0.38830745148E+04 0.  0.
        3    1    3    3  502    0 -0.31453201435E+03  0.16865360309E+04 -0.62290224090E+03  0.18251962589E+04  0.10100000352E+00 0.  1.
       -3    1    3    3    0  502  0.31453201435E+03 -0.16865360309E+04  0.12161378413E+04  0.21029325787E+04  0.10100000352E+00 0. -1.
</event>
<event>
 5   0  0.1819906E-07  0.4025973E+04  0.7818609E-02  0.7999327E-01
        2   -1    0    0  501    0  0.00000000000E+00  0.00000000000E+00  0.19181566507E+04  0.19181566507E+04  0.25500000920E-02 0.  1.
       -2   -1    0    0    0  501  0.00000000000E+00  0.00000000000E+00 -0.21125046910E+04  0.21125046910E+04  0.25500000920E-02 0. -1.
    10030    2    1    2    0    0  0.00000000000E+00  0.00000000000E+00 -0.19434804027E+03  0.40306613417E+04  0.40259731359E+04 0.  0.
        1    1    3    3  502    0 -0.95107926370E+03 -0.47824751103E+03  0.16132774873E+04  0.19328571336E+04  0.50400001928E-02 0.  1.
       -1    1    3    3    0  502  0.95107926370E+03  0.47824751103E+03 -0.18076255276E+04  0.20978042081E+04  0.50400001928E-02 0. -1.
</event>
<event>
 5   0  0.1785559E-07  0.3799828E+04  0.7818609E-02  0.8046192E-01
       -2   -1    0    0    0  501  0.00000000000E+00  0.00000000000E+00  0.25722401152E+04  0.25722401152E+04  0.25500000920E-02 0.  1.
        2   -1    0    0  501    0  0.00000000000E+00  0.00000000000E+00 -0.14033191960E+04  0.14033191960E+04  0.25500000920E-02 0. -1.
    10030    2    1    2    0    0  0.00000000000E+00  0.00000000000E+00  0.11689209192E+04  0.39755593112E+04  0.37998283805E+04 0.  0.
        2    1    3    3  502    0  0.80310359865E+03 -0.16232565793E+04 -0.16322829885E+02  0.18111332770E+04  0.25500000920E-02 0. -1.
       -2    1    3    3    0  502 -0.80310359865E+03  0.16232565793E+04  0.11852437491E+04  0.21644260341E+04  0.25500000920E-02 0.  1.
</event>
<event>
 5   0  0.5515000E-08  0.3924798E+04  0.7818609E-02  0.8019891E-01
       -1   -1    0    0    0  501  0.00000000000E+00  0.00000000000E+00  0.31789325537E+04  0.31789325537E+04  0.50400001928E-02 0.  1.
        1   -1    0    0  501    0  0.00000000000E+00  0.00000000000E+00 -0.12114161046E+04  0.12114161046E+04  0.50400001928E-02 0. -1.
    10030    2    1    2    0    0  0.00000000000E+00  0.00000000000E+00  0.19675164491E+04  0.43903486583E+04  0.39247981303E+04 0.  0.
        5    1    3    3  502    0 -0.10286532214E+04 -0.16530073165E+04  0.70877987148E+03  0.20719439265E+04  0.46999998093E+01 0. -1.
       -5    1    3    3    0  502  0.10286532214E+04  0.16530073165E+04  0.12587365777E+04  0.23184047318E+04  0.46999998093E+01 0.  1.
</event>
<event>
 5   0  0.1819906E-07  0.3908264E+04  0.7818609E-02  0.8023313E-01
       -2   -1    0    0    0  501  0.00000000000E+00  0.00000000000E+00  0.16946630464E+04  0.16946630464E+04  0.25500000920E-02 0.  1.
        2   -1    0    0  501    0  0.00000000000E+00  0.00000000000E+00 -0.22533282006E+04  0.22533282006E+04  0.25500000920E-02 0. -1.
    10030    2    1    2    0    0  0.00000000000E+00  0.00000000000E+00 -0.55866515427E+03  0.39479912470E+04  0.39082640816E+04 0.  0.
        1    1    3    3  502    0  0.13350740367E+04  0.51950677161E+03  0.10632074002E+04  0.17840179218E+04  0.50400001928E-02 0.  1.
       -1    1    3    3    0  502 -0.13350740367E+04 -0.51950677161E+03 -0.16218725545E+04  0.21639733252E+04  0.50400001928E-02 0. -1.
</event>
<event>
 5   0  0.5515000E-08  0.4029588E+04  0.7818609E-02  0.7998604E-01
       -1   -1    0    0    0  501  0.00000000000E+00  0.00000000000E+00  0.18392644103E+04  0.18392644103E+04  0.50400001928E-02 0.  1.
        1   -1    0    0  501    0  0.00000000000E+00  0.00000000000E+00 -0.22070748107E+04  0.22070748107E+04  0.50400001928E-02 0. -1.
    10030    2    1    2    0    0  0.00000000000E+00  0.00000000000E+00 -0.36781040043E+03  0.40463392210E+04  0.40295876465E+04 0.  0.
        3    1    3    3  502    0  0.43395610727E+03  0.27432950897E+03  0.17724804188E+04  0.18453350448E+04  0.10100000352E+00 0.  1.
       -3    1    3    3    0  502 -0.43395610727E+03 -0.27432950897E+03 -0.21402908192E+04  0.22010041762E+04  0.10100000352E+00 0. -1.
</event>
<event>
 5   0  0.5515000E-08  0.3920992E+04  0.7818609E-02  0.8020677E-01
        1   -1    0    0  501    0  0.00000000000E+00  0.00000000000E+00  0.21809918398E+04  0.21809918398E+04  0.50400001928E-02 0. -1.
       -1   -1    0    0    0  501  0.00000000000E+00  0.00000000000E+00 -0.17622922609E+04  0.17622922609E+04  0.50400001928E-02 0.  1.
    10030    2    1    2    0    0  0.00000000000E+00  0.00000000000E+00  0.41869957891E+03  0.39432841008E+04  0.39209922420E+04 0.  0.
        3    1    3    3  502    0  0.12355007528E+04 -0.78748730643E+03  0.15194248544E+04  0.21107463766E+04  0.10100000352E+00 0. -1.
       -3    1    3    3    0  502 -0.12355007528E+04  0.78748730643E+03 -0.11007252755E+04  0.18325377241E+04  0.10100000352E+00 0.  1.
</event>
<event>
 5   0  0.1776653E-07  0.3983788E+04  0.7818609E-02  0.8007825E-01
       -2   -1    0    0    0  501  0.00000000000E+00  0.00000000000E+00  0.32879816323E+04  0.32879816323E+04  0.25500000920E-02 0.  1.
        2   -1    0    0  501    0  0.00000000000E+00  0.00000000000E+00 -0.12067103882E+04  0.12067103882E+04  0.25500000920E-02 0. -1.
    10030    2    1    2    0    0  0.00000000000E+00  0.00000000000E+00  0.20812712441E+04  0.44946920206E+04  0.39837879422E+04 0.  0.
        4    1    3    3  502    0 -0.28530489470E+03 -0.16487946460E+04  0.22598289730E+04  0.28118946047E+04  0.12699999809E+01 0.  1.
       -4    1    3    3    0  502  0.28530489470E+03  0.16487946460E+04 -0.17855772892E+03  0.16827974159E+04  0.12699999809E+01 0. -1.
</event>
<event>
 5   0  0.5515000E-08  0.3660449E+04  0.7818609E-02  0.8076784E-01
       -1   -1    0    0    0  501  0.00000000000E+00  0.00000000000E+00  0.14739292615E+04  0.14739292616E+04  0.50400001928E-02 0.  1.
        1   -1    0    0  501    0  0.00000000000E+00  0.00000000000E+00 -0.22726478905E+04  0.22726478905E+04  0.50400001928E-02 0. -1.
    10030    2    1    2    0    0  0.00000000000E+00  0.00000000000E+00 -0.79871862896E+03  0.37465771521E+04  0.36604492768E+04 0.  0.
        2    1    3    3  502    0  0.35961614648E+03  0.44355153838E+03  0.13804226416E+04  0.14938635846E+04  0.25500000920E-02 0.  1.
       -2    1    3    3    0  502 -0.35961614648E+03 -0.44355153838E+03 -0.21791412705E+04  0.22527135674E+04  0.25500000920E-02 0. -1.
</event>
<event>
 5   0  0.1819906E-07  0.4080740E+04  0.7818609E-02  0.7988454E-01
       -2   -1    0    0    0  501  0.00000000000E+00  0.00000000000E+00  0.22043217000E+04  0.22043217000E+04  0.25500000920E-02 0. -1.
        2   -1    0    0  501    0  0.00000000000E+00  0.00000000000E+00 -0.18886130039E+04  0.18886130039E+04  0.25500000920E-02 0.  1.
    10030    2    1    2    0    0  0.00000000000E+00  0.00000000000E+00  0.31570869605E+03  0.40929347039E+04  0.40807404364E+04 0.  0.
        1    1    3    3  502    0 -0.17198572187E+04  0.10916557165E+04  0.41362665716E+02  0.20374817610E+04  0.50400001928E-02 0. -1.
       -1    1    3    3    0  502  0.17198572187E+04 -0.10916557165E+04  0.27434603033E+03  0.20554529429E+04  0.50400001928E-02 0.  1.
</event>
<event>
 5   0  0.1821433E-07  0.3832439E+04  0.7818609E-02  0.8039229E-01
       -2   -1    0    0    0  501  0.00000000000E+00  0.00000000000E+00  0.14709437881E+04  0.14709437881E+04  0.25500000920E-02 0.  1.
        2   -1    0    0  501    0  0.00000000000E+00  0.00000000000E+00 -0.24962859566E+04  0.24962859566E+04  0.25500000920E-02 0. -1.
    10030    2    1    2    0    0  0.00000000000E+00  0.00000000000E+00 -0.10253421685E+04  0.39672297448E+04  0.38324385560E+04 0.  0.
        5    1    3    3  502    0 -0.36854744091E+03  0.56943635578E+03 -0.23678494494E+04  0.24630911645E+04  0.46999998093E+01 0. -1.
       -5    1    3    3    0  502  0.36854744091E+03 -0.56943635578E+03  0.13425072809E+04  0.15041385803E+04  0.46999998093E+01 0.  1.
</event>
<event>
 5   0  0.1776653E-07  0.4005222E+04  0.7818609E-02  0.8003494E-01
        2   -1    0    0  501    0  0.00000000000E+00  0.00000000000E+00  0.18549786889E+04  0.18549786889E+04  0.25500000920E-02 0. -1.
       -2   -1    0    0    0  501  0.00000000000E+00  0.00000000000E+00 -0.21619926164E+04  0.21619926164E+04  0.25500000920E-02 0.  1.
    10030    2    1    2    0    0  0.00000000000E+00  0.00000000000E+00 -0.30701392753E+03  0.40169713053E+04  0.40052217062E+04 0.  0.
        4    1    3    3  502    0 -0.15195965326E+04  0.12849753031E+04 -0.37802404259E+03  0.20256453147E+04  0.12699999809E+01 0.  1.
       -4    1    3    3    0  502  0.15195965326E+04 -0.12849753031E+04  0.71010115059E+02  0.19913259906E+04  0.12699999809E+01 0. -1.
</event>
<event>
 5   0  0.5515000E-08  0.4001412E+04  0.7818609E-02  0.8004262E-01
       -1   -1    0    0    0  501  0.00000000000E+00  0.00000000000E+00  0.18197420111E+04  0.18197420111E+04  0.50400001928E-02 0. -1.
        1   -1    0    0  501    0  0.00000000000E+00  0.00000000000E+00 -0.21996654625E+04  0.21996654625E+04  0.50400001928E-02 0.  1.
    10030    2    1    2    0    0  0.00000000000E+00  0.00000000000E+00 -0.37992345139E+03  0.40194074736E+04  0.40014115772E+04 0.  0.
        5    1    3    3  502    0 -0.11314417224E+04  0.15614111149E+04 -0.72587451712E+03  0.20603594214E+04  0.46999998093E+01 0.  1.
       -5    1    3    3    0  502  0.11314417224E+04 -0.15614111149E+04  0.34595106574E+03  0.19590480522E+04  0.46999998093E+01 0. -1.
</event>
<event>
 5   0  0.5515000E-08  0.4129627E+04  0.7818609E-02  0.7978895E-01
        1   -1    0    0  501    0  0.00000000000E+00  0.00000000000E+00  0.15456188263E+04  0.15456188263E+04  0.50400001928E-02 0.  1.
       -1   -1    0    0    0  501  0.00000000000E+00  0.00000000000E+00 -0.27584128123E+04  0.27584128123E+04  0.50400001928E-02 0. -1.
    10030    2    1    2    0    0  0.00000000000E+00  0.00000000000E+00 -0.12127939860E+04  0.43040316386E+04  0.41296269921E+04 0.  0.
        3    1    3    3  502    0 -0.23722064278E+03 -0.11086600062E+04 -0.24049818072E+04  0.26588226992E+04  0.10100000352E+00 0. -1.
       -3    1    3    3    0  502  0.23722064278E+03  0.11086600062E+04  0.11921878212E+04  0.16452089394E+04  0.10100000352E+00 0.  1.
</event>
<event>
 5   0  0.1773903E-07  0.3989015E+04  0.7818609E-02  0.8006766E-01
       -2   -1    0    0    0  501  0.00000000000E+00  0.00000000000E+00  0.21972746452E+04  0.21972746452E+04  0.25500000920E-02 0. -1.
        2   -1    0    0  501    0  0.00000000000E+00  0.00000000000E+00 -0.18104519416E+04  0.18104519416E+04  0.25500000920E-02 0.  1.
    10030    2    1    2    0    0  0.00000000000E+00  0.00000000000E+00  0.38682270358E+03  0.40077265868E+04  0.39890149901E+04 0.  0.
        3    1    3    3  502    0  0.13843530839E+03 -0.19398349806E+04 -0.25131165039E+03  0.19609389695E+04  0.10100000352E+00 0.  1.
       -3    1    3    3    0  502 -0.13843530839E+03  0.19398349806E+04  0.63813435397E+03  0.20467876173E+04  0.10100000352E+00 0. -1.
</event>
<event>
 5   0  0.1776653E-07  0.3875625E+04  0.7818609E-02  0.8030118E-01
        2   -1    0    0  501    0  0.00000000000E+00  0.00000000000E+00  0.23945404439E+04  0.23945404439E+04  0.25500000920E-02 0. -1.
       -2   -1    0    0    0  501  0.00000000000E+00  0.00000000000E+00 -0.15681993040E+04  0.15681993040E+04  0.25500000920E-02 0.  1.
    10030    2    1    2    0    0  0.00000000000E+00  0.00000000000E+00  0.82634113986E+03  0.39627397479E+04  0.38756246761E+04 0.  0.
        4    1    3    3  502    0 -0.10065999559E+04 -0.87094277420E+03 -0.10267925110E+04  0.16810976357E+04  0.12699999809E+01 0.  1.
       -4    1    3    3    0  502  0.10065999559E+04  0.87094277420E+03  0.18531336509E+04  0.22816421122E+04  0.12699999809E+01 0. -1.
</event>
<event>
 5   0  0.5515000E-08  0.3710894E+04  0.7818609E-02  0.8065552E-01
        1   -1    0    0  501    0  0.00000000000E+00  0.00000000000E+00  0.15708203850E+04  0.15708203851E+04  0.50400001928E-02 0. -1.
       -1   -1    0    0    0  501  0.00000000000E+00  0.00000000000E+00 -0.21916463239E+04  0.21916463239E+04  0.50400001928E-02 0.  1.
    10030    2    1    2    0    0  0.00000000000E+00  0.00000000000E+00 -0.62082593884E+03  0.37624667089E+04  0.37108935433E+04 0.  0.
        4    1    3    3  502    0 -0.15510033813E+04  0.99116779053E+03 -0.54744837351E+03  0.19203453889E+04  0.12699999809E+01 0.  1.
       -4    1    3    3    0  502  0.15510033813E+04 -0.99116779053E+03 -0.73377565331E+02  0.18421213201E+04  0.12699999809E+01 0. -1.
</event>
<event>
 5   0  0.5515000E-08  0.3971600E+04  0.7818609E-02  0.8010300E-01
       -1   -1    0    0    0  501  0.00000000000E+00  0.00000000000E+00  0.35073461079E+04  0.35073461079E+04  0.50400001928E-02 0. -1.
        1   -1    0    0  501    0  0.00000000000E+00  0.00000000000E+00 -0.11243261916E+04  0.11243261916E+04  0.50400001928E-02 0.  1.
    10030    2    1    2    0    0  0.00000000000E+00  0.00000000000E+00  0.23830199163E+04  0.46316722995E+04  0.39715997241E+04 0.  0.
        1    1    3    3  502    0 -0.14111159833E+04 -0.13709144573E+04  0.87696851063E+03  0.21540029100E+04  0.50400001928E-02 0. -1.
       -1    1    3    3    0  502  0.14111159833E+04  0.13709144573E+04  0.15060514057E+04  0.24776693896E+04  0.50400001928E-02 0.  1.
</event>
<event>
 5   0  0.5515000E-08  0.3827976E+04  0.7818609E-02  0.8040178E-01
        1   -1    0    0  501    0  0.00000000000E+00  0.00000000000E+00  0.14929358295E+04  0.14929358295E+04  0.50400001928E-02 0. -1.
       -1   -1    0    0    0  501  0.00000000000E+00  0.00000000000E+00 -0.24537893270E+04  0.24537893270E+04  0.50400001928E-02 0.  1.
    10030    2    1    2    0    0  0.00000000000E+00  0.00000000000E+00 -0.96085349752E+03  0.39467251565E+04  0.38279759687E+04 0.  0.
        2    1    3    3  502    0  0.18062889297E+04  0.47793238160E+03 -0.90833285913E+03  0.20775388425E+04  0.25500000920E-02 0.  1.
       -2    1    3    3    0  502 -0.18062889297E+04 -0.47793238160E+03 -0.52520638399E+02  0.18691863140E+04  0.25500000920E-02 0. -1.
</event>
<event>
 5   0  0.1776653E-07  0.3959769E+04  0.7818609E-02  0.8012712E-01
       -2   -1    0    0    0  501  0.00000000000E+00  0.00000000000E+00  0.13356816821E+04  0.13356816821E+04  0.25500000920E-02 0. -1.
        2   -1    0    0  501    0  0.00000000000E+00  0.00000000000E+00 -0.29347874874E+04  0.29347874874E+04  0.25500000920E-02 0.  1.
    10030    2    1    2    0    0  0.00000000000E+00  0.00000000000E+00 -0.15991058054E+04  0.42704691695E+04  0.39597686234E+04 0.  0.
        4    1    3    3  502    0 -0.12509257891E+04  0.14658843165E+04 -0.30970197250E+03  0.19518066205E+04  0.12699999809E+01 0.  1.
       -4    1    3    3    0  502  0.12509257891E+04 -0.14658843165E+04 -0.12894038329E+04  0.23186625490E+04  0.12699999809E+01 0. -1.
</event>
<event>
 5   0  0.1776653E-07  0.3983044E+04  0.7818609E-02  0.8007976E-01
        2   -1    0    0  501    0  0.00000000000E+00  0.00000000000E+00  0.18066307011E+04  0.18066307011E+04  0.25500000920E-02 0.  1.
       -2   -1    0    0    0  501  0.00000000000E+00  0.00000000000E+00 -0.21953354884E+04  0.21953354885E+04  0.25500000920E-02 0. -1.
    10030    2    1    2    0    0  0.00000000000E+00  0.00000000000E+00 -0.38870478737E+03  0.40019661895E+04  0.39830443094E+04 0.  0.
        4    1    3    3  502    0 -0.41968548226E+03  0.18825245164E+04 -0.69281849716E+03  0.20493983366E+04  0.12699999809E+01 0.  1.
       -4    1    3    3    0  502  0.41968548226E+03 -0.18825245164E+04  0.30411370979E+03  0.19525678530E+04  0.12699999809E+01 0. -1.
</event>
<event>
 5   0  0.1821433E-07  0.3997370E+04  0.7818609E-02  0.8005077E-01
        2   -1    0    0  501    0  0.00000000000E+00  0.00000000000E+00  0.22552627368E+04  0.22552627368E+04  0.25500000920E-02 0.  1.
       -2   -1    0    0    0  501  0.00000000000E+00  0.00000000000E+00 -0.17712981198E+04  0.17712981198E+04  0.25500000920E-02 0. -1.
    10030    2    1    2    0    0  0.00000000000E+00  0.00000000000E+00  0.48396461699E+03  0.40265608566E+04  0.39973704584E+04 0.  0.
        5    1    3    3  502    0  0.80881962086E+03  0.12131570726E+04  0.16189986931E+04  0.21787882229E+04  0.46999998093E+01 0.  1.
       -5    1    3    3    0  502 -0.80881962086E+03 -0.12131570726E+04 -0.11350340761E+04  0.18477726337E+04  0.46999998093E+01 0. -1.
</event>
<event>
 5   0  0.5515000E-08  0.4031948E+04  0.7818609E-02  0.7998132E-01
        1   -1    0    0  501    0  0.00000000000E+00  0.00000000000E+00  0.18613076319E+04  0.18613076319E+04  0.50400001928E-02 0.  1.
       -1   -1    0    0    0  501  0.00000000000E+00  0.00000000000E+00 -0.21834928546E+04  0.21834928547E+04  0.50400001928E-02 0. -1.
    10030    2    1    2    0    0  0.00000000000E+00  0.00000000000E+00 -0.32218522279E+03  0.40448004865E+04  0.40319483700E+04 0.  0.
        5    1    3    3  502    0  0.41065354437E+03 -0.11683861029E+04  0.14346907576E+04  0.18952894446E+04  0.46999998093E+01 0.  1.
       -5    1    3    3    0  502 -0.41065354437E+03  0.11683861029E+04 -0.17568759804E+04  0.21495110419E+04  0.46999998093E+01 0. -1.
</event>
<event>
 5   0  0.5515000E-08  0.3991772E+04  0.7818609E-02  0.8006209E-01
        1   -1    0    0  501    0  0.00000000000E+00  0.00000000000E+00  0.23271141423E+04  0.23271141423E+04  0.50400001928E-02 0. -1.
       -1   -1    0    0    0  501  0.00000000000E+00  0.00000000000E+00 -0.17118026132E+04  0.17118026132E+04  0.50400001928E-02 0.  1.
    10030    2    1    2    0    0  0.00000000000E+00  0.00000000000E+00  0.61531152907E+03  0.40389167555E+04  0.39917715717E+04 0.  0.
        2    1    3    3  502    0  0.46101138894E+03 -0.10723948864E+04 -0.13304145785E+04  0.17699054336E+04  0.25500000920E-02 0.  1.
       -2    1    3    3    0  502 -0.46101138894E+03  0.10723948864E+04  0.19457261076E+04  0.22690113219E+04  0.25500000920E-02 0. -1.
</event>
<event>
 5   0  0.1819906E-07  0.4009676E+04  0.7818609E-02  0.8002597E-01
        2   -1    0    0  501    0  0.00000000000E+00  0.00000000000E+00  0.15546165673E+04  0.15546165673E+04  0.25500000920E-02 0.  1.
       -2   -1    0    0    0  501  0.00000000000E+00  0.00000000000E+00 -0.25854446011E+04  0.25854446011E+04  0.25500000920E-02 0. -1.
    10030    2    1    2    0    0  0.00000000000E+00  0.00000000000E+00 -0.10308280338E+04  0.41400611684E+04  0.40096758027E+04 0.  0.
        1    1    3    3  502    0  0.16857425527E+04  0.88222481876E+03  0.13705744891E+03  0.19075726275E+04  0.50400001928E-02 0.  1.
       -1    1    3    3    0  502 -0.16857425527E+04 -0.88222481876E+03 -0.11678854827E+04  0.22324885410E+04  0.50400001928E-02 0. -1.
</event>
<event>
 5   0  0.5515000E-08  0.3947669E+04  0.7818609E-02  0.8015187E-01
       -1   -1    0    0    0  501  0.00000000000E+00  0.00000000000E+00  0.20811517889E+04  0.20811517889E+04  0.50400001928E-02 0. -1.
        1   -1    0    0  501    0  0.00000000000E+00  0.00000000000E+00 -0.18720507277E+04  0.18720507277E+04  0.50400001928E-02 0.  1.
    10030    2    1    2    0    0  0.00000000000E+00  0.00000000000E+00  0.20910106123E+03  0.39532025166E+04  0.39476685377E+04 0.  0.
        4    1    3    3  502    0 -0.95134015668E+03  0.13789013809E+04  0.11498543256E+04  0.20318916543E+04  0.12699999809E+01 0. -1.
       -4    1    3    3    0  502  0.95134015668E+03 -0.13789013809E+04 -0.94075326442E+03  0.19213108622E+04  0.12699999809E+01 0.  1.
</event>
<event>
 5   0  0.1819906E-07  0.3805826E+04  0.7818609E-02  0.8044906E-01
       -2   -1    0    0    0  501  0.00000000000E+00  0.00000000000E+00  0.11314639626E+04  0.11314639626E+04  0.25500000920E-02 0. -1.
        2   -1    0    0  501    0  0.00000000000E+00  0.00000000000E+00 -0.32003479579E+04  0.32003479579E+04  0.25500000920E-02 0.  1.
    10030    2    1    2    0    0  0.00000000000E+00  0.00000000000E+00 -0.20688839952E+04  0.43318119205E+04  0.38058262610E+04 0.  0.
        1    1    3    3  502    0  0.13444631486E+04  0.73705955657E+02 -0.25649218328E+04  0.28968668824E+04  0.50400001928E-02 0.  1.
       -1    1    3    3    0  502 -0.13444631486E+04 -0.73705955657E+02  0.49603783761E+03  0.14349450381E+04  0.50400001928E-02 0. -1.
</event>
<event>
 5   0  0.1785559E-07  0.3921204E+04  0.7818609E-02  0.8020634E-01
        2   -1    0    0  501    0  0.00000000000E+00  0.00000000000E+00  0.28300650364E+04  0.28300650364E+04  0.25500000920E-02 0. -1.
       -2   -1    0    0    0  501  0.00000000000E+00  0.00000000000E+00 -0.13582585703E+04  0.13582585703E+04  0.25500000920E-02 0.  1.
    10030    2    1    2    0    0  0.00000000000E+00  0.00000000000E+00  0.14718064661E+04  0.41883236067E+04  0.39212039427E+04 0.  0.
        2    1    3    3  502    0 -0.44811278533E+03  0.72489442622E+03  0.26218819301E+04  0.27569080240E+04  0.25500000920E-02 0. -1.
       -2    1    3    3    0  502  0.44811278533E+03 -0.72489442622E+03 -0.11500754640E+04  0.14314155827E+04  0.25500000920E-02 0.  1.
</event>
<event>
 5   0  0.5515000E-08  0.4005721E+04  0.7818609E-02  0.8003393E-01
        1   -1    0    0  501    0  0.00000000000E+00  0.00000000000E+00  0.14990958710E+04  0.14990958710E+04  0.50400001928E-02 0.  1.
       -1   -1    0    0    0  501  0.00000000000E+00  0.00000000000E+00 -0.26759129801E+04  0.26759129801E+04  0.50400001928E-02 0. -1.
    10030    2    1    2    0    0  0.00000000000E+00  0.00000000000E+00 -0.11768171091E+04  0.41750088511E+04  0.40057209587E+04 0.  0.
        1    1    3    3  502    0 -0.53593728333E+03  0.78725545621E+03  0.12479989327E+04  0.15698730079E+04  0.50400001928E-02 0.  1.
       -1    1    3    3    0  502  0.53593728333E+03 -0.78725545621E+03 -0.24248160418E+04  0.26051358432E+04  0.50400001928E-02 0. -1.
</event>
<event>
 5   0  0.1776653E-07  0.3959978E+04  0.7818609E-02  0.8012669E-01
       -2   -1    0    0    0  501  0.00000000000E+00  0.00000000000E+00  0.33742544044E+04  0.33742544044E+04  0.25500000920E-02 0. -1.
        2   -1    0    0  501    0  0.00000000000E+00  0.00000000000E+00 -0.11618436403E+04  0.11618436403E+04  0.25500000920E-02 0.  1.
    10030    2    1    2    0    0  0.00000000000E+00  0.00000000000E+00  0.22124107641E+04  0.45360980447E+04  0.39599777881E+04 0.  0.
        4    1    3    3  502    0 -0.84353364121E+03 -0.41045729407E+03 -0.89112570123E+03  0.12938820744E+04  0.12699999809E+01 0.  1.
       -4    1    3    3    0  502  0.84353364121E+03  0.41045729407E+03  0.31035364653E+04  0.32422159704E+04  0.12699999809E+01 0. -1.
</event>
<event>
 5   0  0.5515000E-08  0.3827711E+04  0.7818609E-02  0.8040234E-01
       -1   -1    0    0    0  501  0.00000000000E+00  0.00000000000E+00  0.16372582546E+04  0.16372582546E+04  0.50400001928E-02 0. -1.
        1   -1    0    0  501    0  0.00000000000E+00  0.00000000000E+00 -0.22371803720E+04  0.22371803720E+04  0.50400001928E-02 0.  1.
    10030    2    1    2    0    0  0.00000000000E+00  0.00000000000E+00 -0.59992211738E+03  0.38744386266E+04  0.38277105591E+04 0.  0.
        5    1    3    3  502    0  0.57873731589E+03 -0.26720904360E+03 -0.21265636205E+04  0.22200523588E+04  0.46999998093E+01 0.  1.
       -5    1    3    3    0  502 -0.57873731589E+03  0.26720904360E+03  0.15266415031E+04  0.16543862677E+04  0.46999998093E+01 0. -1.
</event>
<event>
 5   0  0.1821433E-07  0.4038413E+04  0.7818609E-02  0.7996842E-01
       -2   -1    0    0    0  501  0.00000000000E+00  0.00000000000E+00  0.12864238955E+04  0.12864238955E+04  0.25500000920E-02 0.  1.
        2   -1    0    0  501    0  0.00000000000E+00  0.00000000000E+00 -0.31694026521E+04  0.31694026521E+04  0.25500000920E-02 0. -1.
    10030    2    1    2    0    0  0.00000000000E+00  0.00000000000E+00 -0.18829787566E+04  0.44558265476E+04  0.40384132062E+04 0.  0.
        5    1    3    3  502    0  0.82837248942E+03 -0.20290585245E+03 -0.29609112532E+04  0.30812966922E+04  0.46999998093E+01 0. -1.
       -5    1    3    3    0  502 -0.82837248942E+03  0.20290585245E+03  0.10779324965E+04  0.13745298554E+04  0.46999998093E+01 0.  1.
</event>
<event>
 5   0  0.1821433E-07  0.3990196E+04  0.7818609E-02  0.8006527E-01
       -2   -1    0    0    0  501  0.00000000000E+00  0.00000000000E+00  0.17440667578E+04  0.17440667578E+04  0.25500000920E-02 0. -1.
        2   -1    0    0  501    0  0.00000000000E+00  0.00000000000E+00 -0.22822613015E+04  0.22822613015E+04  0.25500000920E-02 0.  1.
    10030    2    1    2    0    0  0.00000000000E+00  0.00000000000E+00 -0.53819454368E+03  0.40263280593E+04  0.39901960195E+04 0.  0.
        5    1    3    3  502    0  0.67065480033E+03 -0.70664486862E+03 -0.20259169050E+04  0.22479960470E+04  0.46999998093E+01 0.  1.
       -5    1    3    3    0  502 -0.67065480033E+03  0.70664486862E+03  0.14877223613E+04  0.17783320123E+04  0.46999998093E+01 0. -1.
</event>
<event>
 5   0  0.1819906E-07  0.4053719E+04  0.7818609E-02  0.7993797E-01
       -2   -1    0    0    0  501  0.00000000000E+00  0.00000000000E+00  0.19678173011E+04  0.19678173011E+04  0.25500000920E-02 0. -1.
        2   -1    0    0  501    0  0.00000000000E+00  0.00000000000E+00 -0.20876729396E+04  0.20876729397E+04  0.25500000920E-02 0.  1.
    10030    2    1    2    0    0  0.00000000000E+00  0.00000000000E+00 -0.11985563854E+03  0.40554902408E+04  0.40537187518E+04 0.  0.
        1    1    3    3  502    0  0.26616225154E+03  0.18881736997E+04 -0.74733555039E+03  0.20480607142E+04  0.50400001928E-02 0. -1.
       -1    1    3    3    0  502 -0.26616225154E+03 -0.18881736997E+04  0.62747991186E+03  0.20074295265E+04  0.50400001928E-02 0.  1.
</event>
<event>
 5   0  0.5515000E-08  0.4030670E+04  0.7818609E-02  0.7998388E-01
       -1   -1    0    0    0  501  0.00000000000E+00  0.00000000000E+00  0.20111155097E+04  0.20111155097E+04  0.50400001928E-02 0.  1.
        1   -1    0    0  501    0  0.00000000000E+00  0.00000000000E+00 -0.20195637309E+04  0.20195637309E+04  0.50400001928E-02 0. -1.
    10030    2    1    2    0    0  0.00000000000E+00  0.00000000000E+00 -0.84482211996E+01  0.40306792407E+04  0.40306703870E+04 0.  0.
        4    1    3    3  502    0 -0.61542330976E+03  0.98435757758E+03  0.16431618675E+04  0.20118867330E+04  0.12699999809E+01 0.  1.
       -4    1    3    3    0  502  0.61542330976E+03 -0.98435757758E+03 -0.16516100887E+04  0.20187925076E+04  0.12699999809E+01 0. -1.
</event>
<event>
 5   0  0.5515000E-08  0.3981692E+04  0.7818609E-02  0.8008250E-01
       -1   -1    0    0    0  501  0.00000000000E+00  0.00000000000E+00  0.14354758335E+04  0.14354758335E+04  0.50400001928E-02 0.  1.
        1   -1    0    0  501    0  0.00000000000E+00  0.00000000000E+00 -0.27610825837E+04  0.27610825837E+04  0.50400001928E-02 0. -1.
    10030    2    1    2    0    0  0.00000000000E+00  0.00000000000E+00 -0.13256067502E+04  0.41965584172E+04  0.39816917627E+04 0.  0.
        3    1    3    3  502    0  0.12980779504E+02  0.18376427585E+04 -0.14698724969E+04  0.23532157946E+04  0.10100000352E+00 0. -1.
       -3    1    3    3    0  502 -0.12980779504E+02 -0.18376427585E+04  0.14426574671E+03  0.18433426226E+04  0.10100000352E+00 0.  1.
</event>
<event>
 5   0  0.5515000E-08  0.4017021E+04  0.7818609E-02  0.8001122E-01
        1   -1    0    0  501    0  0.00000000000E+00  0.00000000000E+00  0.29439347983E+04  0.29439347983E+04  0.50400001928E-02 0.  1.
       -1   -1    0    0    0  501  0.00000000000E+00  0.00000000000E+00 -0.13703140511E+04  0.13703140511E+04  0.50400001928E-02 0. -1.
    10030    2    1    2    0    0  0.00000000000E+00  0.00000000000E+00  0.15736207472E+04  0.43142488494E+04  0.40170213939E+04 0.  0.
        3    1    3    3  502    0 -0.10684038215E+04 -0.15280354913E+04  0.15888861389E+04  0.24496812774E+04  0.10100000352E+00 0.  1.
       -3    1    3    3    0  502  0.10684038215E+04  0.15280354913E+04 -0.15265391706E+02  0.18645675720E+04  0.10100000352E+00 0. -1.
</event>
<event>
 5   0  0.1776653E-07  0.3985018E+04  0.7818609E-02  0.8007576E-01
       -2   -1    0    0    0  501  0.00000000000E+00  0.00000000000E+00  0.18387341407E+04  0.18387341407E+04  0.25500000920E-02 0.  1.
        2   -1    0    0  501    0  0.00000000000E+00  0.00000000000E+00 -0.21591438472E+04  0.21591438472E+04  0.25500000920E-02 0. -1.
    10030    2    1    2    0    0  0.00000000000E+00  0.00000000000E+00 -0.32040970651E+03  0.39978779879E+04  0.39850176945E+04 0.  0.
        4    1    3    3  502    0 -0.19624936675E+04 -0.62718634207E+02 -0.50008256793E+03  0.20261784743E+04  0.12699999809E+01 0. -1.
       -4    1    3    3    0  502  0.19624936675E+04  0.62718634207E+02  0.17967286141E+03  0.19716995136E+04  0.12699999809E+01 0.  1.
</event>
<event>
 5   0  0.5515000E-08  0.3973883E+04  0.7818609E-02  0.8009836E-01
        3   -1    0    0  501    0  0.00000000000E+00  0.00000000000E+00  0.19259620148E+04  0.19259620174E+04  0.10100000352E+00 0. -1.
       -3   -1    0    0    0  501  0.00000000000E+00  0.00000000000E+00 -0.20498511923E+04  0.20498511948E+04  0.10100000352E+00 0.  1.
    10030    2    1    2    0    0  0.00000000000E+00  0.00000000000E+00 -0.12388917754E+03  0.39758132122E+04  0.39738825058E+04 0.  0.
        5    1    3    3  502    0  0.64269326857E+03  0.18166077097E+04  0.42284758258E+03  0.19728001360E+04  0.46999998093E+01 0.  1.
       -5    1    3    3    0  502 -0.64269326857E+03 -0.18166077097E+04 -0.54673676012E+03  0.20030130762E+04  0.46999998093E+01 0. -1.
</event>
<event>
 5   0  0.5515000E-08  0.3982234E+04  0.7818609E-02  0.8008140E-01
       -1   -1    0    0    0  501  0.00000000000E+00  0.00000000000E+00  0.12432405273E+04  0.12432405273E+04  0.50400001928E-02 0.  1.
        1   -1    0    0  501    0  0.00000000000E+00  0.00000000000E+00 -0.31888816861E+04  0.31888816861E+04  0.50400001928E-02 0. -1.
    10030    2    1    2    0    0  0.00000000000E+00  0.00000000000E+00 -0.19456411588E+04  0.44321222134E+04  0.39822340207E+04 0.  0.
        1    1    3    3  502    0  0.14617102686E+04  0.13291395035E+04 -0.69717531684E+03  0.20950565987E+04  0.50400001928E-02 0.  1.
       -1    1    3    3    0  502 -0.14617102686E+04 -0.13291395035E+04 -0.12484658420E+04  0.23370656148E+04  0.50400001928E-02 0. -1.
</event>
<event>
 5   0  0.5515000E-08  0.3887543E+04  0.7818609E-02  0.8027625E-01
        1   -1    0    0  501    0  0.00000000000E+00  0.00000000000E+00  0.21454396094E+04  0.21454396094E+04  0.50400001928E-02 0.  1.
       -1   -1    0    0    0  501  0.00000000000E+00  0.00000000000E+00 -0.17610602914E+04  0.17610602914E+04  0.50400001928E-02 0. -1.
    10030    2    1    2    0    0  0.00000000000E+00  0.00000000000E+00  0.38437931804E+03  0.39064999008E+04  0.38875434422E+04 0.  0.
        2    1    3    3  502    0  0.10521825944E+04 -0.15341951858E+04  0.75832430584E+03  0.20089546618E+04  0.25500000920E-02 0.  1.
       -2    1    3    3    0  502 -0.10521825944E+04  0.15341951858E+04 -0.37394498780E+03  0.18975452390E+04  0.25500000920E-02 0. -1.
</event>
<event>
 5   0  0.1773903E-07  0.4022823E+04  0.7818609E-02  0.7999958E-01
        2   -1    0    0  501    0  0.00000000000E+00  0.00000000000E+00  0.20070521074E+04  0.20070521074E+04  0.25500000920E-02 0.  1.
       -2   -1    0    0    0  501  0.00000000000E+00  0.00000000000E+00 -0.20157804488E+04  0.20157804488E+04  0.25500000920E-02 0. -1.
    10030    2    1    2    0    0  0.00000000000E+00  0.00000000000E+00 -0.87283413976E+01  0.40228325563E+04  0.40228230873E+04 0.  0.
        3    1    3    3  502    0 -0.49827049379E+03  0.18601784799E+04  0.57635995774E+03  0.20101562808E+04  0.10100000352E+00 0.  1.
       -3    1    3    3    0  502  0.49827049379E+03 -0.18601784799E+04 -0.58508829914E+03  0.20126762755E+04  0.10100000352E+00 0. -1.
</event>
<event>
 5   0  0.1776653E-07  0.3911190E+04  0.7818609E-02  0.8022706E-01
        2   -1    0    0  501    0  0.00000000000E+00  0.00000000000E+00  0.12154771738E+04  0.12154771738E+04  0.25500000920E-02 0.  1.
       -2   -1    0    0    0  501  0.00000000000E+00  0.00000000000E+00 -0.31463795888E+04  0.31463795888E+04  0.25500000920E-02 0. -1.
    10030    2    1    2    0    0  0.00000000000E+00  0.00000000000E+00 -0.19309024150E+04  0.43618567626E+04  0.39111903919E+04 0.  0.
        4    1    3    3  502    0  0.16961957653E+04  0.77886405678E+03 -0.16163467920E+04  0.24690661915E+04  0.12699999809E+01 0. -1.
       -4    1    3    3    0  502 -0.16961957653E+04 -0.77886405678E+03 -0.31455562302E+03  0.18927905711E+04  0.12699999809E+01 0.  1.
</event>
<event>
 5   0  0.1819906E-07  0.3796604E+04  0.7818609E-02  0.8046884E-01
       -2   -1    0    0    0  501  0.00000000000E+00  0.00000000000E+00  0.24468912028E+04  0.24468912028E+04  0.25500000920E-02 0. -1.
        2   -1    0    0  501    0  0.00000000000E+00  0.00000000000E+00 -0.14727055534E+04  0.14727055534E+04  0.25500000920E-02 0.  1.
    10030    2    1    2    0    0  0.00000000000E+00  0.00000000000E+00  0.97418564945E+03  0.39195967562E+04  0.37966038840E+04 0.  0.
        1    1    3    3  502    0 -0.39238071852E+03  0.36338182161E+03 -0.13933246137E+04  0.14924350759E+04  0.50400001928E-02 0.  1.
       -1    1    3    3    0  502  0.39238071852E+03 -0.36338182161E+03  0.23675102631E+04  0.24271616804E+04  0.50400001928E-02 0. -1.
</event>
<event>
 5   0  0.1773903E-07  0.4018807E+04  0.7818609E-02  0.8000763E-01
        2   -1    0    0  501    0  0.00000000000E+00  0.00000000000E+00  0.16348493601E+04  0.16348493601E+04  0.25500000920E-02 0. -1.
       -2   -1    0    0    0  501  0.00000000000E+00  0.00000000000E+00 -0.24697700689E+04  0.24697700689E+04  0.25500000920E-02 0.  1.
    10030    2    1    2    0    0  0.00000000000E+00  0.00000000000E+00 -0.83492070875E+03  0.41046194290E+04  0.40188067965E+04 0.  0.
        3    1    3    3  502    0  0.16663443395E+04  0.51302554718E+03 -0.14376907175E+04  0.22598347902E+04  0.10100000352E+00 0.  1.
       -3    1    3    3    0  502 -0.16663443395E+04 -0.51302554718E+03  0.60277000870E+03  0.18447846388E+04  0.10100000352E+00 0. -1.
</event>
<event>
 5   0  0.5515000E-08  0.3929854E+04  0.7818609E-02  0.8018849E-01
       -3   -1    0    0    0  501  0.00000000000E+00  0.00000000000E+00  0.23299866358E+04  0.23299866380E+04  0.10100000352E+00 0. -1.
        3   -1    0    0  501    0  0.00000000000E+00  0.00000000000E+00 -0.16570643765E+04  0.16570643796E+04  0.10100000352E+00 0.  1.
    10030    2    1    2    0    0  0.00000000000E+00  0.00000000000E+00  0.67292225925E+03  0.39870510176E+04  0.39298538713E+04 0.  0.
        1    1    3    3  502    0  0.13677912435E+04  0.10434517556E+04  0.12996434204E+04  0.21560884658E+04  0.50400001928E-02 0. -1.
       -1    1    3    3    0  502 -0.13677912435E+04 -0.10434517556E+04 -0.62672116114E+03  0.18309625518E+04  0.50400001928E-02 0.  1.
</event>
<event>
 5   0  0.5515000E-08  0.4029295E+04  0.7818609E-02  0.7998663E-01
       -1   -1    0    0    0  501  0.00000000000E+00  0.00000000000E+00  0.13047176487E+04  0.13047176487E+04  0.50400001928E-02 0. -1.
        1   -1    0    0  501    0  0.00000000000E+00  0.00000000000E+00 -0.31108685163E+04  0.31108685163E+04  0.50400001928E-02 0.  1.
    10030    2    1    2    0    0  0.00000000000E+00  0.00000000000E+00 -0.18061508677E+04  0.44155861650E+04  0.40292952515E+04 0.  0.
        4    1    3    3  502    0  0.32670176260E+03  0.13880326268E+04 -0.24626940438E+04  0.28457393031E+04  0.12699999809E+01 0.  1.
       -4    1    3    3    0  502 -0.32670176260E+03 -0.13880326268E+04  0.65654317614E+03  0.15698468619E+04  0.12699999809E+01 0. -1.
</event>
<event>
 5   0  0.5515000E-08  0.3825329E+04  0.7818609E-02  0.8040741E-01
       -1   -1    0    0    0  501  0.00000000000E+00  0.00000000000E+00  0.15240074571E+04  0.15240074571E+04  0.50400001928E-02 0.  1.
        1   -1    0    0  501    0  0.00000000000E+00  0.00000000000E+00 -0.24004377281E+04  0.24004377281E+04  0.50400001928E-02 0. -1.
    10030    2    1    2    0    0  0.00000000000E+00  0.00000000000E+00 -0.87643027096E+03  0.39244451852E+04  0.38253287429E+04 0.  0.
        5    1    3    3  502    0  0.10872881513E+04  0.14875613377E+04 -0.96456689899E+03  0.20797705763E+04  0.46999998093E+01 0. -1.
       -5    1    3    3    0  502 -0.10872881513E+04 -0.14875613377E+04  0.88136628035E+02  0.18446746089E+04  0.46999998093E+01 0.  1.
</event>
<event>
 5   0  0.5515000E-08  0.3958335E+04  0.7818609E-02  0.8013005E-01
       -1   -1    0    0    0  501  0.00000000000E+00  0.00000000000E+00  0.26953717037E+04  0.26953717037E+04  0.50400001928E-02 0. -1.
        1   -1    0    0  501    0  0.00000000000E+00  0.00000000000E+00 -0.14532702634E+04  0.14532702634E+04  0.50400001928E-02 0.  1.
    10030    2    1    2    0    0  0.00000000000E+00  0.00000000000E+00  0.12421014403E+04  0.41486419672E+04  0.39583347741E+04 0.  0.
        3    1    3    3  502    0 -0.72006073195E+02 -0.62791322276E+03  0.25867603049E+04  0.26628535024E+04  0.10100000352E+00 0. -1.
       -3    1    3    3    0  502  0.72006073195E+02  0.62791322276E+03 -0.13446588646E+04  0.14857884648E+04  0.10100000352E+00 0.  1.
</event>
<event>
 5   0  0.1776653E-07  0.4027009E+04  0.7818609E-02  0.7999120E-01
        2   -1    0    0  501    0  0.00000000000E+00  0.00000000000E+00  0.18028742949E+04  0.18028742949E+04  0.25500000920E-02 0.  1.
       -2   -1    0    0    0  501  0.00000000000E+00  0.00000000000E+00 -0.22487424910E+04  0.22487424910E+04  0.25500000920E-02 0. -1.
    10030    2    1    2    0    0  0.00000000000E+00  0.00000000000E+00 -0.44586819617E+03  0.40516167859E+04  0.40270088318E+04 0.  0.
        4    1    3    3  502    0  0.11817672861E+04 -0.28316108707E+03 -0.18381866061E+04  0.22035620553E+04  0.12699999809E+01 0. -1.
       -4    1    3    3    0  502 -0.11817672861E+04  0.28316108707E+03  0.13923184100E+04  0.18480547306E+04  0.12699999809E+01 0.  1.
</event>
<event>
 5   0  0.1819906E-07  0.3749111E+04  0.7818609E-02  0.8057164E-01
        2   -1    0    0  501    0  0.00000000000E+00  0.00000000000E+00  0.15189195923E+04  0.15189195923E+04  0.25500000920E-02 0.  1.
       -2   -1    0    0    0  501  0.00000000000E+00  0.00000000000E+00 -0.23134596462E+04  0.23134596462E+04  0.25500000920E-02 0. -1.
    10030    2    1    2    0    0  0.00000000000E+00  0.00000000000E+00 -0.79454005388E+03  0.38323792384E+04  0.37491114587E+04 0.  0.
        1    1    3    3  502    0 -0.82896944529E+03  0.63217565807E+03  0.11952540238E+04  0.15860228830E+04  0.50400001928E-02 0.  1.
       -1    1    3    3    0  502  0.82896944529E+03 -0.63217565807E+03 -0.19897940777E+04  0.22463563554E+04  0.50400001928E-02 0. -1.
</event>
<event>
 5   0  0.1785559E-07  0.3992265E+04  0.7818609E-02  0.8006109E-01
       -2   -1    0    0    0  501  0.00000000000E+00  0.00000000000E+00  0.17215803718E+04  0.17215803718E+04  0.25500000920E-02 0.  1.
        2   -1    0    0  501    0  0.00000000000E+00  0.00000000000E+00 -0.23144689012E+04  0.23144689013E+04  0.25500000920E-02 0. -1.
    10030    2    1    2    0    0  0.00000000000E+00  0.00000000000E+00 -0.59288852945E+03  0.40360492731E+04  0.39922646363E+04 0.  0.
        2    1    3    3  502    0 -0.11373168490E+04  0.14353033197E+04 -0.10994852414E+04  0.21359899416E+04  0.25500000920E-02 0. -1.
       -2    1    3    3    0  502  0.11373168490E+04 -0.14353033197E+04  0.50659671197E+03  0.19000593315E+04  0.25500000920E-02 0.  1.
</event>
<event>
 5   0  0.5515000E-08  0.3528148E+04  0.7818609E-02  0.8107151E-01
       -1   -1    0    0    0  501  0.00000000000E+00  0.00000000000E+00  0.18284381659E+04  0.18284381660E+04  0.50400001928E-02 0.  1.
        1   -1    0    0  501    0  0.00000000000E+00  0.00000000000E+00 -0.17019756965E+04  0.17019756965E+04  0.50400001928E-02 0. -1.
    10030    2    1    2    0    0  0.00000000000E+00  0.00000000000E+00  0.12646246949E+03  0.35304138624E+04  0.35281481380E+04 0.  0.
        3    1    3    3  502    0 -0.84684197245E+03  0.49591343100E+03  0.15300804788E+04  0.18177507363E+04  0.10100000352E+00 0.  1.
       -3    1    3    3    0  502  0.84684197245E+03 -0.49591343100E+03 -0.14036180093E+04  0.17126631261E+04  0.10100000352E+00 0. -1.
</event>
<event>
 5   0  0.1773903E-07  0.4024913E+04  0.7818609E-02  0.7999540E-01
        2   -1    0    0  501    0  0.00000000000E+00  0.00000000000E+00  0.26884439643E+04  0.26884439643E+04  0.25500000920E-02 0.  1.
       -2   -1    0    0    0  501  0.00000000000E+00  0.00000000000E+00 -0.15064404594E+04  0.15064404594E+04  0.25500000920E-02 0. -1.
    10030    2    1    2    0    0  0.00000000000E+00  0.00000000000E+00  0.11820035049E+04  0.41948844237E+04  0.40249127994E+04 0.  0.
        3    1    3    3  502    0  0.15059438570E+04 -0.10433024359E+04  0.14590196342E+04  0.23420258702E+04  0.10100000352E+00 0.  1.
       -3    1    3    3    0  502 -0.15059438570E+04  0.10433024359E+04 -0.27701612935E+03  0.18528585535E+04  0.10100000352E+00 0. -1.
</event>
<event>
 5   0  0.1821433E-07  0.3604354E+04  0.7818609E-02  0.8089495E-01
        2   -1    0    0  501    0  0.00000000000E+00  0.00000000000E+00  0.22186436200E+04  0.22186436200E+04  0.25500000920E-02 0. -1.
       -2   -1    0    0    0  501  0.00000000000E+00  0.00000000000E+00 -0.14638859963E+04  0.14638859963E+04  0.25500000920E-02 0.  1.
    10030    2    1    2    0    0  0.00000000000E+00  0.00000000000E+00  0.75475762373E+03  0.36825296163E+04  0.36043536597E+04 0.  0.
        5    1    3    3  502    0  0.11654207211E+04 -0.75999382464E+03  0.15476583252E+04  0.20811209605E+04  0.46999998093E+01 0. -1.
       -5    1    3    3    0  502 -0.11654207211E+04  0.75999382464E+03 -0.79290070144E+03  0.16014086558E+04  0.46999998093E+01 0.  1.
</event>
<event>
 5   0  0.1819906E-07  0.4125958E+04  0.7818609E-02  0.7979608E-01
       -2   -1    0    0    0  501  0.00000000000E+00  0.00000000000E+00  0.16283761002E+04  0.16283761002E+04  0.25500000920E-02 0. -1.
        2   -1    0    0  501    0  0.00000000000E+00  0.00000000000E+00 -0.26135741030E+04  0.26135741030E+04  0.25500000920E-02 0.  1.
    10030    2    1    2    0    0  0.00000000000E+00  0.00000000000E+00 -0.98519800286E+03  0.42419502032E+04  0.41259576369E+04 0.  0.
        1    1    3    3  502    0 -0.95340000298E+02 -0.20600766421E+04 -0.54773613484E+03  0.21337807667E+04  0.50400001928E-02 0.  1.
       -1    1    3    3    0  502  0.95340000298E+02  0.20600766421E+04 -0.43746186802E+03  0.21081694365E+04  0.50400001928E-02 0. -1.
</event>
<event>
 5   0  0.5515000E-08  0.4034912E+04  0.7818609E-02  0.7997541E-01
       -1   -1    0    0    0  501  0.00000000000E+00  0.00000000000E+00  0.21658002749E+04  0.21658002749E+04  0.50400001928E-02 0. -1.
        1   -1    0    0  501    0  0.00000000000E+00  0.00000000000E+00 -0.18792723815E+04  0.18792723815E+04  0.50400001928E-02 0.  1.
    10030    2    1    2    0    0  0.00000000000E+00  0.00000000000E+00  0.28652789344E+03  0.40450726564E+04  0.40349119646E+04 0.  0.
        3    1    3    3  502    0  0.15154649498E+04  0.54969625517E+03 -0.10727739457E+04  0.19363997356E+04  0.10100000352E+00 0.  1.
       -3    1    3    3    0  502 -0.15154649498E+04 -0.54969625517E+03  0.13593018392E+04  0.21086729209E+04  0.10100000352E+00 0. -1.
</event>
<event>
 5   0  0.5515000E-08  0.3845264E+04  0.7818609E-02  0.8036510E-01
        1   -1    0    0  501    0  0.00000000000E+00  0.00000000000E+00  0.18975349959E+04  0.18975349959E+04  0.50400001928E-02 0. -1.
       -1   -1    0    0    0  501  0.00000000000E+00  0.00000000000E+00 -0.19480612118E+04  0.19480612118E+04  0.50400001928E-02 0.  1.
    10030    2    1    2    0    0  0.00000000000E+00  0.00000000000E+00 -0.50526215968E+02  0.38455962077E+04  0.38452642684E+04 0.  0.
        4    1    3    3  502    0  0.12288844827E+04 -0.13829934590E+04 -0.54845712975E+03  0.19296722042E+04  0.12699999809E+01 0.  1.
       -4    1    3    3    0  502 -0.12288844827E+04  0.13829934590E+04  0.49793091378E+03  0.19159240035E+04  0.12699999809E+01 0. -1.
</event>
<event>
 5   0  0.5515000E-08  0.3999831E+04  0.7818609E-02  0.8004581E-01
       -1   -1    0    0    0  501  0.00000000000E+00  0.00000000000E+00  0.22392669097E+04  0.22392669097E+04  0.50400001928E-02 0. -1.
        1   -1    0    0  501    0  0.00000000000E+00  0.00000000000E+00 -0.17861478423E+04  0.17861478423E+04  0.50400001928E-02 0.  1.
    10030    2    1    2    0    0  0.00000000000E+00  0.00000000000E+00  0.45311906740E+03  0.40254147520E+04  0.39998308759E+04 0.  0.
        5    1    3    3  502    0 -0.40621358987E+03 -0.12978571445E+04 -0.12491746360E+04  0.18465919986E+04  0.46999998093E+01 0.  1.
       -5    1    3    3    0  502  0.40621358987E+03  0.12978571445E+04  0.17022937034E+04  0.21788227534E+04  0.46999998093E+01 0. -1.
</event>
<event>
 5   0  0.1776653E-07  0.4018391E+04  0.7818609E-02  0.8000847E-01
        2   -1    0    0  501    0  0.00000000000E+00  0.00000000000E+00  0.29075521353E+04  0.29075521353E+04  0.25500000920E-02 0.  1.
       -2   -1    0    0    0  501  0.00000000000E+00  0.00000000000E+00 -0.13884069542E+04  0.13884069542E+04  0.25500000920E-02 0. -1.
    10030    2    1    2    0    0  0.00000000000E+00  0.00000000000E+00  0.15191451810E+04  0.42959590895E+04  0.40183905257E+04 0.  0.
        4    1    3    3  502    0 -0.18055741101E+04  0.81633232784E+03  0.11147365613E+04  0.22735733001E+04  0.12699999809E+01 0. -1.
       -4    1    3    3    0  502  0.18055741101E+04 -0.81633232784E+03  0.40440861970E+03  0.20223857894E+04  0.12699999809E+01 0.  1.
</event>
<event>
 5   0  0.1821433E-07  0.3989520E+04  0.7818609E-02  0.8006664E-01
       -2   -1    0    0    0  501  0.00000000000E+00  0.00000000000E+00  0.27092211675E+04  0.27092211675E+04  0.25500000920E-02 0. -1.
        2   -1    0    0  501    0  0.00000000000E+00  0.00000000000E+00 -0.14687129822E+04  0.14687129822E+04  0.25500000920E-02 0.  1.
    10030    2    1    2    0    0  0.00000000000E+00  0.00000000000E+00  0.12405081853E+04  0.41779341496E+04  0.39895204224E+04 0.  0.
        5    1    3    3  502    0  0.48342642835E+03  0.92386579697E+03 -0.11605916723E+04  0.15602000648E+04  0.46999998093E+01 0.  1.
       -5    1    3    3    0  502 -0.48342642835E+03 -0.92386579697E+03  0.24010998576E+04  0.26177340848E+04  0.46999998093E+01 0. -1.
</event>
<event>
 5   0  0.1785559E-07  0.4020485E+04  0.7818609E-02  0.8000427E-01
       -2   -1    0    0    0  501  0.00000000000E+00  0.00000000000E+00  0.13882999961E+04  0.13882999961E+04  0.25500000920E-02 0.  1.
        2   -1    0    0  501    0  0.00000000000E+00  0.00000000000E+00 -0.29108079422E+04  0.29108079422E+04  0.25500000920E-02 0. -1.
    10030    2    1    2    0    0  0.00000000000E+00  0.00000000000E+00 -0.15225079462E+04  0.42991079383E+04  0.40204848736E+04 0.  0.
        2    1    3    3  502    0  0.14955720938E+04  0.10973589195E+04  0.67121035928E+02  0.18561890312E+04  0.25500000920E-02 0.  1.
       -2    1    3    3    0  502 -0.14955720938E+04 -0.10973589195E+04 -0.15896289821E+04  0.24429189071E+04  0.25500000920E-02 0. -1.
</event>
<event>
 5   0  0.1773903E-07  0.4002930E+04  0.7818609E-02  0.8003956E-01
       -2   -1    0    0    0  501  0.00000000000E+00  0.00000000000E+00  0.15315792183E+04  0.15315792183E+04  0.25500000920E-02 0.  1.
        2   -1    0    0  501    0  0.00000000000E+00  0.00000000000E+00 -0.26155104818E+04  0.26155104818E+04  0.25500000920E-02 0. -1.
    10030    2    1    2    0    0  0.00000000000E+00  0.00000000000E+00 -0.10839312635E+04  0.41470897000E+04  0.40029296766E+04 0.  0.
        3    1    3    3  502    0 -0.11879331817E+04  0.11980356244E+04  0.57356027491E+03  0.17819781146E+04  0.10100000352E+00 0.  1.
       -3    1    3    3    0  502  0.11879331817E+04 -0.11980356244E+04 -0.16574915384E+04  0.23651115855E+04  0.10100000352E+00 0. -1.
</event>
<event>
 5   0  0.1785559E-07  0.3964550E+04  0.7818609E-02  0.8011736E-01
        2   -1    0    0  501    0  0.00000000000E+00  0.00000000000E+00  0.23183659112E+04  0.23183659112E+04  0.25500000920E-02 0.  1.
       -2   -1    0    0    0  501  0.00000000000E+00  0.00000000000E+00 -0.16949064681E+04  0.16949064681E+04  0.25500000920E-02 0. -1.
    10030    2    1    2    0    0  0.00000000000E+00  0.00000000000E+00  0.62345944305E+03  0.40132723793E+04  0.39645495978E+04 0.  0.
        2    1    3    3  502    0  0.68182484418E+03 -0.13416811830E+04  0.16177088184E+04  0.22095192545E+04  0.25500000920E-02 0.  1.
       -2    1    3    3    0  502 -0.68182484418E+03  0.13416811830E+04 -0.99424937537E+03  0.18037531248E+04  0.25500000920E-02 0. -1.
</event>
<event>
 5   0  0.1773903E-07  0.4009455E+04  0.7818609E-02  0.8002642E-01
        2   -1    0    0  501    0  0.00000000000E+00  0.00000000000E+00  0.15703928041E+04  0.15703928041E+04  0.25500000920E-02 0.  1.
       -2   -1    0    0    0  501  0.00000000000E+00  0.00000000000E+00 -0.25591892158E+04  0.25591892158E+04  0.25500000920E-02 0. -1.
    10030    2    1    2    0    0  0.00000000000E+00  0.00000000000E+00 -0.98879641171E+03  0.41295820199E+04  0.40094549898E+04 0.  0.
        3    1    3    3  502    0  0.11894158074E+04  0.86820335019E+03  0.90666871497E+03  0.17293163936E+04  0.10100000352E+00 0.  1.
       -3    1    3    3    0  502 -0.11894158074E+04 -0.86820335019E+03 -0.18954651267E+04  0.24002656263E+04  0.10100000352E+00 0. -1.
</event>
<event>
 5   0  0.1773903E-07  0.4070828E+04  0.7818609E-02  0.7990409E-01
       -2   -1    0    0    0  501  0.00000000000E+00  0.00000000000E+00  0.22283667725E+04  0.22283667725E+04  0.25500000920E-02 0. -1.
        2   -1    0    0  501    0  0.00000000000E+00  0.00000000000E+00 -0.18591691694E+04  0.18591691694E+04  0.25500000920E-02 0.  1.
    10030    2    1    2    0    0  0.00000000000E+00  0.00000000000E+00  0.36919760314E+03  0.40875359419E+04  0.40708283194E+04 0.  0.
        3    1    3    3  502    0 -0.71981533423E+03  0.14982982213E+04 -0.99490492744E+03  0.19372319170E+04  0.10100000352E+00 0.  1.
       -3    1    3    3    0  502  0.71981533423E+03 -0.14982982213E+04  0.13641025306E+04  0.21503040249E+04  0.10100000352E+00 0. -1.
</event>
<event>
 5   0  0.1776653E-07  0.3943293E+04  0.7818609E-02  0.8016085E-01
        2   -1    0    0  501    0  0.00000000000E+00  0.00000000000E+00  0.16546255614E+04  0.16546255614E+04  0.25500000920E-02 0. -1.
       -2   -1    0    0    0  501  0.00000000000E+00  0.00000000000E+00 -0.23494078551E+04  0.23494078551E+04  0.25500000920E-02 0.  1.
    10030    2    1    2    0    0  0.00000000000E+00  0.00000000000E+00 -0.69478229375E+03  0.40040334165E+04  0.39432931878E+04 0.  0.
        4    1    3    3  502    0 -0.80276001130E+03 -0.29149323864E+03  0.14570572349E+04  0.16889077365E+04  0.12699999809E+01 0. -1.
       -4    1    3    3    0  502  0.80276001130E+03  0.29149323864E+03 -0.21518395286E+04  0.23151256799E+04  0.12699999809E+01 0.  1.
</event>
<event>
 5   0  0.5515000E-08  0.4003279E+04  0.7818609E-02  0.8003885E-01
       -1   -1    0    0    0  501  0.00000000000E+00  0.00000000000E+00  0.19440105868E+04  0.19440105868E+04  0.50400001928E-02 0. -1.
        1   -1    0    0  501    0  0.00000000000E+00  0.00000000000E+00 -0.20609763743E+04  0.20609763744E+04  0.50400001928E-02 0.  1.
    10030    2    1    2    0    0  0.00000000000E+00  0.00000000000E+00 -0.11696578757E+03  0.40049869611E+04  0.40032786018E+04 0.  0.
        5    1    3    3  502    0  0.49141128439E+03  0.96133261258E+03  0.16277310668E+04  0.19532475415E+04  0.46999998093E+01 0. -1.
       -5    1    3    3    0  502 -0.49141128439E+03 -0.96133261258E+03 -0.17446968544E+04  0.20517394196E+04  0.46999998093E+01 0.  1.
</event>
<event>
 5   0  0.5515000E-08  0.4008362E+04  0.7818609E-02  0.8002862E-01
       -1   -1    0    0    0  501  0.00000000000E+00  0.00000000000E+00  0.24305926749E+04  0.24305926749E+04  0.50400001928E-02 0. -1.
        1   -1    0    0  501    0  0.00000000000E+00  0.00000000000E+00 -0.16525769857E+04  0.16525769857E+04  0.50400001928E-02 0.  1.
    10030    2    1    2    0    0  0.00000000000E+00  0.00000000000E+00  0.77801568924E+03  0.40831696606E+04  0.40083620177E+04 0.  0.
        4    1    3    3  502    0  0.33082764156E+03  0.43690166454E+03 -0.15747697120E+04  0.16674025464E+04  0.12699999809E+01 0.  1.
       -4    1    3    3    0  502 -0.33082764156E+03 -0.43690166454E+03  0.23527854013E+04  0.24157671142E+04  0.12699999809E+01 0. -1.
</event>
<event>
 5   0  0.5515000E-08  0.3959773E+04  0.7818609E-02  0.8012711E-01
        1   -1    0    0  501    0  0.00000000000E+00  0.00000000000E+00  0.24059026020E+04  0.24059026020E+04  0.50400001928E-02 0. -1.
       -1   -1    0    0    0  501  0.00000000000E+00  0.00000000000E+00 -0.16293054288E+04  0.16293054288E+04  0.50400001928E-02 0.  1.
    10030    2    1    2    0    0  0.00000000000E+00  0.00000000000E+00  0.77659717313E+03  0.40352080308E+04  0.39597728070E+04 0.  0.
        2    1    3    3  502    0  0.14862189236E+04 -0.93786675964E+03 -0.54094430578E+03  0.18387662956E+04  0.25500000920E-02 0.  1.
       -2    1    3    3    0  502 -0.14862189236E+04  0.93786675964E+03  0.13175414789E+04  0.21964417353E+04  0.25500000920E-02 0. -1.
</event>
<event>
 5   0  0.5515000E-08  0.3991624E+04  0.7818609E-02  0.8006238E-01
        1   -1    0    0  501    0  0.00000000000E+00  0.00000000000E+00  0.13263069692E+04  0.13263069693E+04  0.50400001928E-02 0. -1.
       -1   -1    0    0    0  501  0.00000000000E+00  0.00000000000E+00 -0.30032762712E+04  0.30032762712E+04  0.50400001928E-02 0.  1.
    10030    2    1    2    0    0  0.00000000000E+00  0.00000000000E+00 -0.16769693020E+04  0.43295832405E+04  0.39916243556E+04 0.  0.
        3    1    3    3  502    0 -0.16541845786E+04 -0.40424407880E+03  0.29057312785E+03  0.17274758025E+04  0.10100000352E+00 0. -1.
       -3    1    3    3    0  502  0.16541845786E+04  0.40424407880E+03 -0.19675424299E+04  0.26021074380E+04  0.10100000352E+00 0.  1.
</event>
<event>
 5   0  0.1819906E-07  0.3925057E+04  0.7818609E-02  0.8019838E-01
        2   -1    0    0  501    0  0.00000000000E+00  0.00000000000E+00  0.15659901669E+04  0.15659901669E+04  0.25500000920E-02 0. -1.
       -2   -1    0    0    0  501  0.00000000000E+00  0.00000000000E+00 -0.24594780622E+04  0.24594780622E+04  0.25500000920E-02 0.  1.
    10030    2    1    2    0    0  0.00000000000E+00  0.00000000000E+00 -0.89348789537E+03  0.40254682291E+04  0.39250571772E+04 0.  0.
        1    1    3    3  502    0 -0.16810232182E+04 -0.10075757476E+04 -0.55168717430E+03  0.20360271819E+04  0.50400001928E-02 0. -1.
       -1    1    3    3    0  502  0.16810232182E+04  0.10075757476E+04 -0.34180072107E+03  0.19894410472E+04  0.50400001928E-02 0.  1.
</event>
<event>
 5   0  0.5515000E-08  0.4062105E+04  0.7818609E-02  0.7992134E-01
        1   -1    0    0  501    0  0.00000000000E+00  0.00000000000E+00  0.17298363648E+04  0.17298363648E+04  0.50400001928E-02 0.  1.
       -1   -1    0    0    0  501  0.00000000000E+00  0.00000000000E+00 -0.23847196954E+04  0.23847196954E+04  0.50400001928E-02 0. -1.
    10030    2    1    2    0    0  0.00000000000E+00  0.00000000000E+00 -0.65488333063E+03  0.41145560602E+04  0.40621052910E+04 0.  0.
        5    1    3    3  502    0  0.13479080079E+04  0.53991862697E+03  0.11110308552E+04  0.18283270421E+04  0.46999998093E+01 0.  1.
       -5    1    3    3    0  502 -0.13479080079E+04 -0.53991862697E+03 -0.17659141858E+04  0.22862290181E+04  0.46999998093E+01 0. -1.
</event>
<event>
 5   0  0.1773903E-07  0.3911875E+04  0.7818609E-02  0.8022564E-01
        2   -1    0    0  501    0  0.00000000000E+00  0.00000000000E+00  0.20097269235E+04  0.20097269235E+04  0.25500000920E-02 0.  1.
       -2   -1    0    0    0  501  0.00000000000E+00  0.00000000000E+00 -0.19035876636E+04  0.19035876636E+04  0.25500000920E-02 0. -1.
    10030    2    1    2    0    0  0.00000000000E+00  0.00000000000E+00  0.10613925990E+03  0.39133145872E+04  0.39118749361E+04 0.  0.
        3    1    3    3  502    0 -0.18583400400E+04  0.40626745567E+03  0.50844086589E+03  0.19690081447E+04  0.10100000352E+00 0.  1.
       -3    1    3    3    0  502  0.18583400400E+04 -0.40626745567E+03 -0.40230160599E+03  0.19443064424E+04  0.10100000352E+00 0. -1.
</event>
<event>
 5   0  0.5515000E-08  0.3976441E+04  0.7818609E-02  0.8009316E-01
       -1   -1    0    0    0  501  0.00000000000E+00  0.00000000000E+00  0.16837162224E+04  0.16837162224E+04  0.50400001928E-02 0.  1.
        1   -1    0    0  501    0  0.00000000000E+00  0.00000000000E+00 -0.23477954823E+04  0.23477954823E+04  0.50400001928E-02 0. -1.
    10030    2    1    2    0    0  0.00000000000E+00  0.00000000000E+00 -0.66407925987E+03  0.40315117047E+04  0.39764412936E+04 0.  0.
        1    1    3    3  502    0 -0.16235392220E+04 -0.84220435715E+03  0.45839450294E+03  0.18855538457E+04  0.50400001928E-02 0.  1.
       -1    1    3    3    0  502  0.16235392220E+04  0.84220435715E+03 -0.11224737628E+04  0.21459578590E+04  0.50400001928E-02 0. -1.
</event>
<event>
 5   0  0.1776653E-07  0.4023431E+04  0.7818609E-02  0.7999836E-01
       -2   -1    0    0    0  501  0.00000000000E+00  0.00000000000E+00  0.26517346934E+04  0.26517346934E+04  0.25500000920E-02 0. -1.
        2   -1    0    0  501    0  0.00000000000E+00  0.00000000000E+00 -0.15261705634E+04  0.15261705634E+04  0.25500000920E-02 0.  1.
    10030    2    1    2    0    0  0.00000000000E+00  0.00000000000E+00  0.11255641300E+04  0.41779052567E+04  0.40234310884E+04 0.  0.
        4    1    3    3  502    0 -0.78961403940E+03  0.12011909684E+04 -0.89860628761E+03  0.16952418550E+04  0.12699999809E+01 0.  1.
       -4    1    3    3    0  502  0.78961403940E+03 -0.12011909684E+04  0.20241704176E+04  0.24826634017E+04  0.12699999809E+01 0. -1.
</event>
<event>
 5   0  0.1776653E-07  0.3844789E+04  0.7818609E-02  0.8036611E-01
        2   -1    0    0  501    0  0.00000000000E+00  0.00000000000E+00  0.17776880034E+04  0.17776880034E+04  0.25500000920E-02 0.  1.
       -2   -1    0    0    0  501  0.00000000000E+00  0.00000000000E+00 -0.20788801899E+04  0.20788801899E+04  0.25500000920E-02 0. -1.
    10030    2    1    2    0    0  0.00000000000E+00  0.00000000000E+00 -0.30119218650E+03  0.38565681932E+04  0.38447888753E+04 0.  0.
        4    1    3    3  502    0  0.11443536432E+04 -0.12701059528E+04 -0.10324279426E+04  0.19971538403E+04  0.12699999809E+01 0. -1.
       -4    1    3    3    0  502 -0.11443536432E+04  0.12701059528E+04  0.73123575613E+03  0.18594143530E+04  0.12699999809E+01 0.  1.
</event>
<event>
 5   0  0.5515000E-08  0.3998073E+04  0.7818609E-02  0.8004935E-01
        1   -1    0    0  501    0  0.00000000000E+00  0.00000000000E+00  0.30834020636E+04  0.30834020636E+04  0.50400001928E-02 0. -1.
       -1   -1    0    0    0  501  0.00000000000E+00  0.00000000000E+00 -0.12960190239E+04  0.12960190240E+04  0.50400001928E-02 0.  1.
    10030    2    1    2    0    0  0.00000000000E+00  0.00000000000E+00  0.17873830397E+04  0.43794210876E+04  0.39980734025E+04 0.  0.
        5    1    3    3  502    0 -0.77446234221E+03  0.11139247594E+04 -0.71451009884E+03  0.15333515776E+04  0.46999998093E+01 0.  1.
       -5    1    3    3    0  502  0.77446234221E+03 -0.11139247594E+04  0.25018931385E+04  0.28460695100E+04  0.46999998093E+01 0. -1.
</event>
<event>
 5   0  0.5515000E-08  0.3904887E+04  0.7818609E-02  0.8024013E-01
        1   -1    0    0  501    0  0.00000000000E+00  0.00000000000E+00  0.20081291768E+04  0.20081291768E+04  0.50400001928E-02 0. -1.
       -1   -1    0    0    0  501  0.00000000000E+00  0.00000000000E+00 -0.18983023386E+04  0.18983023386E+04  0.50400001928E-02 0.  1.
    10030    2    1    2    0    0  0.00000000000E+00  0.00000000000E+00  0.10982683819E+03  0.39064315155E+04  0.39048873544E+04 0.  0.
        3    1    3    3  502    0 -0.19274796734E+04 -0.30278324317E+03  0.12691909174E+03  0.19552401514E+04  0.10100000352E+00 0. -1.
       -3    1    3    3    0  502  0.19274796734E+04  0.30278324317E+03 -0.17092253549E+02  0.19511913640E+04  0.10100000352E+00 0.  1.
</event>
<event>
 5   0  0.5515000E-08  0.3983894E+04  0.7818609E-02  0.8007804E-01
        1   -1    0    0  501    0  0.00000000000E+00  0.00000000000E+00  0.23786813813E+04  0.23786813813E+04  0.50400001928E-02 0.  1.
       -1   -1    0    0    0  501  0.00000000000E+00  0.00000000000E+00 -0.16680889371E+04  0.16680889371E+04  0.50400001928E-02 0. -1.
    10030    2    1    2    0    0  0.00000000000E+00  0.00000000000E+00  0.71059244421E+03  0.40467703184E+04  0.39838936216E+04 0.  0.
        2    1    3    3  502    0  0.28708488287E+03 -0.68430075945E+03  0.22330295479E+04  0.23531056545E+04  0.25500000920E-02 0.  1.
       -2    1    3    3    0  502 -0.28708488287E+03  0.68430075945E+03 -0.15224371037E+04  0.16936646640E+04  0.25500000920E-02 0. -1.
</event>
<event>
 5   0  0.1776653E-07  0.3984341E+04  0.7818609E-02  0.8007713E-01
        2   -1    0    0  501    0  0.00000000000E+00  0.00000000000E+00  0.19027962403E+04  0.19027962403E+04  0.25500000920E-02 0.  1.
       -2   -1    0    0    0  501  0.00000000000E+00  0.00000000000E+00 -0.20857425394E+04  0.20857425394E+04  0.25500000920E-02 0. -1.
    10030    2    1    2    0    0  0.00000000000E+00  0.00000000000E+00 -0.18294629907E+03  0.39885387797E+04  0.39843408801E+04 0.  0.
        4    1    3    3  502    0 -0.13449595369E+04  0.12319388777E+04  0.71071495153E+03  0.19574746255E+04  0.12699999809E+01 0.  1.
       -4    1    3    3    0  502  0.13449595369E+04 -0.12319388777E+04 -0.89366125060E+03  0.20310641541E+04  0.12699999809E+01 0. -1.
</event>
<event>
 5   0  0.5515000E-08  0.4389167E+04  0.7818609E-02  0.7930333E-01
       -1   -1    0    0    0  501  0.00000000000E+00  0.00000000000E+00  0.18835495317E+04  0.18835495317E+04  0.50400001928E-02 0.  1.
        1   -1    0    0  501    0  0.00000000000E+00  0.00000000000E+00 -0.25569792697E+04  0.25569792697E+04  0.50400001928E-02 0. -1.
    10030    2    1    2    0    0  0.00000000000E+00  0.00000000000E+00 -0.67342973799E+03  0.44405288013E+04  0.43891671674E+04 0.  0.
        3    1    3    3  502    0  0.44372779825E+03 -0.19697747566E+04 -0.12065962351E+04  0.23521865223E+04  0.10100000352E+00 0. -1.
       -3    1    3    3    0  502 -0.44372779825E+03  0.19697747566E+04  0.53316649706E+03  0.20883422791E+04  0.10100000352E+00 0.  1.
</event>
<event>
 5   0  0.1785559E-07  0.3699240E+04  0.7818609E-02  0.8068130E-01
       -2   -1    0    0    0  501  0.00000000000E+00  0.00000000000E+00  0.14282808715E+04  0.14282808715E+04  0.25500000920E-02 0. -1.
        2   -1    0    0  501    0  0.00000000000E+00  0.00000000000E+00 -0.23952526854E+04  0.23952526854E+04  0.25500000920E-02 0.  1.
    10030    2    1    2    0    0  0.00000000000E+00  0.00000000000E+00 -0.96697181398E+03  0.38235335569E+04  0.36992397019E+04 0.  0.
        2    1    3    3  502    0  0.56225206060E+03 -0.14763534970E+04 -0.14777566065E+04  0.21632178845E+04  0.25500000920E-02 0.  1.
       -2    1    3    3    0  502 -0.56225206060E+03  0.14763534970E+04  0.51078479257E+03  0.16603156724E+04  0.25500000920E-02 0. -1.
</event>
<event>
 5   0  0.1776653E-07  0.3978129E+04  0.7818609E-02  0.8008973E-01
       -2   -1    0    0    0  501  0.00000000000E+00  0.00000000000E+00  0.16377359313E+04  0.16377359313E+04  0.25500000920E-02 0. -1.
        2   -1    0    0  501    0  0.00000000000E+00  0.00000000000E+00 -0.24157605159E+04  0.24157605159E+04  0.25500000920E-02 0.  1.
    10030    2    1    2    0    0  0.00000000000E+00  0.00000000000E+00 -0.77802458461E+03  0.40534964471E+04  0.39781291071E+04 0.  0.
        4    1    3    3  502    0  0.11619614760E+04 -0.15446767742E+04  0.89127646025E+02  0.19349744594E+04  0.12699999809E+01 0. -1.
       -4    1    3    3    0  502 -0.11619614760E+04  0.15446767742E+04 -0.86715223064E+03  0.21185219877E+04  0.12699999809E+01 0.  1.
</event>
<event>
 5   0  0.5515000E-08  0.3984400E+04  0.7818609E-02  0.8007701E-01
        1   -1    0    0  501    0  0.00000000000E+00  0.00000000000E+00  0.17637068830E+04  0.17637068830E+04  0.50400001928E-02 0.  1.
       -1   -1    0    0    0  501  0.00000000000E+00  0.00000000000E+00 -0.22502948422E+04  0.22502948422E+04  0.50400001928E-02 0. -1.
    10030    2    1    2    0    0  0.00000000000E+00  0.00000000000E+00 -0.48658795921E+03  0.40140017252E+04  0.39843998303E+04 0.  0.
        5    1    3    3  502    0 -0.15382521273E+04 -0.10037419009E+04  0.53387826121E+03  0.19127899777E+04  0.46999998093E+01 0.  1.
       -5    1    3    3    0  502  0.15382521273E+04  0.10037419009E+04 -0.10204662204E+04  0.21012117475E+04  0.46999998093E+01 0. -1.
</event>
<event>
 5   0  0.5515000E-08  0.3973859E+04  0.7818609E-02  0.8009841E-01
       -1   -1    0    0    0  501  0.00000000000E+00  0.00000000000E+00  0.14350301462E+04  0.14350301462E+04  0.50400001928E-02 0. -1.
        1   -1    0    0  501    0  0.00000000000E+00  0.00000000000E+00 -0.27510845109E+04  0.27510845109E+04  0.50400001928E-02 0.  1.
    10030    2    1    2    0    0  0.00000000000E+00  0.00000000000E+00 -0.13160543647E+04  0.41861146571E+04  0.39738591861E+04 0.  0.
        2    1    3    3  502    0  0.10886252732E+04  0.16052585708E+04 -0.11122535902E+04  0.22358595916E+04  0.25500000920E-02 0.  1.
       -2    1    3    3    0  502 -0.10886252732E+04 -0.16052585708E+04 -0.20380077448E+03  0.19502550654E+04  0.25500000920E-02 0. -1.
</event>
<event>
 5   0  0.1785559E-07  0.3992686E+04  0.7818609E-02  0.8006024E-01
        2   -1    0    0  501    0  0.00000000000E+00  0.00000000000E+00  0.21214140835E+04  0.21214140835E+04  0.25500000920E-02 0.  1.
       -2   -1    0    0    0  501  0.00000000000E+00  0.00000000000E+00 -0.18786452776E+04  0.18786452776E+04  0.25500000920E-02 0. -1.
    10030    2    1    2    0    0  0.00000000000E+00  0.00000000000E+00  0.24276880590E+03  0.40000593611E+04  0.39926855873E+04 0.  0.
        2    1    3    3  502    0  0.19804557912E+04  0.98553075011E+02  0.35304011607E+03  0.20140891671E+04  0.25500000920E-02 0.  1.
       -2    1    3    3    0  502 -0.19804557912E+04 -0.98553075011E+02 -0.11027131017E+03  0.19859701940E+04  0.25500000920E-02 0. -1.
</event>
<event>
 5   0  0.1773903E-07  0.3583179E+04  0.7818609E-02  0.8094356E-01
       -2   -1    0    0    0  501  0.00000000000E+00  0.00000000000E+00  0.16969233344E+04  0.16969233344E+04  0.25500000920E-02 0. -1.
        2   -1    0    0  501    0  0.00000000000E+00  0.00000000000E+00 -0.18915364341E+04  0.18915364341E+04  0.25500000920E-02 0.  1.
    10030    2    1    2    0    0  0.00000000000E+00  0.00000000000E+00 -0.19461309973E+03  0.35884597685E+04  0.35831786519E+04 0.  0.
        3    1    3    3  502    0  0.15575184345E+04 -0.88485110472E+03 -0.12845143985E+03  0.17959189664E+04  0.10100000352E+00 0. -1.
       -3    1    3    3    0  502 -0.15575184345E+04  0.88485110472E+03 -0.66161659886E+02  0.17925408020E+04  0.10100000352E+00 0.  1.
</event>
<event>
 5   0  0.1821433E-07  0.3983164E+04  0.7818609E-02  0.8007952E-01
        2   -1    0    0  501    0  0.00000000000E+00  0.00000000000E+00  0.16277027802E+04  0.16277027802E+04  0.25500000920E-02 0. -1.
       -2   -1    0    0    0  501  0.00000000000E+00  0.00000000000E+00 -0.24368075442E+04  0.24368075442E+04  0.25500000920E-02 0.  1.
    10030    2    1    2    0    0  0.00000000000E+00  0.00000000000E+00 -0.80910476405E+03  0.40645103244E+04  0.39831637749E+04 0.  0.
        5    1    3    3  502    0 -0.13092325375E+04 -0.55786415080E+03  0.10171252230E+04  0.17492478547E+04  0.46999998093E+01 0. -1.
       -5    1    3    3    0  502  0.13092325375E+04  0.55786415080E+03 -0.18262299870E+04  0.23152624697E+04  0.46999998093E+01 0.  1.
</event>
<event>
 5   0  0.5515000E-08  0.3986683E+04  0.7818609E-02  0.8007238E-01
        1   -1    0    0  501    0  0.00000000000E+00  0.00000000000E+00  0.17220604849E+04  0.17220604850E+04  0.50400001928E-02 0.  1.
       -1   -1    0    0    0  501  0.00000000000E+00  0.00000000000E+00 -0.23073585737E+04  0.23073585737E+04  0.50400001928E-02 0. -1.
    10030    2    1    2    0    0  0.00000000000E+00  0.00000000000E+00 -0.58529808877E+03  0.40294190587E+04  0.39866833455E+04 0.  0.
        2    1    3    3  502    0  0.78143819510E+03  0.13899862055E+04  0.91629318354E+03  0.18391031789E+04  0.25500000920E-02 0.  1.
       -2    1    3    3    0  502 -0.78143819510E+03 -0.13899862055E+04 -0.15015912723E+04  0.21903158798E+04  0.25500000920E-02 0. -1.
</event>
<event>
 5   0  0.1785559E-07  0.3735862E+04  0.7818609E-02  0.8060061E-01
        2   -1    0    0  501    0  0.00000000000E+00  0.00000000000E+00  0.24765659270E+04  0.24765659270E+04  0.25500000920E-02 0. -1.
       -2   -1    0    0    0  501  0.00000000000E+00  0.00000000000E+00 -0.14088724542E+04  0.14088724542E+04  0.25500000920E-02 0.  1.
    10030    2    1    2    0    0  0.00000000000E+00  0.00000000000E+00  0.10676934729E+04  0.38854383812E+04  0.37358616225E+04 0.  0.
        2    1    3    3  502    0  0.15693081310E+04  0.39923696468E+03  0.15022821282E+04  0.22088390065E+04  0.25500000920E-02 0. -1.
       -2    1    3    3    0  502 -0.15693081310E+04 -0.39923696468E+03 -0.43458865533E+03  0.16765993747E+04  0.25500000920E-02 0.  1.
</event>
<event>
 5   0  0.5515000E-08  0.4020938E+04  0.7818609E-02  0.8000336E-01
       -1   -1    0    0    0  501  0.00000000000E+00  0.00000000000E+00  0.29930085248E+04  0.29930085248E+04  0.50400001928E-02 0. -1.
        1   -1    0    0  501    0  0.00000000000E+00  0.00000000000E+00 -0.13504756155E+04  0.13504756155E+04  0.50400001928E-02 0.  1.
    10030    2    1    2    0    0  0.00000000000E+00  0.00000000000E+00  0.16425329093E+04  0.43434841403E+04  0.40209377164E+04 0.  0.
        2    1    3    3  502    0  0.18425243255E+04 -0.13807845157E+03  0.16773158700E+04  0.24954659037E+04  0.25500000920E-02 0. -1.
       -2    1    3    3    0  502 -0.18425243255E+04  0.13807845157E+03 -0.34782960666E+02  0.18480182367E+04  0.25500000920E-02 0.  1.
</event>
<event>
 5   0  0.1821433E-07  0.3967383E+04  0.7818609E-02  0.8011159E-01
        2   -1    0    0  501    0  0.00000000000E+00  0.00000000000E+00  0.15621173027E+04  0.15621173027E+04  0.25500000920E-02 0.  1.
       -2   -1    0    0    0  501  0.00000000000E+00  0.00000000000E+00 -0.25190371369E+04  0.25190371369E+04  0.25500000920E-02 0. -1.
    10030    2    1    2    0    0  0.00000000000E+00  0.00000000000E+00 -0.95691983420E+03  0.40811544397E+04  0.39673827634E+04 0.  0.
        5    1    3    3  502    0 -0.80055111579E+03 -0.13044490262E+04 -0.17766076224E+04  0.23449575870E+04  0.46999998093E+01 0. -1.
       -5    1    3    3    0  502  0.80055111579E+03  0.13044490262E+04  0.81968778824E+03  0.17361968526E+04  0.46999998093E+01 0.  1.
</event>
<event>
 5   0  0.5515000E-08  0.3435178E+04  0.7818609E-02  0.8129326E-01
        1   -1    0    0  501    0  0.00000000000E+00  0.00000000000E+00  0.15425718030E+04  0.15425718030E+04  0.50400001928E-02 0.  1.
       -1   -1    0    0    0  501  0.00000000000E+00  0.00000000000E+00 -0.19124628492E+04  0.19124628492E+04  0.50400001928E-02 0. -1.
    10030    2    1    2    0    0  0.00000000000E+00  0.00000000000E+00 -0.36989104621E+03  0.34550346522E+04  0.34351775881E+04 0.  0.
        1    1    3    3  502    0 -0.81072508185E+03 -0.12535100024E+04 -0.10392959926E+04  0.18189828600E+04  0.50400001928E-02 0.  1.
       -1    1    3    3    0  502  0.81072508185E+03  0.12535100024E+04  0.66940494644E+03  0.16360517922E+04  0.50400001928E-02 0. -1.
</event>
<event>
 5   0  0.5515000E-08  0.3995627E+04  0.7818609E-02  0.8005429E-01
        1   -1    0    0  501    0  0.00000000000E+00  0.00000000000E+00  0.24936843723E+04  0.24936843723E+04  0.50400001928E-02 0.  1.
       -1   -1    0    0    0  501  0.00000000000E+00  0.00000000000E+00 -0.16005467717E+04  0.16005467717E+04  0.50400001928E-02 0. -1.
    10030    2    1    2    0    0  0.00000000000E+00  0.00000000000E+00  0.89313760062E+03  0.40942311439E+04  0.39956268452E+04 0.  0.
        4    1    3    3  502    0 -0.56586453565E+03 -0.17704914584E+04 -0.30390850020E+03  0.18834024175E+04  0.12699999809E+01 0. -1.
       -4    1    3    3    0  502  0.56586453565E+03  0.17704914584E+04  0.11970461008E+04  0.22108287264E+04  0.12699999809E+01 0.  1.
</event>
<event>
 5   0  0.5515000E-08  0.3997672E+04  0.7818609E-02  0.8005016E-01
        1   -1    0    0  501    0  0.00000000000E+00  0.00000000000E+00  0.22406875633E+04  0.22406875633E+04  0.50400001928E-02 0. -1.
       -1   -1    0    0    0  501  0.00000000000E+00  0.00000000000E+00 -0.17830891400E+04  0.17830891400E+04  0.50400001928E-02 0.  1.
    10030    2    1    2    0    0  0.00000000000E+00  0.00000000000E+00  0.45759842330E+03  0.40237767033E+04  0.39976721527E+04 0.  0.
        1    1    3    3  502    0 -0.14767358567E+04 -0.85719324633E+03 -0.81712856896E+03  0.18929416658E+04  0.50400001928E-02 0.  1.
       -1    1    3    3    0  502  0.14767358567E+04  0.85719324633E+03  0.12747269923E+04  0.21308350374E+04  0.50400001928E-02 0. -1.
</event>
<event>
 5   0  0.1821433E-07  0.3908971E+04  0.7818609E-02  0.8023166E-01
        2   -1    0    0  501    0  0.00000000000E+00  0.00000000000E+00  0.20594408865E+04  0.20594408865E+04  0.25500000920E-02 0. -1.
       -2   -1    0    0    0  501  0.00000000000E+00  0.00000000000E+00 -0.18548793725E+04  0.18548793725E+04  0.25500000920E-02 0.  1.
    10030    2    1    2    0    0  0.00000000000E+00  0.00000000000E+00  0.20456151406E+03  0.39143202590E+04  0.39089714347E+04 0.  0.
        5    1    3    3  502    0  0.41738909372E+03  0.19091420587E+04  0.71330965270E+02  0.19555427002E+04  0.46999998093E+01 0. -1.
       -5    1    3    3    0  502 -0.41738909372E+03 -0.19091420587E+04  0.13323054879E+03  0.19587775588E+04  0.46999998093E+01 0.  1.
</event>
<event>
 5   0  0.5515000E-08  0.3975231E+04  0.7818609E-02  0.8009562E-01
       -1   -1    0    0    0  501  0.00000000000E+00  0.00000000000E+00  0.19594107390E+04  0.19594107390E+04  0.50400001928E-02 0. -1.
        1   -1    0    0  501    0  0.00000000000E+00  0.00000000000E+00 -0.20162258323E+04  0.20162258323E+04  0.50400001928E-02 0.  1.
    10030    2    1    2    0    0  0.00000000000E+00  0.00000000000E+00 -0.56815093286E+02  0.39756365713E+04  0.39752305835E+04 0.  0.
        5    1    3    3  502    0  0.11302226190E+04 -0.46078512660E+02 -0.16629141012E+04  0.20111767191E+04  0.46999998093E+01 0.  1.
       -5    1    3    3    0  502 -0.11302226190E+04  0.46078512660E+02  0.16060990079E+04  0.19644598522E+04  0.46999998093E+01 0. -1.
</event>
<event>
 5   0  0.5515000E-08  0.3860080E+04  0.7818609E-02  0.8033383E-01
        1   -1    0    0  501    0  0.00000000000E+00  0.00000000000E+00  0.29203310906E+04  0.29203310906E+04  0.50400001928E-02 0.  1.
       -1   -1    0    0    0  501  0.00000000000E+00  0.00000000000E+00 -0.12755588815E+04  0.12755588815E+04  0.50400001928E-02 0. -1.
    10030    2    1    2    0    0  0.00000000000E+00  0.00000000000E+00  0.16447722091E+04  0.41958899721E+04  0.38600799264E+04 0.  0.
        3    1    3    3  502    0  0.86547181848E+02  0.12772952364E+04  0.23923633139E+04  0.27133698184E+04  0.10100000352E+00 0.  1.
       -3    1    3    3    0  502 -0.86547181848E+02 -0.12772952364E+04 -0.74759110480E+03  0.14825201536E+04  0.10100000352E+00 0. -1.
</event>
<event>
 5   0  0.1819906E-07  0.3835687E+04  0.7818609E-02  0.8038540E-01
       -2   -1    0    0    0  501  0.00000000000E+00  0.00000000000E+00  0.17062108719E+04  0.17062108719E+04  0.25500000920E-02 0. -1.
        2   -1    0    0  501    0  0.00000000000E+00  0.00000000000E+00 -0.21557265962E+04  0.21557265962E+04  0.25500000920E-02 0.  1.
    10030    2    1    2    0    0  0.00000000000E+00  0.00000000000E+00 -0.44951572431E+03  0.38619374682E+04  0.38356872424E+04 0.  0.
        1    1    3    3  502    0 -0.14017775338E+04  0.25908005126E+03 -0.15165117928E+04  0.20813242767E+04  0.50400001928E-02 0.  1.
       -1    1    3    3    0  502  0.14017775338E+04 -0.25908005126E+03  0.10669960685E+04  0.17806131914E+04  0.50400001928E-02 0. -1.
</event>
<event>
 5   0  0.5515000E-08  0.3763540E+04  0.7818609E-02  0.8054025E-01
        1   -1    0    0  501    0  0.00000000000E+00  0.00000000000E+00  0.23920879274E+04  0.23920879274E+04  0.50400001928E-02 0. -1.
       -1   -1    0    0    0  501  0.00000000000E+00  0.00000000000E+00 -0.14803213452E+04  0.14803213452E+04  0.50400001928E-02 0.  1.
    10030    2    1    2    0    0  0.00000000000E+00  0.00000000000E+00  0.91176658217E+03  0.38724092726E+04  0.37635402581E+04 0.  0.
        3    1    3    3  502    0 -0.17566269500E+03  0.10351328559E+03 -0.14689221693E+04  0.14830053042E+04  0.10100000352E+00 0.  1.
       -3    1    3    3    0  502  0.17566269500E+03 -0.10351328559E+03  0.23806887515E+04  0.23894039684E+04  0.10100000352E+00 0. -1.
</event>
<event>
 5   0  0.1773903E-07  0.3974018E+04  0.7818609E-02  0.8009809E-01
       -2   -1    0    0    0  501  0.00000000000E+00  0.00000000000E+00  0.15624018768E+04  0.15624018768E+04  0.25500000920E-02 0.  1.
        2   -1    0    0  501    0  0.00000000000E+00  0.00000000000E+00 -0.25270097327E+04  0.25270097327E+04  0.25500000920E-02 0. -1.
    10030    2    1    2    0    0  0.00000000000E+00  0.00000000000E+00 -0.96460785591E+03  0.40894116095E+04  0.39740179914E+04 0.  0.
        3    1    3    3  502    0 -0.81634497352E+03  0.24959847662E+03  0.13640896552E+04  0.16091796397E+04  0.10100000352E+00 0.  1.
       -3    1    3    3    0  502  0.81634497352E+03 -0.24959847662E+03 -0.23286975111E+04  0.24802319698E+04  0.10100000352E+00 0. -1.
</event>
<event>
 5   0  0.5515000E-08  0.4001133E+04  0.7818609E-02  0.8004318E-01
        1   -1    0    0  501    0  0.00000000000E+00  0.00000000000E+00  0.25591848054E+04  0.25591848055E+04  0.50400001928E-02 0. -1.
       -1   -1    0    0    0  501  0.00000000000E+00  0.00000000000E+00 -0.15638829102E+04  0.15638829102E+04  0.50400001928E-02 0.  1.
    10030    2    1    2    0    0  0.00000000000E+00  0.00000000000E+00  0.99530189521E+03  0.41230677157E+04  0.40011325304E+04 0.  0.
        3    1    3    3  502    0 -0.52615022164E+03  0.39191411187E+03 -0.14498747790E+04  0.15914042892E+04  0.10100000352E+00 0.  1.
       -3    1    3    3    0  502  0.52615022164E+03 -0.39191411187E+03  0.24451766742E+04  0.25316634265E+04  0.10100000352E+00 0. -1.
</event>
<event>
 5   0  0.5515000E-08  0.3982283E+04  0.7818609E-02  0.8008130E-01
       -1   -1    0    0    0  501  0.00000000000E+00  0.00000000000E+00  0.14466093188E+04  0.14466093188E+04  0.50400001928E-02 0. -1.
        1   -1    0    0  501    0  0.00000000000E+00  0.00000000000E+00 -0.27406469156E+04  0.27406469157E+04  0.50400001928E-02 0.  1.
    10030    2    1    2    0    0  0.00000000000E+00  0.00000000000E+00 -0.12940375968E+04  0.41872562345E+04  0.39822834494E+04 0.  0.
        1    1    3    3  502    0 -0.18263253000E+04  0.24639572068E+03  0.14575867808E+03  0.18486266645E+04  0.50400001928E-02 0. -1.
       -1    1    3    3    0  502  0.18263253000E+04 -0.24639572068E+03 -0.14397962749E+04  0.23386295700E+04  0.50400001928E-02 0.  1.
</event>
<event>
 5   0  0.1819906E-07  0.3816271E+04  0.7818609E-02  0.8042672E-01
       -2   -1    0    0    0  501  0.00000000000E+00  0.00000000000E+00  0.13942633510E+04  0.13942633510E+04  0.25500000920E-02 0.  1.
        2   -1    0    0  501    0  0.00000000000E+00  0.00000000000E+00 -0.26114007624E+04  0.26114007624E+04  0.25500000920E-02 0. -1.
    10030    2    1    2    0    0  0.00000000000E+00  0.00000000000E+00 -0.12171374113E+04  0.40056641134E+04  0.38162706287E+04 0.  0.
        1    1    3    3  502    0 -0.57579218839E+02 -0.18488333222E+04 -0.11683135780E+03  0.18534156539E+04  0.50400001928E-02 0. -1.
       -1    1    3    3    0  502  0.57579218839E+02  0.18488333222E+04 -0.11003060535E+04  0.21522484595E+04  0.50400001928E-02 0.  1.
</event>
<event>
 5   0  0.5515000E-08  0.4005968E+04  0.7818609E-02  0.8003344E-01
        1   -1    0    0  501    0  0.00000000000E+00  0.00000000000E+00  0.23279986458E+04  0.23279986458E+04  0.50400001928E-02 0. -1.
       -1   -1    0    0    0  501  0.00000000000E+00  0.00000000000E+00 -0.17233447659E+04  0.17233447659E+04  0.50400001928E-02 0.  1.
    10030    2    1    2    0    0  0.00000000000E+00  0.00000000000E+00  0.60465387989E+03  0.40513434117E+04  0.40059676889E+04 0.  0.
        3    1    3    3  502    0  0.18822776202E+03 -0.25444388653E+03  0.23025500092E+04  0.23242004941E+04  0.10100000352E+00 0. -1.
       -3    1    3    3    0  502 -0.18822776202E+03  0.25444388653E+03 -0.16978961293E+04  0.17271429176E+04  0.10100000352E+00 0.  1.
</event>
<event>
 5   0  0.5515000E-08  0.3225126E+04  0.7818609E-02  0.8182213E-01
       -1   -1    0    0    0  501  0.00000000000E+00  0.00000000000E+00  0.10651940583E+04  0.10651940583E+04  0.50400001928E-02 0. -1.
        1   -1    0    0  501    0  0.00000000000E+00  0.00000000000E+00 -0.24412075281E+04  0.24412075281E+04  0.50400001928E-02 0.  1.
    10030    2    1    2    0    0  0.00000000000E+00  0.00000000000E+00 -0.13760134698E+04  0.35064015864E+04  0.32251262016E+04 0.  0.
        3    1    3    3  502    0 -0.44537437124E+03  0.13093436023E+04 -0.15895559211E+04  0.21069947878E+04  0.10100000352E+00 0.  1.
       -3    1    3    3    0  502  0.44537437124E+03 -0.13093436023E+04  0.21354245125E+03  0.13994067986E+04  0.10100000352E+00 0. -1.
</event>
<event>
 5   0  0.1773903E-07  0.4001494E+04  0.7818609E-02  0.8004245E-01
       -2   -1    0    0    0  501  0.00000000000E+00  0.00000000000E+00  0.17913608174E+04  0.17913608174E+04  0.25500000920E-02 0. -1.
        2   -1    0    0  501    0  0.00000000000E+00  0.00000000000E+00 -0.22346072301E+04  0.22346072301E+04  0.25500000920E-02 0.  1.
    10030    2    1    2    0    0  0.00000000000E+00  0.00000000000E+00 -0.44324641266E+03  0.40259680475E+04  0.40014936382E+04 0.  0.
        3    1    3    3  502    0 -0.17469637735E+03 -0.15480536731E+03 -0.22208612182E+04  0.22330938374E+04  0.10100000352E+00 0.  1.
       -3    1    3    3    0  502  0.17469637735E+03  0.15480536731E+03  0.17776148055E+04  0.17928742100E+04  0.10100000352E+00 0. -1.
</event>
<event>
 5   0  0.1821433E-07  0.4002243E+04  0.7818609E-02  0.8004094E-01
       -2   -1    0    0    0  501  0.00000000000E+00  0.00000000000E+00  0.17990598972E+04  0.17990598972E+04  0.25500000920E-02 0. -1.
        2   -1    0    0  501    0  0.00000000000E+00  0.00000000000E+00 -0.22258779340E+04  0.22258779340E+04  0.25500000920E-02 0.  1.
    10030    2    1    2    0    0  0.00000000000E+00  0.00000000000E+00 -0.42681803672E+03  0.40249378312E+04  0.40022432346E+04 0.  0.
        5    1    3    3  502    0 -0.92288585696E+03 -0.16787193429E+04 -0.79517760677E+03  0.20741616267E+04  0.46999998093E+01 0.  1.
       -5    1    3    3    0  502  0.92288585696E+03  0.16787193429E+04  0.36835957005E+03  0.19507762045E+04  0.46999998093E+01 0. -1.
</event>
<event>
 5   0  0.1785559E-07  0.4071239E+04  0.7818609E-02  0.7990328E-01
        2   -1    0    0  501    0  0.00000000000E+00  0.00000000000E+00  0.21369039048E+04  0.21369039048E+04  0.25500000920E-02 0.  1.
       -2   -1    0    0    0  501  0.00000000000E+00  0.00000000000E+00 -0.19391361347E+04  0.19391361347E+04  0.25500000920E-02 0. -1.
    10030    2    1    2    0    0  0.00000000000E+00  0.00000000000E+00  0.19776777008E+03  0.40760400396E+04  0.40712394075E+04 0.  0.
        2    1    3    3  502    0  0.13444963291E+04  0.13181110474E+04  0.87352775703E+03  0.20756054188E+04  0.25500000920E-02 0.  1.
       -2    1    3    3    0  502 -0.13444963291E+04 -0.13181110474E+04 -0.67575998695E+03  0.20004346208E+04  0.25500000920E-02 0. -1.
</event>
<event>
 5   0  0.1785559E-07  0.4013027E+04  0.7818609E-02  0.8001924E-01
        2   -1    0    0  501    0  0.00000000000E+00  0.00000000000E+00  0.20792878535E+04  0.20792878535E+04  0.25500000920E-02 0. -1.
       -2   -1    0    0    0  501  0.00000000000E+00  0.00000000000E+00 -0.19362860988E+04  0.19362860988E+04  0.25500000920E-02 0.  1.
    10030    2    1    2    0    0  0.00000000000E+00  0.00000000000E+00  0.14300175466E+03  0.40155739523E+04  0.40130268706E+04 0.  0.
        2    1    3    3  502    0  0.13306128681E+04  0.64744766443E+00 -0.14313062561E+04  0.19542693322E+04  0.25500000920E-02 0.  1.
       -2    1    3    3    0  502 -0.13306128681E+04 -0.64744766443E+00  0.15743080108E+04  0.20613046201E+04  0.25500000920E-02 0. -1.
</event>
<event>
 5   0  0.1773903E-07  0.4002191E+04  0.7818609E-02  0.8004105E-01
       -2   -1    0    0    0  501  0.00000000000E+00  0.00000000000E+00  0.17251581169E+04  0.17251581169E+04  0.25500000920E-02 0.  1.
        2   -1    0    0  501    0  0.00000000000E+00  0.00000000000E+00 -0.23211684493E+04  0.23211684493E+04  0.25500000920E-02 0. -1.
    10030    2    1    2    0    0  0.00000000000E+00  0.00000000000E+00 -0.59601033240E+03  0.40463265661E+04  0.40021906955E+04 0.  0.
        3    1    3    3  502    0  0.87553688693E+03  0.14387616858E+04  0.79455193326E+03  0.18622332866E+04  0.10100000352E+00 0.  1.
       -3    1    3    3    0  502 -0.87553688693E+03 -0.14387616858E+04 -0.13905622657E+04  0.21840932795E+04  0.10100000352E+00 0. -1.
</event>
<event>
 5   0  0.5515000E-08  0.3956954E+04  0.7818609E-02  0.8013287E-01
        1   -1    0    0  501    0  0.00000000000E+00  0.00000000000E+00  0.23231269418E+04  0.23231269418E+04  0.50400001928E-02 0.  1.
       -1   -1    0    0    0  501  0.00000000000E+00  0.00000000000E+00 -0.16849581142E+04  0.16849581142E+04  0.50400001928E-02 0. -1.
    10030    2    1    2    0    0  0.00000000000E+00  0.00000000000E+00  0.63816882765E+03  0.40080850560E+04  0.39569541776E+04 0.  0.
        2    1    3    3  502    0 -0.19273261166E+04 -0.38687707423E+03  0.92335226578E+02  0.19679394361E+04  0.25500000920E-02 0. -1.
       -2    1    3    3    0  502  0.19273261166E+04  0.38687707423E+03  0.54583360108E+03  0.20401456199E+04  0.25500000920E-02 0.  1.
</event>
<event>
 5   0  0.1819906E-07  0.3943429E+04  0.7818609E-02  0.8016057E-01
        2   -1    0    0  501    0  0.00000000000E+00  0.00000000000E+00  0.24441270900E+04  0.24441270900E+04  0.25500000920E-02 0. -1.
       -2   -1    0    0    0  501  0.00000000000E+00  0.00000000000E+00 -0.15906117919E+04  0.15906117919E+04  0.25500000920E-02 0.  1.
    10030    2    1    2    0    0  0.00000000000E+00  0.00000000000E+00  0.85351529807E+03  0.40347388819E+04  0.39434286454E+04 0.  0.
        1    1    3    3  502    0  0.10874268936E+03  0.19375343251E+04  0.78382723063E+03  0.20929045274E+04  0.50400001928E-02 0. -1.
       -1    1    3    3    0  502 -0.10874268936E+03 -0.19375343251E+04  0.69688067438E+02  0.19418343545E+04  0.50400001928E-02 0.  1.
</event>
<event>
 5   0  0.5515000E-08  0.4033797E+04  0.7818609E-02  0.7997763E-01
       -1   -1    0    0    0  501  0.00000000000E+00  0.00000000000E+00  0.16601087730E+04  0.16601087731E+04  0.50400001928E-02 0.  1.
        1   -1    0    0  501    0  0.00000000000E+00  0.00000000000E+00 -0.24503691947E+04  0.24503691948E+04  0.50400001928E-02 0. -1.
    10030    2    1    2    0    0  0.00000000000E+00  0.00000000000E+00 -0.79026042171E+03  0.41104779678E+04  0.40337969197E+04 0.  0.
        3    1    3    3  502    0 -0.19325843977E+04 -0.56215384874E+03 -0.26234585107E+03  0.20297105113E+04  0.10100000352E+00 0.  1.
       -3    1    3    3    0  502  0.19325843977E+04  0.56215384874E+03 -0.52791457064E+03  0.20807674565E+04  0.10100000352E+00 0. -1.
</event>
<event>
 5   0  0.5515000E-08  0.3825023E+04  0.7818609E-02  0.8040806E-01
        1   -1    0    0  501    0  0.00000000000E+00  0.00000000000E+00  0.30156638943E+04  0.30156638943E+04  0.50400001928E-02 0.  1.
       -1   -1    0    0    0  501  0.00000000000E+00  0.00000000000E+00 -0.12129005410E+04  0.12129005410E+04  0.50400001928E-02 0. -1.
    10030    2    1    2    0    0  0.00000000000E+00  0.00000000000E+00  0.18027633532E+04  0.42285644353E+04  0.38250230687E+04 0.  0.
        3    1    3    3  502    0  0.11661882777E+04  0.53151711843E+03  0.24707230063E+04  0.27833393128E+04  0.10100000352E+00 0.  1.
       -3    1    3    3    0  502 -0.11661882777E+04 -0.53151711843E+03 -0.66795965309E+03  0.14452251225E+04  0.10100000352E+00 0. -1.
</event>
<event>
 5   0  0.5515000E-08  0.4005425E+04  0.7818609E-02  0.8003453E-01
       -1   -1    0    0    0  501  0.00000000000E+00  0.00000000000E+00  0.27062364543E+04  0.27062364543E+04  0.50400001928E-02 0. -1.
        1   -1    0    0  501    0  0.00000000000E+00  0.00000000000E+00 -0.14820793436E+04  0.14820793436E+04  0.50400001928E-02 0.  1.
    10030    2    1    2    0    0  0.00000000000E+00  0.00000000000E+00  0.12241571107E+04  0.41883157979E+04  0.40054248952E+04 0.  0.
        4    1    3    3  502    0  0.19803650163E+04 -0.18536706389E+03  0.85652396800E+03  0.21656041806E+04  0.12699999809E+01 0.  1.
       -4    1    3    3    0  502 -0.19803650163E+04  0.18536706389E+03  0.36763314272E+03  0.20227116173E+04  0.12699999809E+01 0. -1.
</event>
<event>
 5   0  0.1776653E-07  0.3982543E+04  0.7818609E-02  0.8008078E-01
        2   -1    0    0  501    0  0.00000000000E+00  0.00000000000E+00  0.26465760701E+04  0.26465760701E+04  0.25500000920E-02 0.  1.
       -2   -1    0    0    0  501  0.00000000000E+00  0.00000000000E+00 -0.14982231832E+04  0.14982231832E+04  0.25500000920E-02 0. -1.
    10030    2    1    2    0    0  0.00000000000E+00  0.00000000000E+00  0.11483528869E+04  0.41447992533E+04  0.39825427176E+04 0.  0.
        4    1    3    3  502    0  0.52091823561E+03 -0.31978679941E+03  0.25465240104E+04  0.26188557718E+04  0.12699999809E+01 0.  1.
       -4    1    3    3    0  502 -0.52091823561E+03  0.31978679941E+03 -0.13981711235E+04  0.15259434815E+04  0.12699999809E+01 0. -1.
</event>
<event>
 5   0  0.5515000E-08  0.3983830E+04  0.7818609E-02  0.8007816E-01
        1   -1    0    0  501    0  0.00000000000E+00  0.00000000000E+00  0.19130034722E+04  0.19130034722E+04  0.50400001928E-02 0. -1.
       -1   -1    0    0    0  501  0.00000000000E+00  0.00000000000E+00 -0.20740819284E+04  0.20740819284E+04  0.50400001928E-02 0.  1.
    10030    2    1    2    0    0  0.00000000000E+00  0.00000000000E+00 -0.16107845617E+03  0.39870854006E+04  0.39838302829E+04 0.  0.
        3    1    3    3  502    0 -0.30668047486E+03 -0.15900879595E+04  0.10802762685E+04  0.19466456943E+04  0.10100000352E+00 0. -1.
       -3    1    3    3    0  502  0.30668047486E+03  0.15900879595E+04 -0.12413547247E+04  0.20404397063E+04  0.10100000352E+00 0.  1.
</event>
<event>
 5   0  0.1821433E-07  0.3997007E+04  0.7818609E-02  0.8005151E-01
       -2   -1    0    0    0  501  0.00000000000E+00  0.00000000000E+00  0.13822415889E+04  0.13822415889E+04  0.25500000920E-02 0. -1.
        2   -1    0    0  501    0  0.00000000000E+00  0.00000000000E+00 -0.28895210891E+04  0.28895210891E+04  0.25500000920E-02 0.  1.
    10030    2    1    2    0    0  0.00000000000E+00  0.00000000000E+00 -0.15072795003E+04  0.42717626780E+04  0.39970069909E+04 0.  0.
        5    1    3    3  502    0  0.15797920564E+04 -0.93764262596E+03 -0.15945404575E+04  0.24325907991E+04  0.46999998093E+01 0.  1.
       -5    1    3    3    0  502 -0.15797920564E+04  0.93764262596E+03  0.87260957165E+02  0.18391718789E+04  0.46999998093E+01 0. -1.
</event>
<event>
 5   0  0.5515000E-08  0.3961836E+04  0.7818609E-02  0.8012290E-01
        1   -1    0    0  501    0  0.00000000000E+00  0.00000000000E+00  0.19609905503E+04  0.19609905504E+04  0.50400001928E-02 0.  1.
       -1   -1    0    0    0  501  0.00000000000E+00  0.00000000000E+00 -0.20010475590E+04  0.20010475590E+04  0.50400001928E-02 0. -1.
    10030    2    1    2    0    0  0.00000000000E+00  0.00000000000E+00 -0.40057008612E+02  0.39620381093E+04  0.39618356119E+04 0.  0.
        3    1    3    3  502    0  0.17832615365E+04  0.50392862418E+03  0.68005697332E+03  0.19739410485E+04  0.10100000352E+00 0.  1.
       -3    1    3    3    0  502 -0.17832615365E+04 -0.50392862418E+03 -0.72011398193E+03  0.19880970608E+04  0.10100000352E+00 0. -1.
</event>
<event>
 5   0  0.1819906E-07  0.3798639E+04  0.7818609E-02  0.8046447E-01
       -2   -1    0    0    0  501  0.00000000000E+00  0.00000000000E+00  0.18563944883E+04  0.18563944883E+04  0.25500000920E-02 0.  1.
        2   -1    0    0  501    0  0.00000000000E+00  0.00000000000E+00 -0.19432375090E+04  0.19432375090E+04  0.25500000920E-02 0. -1.
    10030    2    1    2    0    0  0.00000000000E+00  0.00000000000E+00 -0.86843020684E+02  0.37996319973E+04  0.37986394413E+04 0.  0.
        1    1    3    3  502    0  0.56781829197E+03  0.91603496559E+03 -0.16077603727E+04  0.19355699644E+04  0.50400001928E-02 0. -1.
       -1    1    3    3    0  502 -0.56781829197E+03 -0.91603496559E+03  0.15209173521E+04  0.18640620329E+04  0.50400001928E-02 0.  1.
</event>
<event>
 5   0  0.5515000E-08  0.3999767E+04  0.7818609E-02  0.8004594E-01
       -1   -1    0    0    0  501  0.00000000000E+00  0.00000000000E+00  0.16953321444E+04  0.16953321444E+04  0.50400001928E-02 0.  1.
        1   -1    0    0  501    0  0.00000000000E+00  0.00000000000E+00 -0.23591450995E+04  0.23591450995E+04  0.50400001928E-02 0. -1.
    10030    2    1    2    0    0  0.00000000000E+00  0.00000000000E+00 -0.66381295512E+03  0.40544772439E+04  0.39997672534E+04 0.  0.
        3    1    3    3  502    0 -0.15168130866E+04  0.64989584924E+03 -0.14771601757E+04  0.22147434952E+04  0.10100000352E+00 0. -1.
       -3    1    3    3    0  502  0.15168130866E+04 -0.64989584924E+03  0.81334722061E+03  0.18397337487E+04  0.10100000352E+00 0.  1.
</event>
<event>
 5   0  0.1821433E-07  0.3985090E+04  0.7818609E-02  0.8007561E-01
        2   -1    0    0  501    0  0.00000000000E+00  0.00000000000E+00  0.22895482024E+04  0.22895482024E+04  0.25500000920E-02 0. -1.
       -2   -1    0    0    0  501  0.00000000000E+00  0.00000000000E+00 -0.17340693612E+04  0.17340693612E+04  0.25500000920E-02 0.  1.
    10030    2    1    2    0    0  0.00000000000E+00  0.00000000000E+00  0.55547884125E+03  0.40236175636E+04  0.39850899055E+04 0.  0.
        5    1    3    3  502    0  0.30823148605E+03  0.16134860830E+04 -0.86093565741E+03  0.18546094698E+04  0.46999998093E+01 0.  1.
       -5    1    3    3    0  502 -0.30823148605E+03 -0.16134860830E+04  0.14164144987E+04  0.21690080938E+04  0.46999998093E+01 0. -1.
</event>
<event>
 5   0  0.1773903E-07  0.3995952E+04  0.7818609E-02  0.8005364E-01
        2   -1    0    0  501    0  0.00000000000E+00  0.00000000000E+00  0.23658954046E+04  0.23658954046E+04  0.25500000920E-02 0. -1.
       -2   -1    0    0    0  501  0.00000000000E+00  0.00000000000E+00 -0.16872715234E+04  0.16872715234E+04  0.25500000920E-02 0.  1.
    10030    2    1    2    0    0  0.00000000000E+00  0.00000000000E+00  0.67862388120E+03  0.40531669280E+04  0.39959519234E+04 0.  0.
        3    1    3    3  502    0 -0.33597711813E+03  0.13239391320E+04 -0.11397200506E+04  0.17789483559E+04  0.10100000352E+00 0.  1.
       -3    1    3    3    0  502  0.33597711813E+03 -0.13239391320E+04  0.18183439318E+04  0.22742185721E+04  0.10100000352E+00 0. -1.
</event>
<event>
 5   0  0.1773903E-07  0.4035837E+04  0.7818609E-02  0.7997356E-01
        2   -1    0    0  501    0  0.00000000000E+00  0.00000000000E+00  0.20261696626E+04  0.20261696626E+04  0.25500000920E-02 0. -1.
       -2   -1    0    0    0  501  0.00000000000E+00  0.00000000000E+00 -0.20097007716E+04  0.20097007716E+04  0.25500000920E-02 0.  1.
    10030    2    1    2    0    0  0.00000000000E+00  0.00000000000E+00  0.16468890984E+02  0.40358704342E+04  0.40358368324E+04 0.  0.
        3    1    3    3  502    0 -0.61541107839E+03 -0.31422192816E+03  0.19041744140E+04  0.20256718452E+04  0.10100000352E+00 0. -1.
       -3    1    3    3    0  502  0.61541107839E+03  0.31422192816E+03 -0.18877055230E+04  0.20101985890E+04  0.10100000352E+00 0.  1.
</event>
<event>
 5   0  0.5515000E-08  0.4030725E+04  0.7818609E-02  0.7998377E-01
       -1   -1    0    0    0  501  0.00000000000E+00  0.00000000000E+00  0.28459633283E+04  0.28459633283E+04  0.50400001928E-02 0. -1.
        1   -1    0    0  501    0  0.00000000000E+00  0.00000000000E+00 -0.14271742485E+04  0.14271742485E+04  0.50400001928E-02 0.  1.
    10030    2    1    2    0    0  0.00000000000E+00  0.00000000000E+00  0.14187890798E+04  0.42731375768E+04  0.40307247857E+04 0.  0.
        1    1    3    3  502    0 -0.83946401571E+03  0.61169555500E+03  0.25403460253E+04  0.27444907021E+04  0.50400001928E-02 0. -1.
       -1    1    3    3    0  502  0.83946401571E+03 -0.61169555500E+03 -0.11215569455E+04  0.15286468747E+04  0.50400001928E-02 0.  1.
</event>
<event>
 5   0  0.5515000E-08  0.4011525E+04  0.7818609E-02  0.8002226E-01
       -1   -1    0    0    0  501  0.00000000000E+00  0.00000000000E+00  0.19479272758E+04  0.19479272758E+04  0.50400001928E-02 0.  1.
        1   -1    0    0  501    0  0.00000000000E+00  0.00000000000E+00 -0.20653151977E+04  0.20653151977E+04  0.50400001928E-02 0. -1.
    10030    2    1    2    0    0  0.00000000000E+00  0.00000000000E+00 -0.11738792191E+03  0.40132424735E+04  0.40115252993E+04 0.  0.
        4    1    3    3  502    0  0.51159586886E+03  0.15872740474E+04  0.10561945598E+04  0.19740105865E+04  0.12699999809E+01 0.  1.
       -4    1    3    3    0  502 -0.51159586886E+03 -0.15872740474E+04 -0.11735824817E+04  0.20392318870E+04  0.12699999809E+01 0. -1.
</event>
<event>
 5   0  0.5515000E-08  0.4067186E+04  0.7818609E-02  0.7991128E-01
        1   -1    0    0  501    0  0.00000000000E+00  0.00000000000E+00  0.22859875860E+04  0.22859875860E+04  0.50400001928E-02 0. -1.
       -1   -1    0    0    0  501  0.00000000000E+00  0.00000000000E+00 -0.18090652166E+04  0.18090652166E+04  0.50400001928E-02 0.  1.
    10030    2    1    2    0    0  0.00000000000E+00  0.00000000000E+00  0.47692236941E+03  0.40950528025E+04  0.40671860677E+04 0.  0.
        1    1    3    3  502    0  0.93072643457E+03 -0.54669581020E+03  0.19737466595E+04  0.22496230530E+04  0.50400001928E-02 0. -1.
       -1    1    3    3    0  502 -0.93072643457E+03  0.54669581020E+03 -0.14968242901E+04  0.18454297495E+04  0.50400001928E-02 0.  1.
</event>
<event>
 5   0  0.5515000E-08  0.4046300E+04  0.7818609E-02  0.7995271E-01
        1   -1    0    0  501    0  0.00000000000E+00  0.00000000000E+00  0.15196395797E+04  0.15196395797E+04  0.50400001928E-02 0. -1.
       -1   -1    0    0    0  501  0.00000000000E+00  0.00000000000E+00 -0.26934916312E+04  0.26934916312E+04  0.50400001928E-02 0.  1.
    10030    2    1    2    0    0  0.00000000000E+00  0.00000000000E+00 -0.11738520515E+04  0.42131312108E+04  0.40463002806E+04 0.  0.
        5    1    3    3  502    0  0.11209669785E+03 -0.13114436722E+04  0.10128676840E+04  0.16608350943E+04  0.46999998093E+01 0. -1.
       -5    1    3    3    0  502 -0.11209669785E+03  0.13114436722E+04 -0.21867197355E+04  0.25522961166E+04  0.46999998093E+01 0.  1.
</event>
<event>
 5   0  0.5515000E-08  0.3982546E+04  0.7818609E-02  0.8008077E-01
       -1   -1    0    0    0  501  0.00000000000E+00  0.00000000000E+00  0.14531513137E+04  0.14531513137E+04  0.50400001928E-02 0. -1.
        1   -1    0    0  501    0  0.00000000000E+00  0.00000000000E+00 -0.27286680594E+04  0.27286680594E+04  0.50400001928E-02 0.  1.
    10030    2    1    2    0    0  0.00000000000E+00  0.00000000000E+00 -0.12755167457E+04  0.41818193732E+04  0.39825457061E+04 0.  0.
        4    1    3    3  502    0  0.14422115903E+04 -0.12309975900E+03 -0.20736766837E+04  0.25288860044E+04  0.12699999809E+01 0.  1.
       -4    1    3    3    0  502 -0.14422115903E+04  0.12309975900E+03  0.79815993801E+03  0.16529333687E+04  0.12699999809E+01 0. -1.
</event>
<event>
 5   0  0.5515000E-08  0.3958054E+04  0.7818609E-02  0.8013062E-01
       -1   -1    0    0    0  501  0.00000000000E+00  0.00000000000E+00  0.26228987751E+04  0.26228987751E+04  0.50400001928E-02 0. -1.
        1   -1    0    0  501    0  0.00000000000E+00  0.00000000000E+00 -0.14932131693E+04  0.14932131693E+04  0.50400001928E-02 0.  1.
    10030    2    1    2    0    0  0.00000000000E+00  0.00000000000E+00  0.11296856058E+04  0.41161119444E+04  0.39580535583E+04 0.  0.
        2    1    3    3  502    0  0.72201848181E+03 -0.17644760821E+04  0.11169489585E+04  0.22095840126E+04  0.25500000920E-02 0.  1.
       -2    1    3    3    0  502 -0.72201848181E+03  0.17644760821E+04  0.12736647257E+02  0.19065279318E+04  0.25500000920E-02 0. -1.
</event>
<event>
 5   0  0.1785559E-07  0.3933319E+04  0.7818609E-02  0.8018135E-01
       -2   -1    0    0    0  501  0.00000000000E+00  0.00000000000E+00  0.11119441990E+04  0.11119441990E+04  0.25500000920E-02 0.  1.
        2   -1    0    0  501    0  0.00000000000E+00  0.00000000000E+00 -0.34783665533E+04  0.34783665533E+04  0.25500000920E-02 0. -1.
    10030    2    1    2    0    0  0.00000000000E+00  0.00000000000E+00 -0.23664223543E+04  0.45903107522E+04  0.39333189602E+04 0.  0.
        2    1    3    3  502    0 -0.13636965391E+04  0.11217427605E+03 -0.28317857262E+04  0.31450376338E+04  0.25500000920E-02 0. -1.
       -2    1    3    3    0  502  0.13636965391E+04 -0.11217427605E+03  0.46536337187E+03  0.14452731184E+04  0.25500000920E-02 0.  1.
</event>
<event>
 5   0  0.5515000E-08  0.3340864E+04  0.7818609E-02  0.8152575E-01
        1   -1    0    0  501    0  0.00000000000E+00  0.00000000000E+00  0.23718221038E+04  0.23718221038E+04  0.50400001928E-02 0.  1.
       -1   -1    0    0    0  501  0.00000000000E+00  0.00000000000E+00 -0.11764555967E+04  0.11764555967E+04  0.50400001928E-02 0. -1.
    10030    2    1    2    0    0  0.00000000000E+00  0.00000000000E+00  0.11953665071E+04  0.35482777005E+04  0.33408641927E+04 0.  0.
        5    1    3    3  502    0  0.13338049667E+04  0.19338331323E+03  0.16458090252E+04  0.21272381701E+04  0.46999998093E+01 0.  1.
       -5    1    3    3    0  502 -0.13338049667E+04 -0.19338331323E+03 -0.45044251808E+03  0.14210395304E+04  0.46999998093E+01 0. -1.
</event>
<event>
 5   0  0.5515000E-08  0.3993217E+04  0.7818609E-02  0.8005916E-01
        1   -1    0    0  501    0  0.00000000000E+00  0.00000000000E+00  0.14024051309E+04  0.14024051309E+04  0.50400001928E-02 0. -1.
       -1   -1    0    0    0  501  0.00000000000E+00  0.00000000000E+00 -0.28425773845E+04  0.28425773845E+04  0.50400001928E-02 0.  1.
    10030    2    1    2    0    0  0.00000000000E+00  0.00000000000E+00 -0.14401722536E+04  0.42449825154E+04  0.39932168030E+04 0.  0.
        3    1    3    3  502    0 -0.47850387231E+03 -0.63473349663E+03  0.12269450411E+04  0.14619325264E+04  0.10100000352E+00 0. -1.
       -3    1    3    3    0  502  0.47850387231E+03  0.63473349663E+03 -0.26671172947E+04  0.27830499890E+04  0.10100000352E+00 0.  1.
</event>
<event>
 5   0  0.1785559E-07  0.4000764E+04  0.7818609E-02  0.8004392E-01
       -2   -1    0    0    0  501  0.00000000000E+00  0.00000000000E+00  0.27996235372E+04  0.27996235372E+04  0.25500000920E-02 0.  1.
        2   -1    0    0  501    0  0.00000000000E+00  0.00000000000E+00 -0.14293095058E+04  0.14293095058E+04  0.25500000920E-02 0. -1.
    10030    2    1    2    0    0  0.00000000000E+00  0.00000000000E+00  0.13703140315E+04  0.42289330430E+04  0.40007641942E+04 0.  0.
        2    1    3    3  502    0 -0.56460402895E+03  0.11983696915E+04 -0.89921301367E+03  0.16010782838E+04  0.25500000920E-02 0. -1.
       -2    1    3    3    0  502  0.56460402895E+03 -0.11983696915E+04  0.22695270451E+04  0.26278547592E+04  0.25500000920E-02 0.  1.
</event>
<event>
 5   0  0.5515000E-08  0.3978826E+04  0.7818609E-02  0.8008832E-01
       -1   -1    0    0    0  501  0.00000000000E+00  0.00000000000E+00  0.15221712732E+04  0.15221712732E+04  0.50400001928E-02 0.  1.
        1   -1    0    0  501    0  0.00000000000E+00  0.00000000000E+00 -0.26000778293E+04  0.26000778293E+04  0.50400001928E-02 0. -1.
    10030    2    1    2    0    0  0.00000000000E+00  0.00000000000E+00 -0.10779065561E+04  0.41222491025E+04  0.39788258468E+04 0.  0.
        2    1    3    3  502    0  0.13129674893E+04  0.14545253775E+04 -0.18270374044E+03  0.19679706193E+04  0.25500000920E-02 0.  1.
       -2    1    3    3    0  502 -0.13129674893E+04 -0.14545253775E+04 -0.89520281564E+03  0.21542784831E+04  0.25500000920E-02 0. -1.
</event>
<event>
 5   0  0.5515000E-08  0.3971723E+04  0.7818609E-02  0.8010275E-01
       -1   -1    0    0    0  501  0.00000000000E+00  0.00000000000E+00  0.17571877422E+04  0.17571877422E+04  0.50400001928E-02 0.  1.
        1   -1    0    0  501    0  0.00000000000E+00  0.00000000000E+00 -0.22442935416E+04  0.22442935416E+04  0.50400001928E-02 0. -1.
    10030    2    1    2    0    0  0.00000000000E+00  0.00000000000E+00 -0.48710579944E+03  0.40014812838E+04  0.39717225992E+04 0.  0.
        5    1    3    3  502    0 -0.10723424040E+04  0.92842521615E+03  0.11567282783E+04  0.18302824955E+04  0.46999998093E+01 0.  1.
       -5    1    3    3    0  502  0.10723424040E+04 -0.92842521615E+03 -0.16438340777E+04  0.21711987884E+04  0.46999998093E+01 0. -1.
</event>
<event>
 5   0  0.1819906E-07  0.3987674E+04  0.7818609E-02  0.8007038E-01
        2   -1    0    0  501    0  0.00000000000E+00  0.00000000000E+00  0.28854636443E+04  0.28854636443E+04  0.25500000920E-02 0.  1.
       -2   -1    0    0    0  501  0.00000000000E+00  0.00000000000E+00 -0.13777283441E+04  0.13777283441E+04  0.25500000920E-02 0. -1.
    10030    2    1    2    0    0  0.00000000000E+00  0.00000000000E+00  0.15077353002E+04  0.42631919884E+04  0.39876735316E+04 0.  0.
        1    1    3    3  502    0 -0.11412035906E+03 -0.18419870455E+04 -0.52886685579E+02  0.18462764511E+04  0.50400001928E-02 0.  1.
       -1    1    3    3    0  502  0.11412035906E+03  0.18419870455E+04  0.15606219858E+04  0.24169155374E+04  0.50400001928E-02 0. -1.
</event>
<event>
 5   0  0.1785559E-07  0.4004457E+04  0.7818609E-02  0.8003648E-01
       -2   -1    0    0    0  501  0.00000000000E+00  0.00000000000E+00  0.21078333417E+04  0.21078333417E+04  0.25500000920E-02 0.  1.
        2   -1    0    0  501    0  0.00000000000E+00  0.00000000000E+00 -0.19019145405E+04  0.19019145405E+04  0.25500000920E-02 0. -1.
    10030    2    1    2    0    0  0.00000000000E+00  0.00000000000E+00  0.20591880121E+03  0.40097478823E+04  0.40044569578E+04 0.  0.
        2    1    3    3  502    0  0.61013311912E+03  0.13166307109E+04  0.14843255481E+04  0.20758133791E+04  0.25500000920E-02 0.  1.
       -2    1    3    3    0  502 -0.61013311912E+03 -0.13166307109E+04 -0.12784067469E+04  0.19339345032E+04  0.25500000920E-02 0. -1.
</event>
<event>
 5   0  0.1776653E-07  0.3592434E+04  0.7818609E-02  0.8092227E-01
       -2   -1    0    0    0  501  0.00000000000E+00  0.00000000000E+00  0.15880221104E+04  0.15880221104E+04  0.25500000920E-02 0.  1.
        2   -1    0    0  501    0  0.00000000000E+00  0.00000000000E+00 -0.20317068452E+04  0.20317068452E+04  0.25500000920E-02 0. -1.
    10030    2    1    2    0    0  0.00000000000E+00  0.00000000000E+00 -0.44368473483E+03  0.36197289556E+04  0.35924339337E+04 0.  0.
        4    1    3    3  502    0  0.13380650988E+04 -0.11961341319E+04 -0.14891351287E+03  0.18009252948E+04  0.12699999809E+01 0.  1.
       -4    1    3    3    0  502 -0.13380650988E+04  0.11961341319E+04 -0.29477122196E+03  0.18188036608E+04  0.12699999809E+01 0. -1.
</event>
<event>
 5   0  0.1821433E-07  0.3942937E+04  0.7818609E-02  0.8016158E-01
       -2   -1    0    0    0  501  0.00000000000E+00  0.00000000000E+00  0.14011526288E+04  0.14011526288E+04  0.25500000920E-02 0. -1.
        2   -1    0    0  501    0  0.00000000000E+00  0.00000000000E+00 -0.27739213554E+04  0.27739213554E+04  0.25500000920E-02 0.  1.
    10030    2    1    2    0    0  0.00000000000E+00  0.00000000000E+00 -0.13727687266E+04  0.41750739841E+04  0.39429365701E+04 0.  0.
        5    1    3    3  502    0 -0.71151027870E+03 -0.13267535742E+04 -0.20341708086E+04  0.25306905959E+04  0.46999998093E+01 0.  1.
       -5    1    3    3    0  502  0.71151027870E+03  0.13267535742E+04  0.66140208202E+03  0.16443833882E+04  0.46999998093E+01 0. -1.
</event>
<event>
 5   0  0.1776653E-07  0.3520316E+04  0.7818609E-02  0.8108992E-01
        2   -1    0    0  501    0  0.00000000000E+00  0.00000000000E+00  0.23691923014E+04  0.23691923014E+04  0.25500000920E-02 0. -1.
       -2   -1    0    0    0  501  0.00000000000E+00  0.00000000000E+00 -0.13076848325E+04  0.13076848325E+04  0.25500000920E-02 0.  1.
    10030    2    1    2    0    0  0.00000000000E+00  0.00000000000E+00  0.10615074689E+04  0.36768771339E+04  0.35203163709E+04 0.  0.
        4    1    3    3  502    0  0.14463850618E+04 -0.98521079095E+03  0.72750652480E+03  0.18952407251E+04  0.12699999809E+01 0.  1.
       -4    1    3    3    0  502 -0.14463850618E+04  0.98521079095E+03  0.33400094410E+03  0.17816364088E+04  0.12699999809E+01 0. -1.
</event>
<event>
 5   0  0.1819906E-07  0.3957811E+04  0.7818609E-02  0.8013112E-01
        2   -1    0    0  501    0  0.00000000000E+00  0.00000000000E+00  0.25459811095E+04  0.25459811095E+04  0.25500000920E-02 0. -1.
       -2   -1    0    0    0  501  0.00000000000E+00  0.00000000000E+00 -0.15381368364E+04  0.15381368364E+04  0.25500000920E-02 0.  1.
    10030    2    1    2    0    0  0.00000000000E+00  0.00000000000E+00  0.10078442731E+04  0.40841179459E+04  0.39578111776E+04 0.  0.
        1    1    3    3  502    0 -0.53178756594E+03 -0.30258689004E+03  0.24459244088E+04  0.25212899586E+04  0.50400001928E-02 0. -1.
       -1    1    3    3    0  502  0.53178756594E+03  0.30258689004E+03 -0.14380801357E+04  0.15628279874E+04  0.50400001928E-02 0.  1.
</event>
<event>
 5   0  0.5515000E-08  0.3886227E+04  0.7818609E-02  0.8027900E-01
        1   -1    0    0  501    0  0.00000000000E+00  0.00000000000E+00  0.27471420402E+04  0.27471420402E+04  0.50400001928E-02 0. -1.
       -1   -1    0    0    0  501  0.00000000000E+00  0.00000000000E+00 -0.13744068967E+04  0.13744068967E+04  0.50400001928E-02 0.  1.
    10030    2    1    2    0    0  0.00000000000E+00  0.00000000000E+00  0.13727351435E+04  0.41215489369E+04  0.38862274593E+04 0.  0.
        4    1    3    3  502    0  0.12318405957E+04 -0.46503789619E+03  0.22018813374E+04  0.25655359158E+04  0.12699999809E+01 0. -1.
       -4    1    3    3    0  502 -0.12318405957E+04  0.46503789619E+03 -0.82914619390E+03  0.15560130211E+04  0.12699999809E+01 0.  1.
</event>
<event>
 5   0  0.1785559E-07  0.3975029E+04  0.7818609E-02  0.8009603E-01
       -2   -1    0    0    0  501  0.00000000000E+00  0.00000000000E+00  0.22536544473E+04  0.22536544473E+04  0.25500000920E-02 0. -1.
        2   -1    0    0  501    0  0.00000000000E+00  0.00000000000E+00 -0.17528034693E+04  0.17528034693E+04  0.25500000920E-02 0.  1.
    10030    2    1    2    0    0  0.00000000000E+00  0.00000000000E+00  0.50085097792E+03  0.40064579166E+04  0.39750287213E+04 0.  0.
        2    1    3    3  502    0 -0.13956075062E+04 -0.10063954439E+04 -0.75225737665E+03  0.18778826539E+04  0.25500000920E-02 0.  1.
       -2    1    3    3    0  502  0.13956075062E+04  0.10063954439E+04  0.12531083546E+04  0.21285752628E+04  0.25500000920E-02 0. -1.
</event>
<event>
 5   0  0.1773903E-07  0.3959169E+04  0.7818609E-02  0.8012834E-01
       -2   -1    0    0    0  501  0.00000000000E+00  0.00000000000E+00  0.17005320192E+04  0.17005320192E+04  0.25500000920E-02 0. -1.
        2   -1    0    0  501    0  0.00000000000E+00  0.00000000000E+00 -0.23044287431E+04  0.23044287431E+04  0.25500000920E-02 0.  1.
    10030    2    1    2    0    0  0.00000000000E+00  0.00000000000E+00 -0.60389672393E+03  0.40049607623E+04  0.39591690358E+04 0.  0.
        3    1    3    3  502    0 -0.29715523780E+03  0.55274203991E+03 -0.22011429360E+04  0.22888545679E+04  0.10100000352E+00 0.  1.
       -3    1    3    3    0  502  0.29715523780E+03 -0.55274203991E+03  0.15972462121E+04  0.17161061944E+04  0.10100000352E+00 0. -1.
</event>
<event>
 5   0  0.5515000E-08  0.3980681E+04  0.7818609E-02  0.8008455E-01
        1   -1    0    0  501    0  0.00000000000E+00  0.00000000000E+00  0.20668400476E+04  0.20668400476E+04  0.50400001928E-02 0.  1.
       -1   -1    0    0    0  501  0.00000000000E+00  0.00000000000E+00 -0.19166725057E+04  0.19166725057E+04  0.50400001928E-02 0. -1.
    10030    2    1    2    0    0  0.00000000000E+00  0.00000000000E+00  0.15016754190E+03  0.39835125533E+04  0.39806810939E+04 0.  0.
        2    1    3    3  502    0  0.15871172648E+04 -0.11984816153E+04  0.15360038683E+03  0.19947161386E+04  0.25500000920E-02 0.  1.
       -2    1    3    3    0  502 -0.15871172648E+04  0.11984816153E+04 -0.34328449298E+01  0.19887964147E+04  0.25500000920E-02 0. -1.
</event>
<event>
 5   0  0.1819906E-07  0.3932137E+04  0.7818609E-02  0.8018378E-01
        2   -1    0    0  501    0  0.00000000000E+00  0.00000000000E+00  0.19489853055E+04  0.19489853055E+04  0.25500000920E-02 0. -1.
       -2   -1    0    0    0  501  0.00000000000E+00  0.00000000000E+00 -0.19833013738E+04  0.19833013738E+04  0.25500000920E-02 0.  1.
    10030    2    1    2    0    0  0.00000000000E+00  0.00000000000E+00 -0.34316068320E+02  0.39322866794E+04  0.39321369427E+04 0.  0.
        1    1    3    3  502    0 -0.24704280308E+03 -0.17812082541E+04 -0.81197899140E+03  0.19730795406E+04  0.50400001928E-02 0. -1.
       -1    1    3    3    0  502  0.24704280308E+03  0.17812082541E+04  0.77766292308E+03  0.19592071388E+04  0.50400001928E-02 0.  1.
</event>
<event>
 5   0  0.5515000E-08  0.3950748E+04  0.7818609E-02  0.8014556E-01
        1   -1    0    0  501    0  0.00000000000E+00  0.00000000000E+00  0.13875127893E+04  0.13875127893E+04  0.50400001928E-02 0. -1.
       -1   -1    0    0    0  501  0.00000000000E+00  0.00000000000E+00 -0.28123008555E+04  0.28123008555E+04  0.50400001928E-02 0.  1.
    10030    2    1    2    0    0  0.00000000000E+00  0.00000000000E+00 -0.14247880662E+04  0.41998136448E+04  0.39507484883E+04 0.  0.
        1    1    3    3  502    0 -0.35925097014E+03 -0.14296491534E+04  0.68547472880E+03  0.16256794165E+04  0.50400001928E-02 0. -1.
       -1    1    3    3    0  502  0.35925097014E+03  0.14296491534E+04 -0.21102627950E+04  0.25741342283E+04  0.50400001928E-02 0.  1.
</event>
<event>
 5   0  0.1785559E-07  0.3999990E+04  0.7818609E-02  0.8004549E-01
        2   -1    0    0  501    0  0.00000000000E+00  0.00000000000E+00  0.20399970890E+04  0.20399970890E+04  0.25500000920E-02 0. -1.
       -2   -1    0    0    0  501  0.00000000000E+00  0.00000000000E+00 -0.19607770688E+04  0.19607770688E+04  0.25500000920E-02 0.  1.
    10030    2    1    2    0    0  0.00000000000E+00  0.00000000000E+00  0.79220020158E+02  0.40007741578E+04  0.39999897563E+04 0.  0.
        2    1    3    3  502    0  0.74431384804E+02 -0.16648424164E+04 -0.10663822220E+04  0.19784871357E+04  0.25500000920E-02 0.  1.
       -2    1    3    3    0  502 -0.74431384804E+02  0.16648424164E+04  0.11456022422E+04  0.20222870221E+04  0.25500000920E-02 0. -1.
</event>
<event>
 5   0  0.5515000E-08  0.4030981E+04  0.7818609E-02  0.7998326E-01
        1   -1    0    0  501    0  0.00000000000E+00  0.00000000000E+00  0.22606059945E+04  0.22606059945E+04  0.50400001928E-02 0. -1.
       -1   -1    0    0    0  501  0.00000000000E+00  0.00000000000E+00 -0.17969529914E+04  0.17969529914E+04  0.50400001928E-02 0.  1.
    10030    2    1    2    0    0  0.00000000000E+00  0.00000000000E+00  0.46365300316E+03  0.40575589859E+04  0.40309813714E+04 0.  0.
        5    1    3    3  502    0 -0.12320402030E+04 -0.12942245635E+04  0.11703042619E+04  0.21360183608E+04  0.46999998093E+01 0. -1.
       -5    1    3    3    0  502  0.12320402030E+04  0.12942245635E+04 -0.70665125870E+03  0.19215406251E+04  0.46999998093E+01 0.  1.
</event>
<event>
 5   0  0.1821433E-07  0.3963815E+04  0.7818609E-02  0.8011886E-01
        2   -1    0    0  501    0  0.00000000000E+00  0.00000000000E+00  0.24069604252E+04  0.24069604252E+04  0.25500000920E-02 0.  1.
       -2   -1    0    0    0  501  0.00000000000E+00  0.00000000000E+00 -0.16319159614E+04  0.16319159614E+04  0.25500000920E-02 0. -1.
    10030    2    1    2    0    0  0.00000000000E+00  0.00000000000E+00  0.77504446384E+03  0.40388763866E+04  0.39638148980E+04 0.  0.
        5    1    3    3  502    0 -0.15458770344E+04 -0.12358526649E+04  0.28130116648E+03  0.19990547894E+04  0.46999998093E+01 0.  1.
       -5    1    3    3    0  502  0.15458770344E+04  0.12358526649E+04  0.49374329736E+03  0.20398215972E+04  0.46999998093E+01 0. -1.
</event>
<event>
 5   0  0.5515000E-08  0.4024633E+04  0.7818609E-02  0.7999596E-01
       -1   -1    0    0    0  501  0.00000000000E+00  0.00000000000E+00  0.12396223894E+04  0.12396223894E+04  0.50400001928E-02 0.  1.
        1   -1    0    0  501    0  0.00000000000E+00  0.00000000000E+00 -0.32666542555E+04  0.32666542555E+04  0.50400001928E-02 0. -1.
    10030    2    1    2    0    0  0.00000000000E+00  0.00000000000E+00 -0.20270318661E+04  0.45062766450E+04  0.40246330286E+04 0.  0.
        4    1    3    3  502    0  0.96181276978E+03 -0.10169097775E+04  0.60526571872E+03  0.15249713121E+04  0.12699999809E+01 0.  1.
       -4    1    3    3    0  502 -0.96181276978E+03  0.10169097775E+04 -0.26322975848E+04  0.29813053328E+04  0.12699999809E+01 0. -1.
</event>
<event>
 5   0  0.1776653E-07  0.4000884E+04  0.7818609E-02  0.8004368E-01
        2   -1    0    0  501    0  0.00000000000E+00  0.00000000000E+00  0.19520082937E+04  0.19520082937E+04  0.25500000920E-02 0.  1.
       -2   -1    0    0    0  501  0.00000000000E+00  0.00000000000E+00 -0.20500773732E+04  0.20500773732E+04  0.25500000920E-02 0. -1.
    10030    2    1    2    0    0  0.00000000000E+00  0.00000000000E+00 -0.98069079497E+02  0.40020856668E+04  0.40008839199E+04 0.  0.
        4    1    3    3  502    0 -0.21666660966E+03 -0.55803004712E+03  0.18603144465E+04  0.19542552049E+04  0.12699999809E+01 0.  1.
       -4    1    3    3    0  502  0.21666660966E+03  0.55803004712E+03 -0.19583835259E+04  0.20478304619E+04  0.12699999809E+01 0. -1.
</event>
<event>
 5   0  0.5515000E-08  0.3955942E+04  0.7818609E-02  0.8013494E-01
       -1   -1    0    0    0  501  0.00000000000E+00  0.00000000000E+00  0.15436827540E+04  0.15436827540E+04  0.50400001928E-02 0. -1.
        1   -1    0    0  501    0  0.00000000000E+00  0.00000000000E+00 -0.25344389772E+04  0.25344389772E+04  0.50400001928E-02 0.  1.
    10030    2    1    2    0    0  0.00000000000E+00  0.00000000000E+00 -0.99075622318E+03  0.40781217312E+04  0.39559422343E+04 0.  0.
        1    1    3    3  502    0 -0.18494682656E+03 -0.71777459360E+03 -0.23858549286E+04  0.24983413370E+04  0.50400001928E-02 0.  1.
       -1    1    3    3    0  502  0.18494682656E+03  0.71777459360E+03  0.13950987054E+04  0.15797803942E+04  0.50400001928E-02 0. -1.
</event>
<event>
 5   0  0.1819906E-07  0.4070326E+04  0.7818609E-02  0.7990508E-01
       -2   -1    0    0    0  501  0.00000000000E+00  0.00000000000E+00  0.17640715713E+04  0.17640715713E+04  0.25500000920E-02 0. -1.
        2   -1    0    0  501    0  0.00000000000E+00  0.00000000000E+00 -0.23479136561E+04  0.23479136561E+04  0.25500000920E-02 0.  1.
    10030    2    1    2    0    0  0.00000000000E+00  0.00000000000E+00 -0.58384208480E+03  0.41119852275E+04  0.40703256542E+04 0.  0.
        1    1    3    3  502    0  0.10762722786E+04 -0.14410514091E+04 -0.12539790612E+04  0.21925908572E+04  0.50400001928E-02 0.  1.
       -1    1    3    3    0  502 -0.10762722786E+04  0.14410514091E+04  0.67013697636E+03  0.19193943702E+04  0.50400001928E-02 0. -1.
</event>
<event>
 5   0  0.5515000E-08  0.4042708E+04  0.7818609E-02  0.7995986E-01
       -1   -1    0    0    0  501  0.00000000000E+00  0.00000000000E+00  0.30534267010E+04  0.30534267010E+04  0.50400001928E-02 0. -1.
        1   -1    0    0  501    0  0.00000000000E+00  0.00000000000E+00 -0.13381269080E+04  0.13381269080E+04  0.50400001928E-02 0.  1.
    10030    2    1    2    0    0  0.00000000000E+00  0.00000000000E+00  0.17152997930E+04  0.43915536090E+04  0.40427082161E+04 0.  0.
        4    1    3    3  502    0  0.79873043680E+02 -0.17325581715E+03 -0.13283245162E+04  0.13419556306E+04  0.12699999809E+01 0.  1.
       -4    1    3    3    0  502 -0.79873043680E+02  0.17325581715E+03  0.30436243092E+04  0.30495979783E+04  0.12699999809E+01 0. -1.
</event>
<event>
 5   0  0.1773903E-07  0.3814486E+04  0.7818609E-02  0.8043053E-01
        2   -1    0    0  501    0  0.00000000000E+00  0.00000000000E+00  0.16256539815E+04  0.16256539815E+04  0.25500000920E-02 0. -1.
       -2   -1    0    0    0  501  0.00000000000E+00  0.00000000000E+00 -0.22376074628E+04  0.22376074628E+04  0.25500000920E-02 0.  1.
    10030    2    1    2    0    0  0.00000000000E+00  0.00000000000E+00 -0.61195348133E+03  0.38632614443E+04  0.38144858007E+04 0.  0.
        3    1    3    3  502    0 -0.16812357607E+04 -0.22842102457E+03 -0.11882331336E+04  0.20713830736E+04  0.10100000352E+00 0.  1.
       -3    1    3    3    0  502  0.16812357607E+04  0.22842102457E+03  0.57627965226E+03  0.17918783707E+04  0.10100000352E+00 0. -1.
</event>
<event>
 5   0  0.5515000E-08  0.4014143E+04  0.7818609E-02  0.8001700E-01
        1   -1    0    0  501    0  0.00000000000E+00  0.00000000000E+00  0.14534940119E+04  0.14534940120E+04  0.50400001928E-02 0.  1.
       -1   -1    0    0    0  501  0.00000000000E+00  0.00000000000E+00 -0.27714837962E+04  0.27714837962E+04  0.50400001928E-02 0. -1.
    10030    2    1    2    0    0  0.00000000000E+00  0.00000000000E+00 -0.13179897842E+04  0.42249778081E+04  0.40141425495E+04 0.  0.
        3    1    3    3  502    0  0.28541891148E+03  0.18880914814E+04 -0.13095033036E+04  0.23154162281E+04  0.10100000352E+00 0.  1.
       -3    1    3    3    0  502 -0.28541891148E+03 -0.18880914814E+04 -0.84864806433E+01  0.19095615800E+04  0.10100000352E+00 0. -1.
</event>
<event>
 5   0  0.1819906E-07  0.4057486E+04  0.7818609E-02  0.7993049E-01
       -2   -1    0    0    0  501  0.00000000000E+00  0.00000000000E+00  0.14987093070E+04  0.14987093070E+04  0.25500000920E-02 0. -1.
        2   -1    0    0  501    0  0.00000000000E+00  0.00000000000E+00 -0.27462286209E+04  0.27462286209E+04  0.25500000920E-02 0.  1.
    10030    2    1    2    0    0  0.00000000000E+00  0.00000000000E+00 -0.12475193139E+04  0.42449379279E+04  0.40574861149E+04 0.  0.
        1    1    3    3  502    0  0.53860806061E+02 -0.14769156841E+04 -0.20777946684E+04  0.25497865810E+04  0.50400001928E-02 0. -1.
       -1    1    3    3    0  502 -0.53860806061E+02  0.14769156841E+04  0.83027535451E+03  0.16951513469E+04  0.50400001928E-02 0.  1.
</event>
<event>
 5   0  0.5515000E-08  0.3981705E+04  0.7818609E-02  0.8008247E-01
       -1   -1    0    0    0  501  0.00000000000E+00  0.00000000000E+00  0.15846450045E+04  0.15846450045E+04  0.50400001928E-02 0. -1.
        1   -1    0    0  501    0  0.00000000000E+00  0.00000000000E+00 -0.25011867479E+04  0.25011867479E+04  0.50400001928E-02 0.  1.
    10030    2    1    2    0    0  0.00000000000E+00  0.00000000000E+00 -0.91654174341E+03  0.40858317524E+04  0.39817047030E+04 0.  0.
        4    1    3    3  502    0  0.99705268756E+02 -0.14212137827E+04  0.96867063993E+03  0.17228215747E+04  0.12699999809E+01 0. -1.
       -4    1    3    3    0  502 -0.99705268756E+02  0.14212137827E+04 -0.18852123833E+04  0.23630101777E+04  0.12699999809E+01 0.  1.
</event>
<event>
 5   0  0.1773903E-07  0.4029850E+04  0.7818609E-02  0.7998552E-01
       -2   -1    0    0    0  501  0.00000000000E+00  0.00000000000E+00  0.13582383636E+04  0.13582383636E+04  0.25500000920E-02 0. -1.
        2   -1    0    0  501    0  0.00000000000E+00  0.00000000000E+00 -0.29891086784E+04  0.29891086784E+04  0.25500000920E-02 0.  1.
    10030    2    1    2    0    0  0.00000000000E+00  0.00000000000E+00 -0.16308703148E+04  0.43473470420E+04  0.40298496647E+04 0.  0.
        3    1    3    3  502    0 -0.16572543224E+04  0.11419830976E+04 -0.91949631270E+03  0.22127111795E+04  0.10100000352E+00 0. -1.
       -3    1    3    3    0  502  0.16572543224E+04 -0.11419830976E+04 -0.71137400209E+03  0.21346358625E+04  0.10100000352E+00 0.  1.
</event>
<event>
 5   0  0.5515000E-08  0.3561882E+04  0.7818609E-02  0.8099279E-01
       -1   -1    0    0    0  501  0.00000000000E+00  0.00000000000E+00  0.23705752032E+04  0.23705752032E+04  0.50400001928E-02 0. -1.
        1   -1    0    0  501    0  0.00000000000E+00  0.00000000000E+00 -0.13379671378E+04  0.13379671378E+04  0.50400001928E-02 0.  1.
    10030    2    1    2    0    0  0.00000000000E+00  0.00000000000E+00  0.10326080654E+04  0.37085423409E+04  0.35618824907E+04 0.  0.
        4    1    3    3  502    0  0.13165672082E+04  0.71572980721E+03  0.15182863041E+04  0.21332635291E+04  0.12699999809E+01 0. -1.
       -4    1    3    3    0  502 -0.13165672082E+04 -0.71572980721E+03 -0.48567823870E+03  0.15752788118E+04  0.12699999809E+01 0.  1.
</event>
<event>
 5   0  0.5515000E-08  0.3959964E+04  0.7818609E-02  0.8012672E-01
       -1   -1    0    0    0  501  0.00000000000E+00  0.00000000000E+00  0.28038136591E+04  0.28038136591E+04  0.50400001928E-02 0. -1.
        1   -1    0    0  501    0  0.00000000000E+00  0.00000000000E+00 -0.13982128936E+04  0.13982128936E+04  0.50400001928E-02 0.  1.
    10030    2    1    2    0    0  0.00000000000E+00  0.00000000000E+00  0.14056007654E+04  0.42020265527E+04  0.39599638430E+04 0.  0.
        4    1    3    3  502    0 -0.46313139916E+03  0.46670185809E+03 -0.12789885383E+04  0.14380940898E+04  0.12699999809E+01 0.  1.
       -4    1    3    3    0  502  0.46313139916E+03 -0.46670185809E+03  0.26845893037E+04  0.27639324629E+04  0.12699999809E+01 0. -1.
</event>
<event>
 5   0  0.5515000E-08  0.3969901E+04  0.7818609E-02  0.8010646E-01
        1   -1    0    0  501    0  0.00000000000E+00  0.00000000000E+00  0.22364432190E+04  0.22364432190E+04  0.50400001928E-02 0. -1.
       -1   -1    0    0    0  501  0.00000000000E+00  0.00000000000E+00 -0.17617384646E+04  0.17617384646E+04  0.50400001928E-02 0.  1.
    10030    2    1    2    0    0  0.00000000000E+00  0.00000000000E+00  0.47470475434E+03  0.39981816836E+04  0.39699007760E+04 0.  0.
        5    1    3    3  502    0 -0.14627303048E+04  0.12986033548E+04 -0.10277428365E+03  0.19587075487E+04  0.46999998093E+01 0. -1.
       -5    1    3    3    0  502  0.14627303048E+04 -0.12986033548E+04  0.57747903799E+03  0.20394741350E+04  0.46999998093E+01 0.  1.
</event>
<event>
 5   0  0.1785559E-07  0.4031362E+04  0.7818609E-02  0.7998250E-01
        2   -1    0    0  501    0  0.00000000000E+00  0.00000000000E+00  0.23832436178E+04  0.23832436178E+04  0.25500000920E-02 0.  1.
       -2   -1    0    0    0  501  0.00000000000E+00  0.00000000000E+00 -0.17048067028E+04  0.17048067028E+04  0.25500000920E-02 0. -1.
    10030    2    1    2    0    0  0.00000000000E+00  0.00000000000E+00  0.67843691495E+03  0.40880503206E+04  0.40313619009E+04 0.  0.
        2    1    3    3  502    0  0.15932171747E+04 -0.56503021957E+03 -0.77411320218E+03  0.18592609727E+04  0.25500000920E-02 0. -1.
       -2    1    3    3    0  502 -0.15932171747E+04  0.56503021957E+03  0.14525501171E+04  0.22287893479E+04  0.25500000920E-02 0.  1.
</event>
<event>
 5   0  0.1776653E-07  0.3536394E+04  0.7818609E-02  0.8105219E-01
       -2   -1    0    0    0  501  0.00000000000E+00  0.00000000000E+00  0.19982750910E+04  0.19982750910E+04  0.25500000920E-02 0.  1.
        2   -1    0    0  501    0  0.00000000000E+00  0.00000000000E+00 -0.15646099484E+04  0.15646099484E+04  0.25500000920E-02 0. -1.
    10030    2    1    2    0    0  0.00000000000E+00  0.00000000000E+00  0.43366514258E+03  0.35628850393E+04  0.35363942579E+04 0.  0.
        4    1    3    3  502    0 -0.27588918464E+03 -0.15832506437E+04  0.95973127072E+03  0.18718662260E+04  0.12699999809E+01 0.  1.
       -4    1    3    3    0  502  0.27588918464E+03  0.15832506437E+04 -0.52606612814E+03  0.16910188134E+04  0.12699999809E+01 0. -1.
</event>
<event>
 5   0  0.1821433E-07  0.3965733E+04  0.7818609E-02  0.8011495E-01
       -2   -1    0    0    0  501  0.00000000000E+00  0.00000000000E+00  0.20945628775E+04  0.20945628775E+04  0.25500000920E-02 0. -1.
        2   -1    0    0  501    0  0.00000000000E+00  0.00000000000E+00 -0.18771261825E+04  0.18771261825E+04  0.25500000920E-02 0.  1.
    10030    2    1    2    0    0  0.00000000000E+00  0.00000000000E+00  0.21743669505E+03  0.39716890600E+04  0.39657326275E+04 0.  0.
        5    1    3    3  502    0 -0.16835702510E+04 -0.68931577598E+03  0.89868168583E+03  0.20290923812E+04  0.46999998093E+01 0. -1.
       -5    1    3    3    0  502  0.16835702510E+04  0.68931577598E+03 -0.68124499078E+03  0.19425966788E+04  0.46999998093E+01 0.  1.
</event>
<event>
 5   0  0.5515000E-08  0.4020370E+04  0.7818609E-02  0.8000450E-01
       -1   -1    0    0    0  501  0.00000000000E+00  0.00000000000E+00  0.27419141546E+04  0.27419141546E+04  0.50400001928E-02 0.  1.
        1   -1    0    0  501    0  0.00000000000E+00  0.00000000000E+00 -0.14737313039E+04  0.14737313039E+04  0.50400001928E-02 0. -1.
    10030    2    1    2    0    0  0.00000000000E+00  0.00000000000E+00  0.12681828507E+04  0.42156454585E+04  0.40203704915E+04 0.  0.
        2    1    3    3  502    0  0.87838788707E+03  0.88751720450E+03 -0.10177305886E+04  0.16109089420E+04  0.25500000920E-02 0. -1.
       -2    1    3    3    0  502 -0.87838788707E+03 -0.88751720450E+03  0.22859134393E+04  0.26047365165E+04  0.25500000920E-02 0.  1.
</event>
<event>
 5   0  0.5515000E-08  0.4001952E+04  0.7818609E-02  0.8004153E-01
        1   -1    0    0  501    0  0.00000000000E+00  0.00000000000E+00  0.24319210342E+04  0.24319210343E+04  0.50400001928E-02 0.  1.
       -1   -1    0    0    0  501  0.00000000000E+00  0.00000000000E+00 -0.16463962008E+04  0.16463962008E+04  0.50400001928E-02 0. -1.
    10030    2    1    2    0    0  0.00000000000E+00  0.00000000000E+00  0.78552483345E+03  0.40783172351E+04  0.40019522993E+04 0.  0.
        4    1    3    3  502    0  0.84855704005E+03 -0.16549952559E+04  0.11449840469E+04  0.21840440535E+04  0.12699999809E+01 0.  1.
       -4    1    3    3    0  502 -0.84855704005E+03  0.16549952559E+04 -0.35945921346E+03  0.18942731815E+04  0.12699999809E+01 0. -1.
</event>
<event>
 5   0  0.5515000E-08  0.4002589E+04  0.7818609E-02  0.8004024E-01
       -1   -1    0    0    0  501  0.00000000000E+00  0.00000000000E+00  0.12256209911E+04  0.12256209911E+04  0.50400001928E-02 0. -1.
        1   -1    0    0  501    0  0.00000000000E+00  0.00000000000E+00 -0.32678783590E+04  0.32678783590E+04  0.50400001928E-02 0.  1.
    10030    2    1    2    0    0  0.00000000000E+00  0.00000000000E+00 -0.20422573679E+04  0.44934993502E+04  0.40025893186E+04 0.  0.
        1    1    3    3  502    0  0.85947947721E+03  0.17220102786E+04 -0.16372118884E+04  0.25267542696E+04  0.50400001928E-02 0.  1.
       -1    1    3    3    0  502 -0.85947947721E+03 -0.17220102786E+04 -0.40504547947E+03  0.19667450805E+04  0.50400001928E-02 0. -1.
</event>
<event>
 5   0  0.1773903E-07  0.4004081E+04  0.7818609E-02  0.8003724E-01
        2   -1    0    0  501    0  0.00000000000E+00  0.00000000000E+00  0.27204590512E+04  0.27204590512E+04  0.25500000920E-02 0. -1.
       -2   -1    0    0    0  501  0.00000000000E+00  0.00000000000E+00 -0.14733419060E+04  0.14733419060E+04  0.25500000920E-02 0.  1.
    10030    2    1    2    0    0  0.00000000000E+00  0.00000000000E+00  0.12471171452E+04  0.41938009572E+04  0.40040810800E+04 0.  0.
        3    1    3    3  502    0  0.19262683228E+04 -0.53976310384E+03  0.70677404030E+03  0.21216463923E+04  0.10100000352E+00 0.  1.
       -3    1    3    3    0  502 -0.19262683228E+04  0.53976310384E+03  0.54034310493E+03  0.20721545649E+04  0.10100000352E+00 0. -1.
</event>
<event>
 5   0  0.1819906E-07  0.3989687E+04  0.7818609E-02  0.8006630E-01
       -2   -1    0    0    0  501  0.00000000000E+00  0.00000000000E+00  0.33335419847E+04  0.33335419847E+04  0.25500000920E-02 0.  1.
        2   -1    0    0  501    0  0.00000000000E+00  0.00000000000E+00 -0.11937454158E+04  0.11937454158E+04  0.25500000920E-02 0. -1.
    10030    2    1    2    0    0  0.00000000000E+00  0.00000000000E+00  0.21397965689E+04  0.45272874005E+04  0.39896869364E+04 0.  0.
        1    1    3    3  502    0  0.41453353198E+03 -0.61798334381E+03 -0.10303532535E+04  0.12709717894E+04  0.50400001928E-02 0. -1.
       -1    1    3    3    0  502 -0.41453353198E+03  0.61798334381E+03  0.31701498225E+04  0.32563156111E+04  0.50400001928E-02 0.  1.
</event>
<event>
 5   0  0.1821433E-07  0.3946496E+04  0.7818609E-02  0.8015428E-01
       -2   -1    0    0    0  501  0.00000000000E+00  0.00000000000E+00  0.18761442664E+04  0.18761442664E+04  0.25500000920E-02 0.  1.
        2   -1    0    0  501    0  0.00000000000E+00  0.00000000000E+00 -0.20753775156E+04  0.20753775156E+04  0.25500000920E-02 0. -1.
    10030    2    1    2    0    0  0.00000000000E+00  0.00000000000E+00 -0.19923324923E+03  0.39515217821E+04  0.39464959783E+04 0.  0.
        5    1    3    3  502    0 -0.15828690325E+04 -0.11412304081E+04  0.19368015093E+03  0.19609730516E+04  0.46999998093E+01 0. -1.
       -5    1    3    3    0  502  0.15828690325E+04  0.11412304081E+04 -0.39291340016E+03  0.19905487305E+04  0.46999998093E+01 0.  1.
</event>
<event>
 5   0  0.5515000E-08  0.3986849E+04  0.7818609E-02  0.8007205E-01
       -1   -1    0    0    0  501  0.00000000000E+00  0.00000000000E+00  0.14344972151E+04  0.14344972151E+04  0.50400001928E-02 0.  1.
        1   -1    0    0  501    0  0.00000000000E+00  0.00000000000E+00 -0.27701278492E+04  0.27701278492E+04  0.50400001928E-02 0. -1.
    10030    2    1    2    0    0  0.00000000000E+00  0.00000000000E+00 -0.13356306340E+04  0.42046250643E+04  0.39868487231E+04 0.  0.
        5    1    3    3  502    0 -0.13953829381E+04 -0.29955953426E+03  0.79992728290E+03  0.16360731055E+04  0.46999998093E+01 0.  1.
       -5    1    3    3    0  502  0.13953829381E+04  0.29955953426E+03 -0.21355579169E+04  0.25685519588E+04  0.46999998093E+01 0. -1.
</event>
<event>
 5   0  0.1785559E-07  0.3835578E+04  0.7818609E-02  0.8038563E-01
       -2   -1    0    0    0  501  0.00000000000E+00  0.00000000000E+00  0.16059914811E+04  0.16059914811E+04  0.25500000920E-02 0. -1.
        2   -1    0    0  501    0  0.00000000000E+00  0.00000000000E+00 -0.22901207234E+04  0.22901207234E+04  0.25500000920E-02 0.  1.
    10030    2    1    2    0    0  0.00000000000E+00  0.00000000000E+00 -0.68412924229E+03  0.38961122045E+04  0.38355778560E+04 0.  0.
        2    1    3    3  502    0  0.88300002230E+03  0.12448360788E+04 -0.15216886065E+04  0.21551895781E+04  0.25500000920E-02 0.  1.
       -2    1    3    3    0  502 -0.88300002230E+03 -0.12448360788E+04  0.83755936425E+03  0.17409226264E+04  0.25500000920E-02 0. -1.
</event>
<event>
 5   0  0.5515000E-08  0.4030298E+04  0.7818609E-02  0.7998462E-01
        1   -1    0    0  501    0  0.00000000000E+00  0.00000000000E+00  0.32236511425E+04  0.32236511425E+04  0.50400001928E-02 0.  1.
       -1   -1    0    0    0  501  0.00000000000E+00  0.00000000000E+00 -0.12596975925E+04  0.12596975925E+04  0.50400001928E-02 0. -1.
    10030    2    1    2    0    0  0.00000000000E+00  0.00000000000E+00  0.19639535500E+04  0.44833487351E+04  0.40302980453E+04 0.  0.
        1    1    3    3  502    0 -0.15104747771E+04 -0.61642124266E+03 -0.33392452824E+03  0.16652371576E+04  0.50400001928E-02 0. -1.
       -1    1    3    3    0  502  0.15104747771E+04  0.61642124266E+03  0.22978780782E+04  0.28181115775E+04  0.50400001928E-02 0.  1.
</event>
<event>
 5   0  0.1773903E-07  0.3980324E+04  0.7818609E-02  0.8008528E-01
        2   -1    0    0  501    0  0.00000000000E+00  0.00000000000E+00  0.25069136146E+04  0.25069136146E+04  0.25500000920E-02 0. -1.
       -2   -1    0    0    0  501  0.00000000000E+00  0.00000000000E+00 -0.15799288853E+04  0.15799288853E+04  0.25500000920E-02 0.  1.
    10030    2    1    2    0    0  0.00000000000E+00  0.00000000000E+00  0.92698472932E+03  0.40868424999E+04  0.39803242243E+04 0.  0.
        3    1    3    3  502    0 -0.12883594794E+04 -0.78239175051E+03 -0.87079882378E+03  0.17407750001E+04  0.10100000352E+00 0.  1.
       -3    1    3    3    0  502  0.12883594794E+04  0.78239175051E+03  0.17977835531E+04  0.23460674998E+04  0.10100000352E+00 0. -1.
</event>
<event>
 5   0  0.1785559E-07  0.3981962E+04  0.7818609E-02  0.8008195E-01
       -2   -1    0    0    0  501  0.00000000000E+00  0.00000000000E+00  0.19974298084E+04  0.19974298084E+04  0.25500000920E-02 0. -1.
        2   -1    0    0  501    0  0.00000000000E+00  0.00000000000E+00 -0.19845529153E+04  0.19845529153E+04  0.25500000920E-02 0.  1.
    10030    2    1    2    0    0  0.00000000000E+00  0.00000000000E+00  0.12876893050E+02  0.39819827237E+04  0.39819619031E+04 0.  0.
        2    1    3    3  502    0  0.29965005400E+03 -0.14756719011E+04  0.13089840992E+04  0.19952035200E+04  0.25500000920E-02 0. -1.
       -2    1    3    3    0  502 -0.29965005400E+03  0.14756719011E+04 -0.12961072061E+04  0.19867792037E+04  0.25500000920E-02 0.  1.
</event>
<event>
 5   0  0.5515000E-08  0.4089774E+04  0.7818609E-02  0.7986677E-01
       -1   -1    0    0    0  501  0.00000000000E+00  0.00000000000E+00  0.17641962324E+04  0.17641962324E+04  0.50400001928E-02 0. -1.
        1   -1    0    0  501    0  0.00000000000E+00  0.00000000000E+00 -0.23702366518E+04  0.23702366518E+04  0.50400001928E-02 0.  1.
    10030    2    1    2    0    0  0.00000000000E+00  0.00000000000E+00 -0.60604041945E+03  0.41344328842E+04  0.40897738671E+04 0.  0.
        3    1    3    3  502    0 -0.18229379977E+04 -0.85442835314E+03 -0.66527916383E+03  0.21203176956E+04  0.10100000352E+00 0.  1.
       -3    1    3    3    0  502  0.18229379977E+04  0.85442835314E+03  0.59238744382E+02  0.20141151886E+04  0.10100000352E+00 0. -1.
</event>
<event>
 5   0  0.1821433E-07  0.4011509E+04  0.7818609E-02  0.8002229E-01
        2   -1    0    0  501    0  0.00000000000E+00  0.00000000000E+00  0.31909766686E+04  0.31909766686E+04  0.25500000920E-02 0.  1.
       -2   -1    0    0    0  501  0.00000000000E+00  0.00000000000E+00 -0.12607584194E+04  0.12607584194E+04  0.25500000920E-02 0. -1.
    10030    2    1    2    0    0  0.00000000000E+00  0.00000000000E+00  0.19302182492E+04  0.44517350880E+04  0.40115087940E+04 0.  0.
        5    1    3    3  502    0  0.18985867923E+04  0.63759321433E+03  0.84419474589E+03  0.21734405384E+04  0.46999998093E+01 0.  1.
       -5    1    3    3    0  502 -0.18985867923E+04 -0.63759321433E+03  0.10860235033E+04  0.22782945496E+04  0.46999998093E+01 0. -1.
</event>
<event>
 5   0  0.1785559E-07  0.3978263E+04  0.7818609E-02  0.8008946E-01
        2   -1    0    0  501    0  0.00000000000E+00  0.00000000000E+00  0.26738227680E+04  0.26738227680E+04  0.25500000920E-02 0. -1.
       -2   -1    0    0    0  501  0.00000000000E+00  0.00000000000E+00 -0.14797708344E+04  0.14797708344E+04  0.25500000920E-02 0.  1.
    10030    2    1    2    0    0  0.00000000000E+00  0.00000000000E+00  0.11940519336E+04  0.41535936024E+04  0.39782634143E+04 0.  0.
        2    1    3    3  502    0  0.10723818518E+04 -0.21251265421E+03  0.23320338611E+04  0.25755671984E+04  0.25500000920E-02 0. -1.
       -2    1    3    3    0  502 -0.10723818518E+04  0.21251265421E+03 -0.11379819275E+04  0.15780264040E+04  0.25500000920E-02 0.  1.
</event>
<event>
 5   0  0.1821433E-07  0.4022366E+04  0.7818609E-02  0.8000050E-01
       -2   -1    0    0    0  501  0.00000000000E+00  0.00000000000E+00  0.15457468534E+04  0.15457468534E+04  0.25500000920E-02 0.  1.
        2   -1    0    0  501    0  0.00000000000E+00  0.00000000000E+00 -0.26167656241E+04  0.26167656241E+04  0.25500000920E-02 0. -1.
    10030    2    1    2    0    0  0.00000000000E+00  0.00000000000E+00 -0.10710187707E+04  0.41625124775E+04  0.40223660846E+04 0.  0.
        5    1    3    3  502    0  0.76902246033E+03  0.16688279162E+04  0.31056663507E+03  0.18635600026E+04  0.46999998093E+01 0. -1.
       -5    1    3    3    0  502 -0.76902246033E+03 -0.16688279162E+04 -0.13815854057E+04  0.22989524749E+04  0.46999998093E+01 0.  1.
</event>
<event>
 5   0  0.5515000E-08  0.3997314E+04  0.7818609E-02  0.8005089E-01
        1   -1    0    0  501    0  0.00000000000E+00  0.00000000000E+00  0.14168006259E+04  0.14168006259E+04  0.50400001928E-02 0. -1.
       -1   -1    0    0    0  501  0.00000000000E+00  0.00000000000E+00 -0.28194721300E+04  0.28194721300E+04  0.50400001928E-02 0.  1.
    10030    2    1    2    0    0  0.00000000000E+00  0.00000000000E+00 -0.14026715041E+04  0.42362727559E+04  0.39973140374E+04 0.  0.
        1    1    3    3  502    0  0.19984411923E+04 -0.71663146034E+01 -0.67114926111E+03  0.21081413344E+04  0.50400001928E-02 0. -1.
       -1    1    3    3    0  502 -0.19984411923E+04  0.71663146034E+01 -0.73152224301E+03  0.21281314215E+04  0.50400001928E-02 0.  1.
</event>
<event>
 5   0  0.1776653E-07  0.3971987E+04  0.7818609E-02  0.8010222E-01
       -2   -1    0    0    0  501  0.00000000000E+00  0.00000000000E+00  0.12742633046E+04  0.12742633046E+04  0.25500000920E-02 0.  1.
        2   -1    0    0  501    0  0.00000000000E+00  0.00000000000E+00 -0.30952548326E+04  0.30952548326E+04  0.25500000920E-02 0. -1.
    10030    2    1    2    0    0  0.00000000000E+00  0.00000000000E+00 -0.18209915280E+04  0.43695181371E+04  0.39719867328E+04 0.  0.
        4    1    3    3  502    0  0.19196201521E+04  0.32784278734E+03 -0.13390283339E+04  0.23633495114E+04  0.12699999809E+01 0.  1.
       -4    1    3    3    0  502 -0.19196201521E+04 -0.32784278734E+03 -0.48196319414E+03  0.20061686257E+04  0.12699999809E+01 0. -1.
</event>
<event>
 5   0  0.1773903E-07  0.3776998E+04  0.7818609E-02  0.8051109E-01
       -2   -1    0    0    0  501  0.00000000000E+00  0.00000000000E+00  0.23355047551E+04  0.23355047551E+04  0.25500000920E-02 0. -1.
        2   -1    0    0  501    0  0.00000000000E+00  0.00000000000E+00 -0.15270481925E+04  0.15270481925E+04  0.25500000920E-02 0.  1.
    10030    2    1    2    0    0  0.00000000000E+00  0.00000000000E+00  0.80845656264E+03  0.38625529476E+04  0.37769979163E+04 0.  0.
        3    1    3    3  502    0  0.18971772969E+03 -0.17729536834E+03  0.23171613990E+04  0.23316653756E+04  0.10100000352E+00 0. -1.
       -3    1    3    3    0  502 -0.18971772969E+03  0.17729536834E+03 -0.15087048364E+04  0.15308875720E+04  0.10100000352E+00 0.  1.
</event>
<event>
 5   0  0.5515000E-08  0.4048580E+04  0.7818609E-02  0.7994817E-01
       -4   -1    0    0    0  501  0.00000000000E+00  0.00000000000E+00  0.16231226268E+04  0.16231231237E+04  0.12699999809E+01 0.  1.
        4   -1    0    0  501    0  0.00000000000E+00  0.00000000000E+00 -0.25246081429E+04  0.25246084623E+04  0.12699999809E+01 0. -1.
    10030    2    1    2    0    0  0.00000000000E+00  0.00000000000E+00 -0.90148551604E+03  0.41477315860E+04  0.40485801429E+04 0.  0.
        5    1    3    3  502    0  0.13419789594E+04  0.41500447774E+03 -0.19440379611E+04  0.23984248848E+04  0.46999998093E+01 0. -1.
       -5    1    3    3    0  502 -0.13419789594E+04 -0.41500447774E+03  0.10425524451E+04  0.17493067011E+04  0.46999998093E+01 0.  1.
</event>
<event>
 5   0  0.1773903E-07  0.4037873E+04  0.7818609E-02  0.7996950E-01
       -2   -1    0    0    0  501  0.00000000000E+00  0.00000000000E+00  0.22411985361E+04  0.22411985361E+04  0.25500000920E-02 0.  1.
        2   -1    0    0  501    0  0.00000000000E+00  0.00000000000E+00 -0.18187168480E+04  0.18187168480E+04  0.25500000920E-02 0. -1.
    10030    2    1    2    0    0  0.00000000000E+00  0.00000000000E+00  0.42248168805E+03  0.40599153841E+04  0.40378734687E+04 0.  0.
        3    1    3    3  502    0  0.92718165950E+03  0.17343795399E+03 -0.15835408335E+04  0.18431896634E+04  0.10100000352E+00 0. -1.
       -3    1    3    3    0  502 -0.92718165950E+03 -0.17343795399E+03  0.20060225216E+04  0.22167257207E+04  0.10100000352E+00 0.  1.
</event>
<event>
 5   0  0.5515000E-08  0.3954554E+04  0.7818609E-02  0.8013778E-01
       -1   -1    0    0    0  501  0.00000000000E+00  0.00000000000E+00  0.23909260285E+04  0.23909260285E+04  0.50400001928E-02 0. -1.
        1   -1    0    0  501    0  0.00000000000E+00  0.00000000000E+00 -0.16351925864E+04  0.16351925864E+04  0.50400001928E-02 0.  1.
    10030    2    1    2    0    0  0.00000000000E+00  0.00000000000E+00  0.75573344212E+03  0.40261186148E+04  0.39545540918E+04 0.  0.
        3    1    3    3  502    0 -0.10180484045E+04  0.11781371799E+04 -0.86287317188E+03  0.17801628829E+04  0.10100000352E+00 0.  1.
       -3    1    3    3    0  502  0.10180484045E+04 -0.11781371799E+04  0.16186066140E+04  0.22459557319E+04  0.10100000352E+00 0. -1.
</event>
<event>
 5   0  0.5515000E-08  0.4095550E+04  0.7818609E-02  0.7985544E-01
       -1   -1    0    0    0  501  0.00000000000E+00  0.00000000000E+00  0.28691466974E+04  0.28691466974E+04  0.50400001928E-02 0.  1.
        1   -1    0    0  501    0  0.00000000000E+00  0.00000000000E+00 -0.14615435956E+04  0.14615435956E+04  0.50400001928E-02 0. -1.
    10030    2    1    2    0    0  0.00000000000E+00  0.00000000000E+00  0.14076031017E+04  0.43306902930E+04  0.40955502588E+04 0.  0.
        5    1    3    3  502    0  0.27689306152E+03  0.21483989151E+03 -0.14295901947E+04  0.14719294010E+04  0.46999998093E+01 0. -1.
       -5    1    3    3    0  502 -0.27689306152E+03 -0.21483989151E+03  0.28371932964E+04  0.28587608921E+04  0.46999998093E+01 0.  1.
</event>
<event>
 5   0  0.1776653E-07  0.4008440E+04  0.7818609E-02  0.8002846E-01
        2   -1    0    0  501    0  0.00000000000E+00  0.00000000000E+00  0.16059063507E+04  0.16059063507E+04  0.25500000920E-02 0.  1.
       -2   -1    0    0    0  501  0.00000000000E+00  0.00000000000E+00 -0.25013274706E+04  0.25013274706E+04  0.25500000920E-02 0. -1.
    10030    2    1    2    0    0  0.00000000000E+00  0.00000000000E+00 -0.89542111990E+03  0.41072338213E+04  0.40084399310E+04 0.  0.
        4    1    3    3  502    0  0.11496866475E+04 -0.65910337858E+03  0.10929091790E+04  0.17177452481E+04  0.12699999809E+01 0.  1.
       -4    1    3    3    0  502 -0.11496866475E+04  0.65910337858E+03 -0.19883302989E+04  0.23894885732E+04  0.12699999809E+01 0. -1.
</event>
<event>
 5   0  0.5515000E-08  0.4038575E+04  0.7818609E-02  0.7996810E-01
       -1   -1    0    0    0  501  0.00000000000E+00  0.00000000000E+00  0.17107076210E+04  0.17107076210E+04  0.50400001928E-02 0. -1.
        1   -1    0    0  501    0  0.00000000000E+00  0.00000000000E+00 -0.23835292638E+04  0.23835292638E+04  0.50400001928E-02 0.  1.
    10030    2    1    2    0    0  0.00000000000E+00  0.00000000000E+00 -0.67282164280E+03  0.40942368848E+04  0.40385748360E+04 0.  0.
        5    1    3    3  502    0 -0.36358859245E+03 -0.16709355842E+04  0.75229785457E+03  0.18682067720E+04  0.46999998093E+01 0. -1.
       -5    1    3    3    0  502  0.36358859245E+03  0.16709355842E+04 -0.14251194974E+04  0.22260301127E+04  0.46999998093E+01 0.  1.
</event>
<event>
 5   0  0.5515000E-08  0.3289563E+04  0.7818609E-02  0.8165556E-01
        1   -1    0    0  501    0  0.00000000000E+00  0.00000000000E+00  0.19579060431E+04  0.19579060431E+04  0.50400001928E-02 0.  1.
       -1   -1    0    0    0  501  0.00000000000E+00  0.00000000000E+00 -0.13817340717E+04  0.13817340717E+04  0.50400001928E-02 0. -1.
    10030    2    1    2    0    0  0.00000000000E+00  0.00000000000E+00  0.57617197141E+03  0.33396401148E+04  0.32895625781E+04 0.  0.
        5    1    3    3  502    0  0.58688159472E+03  0.52474805287E+03  0.17541936754E+04  0.19227605326E+04  0.46999998093E+01 0.  1.
       -5    1    3    3    0  502 -0.58688159472E+03 -0.52474805287E+03 -0.11780217040E+04  0.14168795821E+04  0.46999998093E+01 0. -1.
</event>
<event>
 5   0  0.5515000E-08  0.3974458E+04  0.7818609E-02  0.8009719E-01
       -1   -1    0    0    0  501  0.00000000000E+00  0.00000000000E+00  0.19414539239E+04  0.19414539239E+04  0.50400001928E-02 0.  1.
        1   -1    0    0  501    0  0.00000000000E+00  0.00000000000E+00 -0.20340830439E+04  0.20340830439E+04  0.50400001928E-02 0. -1.
    10030    2    1    2    0    0  0.00000000000E+00  0.00000000000E+00 -0.92629119932E+02  0.39755369678E+04  0.39744577024E+04 0.  0.
        3    1    3    3  502    0  0.10172553342E+04  0.16886165495E+04  0.20444103040E+03  0.19819259349E+04  0.10100000352E+00 0.  1.
       -3    1    3    3    0  502 -0.10172553342E+04 -0.16886165495E+04 -0.29707015033E+03  0.19936110329E+04  0.10100000352E+00 0. -1.
</event>
<event>
 5   0  0.1819906E-07  0.3762894E+04  0.7818609E-02  0.8054165E-01
        2   -1    0    0  501    0  0.00000000000E+00  0.00000000000E+00  0.16952397143E+04  0.16952397143E+04  0.25500000920E-02 0. -1.
       -2   -1    0    0    0  501  0.00000000000E+00  0.00000000000E+00 -0.20881071274E+04  0.20881071274E+04  0.25500000920E-02 0.  1.
    10030    2    1    2    0    0  0.00000000000E+00  0.00000000000E+00 -0.39286741315E+03  0.37833468417E+04  0.37628936366E+04 0.  0.
        1    1    3    3  502    0  0.17384561629E+04 -0.25557602203E+02 -0.91934050813E+03  0.19667409568E+04  0.50400001928E-02 0.  1.
       -1    1    3    3    0  502 -0.17384561629E+04  0.25557602203E+02  0.52647309497E+03  0.18166058849E+04  0.50400001928E-02 0. -1.
</event>
<event>
 5   0  0.5515000E-08  0.3952433E+04  0.7818609E-02  0.8014212E-01
       -1   -1    0    0    0  501  0.00000000000E+00  0.00000000000E+00  0.13884339477E+04  0.13884339477E+04  0.50400001928E-02 0.  1.
        1   -1    0    0  501    0  0.00000000000E+00  0.00000000000E+00 -0.28128318350E+04  0.28128318350E+04  0.50400001928E-02 0. -1.
    10030    2    1    2    0    0  0.00000000000E+00  0.00000000000E+00 -0.14243978872E+04  0.42012657827E+04  0.39524327744E+04 0.  0.
        2    1    3    3  502    0 -0.68451550539E+03 -0.43243669963E+03 -0.26284329426E+04  0.27503132022E+04  0.25500000920E-02 0. -1.
       -2    1    3    3    0  502  0.68451550539E+03  0.43243669963E+03  0.12040350554E+04  0.14509525805E+04  0.25500000920E-02 0.  1.
</event>
<event>
 5   0  0.5515000E-08  0.3971604E+04  0.7818609E-02  0.8010300E-01
        1   -1    0    0  501    0  0.00000000000E+00  0.00000000000E+00  0.26997211636E+04  0.26997211636E+04  0.50400001928E-02 0.  1.
       -1   -1    0    0    0  501  0.00000000000E+00  0.00000000000E+00 -0.14606725677E+04  0.14606725677E+04  0.50400001928E-02 0. -1.
    10030    2    1    2    0    0  0.00000000000E+00  0.00000000000E+00  0.12390485958E+04  0.41603937313E+04  0.39716035271E+04 0.  0.
        5    1    3    3  502    0  0.12618364722E+04 -0.98545708907E+03 -0.61106390090E+03  0.17137030484E+04  0.46999998093E+01 0. -1.
       -5    1    3    3    0  502 -0.12618364722E+04  0.98545708907E+03  0.18501124968E+04  0.24466906829E+04  0.46999998093E+01 0.  1.
</event>
<event>
 5   0  0.5515000E-08  0.4080416E+04  0.7818609E-02  0.7988518E-01
       -1   -1    0    0    0  501  0.00000000000E+00  0.00000000000E+00  0.30290306835E+04  0.30290306836E+04  0.50400001928E-02 0.  1.
        1   -1    0    0  501    0  0.00000000000E+00  0.00000000000E+00 -0.13741849078E+04  0.13741849078E+04  0.50400001928E-02 0. -1.
    10030    2    1    2    0    0  0.00000000000E+00  0.00000000000E+00  0.16548457758E+04  0.44032155913E+04  0.40804157879E+04 0.  0.
        2    1    3    3  502    0  0.10050607594E+04  0.15614715419E+04 -0.84477503721E+02  0.18588913241E+04  0.25500000920E-02 0. -1.
       -2    1    3    3    0  502 -0.10050607594E+04 -0.15614715419E+04  0.17393232795E+04  0.25443242672E+04  0.25500000920E-02 0.  1.
</event>
<event>
 5   0  0.5515000E-08  0.4058894E+04  0.7818609E-02  0.7992770E-01
       -1   -1    0    0    0  501  0.00000000000E+00  0.00000000000E+00  0.32016298048E+04  0.32016298048E+04  0.50400001928E-02 0. -1.
        1   -1    0    0  501    0  0.00000000000E+00  0.00000000000E+00 -0.12864244829E+04  0.12864244830E+04  0.50400001928E-02 0.  1.
    10030    2    1    2    0    0  0.00000000000E+00  0.00000000000E+00  0.19152053219E+04  0.44880542878E+04  0.40588939214E+04 0.  0.
        3    1    3    3  502    0  0.63846423299E+02  0.79484392397E+03 -0.11059462914E+04  0.13634406621E+04  0.10100000352E+00 0.  1.
       -3    1    3    3    0  502 -0.63846423299E+02 -0.79484392397E+03  0.30211516133E+04  0.31246136257E+04  0.10100000352E+00 0. -1.
</event>
<event>
 5   0  0.1821433E-07  0.3969942E+04  0.7818609E-02  0.8010638E-01
       -2   -1    0    0    0  501  0.00000000000E+00  0.00000000000E+00  0.25021768997E+04  0.25021768997E+04  0.25500000920E-02 0.  1.
        2   -1    0    0  501    0  0.00000000000E+00  0.00000000000E+00 -0.15746729670E+04  0.15746729670E+04  0.25500000920E-02 0. -1.
    10030    2    1    2    0    0  0.00000000000E+00  0.00000000000E+00  0.92750393268E+03  0.40768498666E+04  0.39699422275E+04 0.  0.
        5    1    3    3  502    0  0.16179954887E+04  0.91950899234E+03  0.11727661581E+04  0.21997292425E+04  0.46999998093E+01 0.  1.
       -5    1    3    3    0  502 -0.16179954887E+04 -0.91950899234E+03 -0.24526222545E+03  0.18771206242E+04  0.46999998093E+01 0. -1.
</event>
<event>
 5   0  0.1819906E-07  0.4049273E+04  0.7818609E-02  0.7994680E-01
       -2   -1    0    0    0  501  0.00000000000E+00  0.00000000000E+00  0.24098585035E+04  0.24098585035E+04  0.25500000920E-02 0. -1.
        2   -1    0    0  501    0  0.00000000000E+00  0.00000000000E+00 -0.17009931200E+04  0.17009931200E+04  0.25500000920E-02 0.  1.
    10030    2    1    2    0    0  0.00000000000E+00  0.00000000000E+00  0.70886538349E+03  0.41108516235E+04  0.40492728901E+04 0.  0.
        1    1    3    3  502    0  0.15109885875E+04 -0.84926242944E+02  0.17198219563E+04  0.22908702581E+04  0.50400001928E-02 0. -1.
       -1    1    3    3    0  502 -0.15109885875E+04  0.84926242944E+02 -0.10109565728E+04  0.18199813654E+04  0.50400001928E-02 0.  1.
</event>
<event>
 5   0  0.5515000E-08  0.3971673E+04  0.7818609E-02  0.8010285E-01
       -1   -1    0    0    0  501  0.00000000000E+00  0.00000000000E+00  0.17092934844E+04  0.17092934844E+04  0.50400001928E-02 0.  1.
        1   -1    0    0  501    0  0.00000000000E+00  0.00000000000E+00 -0.23071209128E+04  0.23071209128E+04  0.50400001928E-02 0. -1.
    10030    2    1    2    0    0  0.00000000000E+00  0.00000000000E+00 -0.59782742838E+03  0.40164143972E+04  0.39716730701E+04 0.  0.
        1    1    3    3  502    0 -0.60070718980E+02 -0.80188072695E+02  0.17067358285E+04  0.17096741814E+04  0.50400001928E-02 0.  1.
       -1    1    3    3    0  502  0.60070718980E+02  0.80188072695E+02 -0.23045632569E+04  0.23067402158E+04  0.50400001928E-02 0. -1.
</event>
<event>
 5   0  0.1785559E-07  0.3977965E+04  0.7818609E-02  0.8009006E-01
        2   -1    0    0  501    0  0.00000000000E+00  0.00000000000E+00  0.25232787874E+04  0.25232787874E+04  0.25500000920E-02 0.  1.
       -2   -1    0    0    0  501  0.00000000000E+00  0.00000000000E+00 -0.15678221108E+04  0.15678221108E+04  0.25500000920E-02 0. -1.
    10030    2    1    2    0    0  0.00000000000E+00  0.00000000000E+00  0.95545667664E+03  0.40911008982E+04  0.39779654470E+04 0.  0.
        2    1    3    3  502    0  0.78827020084E+03  0.61886766740E+03 -0.12891807358E+04  0.16328974459E+04  0.25500000920E-02 0. -1.
       -2    1    3    3    0  502 -0.78827020084E+03 -0.61886766740E+03  0.22446374124E+04  0.24582034522E+04  0.25500000920E-02 0.  1.
</event>
<event>
 5   0  0.1821433E-07  0.3964662E+04  0.7818609E-02  0.8011714E-01
       -2   -1    0    0    0  501  0.00000000000E+00  0.00000000000E+00  0.23108550018E+04  0.23108550018E+04  0.25500000920E-02 0. -1.
        2   -1    0    0  501    0  0.00000000000E+00  0.00000000000E+00 -0.17005116470E+04  0.17005116470E+04  0.25500000920E-02 0.  1.
    10030    2    1    2    0    0  0.00000000000E+00  0.00000000000E+00  0.61034335476E+03  0.40113666487E+04  0.39646618242E+04 0.  0.
        5    1    3    3  502    0  0.16439599255E+04 -0.25662324988E+03 -0.78509095293E+03  0.18397960820E+04  0.46999998093E+01 0. -1.
       -5    1    3    3    0  502 -0.16439599255E+04  0.25662324988E+03  0.13954343077E+04  0.21715705667E+04  0.46999998093E+01 0.  1.
</event>
<event>
 5   0  0.5515000E-08  0.3935328E+04  0.7818609E-02  0.8017722E-01
        1   -1    0    0  501    0  0.00000000000E+00  0.00000000000E+00  0.11485703411E+04  0.11485703411E+04  0.50400001928E-02 0.  1.
       -1   -1    0    0    0  501  0.00000000000E+00  0.00000000000E+00 -0.33708872176E+04  0.33708872176E+04  0.50400001928E-02 0. -1.
    10030    2    1    2    0    0  0.00000000000E+00  0.00000000000E+00 -0.22223168765E+04  0.45194575587E+04  0.39353277278E+04 0.  0.
        2    1    3    3  502    0 -0.57713681466E+03 -0.50297848122E+03 -0.31928410984E+04  0.32833380172E+04  0.25500000920E-02 0. -1.
       -2    1    3    3    0  502  0.57713681466E+03  0.50297848122E+03  0.97052422195E+03  0.12361195415E+04  0.25500000920E-02 0.  1.
</event>
<event>
 5   0  0.1785559E-07  0.4057516E+04  0.7818609E-02  0.7993043E-01
       -2   -1    0    0    0  501  0.00000000000E+00  0.00000000000E+00  0.13385915279E+04  0.13385915279E+04  0.25500000920E-02 0.  1.
        2   -1    0    0  501    0  0.00000000000E+00  0.00000000000E+00 -0.30747688343E+04  0.30747688343E+04  0.25500000920E-02 0. -1.
    10030    2    1    2    0    0  0.00000000000E+00  0.00000000000E+00 -0.17361773064E+04  0.44133603622E+04  0.40575162412E+04 0.  0.
        2    1    3    3  502    0 -0.13785064944E+04  0.14581564393E+04 -0.54294247699E+03  0.20787705236E+04  0.25500000920E-02 0.  1.
       -2    1    3    3    0  502  0.13785064944E+04 -0.14581564393E+04 -0.11932348294E+04  0.23345898386E+04  0.25500000920E-02 0. -1.
</event>
<event>
 5   0  0.1773903E-07  0.4020018E+04  0.7818609E-02  0.8000520E-01
        2   -1    0    0  501    0  0.00000000000E+00  0.00000000000E+00  0.22950323325E+04  0.22950323325E+04  0.25500000920E-02 0.  1.
       -2   -1    0    0    0  501  0.00000000000E+00  0.00000000000E+00 -0.17603828151E+04  0.17603828151E+04  0.25500000920E-02 0. -1.
    10030    2    1    2    0    0  0.00000000000E+00  0.00000000000E+00  0.53464951743E+03  0.40554151476E+04  0.40200176508E+04 0.  0.
        3    1    3    3  502    0 -0.19404025573E+04  0.35162809565E+03 -0.12511355819E+03  0.19759700946E+04  0.10100000352E+00 0.  1.
       -3    1    3    3    0  502  0.19404025573E+04 -0.35162809565E+03  0.65976307562E+03  0.20794450530E+04  0.10100000352E+00 0. -1.
</event>
<event>
 5   0  0.5515000E-08  0.3993877E+04  0.7818609E-02  0.8005783E-01
       -1   -1    0    0    0  501  0.00000000000E+00  0.00000000000E+00  0.21298981679E+04  0.21298981679E+04  0.50400001928E-02 0.  1.
        1   -1    0    0  501    0  0.00000000000E+00  0.00000000000E+00 -0.18722792541E+04  0.18722792541E+04  0.50400001928E-02 0. -1.
    10030    2    1    2    0    0  0.00000000000E+00  0.00000000000E+00  0.25761891373E+03  0.40021774220E+04  0.39938773908E+04 0.  0.
        5    1    3    3  502    0  0.88187834915E+03  0.81177589485E+03 -0.14717112997E+04  0.18980636886E+04  0.46999998093E+01 0. -1.
       -5    1    3    3    0  502 -0.88187834915E+03 -0.81177589485E+03  0.17293302135E+04  0.21041137335E+04  0.46999998093E+01 0.  1.
</event>
<event>
 5   0  0.1819906E-07  0.3946048E+04  0.7818609E-02  0.8015520E-01
        2   -1    0    0  501    0  0.00000000000E+00  0.00000000000E+00  0.18893510107E+04  0.18893510107E+04  0.25500000920E-02 0. -1.
       -2   -1    0    0    0  501  0.00000000000E+00  0.00000000000E+00 -0.20604026788E+04  0.20604026788E+04  0.25500000920E-02 0.  1.
    10030    2    1    2    0    0  0.00000000000E+00  0.00000000000E+00 -0.17105166806E+03  0.39497536895E+04  0.39460480907E+04 0.  0.
        1    1    3    3  502    0 -0.49036872226E+03 -0.59189803095E+03 -0.19043781257E+04  0.20536457359E+04  0.50400001928E-02 0.  1.
       -1    1    3    3    0  502  0.49036872226E+03  0.59189803095E+03  0.17333264576E+04  0.18961079536E+04  0.50400001928E-02 0. -1.
</event>
<event>
 5   0  0.5515000E-08  0.3966742E+04  0.7818609E-02  0.8011289E-01
       -1   -1    0    0    0  501  0.00000000000E+00  0.00000000000E+00  0.15915513417E+04  0.15915513417E+04  0.50400001928E-02 0.  1.
        1   -1    0    0  501    0  0.00000000000E+00  0.00000000000E+00 -0.24716520736E+04  0.24716520736E+04  0.50400001928E-02 0. -1.
    10030    2    1    2    0    0  0.00000000000E+00  0.00000000000E+00 -0.88010073191E+03  0.40632034153E+04  0.39667423279E+04 0.  0.
        4    1    3    3  502    0  0.11155090844E+04 -0.98112799149E+03 -0.17860779132E+04  0.23231548760E+04  0.12699999809E+01 0. -1.
       -4    1    3    3    0  502 -0.11155090844E+04  0.98112799149E+03  0.90597718133E+03  0.17400485393E+04  0.12699999809E+01 0.  1.
</event>
<event>
 5   0  0.5515000E-08  0.4148078E+04  0.7818609E-02  0.7975323E-01
       -1   -1    0    0    0  501  0.00000000000E+00  0.00000000000E+00  0.14943448935E+04  0.14943448935E+04  0.50400001928E-02 0.  1.
        1   -1    0    0  501    0  0.00000000000E+00  0.00000000000E+00 -0.28786113702E+04  0.28786113702E+04  0.50400001928E-02 0. -1.
    10030    2    1    2    0    0  0.00000000000E+00  0.00000000000E+00 -0.13842664768E+04  0.43729562637E+04  0.41480782063E+04 0.  0.
        2    1    3    3  502    0 -0.71567088477E+03 -0.18550467642E+03 -0.27349789289E+04  0.28331442854E+04  0.25500000920E-02 0. -1.
       -2    1    3    3    0  502  0.71567088477E+03  0.18550467642E+03  0.13507124521E+04  0.15398119783E+04  0.25500000920E-02 0.  1.
</event>
<event>
 5   0  0.1776653E-07  0.4090030E+04  0.7818609E-02  0.7986627E-01
       -2   -1    0    0    0  501  0.00000000000E+00  0.00000000000E+00  0.18201250661E+04  0.18201250661E+04  0.25500000920E-02 0. -1.
        2   -1    0    0  501    0  0.00000000000E+00  0.00000000000E+00 -0.22976914582E+04  0.22976914582E+04  0.25500000920E-02 0.  1.
    10030    2    1    2    0    0  0.00000000000E+00  0.00000000000E+00 -0.47756639217E+03  0.41178165243E+04  0.40900297394E+04 0.  0.
        4    1    3    3  502    0  0.61621010819E+03  0.15302673107E+04 -0.14555680517E+04  0.22000256602E+04  0.12699999809E+01 0.  1.
       -4    1    3    3    0  502 -0.61621010819E+03 -0.15302673107E+04  0.97800165948E+03  0.19177908641E+04  0.12699999809E+01 0. -1.
</event>
<event>
 5   0  0.1785559E-07  0.3926509E+04  0.7818609E-02  0.8019538E-01
       -2   -1    0    0    0  501  0.00000000000E+00  0.00000000000E+00  0.16209886005E+04  0.16209886005E+04  0.25500000920E-02 0.  1.
        2   -1    0    0  501    0  0.00000000000E+00  0.00000000000E+00 -0.23777880126E+04  0.23777880126E+04  0.25500000920E-02 0. -1.
    10030    2    1    2    0    0  0.00000000000E+00  0.00000000000E+00 -0.75679941212E+03  0.39987766132E+04  0.39265085065E+04 0.  0.
        2    1    3    3  502    0  0.78463525635E+03  0.11501721631E+04 -0.17880059444E+04  0.22661671932E+04  0.25500000920E-02 0. -1.
       -2    1    3    3    0  502 -0.78463525635E+03 -0.11501721631E+04  0.10312065323E+04  0.17326094200E+04  0.25500000920E-02 0.  1.
</event>
<event>
 5   0  0.1821433E-07  0.3436812E+04  0.7818609E-02  0.8128930E-01
       -2   -1    0    0    0  501  0.00000000000E+00  0.00000000000E+00  0.14483153200E+04  0.14483153200E+04  0.25500000920E-02 0.  1.
        2   -1    0    0  501    0  0.00000000000E+00  0.00000000000E+00 -0.20388647526E+04  0.20388647526E+04  0.25500000920E-02 0. -1.
    10030    2    1    2    0    0  0.00000000000E+00  0.00000000000E+00 -0.59054943262E+03  0.34871800726E+04  0.34368119277E+04 0.  0.
        5    1    3    3  502    0 -0.11868769475E+04 -0.26884912815E+03 -0.15262907063E+04  0.19520610012E+04  0.46999998093E+01 0. -1.
       -5    1    3    3    0  502  0.11868769475E+04  0.26884912815E+03  0.93574127366E+03  0.15351190714E+04  0.46999998093E+01 0.  1.
</event>
<event>
 5   0  0.5515000E-08  0.3960563E+04  0.7818609E-02  0.8012550E-01
       -1   -1    0    0    0  501  0.00000000000E+00  0.00000000000E+00  0.15031686806E+04  0.15031686806E+04  0.50400001928E-02 0.  1.
        1   -1    0    0  501    0  0.00000000000E+00  0.00000000000E+00 -0.26088328292E+04  0.26088328292E+04  0.50400001928E-02 0. -1.
    10030    2    1    2    0    0  0.00000000000E+00  0.00000000000E+00 -0.11056641486E+04  0.41120015098E+04  0.39605634961E+04 0.  0.
        2    1    3    3  502    0 -0.67955686493E+03 -0.18533297887E+04 -0.38904401473E+03  0.20119602590E+04  0.25500000920E-02 0.  1.
       -2    1    3    3    0  502  0.67955686493E+03  0.18533297887E+04 -0.71662013387E+03  0.21000412507E+04  0.25500000920E-02 0. -1.
</event>
<event>
 5   0  0.1776653E-07  0.4004496E+04  0.7818609E-02  0.8003640E-01
        2   -1    0    0  501    0  0.00000000000E+00  0.00000000000E+00  0.12265308318E+04  0.12265308318E+04  0.25500000920E-02 0.  1.
       -2   -1    0    0    0  501  0.00000000000E+00  0.00000000000E+00 -0.32685658541E+04  0.32685658541E+04  0.25500000920E-02 0. -1.
    10030    2    1    2    0    0  0.00000000000E+00  0.00000000000E+00 -0.20420350223E+04  0.44950966859E+04  0.40044958713E+04 0.  0.
        4    1    3    3  502    0  0.10660793478E+04 -0.11259632089E+02  0.88141541736E+03  0.13833100542E+04  0.12699999809E+01 0.  1.
       -4    1    3    3    0  502 -0.10660793478E+04  0.11259632089E+02 -0.29234504397E+04  0.31117866317E+04  0.12699999809E+01 0. -1.
</event>
<event>
 5   0  0.1773903E-07  0.4038456E+04  0.7818609E-02  0.7996833E-01
       -2   -1    0    0    0  501  0.00000000000E+00  0.00000000000E+00  0.18102768948E+04  0.18102768948E+04  0.25500000920E-02 0. -1.
        2   -1    0    0  501    0  0.00000000000E+00  0.00000000000E+00 -0.22522974199E+04  0.22522974199E+04  0.25500000920E-02 0.  1.
    10030    2    1    2    0    0  0.00000000000E+00  0.00000000000E+00 -0.44202052507E+03  0.40625743147E+04  0.40384561305E+04 0.  0.
        3    1    3    3  502    0 -0.52240566035E+03 -0.13581074639E+04  0.11873214062E+04  0.18780563595E+04  0.10100000352E+00 0. -1.
       -3    1    3    3    0  502  0.52240566035E+03  0.13581074639E+04 -0.16293419313E+04  0.21845179553E+04  0.10100000352E+00 0.  1.
</event>
<event>
 5   0  0.5515000E-08  0.3954027E+04  0.7818609E-02  0.8013885E-01
       -1   -1    0    0    0  501  0.00000000000E+00  0.00000000000E+00  0.31204243242E+04  0.31204243242E+04  0.50400001928E-02 0.  1.
        1   -1    0    0  501    0  0.00000000000E+00  0.00000000000E+00 -0.12525805393E+04  0.12525805393E+04  0.50400001928E-02 0. -1.
    10030    2    1    2    0    0  0.00000000000E+00  0.00000000000E+00  0.18678437849E+04  0.43730048636E+04  0.39540272043E+04 0.  0.
        5    1    3    3  502    0 -0.72334878120E+03  0.11585706561E+04 -0.64688520461E+03  0.15112914948E+04  0.46999998093E+01 0. -1.
       -5    1    3    3    0  502  0.72334878120E+03 -0.11585706561E+04  0.25147289895E+04  0.28617133688E+04  0.46999998093E+01 0.  1.
</event>
<event>
 5   0  0.1773903E-07  0.3993632E+04  0.7818609E-02  0.8005832E-01
        2   -1    0    0  501    0  0.00000000000E+00  0.00000000000E+00  0.24168642782E+04  0.24168642782E+04  0.25500000920E-02 0.  1.
       -2   -1    0    0    0  501  0.00000000000E+00  0.00000000000E+00 -0.16497713663E+04  0.16497713663E+04  0.25500000920E-02 0. -1.
    10030    2    1    2    0    0  0.00000000000E+00  0.00000000000E+00  0.76709291193E+03  0.40666356446E+04  0.39936316718E+04 0.  0.
        3    1    3    3  502    0 -0.11472330982E+03 -0.37991722001E+03  0.23763013373E+04  0.24092128565E+04  0.10100000352E+00 0.  1.
       -3    1    3    3    0  502  0.11472330982E+03  0.37991722001E+03 -0.16092084254E+04  0.16574227881E+04  0.10100000352E+00 0. -1.
</event>
<event>
 5   0  0.5515000E-08  0.3901420E+04  0.7818609E-02  0.8024734E-01
       -1   -1    0    0    0  501  0.00000000000E+00  0.00000000000E+00  0.20633344850E+04  0.20633344850E+04  0.50400001928E-02 0.  1.
        1   -1    0    0  501    0  0.00000000000E+00  0.00000000000E+00 -0.18442334433E+04  0.18442334433E+04  0.50400001928E-02 0. -1.
    10030    2    1    2    0    0  0.00000000000E+00  0.00000000000E+00  0.21910104170E+03  0.39075679282E+04  0.39014204910E+04 0.  0.
        2    1    3    3  502    0 -0.11478765685E+04  0.10370692098E+04  0.12997568024E+04  0.20205199597E+04  0.25500000920E-02 0.  1.
       -2    1    3    3    0  502  0.11478765685E+04 -0.10370692098E+04 -0.10806557607E+04  0.18870479685E+04  0.25500000920E-02 0. -1.
</event>
<event>
 5   0  0.5515000E-08  0.3991575E+04  0.7818609E-02  0.8006248E-01
        1   -1    0    0  501    0  0.00000000000E+00  0.00000000000E+00  0.28672984905E+04  0.28672984905E+04  0.50400001928E-02 0. -1.
       -1   -1    0    0    0  501  0.00000000000E+00  0.00000000000E+00 -0.13891707690E+04  0.13891707690E+04  0.50400001928E-02 0.  1.
    10030    2    1    2    0    0  0.00000000000E+00  0.00000000000E+00  0.14781277215E+04  0.42564692595E+04  0.39915747514E+04 0.  0.
        1    1    3    3  502    0  0.16283152982E+04  0.10349976428E+04  0.19476245801E+03  0.19392171735E+04  0.50400001928E-02 0.  1.
       -1    1    3    3    0  502 -0.16283152982E+04 -0.10349976428E+04  0.12833652635E+04  0.23172520860E+04  0.50400001928E-02 0. -1.
</event>
<event>
 5   0  0.1776653E-07  0.4007954E+04  0.7818609E-02  0.8002944E-01
        2   -1    0    0  501    0  0.00000000000E+00  0.00000000000E+00  0.14479099348E+04  0.14479099348E+04  0.25500000920E-02 0.  1.
       -2   -1    0    0    0  501  0.00000000000E+00  0.00000000000E+00 -0.27736009524E+04  0.27736009524E+04  0.25500000920E-02 0. -1.
    10030    2    1    2    0    0  0.00000000000E+00  0.00000000000E+00 -0.13256910176E+04  0.42215108872E+04  0.40079542783E+04 0.  0.
        4    1    3    3  502    0 -0.90530171204E+03  0.39611486276E+03  0.11734487234E+04  0.15340996362E+04  0.12699999809E+01 0.  1.
       -4    1    3    3    0  502  0.90530171204E+03 -0.39611486276E+03 -0.24991397410E+04  0.26874112510E+04  0.12699999809E+01 0. -1.
</event>
<event>
 5   0  0.1776653E-07  0.4004087E+04  0.7818609E-02  0.8003723E-01
       -2   -1    0    0    0  501  0.00000000000E+00  0.00000000000E+00  0.23085497255E+04  0.23085497255E+04  0.25500000920E-02 0. -1.
        2   -1    0    0  501    0  0.00000000000E+00  0.00000000000E+00 -0.17362319044E+04  0.17362319044E+04  0.25500000920E-02 0.  1.
    10030    2    1    2    0    0  0.00000000000E+00  0.00000000000E+00  0.57231782110E+03  0.40447816299E+04  0.40040867555E+04 0.  0.
        4    1    3    3  502    0  0.11470897093E+04  0.16357878907E+04  0.15616832037E+03  0.20039977500E+04  0.12699999809E+01 0. -1.
       -4    1    3    3    0  502 -0.11470897093E+04 -0.16357878907E+04  0.41614950073E+03  0.20407838799E+04  0.12699999809E+01 0.  1.
</event>
<event>
 5   0  0.1776653E-07  0.4026803E+04  0.7818609E-02  0.7999161E-01
        2   -1    0    0  501    0  0.00000000000E+00  0.00000000000E+00  0.15574087715E+04  0.15574087715E+04  0.25500000920E-02 0. -1.
       -2   -1    0    0    0  501  0.00000000000E+00  0.00000000000E+00 -0.26029037416E+04  0.26029037416E+04  0.25500000920E-02 0.  1.
    10030    2    1    2    0    0  0.00000000000E+00  0.00000000000E+00 -0.10454949701E+04  0.41603125130E+04  0.40268027607E+04 0.  0.
        4    1    3    3  502    0 -0.30976420071E+02  0.80120466311E+03  0.13853465596E+04  0.16006483542E+04  0.12699999809E+01 0. -1.
       -4    1    3    3    0  502  0.30976420071E+02 -0.80120466311E+03 -0.24308415297E+04  0.25596641588E+04  0.12699999809E+01 0.  1.
</event>
<event>
 5   0  0.5515000E-08  0.3438436E+04  0.7818609E-02  0.8128537E-01
       -1   -1    0    0    0  501  0.00000000000E+00  0.00000000000E+00  0.30964506049E+04  0.30964506050E+04  0.50400001928E-02 0.  1.
        1   -1    0    0  501    0  0.00000000000E+00  0.00000000000E+00 -0.95454775739E+03  0.95454775740E+03  0.50400001928E-02 0. -1.
    10030    2    1    2    0    0  0.00000000000E+00  0.00000000000E+00  0.21419028476E+04  0.40509983624E+04  0.34384356797E+04 0.  0.
        3    1    3    3  502    0 -0.90721089506E+03  0.14117004018E+04  0.63047343997E+03  0.17926032470E+04  0.10100000352E+00 0. -1.
       -3    1    3    3    0  502  0.90721089506E+03 -0.14117004018E+04  0.15114294076E+04  0.22583951153E+04  0.10100000352E+00 0.  1.
</event>
<event>
 5   0  0.1773903E-07  0.3994963E+04  0.7818609E-02  0.8005563E-01
        2   -1    0    0  501    0  0.00000000000E+00  0.00000000000E+00  0.25441043578E+04  0.25441043578E+04  0.25500000920E-02 0.  1.
       -2   -1    0    0    0  501  0.00000000000E+00  0.00000000000E+00 -0.15683055983E+04  0.15683055984E+04  0.25500000920E-02 0. -1.
    10030    2    1    2    0    0  0.00000000000E+00  0.00000000000E+00  0.97579875944E+03  0.41124099561E+04  0.39949633826E+04 0.  0.
        3    1    3    3  502    0  0.96957683089E+03  0.50203591850E+03 -0.12339414546E+04  0.16476440204E+04  0.10100000352E+00 0. -1.
       -3    1    3    3    0  502 -0.96957683089E+03 -0.50203591850E+03  0.22097402140E+04  0.24647659357E+04  0.10100000352E+00 0.  1.
</event>
<event>
 5   0  0.1819906E-07  0.4113109E+04  0.7818609E-02  0.7982110E-01
       -2   -1    0    0    0  501  0.00000000000E+00  0.00000000000E+00  0.14960177629E+04  0.14960177629E+04  0.25500000920E-02 0.  1.
        2   -1    0    0  501    0  0.00000000000E+00  0.00000000000E+00 -0.28271170097E+04  0.28271170097E+04  0.25500000920E-02 0. -1.
    10030    2    1    2    0    0  0.00000000000E+00  0.00000000000E+00 -0.13310992468E+04  0.43231347725E+04  0.41131094146E+04 0.  0.
        1    1    3    3  502    0  0.16886791896E+04  0.46910179081E+03  0.46536784424E+03  0.18133563152E+04  0.50400001928E-02 0.  1.
       -1    1    3    3    0  502 -0.16886791896E+04 -0.46910179081E+03 -0.17964670910E+04  0.25097784573E+04  0.50400001928E-02 0. -1.
</event>
<event>
 5   0  0.5515000E-08  0.3988077E+04  0.7818609E-02  0.8006956E-01
        1   -1    0    0  501    0  0.00000000000E+00  0.00000000000E+00  0.26923595094E+04  0.26923595094E+04  0.50400001928E-02 0. -1.
       -1   -1    0    0    0  501  0.00000000000E+00  0.00000000000E+00 -0.14768421644E+04  0.14768421644E+04  0.50400001928E-02 0.  1.
    10030    2    1    2    0    0  0.00000000000E+00  0.00000000000E+00  0.12155173450E+04  0.41692016738E+04  0.39880772537E+04 0.  0.
        2    1    3    3  502    0 -0.11790744970E+04 -0.13510848699E+03  0.22829449024E+04  0.25729959969E+04  0.25500000920E-02 0. -1.
       -2    1    3    3    0  502  0.11790744970E+04  0.13510848699E+03 -0.10674275574E+04  0.15962056769E+04  0.25500000920E-02 0.  1.
</event>
<event>
 5   0  0.5515000E-08  0.3992611E+04  0.7818609E-02  0.8006039E-01
       -1   -1    0    0    0  501  0.00000000000E+00  0.00000000000E+00  0.15190111046E+04  0.15190111046E+04  0.50400001928E-02 0. -1.
        1   -1    0    0  501    0  0.00000000000E+00  0.00000000000E+00 -0.26235726790E+04  0.26235726790E+04  0.50400001928E-02 0.  1.
    10030    2    1    2    0    0  0.00000000000E+00  0.00000000000E+00 -0.11045615745E+04  0.41425837836E+04  0.39926111922E+04 0.  0.
        1    1    3    3  502    0  0.61015029026E+03  0.11366216172E+04 -0.21330044825E+04  0.24927695842E+04  0.50400001928E-02 0.  1.
       -1    1    3    3    0  502 -0.61015029026E+03 -0.11366216172E+04  0.10284429081E+04  0.16498141994E+04  0.50400001928E-02 0. -1.
</event>
<event>
 5   0  0.5515000E-08  0.4313508E+04  0.7818609E-02  0.7944125E-01
        1   -1    0    0  501    0  0.00000000000E+00  0.00000000000E+00  0.20210610784E+04  0.20210610784E+04  0.50400001928E-02 0. -1.
       -1   -1    0    0    0  501  0.00000000000E+00  0.00000000000E+00 -0.23015576037E+04  0.23015576037E+04  0.50400001928E-02 0.  1.
    10030    2    1    2    0    0  0.00000000000E+00  0.00000000000E+00 -0.28049652526E+03  0.43226186821E+04  0.43135083135E+04 0.  0.
        2    1    3    3  502    0 -0.81986932881E+03  0.92547015139E+03  0.16306591924E+04  0.20463944193E+04  0.25500000920E-02 0. -1.
       -2    1    3    3    0  502  0.81986932881E+03 -0.92547015139E+03 -0.19111557177E+04  0.22762242628E+04  0.25500000920E-02 0.  1.
</event>
<event>
 5   0  0.1773903E-07  0.4256855E+04  0.7818609E-02  0.7954645E-01
        2   -1    0    0  501    0  0.00000000000E+00  0.00000000000E+00  0.25502160383E+04  0.25502160383E+04  0.25500000920E-02 0.  1.
       -2   -1    0    0    0  501  0.00000000000E+00  0.00000000000E+00 -0.17763996823E+04  0.17763996824E+04  0.25500000920E-02 0. -1.
    10030    2    1    2    0    0  0.00000000000E+00  0.00000000000E+00  0.77381635594E+03  0.43266157206E+04  0.42568546888E+04 0.  0.
        3    1    3    3  502    0  0.91273847698E+03 -0.78474963481E+03 -0.13972158455E+04  0.18442168110E+04  0.10100000352E+00 0. -1.
       -3    1    3    3    0  502 -0.91273847698E+03  0.78474963481E+03  0.21710322015E+04  0.24823989097E+04  0.10100000352E+00 0.  1.
</event>
<event>
 5   0  0.5515000E-08  0.4074062E+04  0.7818609E-02  0.7989770E-01
        1   -1    0    0  501    0  0.00000000000E+00  0.00000000000E+00  0.24156950429E+04  0.24156950429E+04  0.50400001928E-02 0.  1.
       -1   -1    0    0    0  501  0.00000000000E+00  0.00000000000E+00 -0.17177227890E+04  0.17177227890E+04  0.50400001928E-02 0. -1.
    10030    2    1    2    0    0  0.00000000000E+00  0.00000000000E+00  0.69797225385E+03  0.41334178319E+04  0.40740615737E+04 0.  0.
        2    1    3    3  502    0 -0.91887427417E+03  0.37918394715E+02  0.21930831902E+04  0.23781046267E+04  0.25500000920E-02 0.  1.
       -2    1    3    3    0  502  0.91887427417E+03 -0.37918394715E+02 -0.14951109364E+04  0.17553132052E+04  0.25500000920E-02 0. -1.
</event>
<event>
 5   0  0.1776653E-07  0.3931956E+04  0.7818609E-02  0.8018416E-01
        2   -1    0    0  501    0  0.00000000000E+00  0.00000000000E+00  0.17100137514E+04  0.17100137514E+04  0.25500000920E-02 0.  1.
       -2   -1    0    0    0  501  0.00000000000E+00  0.00000000000E+00 -0.22602569305E+04  0.22602569305E+04  0.25500000920E-02 0. -1.
    10030    2    1    2    0    0  0.00000000000E+00  0.00000000000E+00 -0.55024317905E+03  0.39702706819E+04  0.39319564763E+04 0.  0.
        4    1    3    3  502    0 -0.30520956615E+01 -0.94457313385E+03 -0.20161155442E+04  0.22264211688E+04  0.12699999809E+01 0. -1.
       -4    1    3    3    0  502  0.30520956615E+01  0.94457313385E+03  0.14658723651E+04  0.17438495131E+04  0.12699999809E+01 0.  1.
</event>
<event>
 5   0  0.5515000E-08  0.4271157E+04  0.7818609E-02  0.7951973E-01
        1   -1    0    0  501    0  0.00000000000E+00  0.00000000000E+00  0.24278543619E+04  0.24278543619E+04  0.50400001928E-02 0. -1.
       -1   -1    0    0    0  501  0.00000000000E+00  0.00000000000E+00 -0.18784879636E+04  0.18784879636E+04  0.50400001928E-02 0.  1.
    10030    2    1    2    0    0  0.00000000000E+00  0.00000000000E+00  0.54936639835E+03  0.43063423255E+04  0.42711568439E+04 0.  0.
        3    1    3    3  502    0  0.27684228562E+03 -0.20660418240E+03  0.23994996607E+04  0.24242371112E+04  0.10100000352E+00 0. -1.
       -3    1    3    3    0  502 -0.27684228562E+03  0.20660418240E+03 -0.18501332623E+04  0.18821052143E+04  0.10100000352E+00 0.  1.
</event>
<event>
 5   0  0.5515000E-08  0.4018752E+04  0.7818609E-02  0.8000774E-01
       -1   -1    0    0    0  501  0.00000000000E+00  0.00000000000E+00  0.32729704781E+04  0.32729704781E+04  0.50400001928E-02 0.  1.
        1   -1    0    0  501    0  0.00000000000E+00  0.00000000000E+00 -0.12336167644E+04  0.12336167644E+04  0.50400001928E-02 0. -1.
    10030    2    1    2    0    0  0.00000000000E+00  0.00000000000E+00  0.20393537137E+04  0.45065872425E+04  0.40187516724E+04 0.  0.
        1    1    3    3  502    0  0.10102574162E+04  0.17109887204E+04  0.68421668858E+03  0.21014887402E+04  0.50400001928E-02 0. -1.
       -1    1    3    3    0  502 -0.10102574162E+04 -0.17109887204E+04  0.13551370251E+04  0.24050985022E+04  0.50400001928E-02 0.  1.
</event>
<event>
 5   0  0.1776653E-07  0.4037435E+04  0.7818609E-02  0.7997037E-01
        2   -1    0    0  501    0  0.00000000000E+00  0.00000000000E+00  0.27340069841E+04  0.27340069841E+04  0.25500000920E-02 0. -1.
       -2   -1    0    0    0  501  0.00000000000E+00  0.00000000000E+00 -0.14905672003E+04  0.14905672003E+04  0.25500000920E-02 0.  1.
    10030    2    1    2    0    0  0.00000000000E+00  0.00000000000E+00  0.12434397838E+04  0.42245741844E+04  0.40374353918E+04 0.  0.
        4    1    3    3  502    0 -0.34673826460E+03  0.14554269024E+03 -0.14535950519E+04  0.15014493953E+04  0.12699999809E+01 0.  1.
       -4    1    3    3    0  502  0.34673826460E+03 -0.14554269024E+03  0.26970348357E+04  0.27231247891E+04  0.12699999809E+01 0. -1.
</event>
<event>
 5   0  0.1821433E-07  0.3752167E+04  0.7818609E-02  0.8056498E-01
        2   -1    0    0  501    0  0.00000000000E+00  0.00000000000E+00  0.13427072506E+04  0.13427072506E+04  0.25500000920E-02 0. -1.
       -2   -1    0    0    0  501  0.00000000000E+00  0.00000000000E+00 -0.26213376454E+04  0.26213376454E+04  0.25500000920E-02 0.  1.
    10030    2    1    2    0    0  0.00000000000E+00  0.00000000000E+00 -0.12786303948E+04  0.39640448960E+04  0.37521668741E+04 0.  0.
        5    1    3    3  502    0  0.63054210465E+02  0.58186442702E+03 -0.25224159877E+04  0.25894297731E+04  0.46999998093E+01 0.  1.
       -5    1    3    3    0  502 -0.63054210465E+02 -0.58186442702E+03  0.12437855929E+04  0.13746151229E+04  0.46999998093E+01 0. -1.
</event>
<event>
 5   0  0.5515000E-08  0.3870479E+04  0.7818609E-02  0.8031197E-01
        1   -1    0    0  501    0  0.00000000000E+00  0.00000000000E+00  0.17584918393E+04  0.17584918393E+04  0.50400001928E-02 0.  1.
       -1   -1    0    0    0  501  0.00000000000E+00  0.00000000000E+00 -0.21297523076E+04  0.21297523076E+04  0.50400001928E-02 0. -1.
    10030    2    1    2    0    0  0.00000000000E+00  0.00000000000E+00 -0.37126046835E+03  0.38882441469E+04  0.38704790673E+04 0.  0.
        2    1    3    3  502    0 -0.26552032753E+03  0.93264053290E+03  0.14968202080E+04  0.17834769813E+04  0.25500000920E-02 0.  1.
       -2    1    3    3    0  502  0.26552032753E+03 -0.93264053290E+03 -0.18680806763E+04  0.21047671656E+04  0.25500000920E-02 0. -1.
</event>
<event>
 5   0  0.5515000E-08  0.4037830E+04  0.7818609E-02  0.7996958E-01
        1   -1    0    0  501    0  0.00000000000E+00  0.00000000000E+00  0.14189010087E+04  0.14189010087E+04  0.50400001928E-02 0.  1.
       -1   -1    0    0    0  501  0.00000000000E+00  0.00000000000E+00 -0.28726583998E+04  0.28726583998E+04  0.50400001928E-02 0. -1.
    10030    2    1    2    0    0  0.00000000000E+00  0.00000000000E+00 -0.14537573911E+04  0.42915594085E+04  0.40378300614E+04 0.  0.
        4    1    3    3  502    0  0.17175838717E+04 -0.82404283128E+02  0.39748715140E+03  0.17649029635E+04  0.12699999809E+01 0. -1.
       -4    1    3    3    0  502 -0.17175838717E+04  0.82404283128E+02 -0.18512445425E+04  0.25266564450E+04  0.12699999809E+01 0.  1.
</event>
<event>
 5   0  0.5515000E-08  0.3989276E+04  0.7818609E-02  0.8006713E-01
       -1   -1    0    0    0  501  0.00000000000E+00  0.00000000000E+00  0.16342634427E+04  0.16342634427E+04  0.50400001928E-02 0.  1.
        1   -1    0    0  501    0  0.00000000000E+00  0.00000000000E+00 -0.24344792364E+04  0.24344792364E+04  0.50400001928E-02 0. -1.
    10030    2    1    2    0    0  0.00000000000E+00  0.00000000000E+00 -0.80021579367E+03  0.40687426791E+04  0.39892758331E+04 0.  0.
        1    1    3    3  502    0  0.31465490153E+03  0.10242782177E+04 -0.21160084951E+04  0.23718443300E+04  0.50400001928E-02 0. -1.
       -1    1    3    3    0  502 -0.31465490153E+03 -0.10242782177E+04  0.13157927014E+04  0.16968983492E+04  0.50400001928E-02 0.  1.
</event>
<event>
 5   0  0.5515000E-08  0.3936508E+04  0.7818609E-02  0.8017479E-01
       -3   -1    0    0    0  501  0.00000000000E+00  0.00000000000E+00  0.19614346162E+04  0.19614346188E+04  0.10100000352E+00 0. -1.
        3   -1    0    0  501    0  0.00000000000E+00  0.00000000000E+00 -0.19750972793E+04  0.19750972818E+04  0.10100000352E+00 0.  1.
    10030    2    1    2    0    0  0.00000000000E+00  0.00000000000E+00 -0.13662663028E+02  0.39365319007E+04  0.39365081909E+04 0.  0.
        1    1    3    3  502    0  0.18435595044E+04  0.41673796152E+02 -0.69500393865E+03  0.19706544158E+04  0.50400001928E-02 0.  1.
       -1    1    3    3    0  502 -0.18435595044E+04 -0.41673796152E+02  0.68134127562E+03  0.19658774849E+04  0.50400001928E-02 0. -1.
</event>
<event>
 5   0  0.5515000E-08  0.3996907E+04  0.7818609E-02  0.8005171E-01
        1   -1    0    0  501    0  0.00000000000E+00  0.00000000000E+00  0.14101410427E+04  0.14101410428E+04  0.50400001928E-02 0.  1.
       -1   -1    0    0    0  501  0.00000000000E+00  0.00000000000E+00 -0.28322102230E+04  0.28322102230E+04  0.50400001928E-02 0. -1.
    10030    2    1    2    0    0  0.00000000000E+00  0.00000000000E+00 -0.14220691802E+04  0.42423512657E+04  0.39969067425E+04 0.  0.
        3    1    3    3  502    0 -0.19934584066E+04  0.14114419785E+03 -0.70656107822E+03  0.21196760769E+04  0.10100000352E+00 0. -1.
       -3    1    3    3    0  502  0.19934584066E+04 -0.14114419785E+03 -0.71550810202E+03  0.21226751889E+04  0.10100000352E+00 0.  1.
</event>
<event>
 5   0  0.1819906E-07  0.3897679E+04  0.7818609E-02  0.8025512E-01
        2   -1    0    0  501    0  0.00000000000E+00  0.00000000000E+00  0.15419834060E+04  0.15419834061E+04  0.25500000920E-02 0.  1.
       -2   -1    0    0    0  501  0.00000000000E+00  0.00000000000E+00 -0.24630450777E+04  0.24630450777E+04  0.25500000920E-02 0. -1.
    10030    2    1    2    0    0  0.00000000000E+00  0.00000000000E+00 -0.92106167164E+03  0.40050284837E+04  0.38976786107E+04 0.  0.
        1    1    3    3  502    0  0.15734228983E+04  0.15710313584E+03  0.70998051298E+03  0.17333243612E+04  0.50400001928E-02 0.  1.
       -1    1    3    3    0  502 -0.15734228983E+04 -0.15710313584E+03 -0.16310421846E+04  0.22717041225E+04  0.50400001928E-02 0. -1.
</event>
<event>
 5   0  0.5515000E-08  0.3999746E+04  0.7818609E-02  0.8004598E-01
       -1   -1    0    0    0  501  0.00000000000E+00  0.00000000000E+00  0.17294526480E+04  0.17294526480E+04  0.50400001928E-02 0. -1.
        1   -1    0    0  501    0  0.00000000000E+00  0.00000000000E+00 -0.23125762005E+04  0.23125762005E+04  0.50400001928E-02 0.  1.
    10030    2    1    2    0    0  0.00000000000E+00  0.00000000000E+00 -0.58312355251E+03  0.40420288485E+04  0.39997455087E+04 0.  0.
        5    1    3    3  502    0  0.16032485121E+02 -0.13185140426E+04 -0.18110300973E+04  0.22402206196E+04  0.46999998093E+01 0.  1.
       -5    1    3    3    0  502 -0.16032485121E+02  0.13185140426E+04  0.12279065448E+04  0.18018082289E+04  0.46999998093E+01 0. -1.
</event>
<event>
 5   0  0.5515000E-08  0.3999916E+04  0.7818609E-02  0.8004564E-01
       -1   -1    0    0    0  501  0.00000000000E+00  0.00000000000E+00  0.14259725319E+04  0.14259725319E+04  0.50400001928E-02 0.  1.
        1   -1    0    0  501    0  0.00000000000E+00  0.00000000000E+00 -0.28049847898E+04  0.28049847898E+04  0.50400001928E-02 0. -1.
    10030    2    1    2    0    0  0.00000000000E+00  0.00000000000E+00 -0.13790122579E+04  0.42309573216E+04  0.39999156304E+04 0.  0.
        1    1    3    3  502    0 -0.32652899452E+03  0.12195911871E+04 -0.23301648189E+04  0.26502248831E+04  0.50400001928E-02 0. -1.
       -1    1    3    3    0  502  0.32652899452E+03 -0.12195911871E+04  0.95115256097E+03  0.15807324385E+04  0.50400001928E-02 0.  1.
</event>
<event>
 5   0  0.5515000E-08  0.4014540E+04  0.7818609E-02  0.8001620E-01
       -1   -1    0    0    0  501  0.00000000000E+00  0.00000000000E+00  0.26425670706E+04  0.26425670706E+04  0.50400001928E-02 0.  1.
        1   -1    0    0  501    0  0.00000000000E+00  0.00000000000E+00 -0.15247043190E+04  0.15247043190E+04  0.50400001928E-02 0. -1.
    10030    2    1    2    0    0  0.00000000000E+00  0.00000000000E+00  0.11178627517E+04  0.41672713896E+04  0.40145402854E+04 0.  0.
        3    1    3    3  502    0  0.46015645387E+03  0.11390606382E+04 -0.10888903696E+04  0.16416105953E+04  0.10100000352E+00 0. -1.
       -3    1    3    3    0  502 -0.46015645387E+03 -0.11390606382E+04  0.22067531213E+04  0.25256607943E+04  0.10100000352E+00 0.  1.
</event>
<event>
 5   0  0.5515000E-08  0.4261692E+04  0.7818609E-02  0.7953740E-01
        1   -1    0    0  501    0  0.00000000000E+00  0.00000000000E+00  0.20556053279E+04  0.20556053279E+04  0.50400001928E-02 0.  1.
       -1   -1    0    0    0  501  0.00000000000E+00  0.00000000000E+00 -0.22088403448E+04  0.22088403448E+04  0.50400001928E-02 0. -1.
    10030    2    1    2    0    0  0.00000000000E+00  0.00000000000E+00 -0.15323501690E+03  0.42644456728E+04  0.42616916741E+04 0.  0.
        4    1    3    3  502    0 -0.95033013206E+03  0.73684569607E+03 -0.18368544534E+04  0.21954737156E+04  0.12699999809E+01 0. -1.
       -4    1    3    3    0  502  0.95033013206E+03 -0.73684569607E+03  0.16836194365E+04  0.20689719572E+04  0.12699999809E+01 0.  1.
</event>
<event>
 5   0  0.5515000E-08  0.3973846E+04  0.7818609E-02  0.8009843E-01
       -1   -1    0    0    0  501  0.00000000000E+00  0.00000000000E+00  0.13857405835E+04  0.13857405836E+04  0.50400001928E-02 0.  1.
        1   -1    0    0  501    0  0.00000000000E+00  0.00000000000E+00 -0.28489198804E+04  0.28489198804E+04  0.50400001928E-02 0. -1.
    10030    2    1    2    0    0  0.00000000000E+00  0.00000000000E+00 -0.14631792969E+04  0.42346604640E+04  0.39738464478E+04 0.  0.
        5    1    3    3  502    0  0.17144003302E+04  0.41935063878E+03  0.24089478273E+03  0.17813129531E+04  0.46999998093E+01 0.  1.
       -5    1    3    3    0  502 -0.17144003302E+04 -0.41935063878E+03 -0.17040740796E+04  0.24533475109E+04  0.46999998093E+01 0. -1.
</event>
<event>
 5   0  0.1819906E-07  0.3591584E+04  0.7818609E-02  0.8092422E-01
       -2   -1    0    0    0  501  0.00000000000E+00  0.00000000000E+00  0.11300664852E+04  0.11300664852E+04  0.25500000920E-02 0.  1.
        2   -1    0    0  501    0  0.00000000000E+00  0.00000000000E+00 -0.28536986169E+04  0.28536986169E+04  0.25500000920E-02 0. -1.
    10030    2    1    2    0    0  0.00000000000E+00  0.00000000000E+00 -0.17236321317E+04  0.39837651021E+04  0.35915841440E+04 0.  0.
        1    1    3    3  502    0  0.48187320042E+03  0.14217367326E+04 -0.19549957100E+04  0.24648621350E+04  0.50400001928E-02 0. -1.
       -1    1    3    3    0  502 -0.48187320042E+03 -0.14217367326E+04  0.23136357839E+03  0.15189029671E+04  0.50400001928E-02 0.  1.
</event>
<event>
 5   0  0.1773903E-07  0.4146316E+04  0.7818609E-02  0.7975663E-01
       -2   -1    0    0    0  501  0.00000000000E+00  0.00000000000E+00  0.15792782631E+04  0.15792782631E+04  0.25500000920E-02 0.  1.
        2   -1    0    0  501    0  0.00000000000E+00  0.00000000000E+00 -0.27214864266E+04  0.27214864266E+04  0.25500000920E-02 0. -1.
    10030    2    1    2    0    0  0.00000000000E+00  0.00000000000E+00 -0.11422081635E+04  0.43007646896E+04  0.41463161272E+04 0.  0.
        3    1    3    3  502    0 -0.10149223998E+04  0.15535337910E+04 -0.15299007214E+04  0.24050220259E+04  0.10100000352E+00 0. -1.
       -3    1    3    3    0  502  0.10149223998E+04 -0.15535337910E+04  0.38769255790E+03  0.18957426637E+04  0.10100000352E+00 0.  1.
</event>
<event>
 5   0  0.5515000E-08  0.3982790E+04  0.7818609E-02  0.8008027E-01
        1   -1    0    0  501    0  0.00000000000E+00  0.00000000000E+00  0.14572666023E+04  0.14572666023E+04  0.50400001928E-02 0. -1.
       -1   -1    0    0    0  501  0.00000000000E+00  0.00000000000E+00 -0.27212961937E+04  0.27212961937E+04  0.50400001928E-02 0.  1.
    10030    2    1    2    0    0  0.00000000000E+00  0.00000000000E+00 -0.12640295914E+04  0.41785627959E+04  0.39827900060E+04 0.  0.
        3    1    3    3  502    0  0.10317574092E+04  0.38410450716E+03  0.11089480838E+04  0.15626341499E+04  0.10100000352E+00 0. -1.
       -3    1    3    3    0  502 -0.10317574092E+04 -0.38410450716E+03 -0.23729776752E+04  0.26159286460E+04  0.10100000352E+00 0.  1.
</event>
<event>
 5   0  0.5515000E-08  0.3969649E+04  0.7818609E-02  0.8010697E-01
        1   -1    0    0  501    0  0.00000000000E+00  0.00000000000E+00  0.24802803468E+04  0.24802803468E+04  0.50400001928E-02 0.  1.
       -1   -1    0    0    0  501  0.00000000000E+00  0.00000000000E+00 -0.15883400525E+04  0.15883400526E+04  0.50400001928E-02 0. -1.
    10030    2    1    2    0    0  0.00000000000E+00  0.00000000000E+00  0.89194029428E+03  0.40686203994E+04  0.39696491615E+04 0.  0.
        2    1    3    3  502    0 -0.18109989325E+04 -0.78916039760E+03  0.64321923286E+03  0.20775519844E+04  0.25500000920E-02 0.  1.
       -2    1    3    3    0  502  0.18109989325E+04  0.78916039760E+03  0.24872106142E+03  0.19910684149E+04  0.25500000920E-02 0. -1.
</event>
<event>
 5   0  0.5515000E-08  0.3925114E+04  0.7818609E-02  0.8019826E-01
       -1   -1    0    0    0  501  0.00000000000E+00  0.00000000000E+00  0.22761992185E+04  0.22761992185E+04  0.50400001928E-02 0.  1.
        1   -1    0    0  501    0  0.00000000000E+00  0.00000000000E+00 -0.16921325530E+04  0.16921325530E+04  0.50400001928E-02 0. -1.
    10030    2    1    2    0    0  0.00000000000E+00  0.00000000000E+00  0.58406666552E+03  0.39683317715E+04  0.39251144160E+04 0.  0.
        4    1    3    3  502    0 -0.11678502778E+04  0.55350489646E+03  0.17852472790E+04  0.22039399724E+04  0.12699999809E+01 0.  1.
       -4    1    3    3    0  502  0.11678502778E+04 -0.55350489646E+03 -0.12011806134E+04  0.17643917991E+04  0.12699999809E+01 0. -1.
</event>
<event>
 5   0  0.5515000E-08  0.3314931E+04  0.7818609E-02  0.8159106E-01
       -1   -1    0    0    0  501  0.00000000000E+00  0.00000000000E+00  0.15471266098E+04  0.15471266098E+04  0.50400001928E-02 0.  1.
        1   -1    0    0  501    0  0.00000000000E+00  0.00000000000E+00 -0.17756739045E+04  0.17756739045E+04  0.50400001928E-02 0. -1.
    10030    2    1    2    0    0  0.00000000000E+00  0.00000000000E+00 -0.22854729471E+03  0.33228005143E+04  0.33149312801E+04 0.  0.
        2    1    3    3  502    0  0.13659581296E+04 -0.69019741422E+03 -0.75216335850E+03  0.17052752858E+04  0.25500000920E-02 0. -1.
       -2    1    3    3    0  502 -0.13659581296E+04  0.69019741422E+03  0.52361606379E+03  0.16175252285E+04  0.25500000920E-02 0.  1.
</event>
<event>
 5   0  0.5515000E-08  0.4017651E+04  0.7818609E-02  0.8000995E-01
       -1   -1    0    0    0  501  0.00000000000E+00  0.00000000000E+00  0.15521495324E+04  0.15521495324E+04  0.50400001928E-02 0. -1.
        1   -1    0    0  501    0  0.00000000000E+00  0.00000000000E+00 -0.25998659308E+04  0.25998659308E+04  0.50400001928E-02 0.  1.
    10030    2    1    2    0    0  0.00000000000E+00  0.00000000000E+00 -0.10477163984E+04  0.41520154632E+04  0.40176513979E+04 0.  0.
        1    1    3    3  502    0 -0.11079063540E+03 -0.79849279834E+03 -0.24253703553E+04  0.25558338511E+04  0.50400001928E-02 0.  1.
       -1    1    3    3    0  502  0.11079063540E+03  0.79849279834E+03  0.13776539569E+04  0.15961816121E+04  0.50400001928E-02 0. -1.
</event>
<event>
 5   0  0.5515000E-08  0.4064263E+04  0.7818609E-02  0.7991707E-01
       -1   -1    0    0    0  501  0.00000000000E+00  0.00000000000E+00  0.18276014141E+04  0.18276014141E+04  0.50400001928E-02 0.  1.
        1   -1    0    0  501    0  0.00000000000E+00  0.00000000000E+00 -0.22595511426E+04  0.22595511426E+04  0.50400001928E-02 0. -1.
    10030    2    1    2    0    0  0.00000000000E+00  0.00000000000E+00 -0.43194972848E+03  0.40871525566E+04  0.40642632116E+04 0.  0.
        5    1    3    3  502    0 -0.68648341931E+02  0.14041057248E+04 -0.16916556794E+04  0.21995332480E+04  0.46999998093E+01 0. -1.
       -5    1    3    3    0  502  0.68648341931E+02 -0.14041057248E+04  0.12597059510E+04  0.18876193086E+04  0.46999998093E+01 0.  1.
</event>
<event>
 5   0  0.1821433E-07  0.4033605E+04  0.7818609E-02  0.7997801E-01
       -2   -1    0    0    0  501  0.00000000000E+00  0.00000000000E+00  0.17731790613E+04  0.17731790613E+04  0.25500000920E-02 0. -1.
        2   -1    0    0  501    0  0.00000000000E+00  0.00000000000E+00 -0.22938985182E+04  0.22938985182E+04  0.25500000920E-02 0.  1.
    10030    2    1    2    0    0  0.00000000000E+00  0.00000000000E+00 -0.52071945691E+03  0.40670775796E+04  0.40336052466E+04 0.  0.
        5    1    3    3  502    0 -0.82179366214E+03  0.18158773205E+04  0.49952944250E+02  0.19938085798E+04  0.46999998093E+01 0. -1.
       -5    1    3    3    0  502  0.82179366214E+03 -0.18158773205E+04 -0.57067240116E+03  0.20732689998E+04  0.46999998093E+01 0.  1.
</event>
<event>
 5   0  0.1776653E-07  0.3996532E+04  0.7818609E-02  0.8005247E-01
        2   -1    0    0  501    0  0.00000000000E+00  0.00000000000E+00  0.13255927108E+04  0.13255927108E+04  0.25500000920E-02 0.  1.
       -2   -1    0    0    0  501  0.00000000000E+00  0.00000000000E+00 -0.30122876154E+04  0.30122876154E+04  0.25500000920E-02 0. -1.
    10030    2    1    2    0    0  0.00000000000E+00  0.00000000000E+00 -0.16866949046E+04  0.43378803262E+04  0.39965317493E+04 0.  0.
        4    1    3    3  502    0 -0.52841277803E+03  0.16200524826E+04  0.28947806685E+03  0.17284644267E+04  0.12699999809E+01 0.  1.
       -4    1    3    3    0  502  0.52841277803E+03 -0.16200524826E+04 -0.19761729715E+04  0.26094158995E+04  0.12699999809E+01 0. -1.
</event>
<event>
 5   0  0.5515000E-08  0.3946095E+04  0.7818609E-02  0.8015510E-01
       -3   -1    0    0    0  501  0.00000000000E+00  0.00000000000E+00  0.26601136754E+04  0.26601136773E+04  0.10100000352E+00 0.  1.
        3   -1    0    0  501    0  0.00000000000E+00  0.00000000000E+00 -0.14634398514E+04  0.14634398549E+04  0.10100000352E+00 0. -1.
    10030    2    1    2    0    0  0.00000000000E+00  0.00000000000E+00  0.11966738240E+04  0.41235535321E+04  0.39460949674E+04 0.  0.
        1    1    3    3  502    0  0.11986079905E+04 -0.12410359805E+04 -0.40182883952E+03  0.17715241562E+04  0.50400001928E-02 0. -1.
       -1    1    3    3    0  502 -0.11986079905E+04  0.12410359805E+04  0.15985026635E+04  0.23520293759E+04  0.50400001928E-02 0.  1.
</event>
<event>
 5   0  0.1773903E-07  0.4003017E+04  0.7818609E-02  0.8003938E-01
       -2   -1    0    0    0  501  0.00000000000E+00  0.00000000000E+00  0.20167339755E+04  0.20167339755E+04  0.25500000920E-02 0. -1.
        2   -1    0    0  501    0  0.00000000000E+00  0.00000000000E+00 -0.19863984263E+04  0.19863984263E+04  0.25500000920E-02 0.  1.
    10030    2    1    2    0    0  0.00000000000E+00  0.00000000000E+00  0.30335549264E+02  0.40031324018E+04  0.40030174595E+04 0.  0.
        3    1    3    3  502    0  0.75136126745E+03  0.16433044519E+04 -0.84569601608E+03  0.19950426155E+04  0.10100000352E+00 0.  1.
       -3    1    3    3    0  502 -0.75136126745E+03 -0.16433044519E+04  0.87603156535E+03  0.20080897863E+04  0.10100000352E+00 0. -1.
</event>
<event>
 5   0  0.1776653E-07  0.4039657E+04  0.7818609E-02  0.7996594E-01
        2   -1    0    0  501    0  0.00000000000E+00  0.00000000000E+00  0.19965068179E+04  0.19965068179E+04  0.25500000920E-02 0. -1.
       -2   -1    0    0    0  501  0.00000000000E+00  0.00000000000E+00 -0.20434227642E+04  0.20434227642E+04  0.25500000920E-02 0.  1.
    10030    2    1    2    0    0  0.00000000000E+00  0.00000000000E+00 -0.46915946319E+02  0.40399295820E+04  0.40396571540E+04 0.  0.
        4    1    3    3  502    0  0.49776619932E+03 -0.40394003358E+02  0.19337900028E+04  0.19972351520E+04  0.12699999809E+01 0. -1.
       -4    1    3    3    0  502 -0.49776619932E+03  0.40394003358E+02 -0.19807059491E+04  0.20426944300E+04  0.12699999809E+01 0.  1.
</event>
<event>
 5   0  0.1776653E-07  0.4116406E+04  0.7818609E-02  0.7981467E-01
        2   -1    0    0  501    0  0.00000000000E+00  0.00000000000E+00  0.25739869490E+04  0.25739869490E+04  0.25500000920E-02 0. -1.
       -2   -1    0    0    0  501  0.00000000000E+00  0.00000000000E+00 -0.16457737228E+04  0.16457737228E+04  0.25500000920E-02 0.  1.
    10030    2    1    2    0    0  0.00000000000E+00  0.00000000000E+00  0.92821322618E+03  0.42197606718E+04  0.41164062401E+04 0.  0.
        4    1    3    3  502    0  0.16539291427E+04  0.46292466338E+03 -0.69857440405E+03  0.18541274670E+04  0.12699999809E+01 0.  1.
       -4    1    3    3    0  502 -0.16539291427E+04 -0.46292466338E+03  0.16267876302E+04  0.23656332048E+04  0.12699999809E+01 0. -1.
</event>
<event>
 5   0  0.5515000E-08  0.3999314E+04  0.7818609E-02  0.8004685E-01
        1   -1    0    0  501    0  0.00000000000E+00  0.00000000000E+00  0.13751209238E+04  0.13751209238E+04  0.50400001928E-02 0. -1.
       -1   -1    0    0    0  501  0.00000000000E+00  0.00000000000E+00 -0.29078379923E+04  0.29078379923E+04  0.50400001928E-02 0.  1.
    10030    2    1    2    0    0  0.00000000000E+00  0.00000000000E+00 -0.15327170685E+04  0.42829589160E+04  0.39993143743E+04 0.  0.
        1    1    3    3  502    0  0.18025773259E+04 -0.63422635036E+03 -0.13542129161E+03  0.19156896945E+04  0.50400001928E-02 0. -1.
       -1    1    3    3    0  502 -0.18025773259E+04  0.63422635036E+03 -0.13972957769E+04  0.23672692216E+04  0.50400001928E-02 0.  1.
</event>
<event>
 5   0  0.5515000E-08  0.4002063E+04  0.7818609E-02  0.8004131E-01
       -1   -1    0    0    0  501  0.00000000000E+00  0.00000000000E+00  0.16839516485E+04  0.16839516485E+04  0.50400001928E-02 0.  1.
        1   -1    0    0  501    0  0.00000000000E+00  0.00000000000E+00 -0.23778158205E+04  0.23778158205E+04  0.50400001928E-02 0. -1.
    10030    2    1    2    0    0  0.00000000000E+00  0.00000000000E+00 -0.69386417205E+03  0.40617674690E+04  0.40020629035E+04 0.  0.
        5    1    3    3  502    0  0.17962201533E+04  0.83006056434E+03 -0.44667968268E+02  0.19792485182E+04  0.46999998093E+01 0.  1.
       -5    1    3    3    0  502 -0.17962201533E+04 -0.83006056434E+03 -0.64919620378E+03  0.20825189508E+04  0.46999998093E+01 0. -1.
</event>
<event>
 5   0  0.5515000E-08  0.3971673E+04  0.7818609E-02  0.8010285E-01
       -1   -1    0    0    0  501  0.00000000000E+00  0.00000000000E+00  0.23752026465E+04  0.23752026465E+04  0.50400001928E-02 0. -1.
        1   -1    0    0  501    0  0.00000000000E+00  0.00000000000E+00 -0.16602991236E+04  0.16602991236E+04  0.50400001928E-02 0.  1.
    10030    2    1    2    0    0  0.00000000000E+00  0.00000000000E+00  0.71490352288E+03  0.40355017702E+04  0.39716731348E+04 0.  0.
        3    1    3    3  502    0 -0.54660738441E+03  0.31823567883E+03  0.22701208970E+04  0.23565870400E+04  0.10100000352E+00 0. -1.
       -3    1    3    3    0  502  0.54660738441E+03 -0.31823567883E+03 -0.15552173742E+04  0.16789147301E+04  0.10100000352E+00 0.  1.
</event>
<event>
 5   0  0.1819906E-07  0.4017979E+04  0.7818609E-02  0.8000929E-01
       -2   -1    0    0    0  501  0.00000000000E+00  0.00000000000E+00  0.12600177575E+04  0.12600177575E+04  0.25500000920E-02 0. -1.
        2   -1    0    0  501    0  0.00000000000E+00  0.00000000000E+00 -0.32031608209E+04  0.32031608209E+04  0.25500000920E-02 0.  1.
    10030    2    1    2    0    0  0.00000000000E+00  0.00000000000E+00 -0.19431430633E+04  0.44631785784E+04  0.40179793501E+04 0.  0.
        1    1    3    3  502    0  0.14595403525E+04  0.10042705871E+04  0.80599972139E+02  0.17735032585E+04  0.50400001928E-02 0. -1.
       -1    1    3    3    0  502 -0.14595403525E+04 -0.10042705871E+04 -0.20237430355E+04  0.26896753199E+04  0.50400001928E-02 0.  1.
</event>
<event>
 5   0  0.5515000E-08  0.3990890E+04  0.7818609E-02  0.8006387E-01
       -1   -1    0    0    0  501  0.00000000000E+00  0.00000000000E+00  0.12618225112E+04  0.12618225113E+04  0.50400001928E-02 0.  1.
        1   -1    0    0  501    0  0.00000000000E+00  0.00000000000E+00 -0.31555945663E+04  0.31555945663E+04  0.50400001928E-02 0. -1.
    10030    2    1    2    0    0  0.00000000000E+00  0.00000000000E+00 -0.18937720550E+04  0.44174170775E+04  0.39908897555E+04 0.  0.
        1    1    3    3  502    0  0.59438636621E+03 -0.19035413606E+04 -0.10254304762E+04  0.22423809947E+04  0.50400001928E-02 0. -1.
       -1    1    3    3    0  502 -0.59438636621E+03  0.19035413606E+04 -0.86834157887E+03  0.21750360828E+04  0.50400001928E-02 0.  1.
</event>
<event>
 5   0  0.1773903E-07  0.3966023E+04  0.7818609E-02  0.8011436E-01
        2   -1    0    0  501    0  0.00000000000E+00  0.00000000000E+00  0.16922713882E+04  0.16922713882E+04  0.25500000920E-02 0. -1.
       -2   -1    0    0    0  501  0.00000000000E+00  0.00000000000E+00 -0.23237019175E+04  0.23237019175E+04  0.25500000920E-02 0.  1.
    10030    2    1    2    0    0  0.00000000000E+00  0.00000000000E+00 -0.63143052938E+03  0.40159733057E+04  0.39660228288E+04 0.  0.
        3    1    3    3  502    0  0.19515273746E+03  0.64864595356E+03 -0.22029232494E+04  0.23047119162E+04  0.10100000352E+00 0.  1.
       -3    1    3    3    0  502 -0.19515273746E+03 -0.64864595356E+03  0.15714927200E+04  0.17112613895E+04  0.10100000352E+00 0. -1.
</event>
<event>
 5   0  0.5515000E-08  0.4021223E+04  0.7818609E-02  0.8000279E-01
       -1   -1    0    0    0  501  0.00000000000E+00  0.00000000000E+00  0.19761011328E+04  0.19761011328E+04  0.50400001928E-02 0.  1.
        1   -1    0    0  501    0  0.00000000000E+00  0.00000000000E+00 -0.20457240532E+04  0.20457240532E+04  0.50400001928E-02 0. -1.
    10030    2    1    2    0    0  0.00000000000E+00  0.00000000000E+00 -0.69622920333E+02  0.40218251860E+04  0.40212225101E+04 0.  0.
        5    1    3    3  502    0 -0.77101520142E+03  0.31065143575E+03  0.17961913997E+04  0.19792155996E+04  0.46999998093E+01 0.  1.
       -5    1    3    3    0  502  0.77101520142E+03 -0.31065143575E+03 -0.18658143201E+04  0.20426095864E+04  0.46999998093E+01 0. -1.
</event>
<event>
 5   0  0.1773903E-07  0.3803815E+04  0.7818609E-02  0.8045337E-01
       -2   -1    0    0    0  501  0.00000000000E+00  0.00000000000E+00  0.17449523871E+04  0.17449523871E+04  0.25500000920E-02 0. -1.
        2   -1    0    0  501    0  0.00000000000E+00  0.00000000000E+00 -0.20729809330E+04  0.20729809330E+04  0.25500000920E-02 0.  1.
    10030    2    1    2    0    0  0.00000000000E+00  0.00000000000E+00 -0.32802854598E+03  0.38179333201E+04  0.38038154673E+04 0.  0.
        3    1    3    3  502    0  0.57594869499E+03  0.11907727700E+04  0.12076581420E+04  0.17911155427E+04  0.10100000352E+00 0.  1.
       -3    1    3    3    0  502 -0.57594869499E+03 -0.11907727700E+04 -0.15356866880E+04  0.20268177774E+04  0.10100000352E+00 0. -1.
</event>
<event>
 5   0  0.1819906E-07  0.3984163E+04  0.7818609E-02  0.8007749E-01
        2   -1    0    0  501    0  0.00000000000E+00  0.00000000000E+00  0.21833425724E+04  0.21833425724E+04  0.25500000920E-02 0.  1.
       -2   -1    0    0    0  501  0.00000000000E+00  0.00000000000E+00 -0.18175753053E+04  0.18175753053E+04  0.25500000920E-02 0. -1.
    10030    2    1    2    0    0  0.00000000000E+00  0.00000000000E+00  0.36576726712E+03  0.40009178777E+04  0.39841634217E+04 0.  0.
        1    1    3    3  502    0 -0.15017415502E+04  0.41291404964E+03 -0.10643796677E+04  0.18864330820E+04  0.50400001928E-02 0. -1.
       -1    1    3    3    0  502  0.15017415502E+04 -0.41291404964E+03  0.14301469348E+04  0.21144847957E+04  0.50400001928E-02 0.  1.
</event>
<event>
 5   0  0.5515000E-08  0.4015571E+04  0.7818609E-02  0.8001413E-01
       -1   -1    0    0    0  501  0.00000000000E+00  0.00000000000E+00  0.14660752898E+04  0.14660752898E+04  0.50400001928E-02 0.  1.
        1   -1    0    0  501    0  0.00000000000E+00  0.00000000000E+00 -0.27496558503E+04  0.27496558503E+04  0.50400001928E-02 0. -1.
    10030    2    1    2    0    0  0.00000000000E+00  0.00000000000E+00 -0.12835805604E+04  0.42157311401E+04  0.40155709421E+04 0.  0.
        5    1    3    3  502    0  0.65593462053E+02  0.19882880395E+04 -0.35699629891E+03  0.20211532049E+04  0.46999998093E+01 0. -1.
       -5    1    3    3    0  502 -0.65593462053E+02 -0.19882880395E+04 -0.92658426152E+03  0.21945779352E+04  0.46999998093E+01 0.  1.
</event>
<event>
 5   0  0.5515000E-08  0.3995433E+04  0.7818609E-02  0.8005468E-01
        1   -1    0    0  501    0  0.00000000000E+00  0.00000000000E+00  0.23304495785E+04  0.23304495785E+04  0.50400001928E-02 0. -1.
       -1   -1    0    0    0  501  0.00000000000E+00  0.00000000000E+00 -0.17124898529E+04  0.17124898529E+04  0.50400001928E-02 0.  1.
    10030    2    1    2    0    0  0.00000000000E+00  0.00000000000E+00  0.61795972552E+03  0.40429394314E+04  0.39954330208E+04 0.  0.
        4    1    3    3  502    0  0.54798401968E+03  0.13015183478E+04 -0.11208439278E+04  0.18029224107E+04  0.12699999809E+01 0.  1.
       -4    1    3    3    0  502 -0.54798401968E+03 -0.13015183478E+04  0.17388036533E+04  0.22400170207E+04  0.12699999809E+01 0. -1.
</event>
<event>
 5   0  0.1785559E-07  0.3911807E+04  0.7818609E-02  0.8022578E-01
        2   -1    0    0  501    0  0.00000000000E+00  0.00000000000E+00  0.19608413765E+04  0.19608413765E+04  0.25500000920E-02 0.  1.
       -2   -1    0    0    0  501  0.00000000000E+00  0.00000000000E+00 -0.19509783208E+04  0.19509783208E+04  0.25500000920E-02 0. -1.
    10030    2    1    2    0    0  0.00000000000E+00  0.00000000000E+00  0.98630556822E+01  0.39118196973E+04  0.39118072632E+04 0.  0.
        2    1    3    3  502    0 -0.38065627602E+03 -0.71873005835E+03 -0.17738621740E+04  0.19514248921E+04  0.25500000920E-02 0. -1.
       -2    1    3    3    0  502  0.38065627602E+03  0.71873005835E+03  0.17837252297E+04  0.19603948052E+04  0.25500000920E-02 0.  1.
</event>
<event>
 5   0  0.1785559E-07  0.3968187E+04  0.7818609E-02  0.8010995E-01
       -2   -1    0    0    0  501  0.00000000000E+00  0.00000000000E+00  0.22033988480E+04  0.22033988480E+04  0.25500000920E-02 0.  1.
        2   -1    0    0  501    0  0.00000000000E+00  0.00000000000E+00 -0.17866152713E+04  0.17866152714E+04  0.25500000920E-02 0. -1.
    10030    2    1    2    0    0  0.00000000000E+00  0.00000000000E+00  0.41678357663E+03  0.39900141193E+04  0.39681865030E+04 0.  0.
        2    1    3    3  502    0 -0.14131483321E+04 -0.91950092556E+03 -0.84338105753E+03  0.18851423736E+04  0.25500000920E-02 0. -1.
       -2    1    3    3    0  502  0.14131483321E+04  0.91950092556E+03  0.12601646342E+04  0.21048717457E+04  0.25500000920E-02 0.  1.
</event>
<event>
 5   0  0.5515000E-08  0.3825195E+04  0.7818609E-02  0.8040770E-01
        1   -1    0    0  501    0  0.00000000000E+00  0.00000000000E+00  0.22851972584E+04  0.22851972584E+04  0.50400001928E-02 0.  1.
       -1   -1    0    0    0  501  0.00000000000E+00  0.00000000000E+00 -0.16007498533E+04  0.16007498533E+04  0.50400001928E-02 0. -1.
    10030    2    1    2    0    0  0.00000000000E+00  0.00000000000E+00  0.68444740515E+03  0.38859471117E+04  0.38251949891E+04 0.  0.
        3    1    3    3  502    0  0.77281960049E+01  0.48542912155E+03  0.22215583614E+04  0.22739882850E+04  0.10100000352E+00 0.  1.
       -3    1    3    3    0  502 -0.77281960049E+01 -0.48542912155E+03 -0.15371109562E+04  0.16119588267E+04  0.10100000352E+00 0. -1.
</event>
<event>
 5   0  0.5515000E-08  0.3997540E+04  0.7818609E-02  0.8005043E-01
       -1   -1    0    0    0  501  0.00000000000E+00  0.00000000000E+00  0.31872222485E+04  0.31872222485E+04  0.50400001928E-02 0.  1.
        1   -1    0    0  501    0  0.00000000000E+00  0.00000000000E+00 -0.12534682441E+04  0.12534682441E+04  0.50400001928E-02 0. -1.
    10030    2    1    2    0    0  0.00000000000E+00  0.00000000000E+00  0.19337540044E+04  0.44406904926E+04  0.39975401814E+04 0.  0.
        2    1    3    3  502    0 -0.42279185052E+03  0.70444913836E+03 -0.10572229908E+04  0.13389256849E+04  0.25500000920E-02 0. -1.
       -2    1    3    3    0  502  0.42279185052E+03 -0.70444913836E+03  0.29909769951E+04  0.31017648078E+04  0.25500000920E-02 0.  1.
</event>
<event>
 5   0  0.1819906E-07  0.3962674E+04  0.7818609E-02  0.8012119E-01
        2   -1    0    0  501    0  0.00000000000E+00  0.00000000000E+00  0.24122482946E+04  0.24122482946E+04  0.25500000920E-02 0.  1.
       -2   -1    0    0    0  501  0.00000000000E+00  0.00000000000E+00 -0.16274017323E+04  0.16274017323E+04  0.25500000920E-02 0. -1.
    10030    2    1    2    0    0  0.00000000000E+00  0.00000000000E+00  0.78484656228E+03  0.40396500268E+04  0.39626743763E+04 0.  0.
        1    1    3    3  502    0  0.10477458617E+03 -0.13492767697E+04 -0.10828126499E+04  0.17332076477E+04  0.50400001928E-02 0. -1.
       -1    1    3    3    0  502 -0.10477458617E+03  0.13492767697E+04  0.18676592122E+04  0.23064423791E+04  0.50400001928E-02 0.  1.
</event>
<event>
 5   0  0.5515000E-08  0.4054736E+04  0.7818609E-02  0.7993595E-01
        1   -1    0    0  501    0  0.00000000000E+00  0.00000000000E+00  0.14477265338E+04  0.14477265338E+04  0.50400001928E-02 0.  1.
       -1   -1    0    0    0  501  0.00000000000E+00  0.00000000000E+00 -0.28390871832E+04  0.28390871832E+04  0.50400001928E-02 0. -1.
    10030    2    1    2    0    0  0.00000000000E+00  0.00000000000E+00 -0.13913606494E+04  0.42868137170E+04  0.40547364140E+04 0.  0.
        4    1    3    3  502    0  0.88736972342E+03  0.16095363081E+04  0.20897534997E+03  0.18497849775E+04  0.12699999809E+01 0.  1.
       -4    1    3    3    0  502 -0.88736972342E+03 -0.16095363081E+04 -0.16003359994E+04  0.24370287395E+04  0.12699999809E+01 0. -1.
</event>
<event>
 5   0  0.1819906E-07  0.3955623E+04  0.7818609E-02  0.8013559E-01
       -2   -1    0    0    0  501  0.00000000000E+00  0.00000000000E+00  0.19908904115E+04  0.19908904115E+04  0.25500000920E-02 0.  1.
        2   -1    0    0  501    0  0.00000000000E+00  0.00000000000E+00 -0.19648189801E+04  0.19648189801E+04  0.25500000920E-02 0. -1.
    10030    2    1    2    0    0  0.00000000000E+00  0.00000000000E+00  0.26071431401E+02  0.39557093917E+04  0.39556234745E+04 0.  0.
        1    1    3    3  502    0  0.11897909447E+04 -0.41530187644E+03 -0.15113533650E+04  0.19678076976E+04  0.50400001928E-02 0. -1.
       -1    1    3    3    0  502 -0.11897909447E+04  0.41530187644E+03  0.15374247964E+04  0.19879016941E+04  0.50400001928E-02 0.  1.
</event>
<event>
 5   0  0.5515000E-08  0.3965987E+04  0.7818609E-02  0.8011443E-01
       -1   -1    0    0    0  501  0.00000000000E+00  0.00000000000E+00  0.27792471145E+04  0.27792471145E+04  0.50400001928E-02 0.  1.
        1   -1    0    0  501    0  0.00000000000E+00  0.00000000000E+00 -0.14148666033E+04  0.14148666033E+04  0.50400001928E-02 0. -1.
    10030    2    1    2    0    0  0.00000000000E+00  0.00000000000E+00  0.13643805111E+04  0.41941137178E+04  0.39659873548E+04 0.  0.
        1    1    3    3  502    0  0.69425926310E+03  0.71644804544E+03  0.24945259593E+04  0.26866249250E+04  0.50400001928E-02 0.  1.
       -1    1    3    3    0  502 -0.69425926310E+03 -0.71644804544E+03 -0.11301454482E+04  0.15074887927E+04  0.50400001928E-02 0. -1.
</event>
<event>
 5   0  0.1776653E-07  0.3991979E+04  0.7818609E-02  0.8006167E-01
       -2   -1    0    0    0  501  0.00000000000E+00  0.00000000000E+00  0.23142593847E+04  0.23142593847E+04  0.25500000920E-02 0. -1.
        2   -1    0    0  501    0  0.00000000000E+00  0.00000000000E+00 -0.17214897765E+04  0.17214897765E+04  0.25500000920E-02 0.  1.
    10030    2    1    2    0    0  0.00000000000E+00  0.00000000000E+00  0.59276960826E+03  0.40357491612E+04  0.39919788932E+04 0.  0.
        4    1    3    3  502    0 -0.15263211664E+04 -0.53799167106E+03  0.14774756667E+04  0.21913528470E+04  0.12699999809E+01 0. -1.
       -4    1    3    3    0  502  0.15263211664E+04  0.53799167106E+03 -0.88470605846E+03  0.18443963143E+04  0.12699999809E+01 0.  1.
</event>
<event>
 5   0  0.1773903E-07  0.3909921E+04  0.7818609E-02  0.8022969E-01
       -2   -1    0    0    0  501  0.00000000000E+00  0.00000000000E+00  0.20757945171E+04  0.20757945171E+04  0.25500000920E-02 0. -1.
        2   -1    0    0  501    0  0.00000000000E+00  0.00000000000E+00 -0.18411607500E+04  0.18411607500E+04  0.25500000920E-02 0.  1.
    10030    2    1    2    0    0  0.00000000000E+00  0.00000000000E+00  0.23463376711E+03  0.39169552670E+04  0.39099214262E+04 0.  0.
        3    1    3    3  502    0  0.78411853953E+03  0.16260521586E+04  0.86898920571E+03  0.20035043690E+04  0.10100000352E+00 0.  1.
       -3    1    3    3    0  502 -0.78411853953E+03 -0.16260521586E+04 -0.63435543859E+03  0.19134508981E+04  0.10100000352E+00 0. -1.
</event>
<event>
 5   0  0.1785559E-07  0.3715767E+04  0.7818609E-02  0.8064477E-01
        2   -1    0    0  501    0  0.00000000000E+00  0.00000000000E+00  0.24857789799E+04  0.24857789799E+04  0.25500000920E-02 0.  1.
       -2   -1    0    0    0  501  0.00000000000E+00  0.00000000000E+00 -0.13885914636E+04  0.13885914636E+04  0.25500000920E-02 0. -1.
    10030    2    1    2    0    0  0.00000000000E+00  0.00000000000E+00  0.10971875163E+04  0.38743704436E+04  0.37157672005E+04 0.  0.
        2    1    3    3  502    0  0.13929717772E+04 -0.62740484405E+03 -0.55375745674E+03  0.16250090865E+04  0.25500000920E-02 0. -1.
       -2    1    3    3    0  502 -0.13929717772E+04  0.62740484405E+03  0.16509449730E+04  0.22493613570E+04  0.25500000920E-02 0.  1.
</event>
<event>
 5   0  0.1819906E-07  0.4013347E+04  0.7818609E-02  0.8001859E-01
       -2   -1    0    0    0  501  0.00000000000E+00  0.00000000000E+00  0.20799259793E+04  0.20799259793E+04  0.25500000920E-02 0.  1.
        2   -1    0    0  501    0  0.00000000000E+00  0.00000000000E+00 -0.19360006918E+04  0.19360006918E+04  0.25500000920E-02 0. -1.
    10030    2    1    2    0    0  0.00000000000E+00  0.00000000000E+00  0.14392528747E+03  0.40159266711E+04  0.40133468003E+04 0.  0.
        1    1    3    3  502    0  0.60562676136E+03  0.14847798547E+04  0.12791307563E+04  0.20512265801E+04  0.50400001928E-02 0.  1.
       -1    1    3    3    0  502 -0.60562676136E+03 -0.14847798547E+04 -0.11352054689E+04  0.19647000910E+04  0.50400001928E-02 0. -1.
</event>
<event>
 5   0  0.5515000E-08  0.4005538E+04  0.7818609E-02  0.8003430E-01
       -1   -1    0    0    0  501  0.00000000000E+00  0.00000000000E+00  0.23439137936E+04  0.23439137936E+04  0.50400001928E-02 0. -1.
        1   -1    0    0  501    0  0.00000000000E+00  0.00000000000E+00 -0.17112757590E+04  0.17112757590E+04  0.50400001928E-02 0.  1.
    10030    2    1    2    0    0  0.00000000000E+00  0.00000000000E+00  0.63263803462E+03  0.40551895527E+04  0.40055375950E+04 0.  0.
        4    1    3    3  502    0  0.29560399709E+03 -0.19724327905E+04  0.13182836311E+03  0.19988129393E+04  0.12699999809E+01 0.  1.
       -4    1    3    3    0  502 -0.29560399709E+03  0.19724327905E+04  0.50080967150E+03  0.20563766134E+04  0.12699999809E+01 0. -1.
</event>
<event>
 5   0  0.1785559E-07  0.4042274E+04  0.7818609E-02  0.7996072E-01
        2   -1    0    0  501    0  0.00000000000E+00  0.00000000000E+00  0.13932480402E+04  0.13932480403E+04  0.25500000920E-02 0. -1.
       -2   -1    0    0    0  501  0.00000000000E+00  0.00000000000E+00 -0.29319941073E+04  0.29319941073E+04  0.25500000920E-02 0.  1.
    10030    2    1    2    0    0  0.00000000000E+00  0.00000000000E+00 -0.15387460671E+04  0.43252421476E+04  0.40422741342E+04 0.  0.
        2    1    3    3  502    0 -0.17930464150E+04  0.38425520265E+03 -0.16787663320E+04  0.24861463965E+04  0.25500000920E-02 0. -1.
       -2    1    3    3    0  502  0.17930464150E+04 -0.38425520265E+03  0.14002026494E+03  0.18390957511E+04  0.25500000920E-02 0.  1.
</event>
<event>
 5   0  0.5515000E-08  0.3998628E+04  0.7818609E-02  0.8004823E-01
        1   -1    0    0  501    0  0.00000000000E+00  0.00000000000E+00  0.12135485547E+04  0.12135485547E+04  0.50400001928E-02 0.  1.
       -1   -1    0    0    0  501  0.00000000000E+00  0.00000000000E+00 -0.32938575119E+04  0.32938575119E+04  0.50400001928E-02 0. -1.
    10030    2    1    2    0    0  0.00000000000E+00  0.00000000000E+00 -0.20803089572E+04  0.45074060666E+04  0.39986277761E+04 0.  0.
        5    1    3    3  502    0  0.12976792690E+04 -0.12716543900E+04 -0.99631353189E+02  0.18196221776E+04  0.46999998093E+01 0. -1.
       -5    1    3    3    0  502 -0.12976792690E+04  0.12716543900E+04 -0.19806776040E+04  0.26877838890E+04  0.46999998093E+01 0.  1.
</event>
<event>
 5   0  0.5515000E-08  0.4012757E+04  0.7818609E-02  0.8001978E-01
        1   -1    0    0  501    0  0.00000000000E+00  0.00000000000E+00  0.12084675591E+04  0.12084675591E+04  0.50400001928E-02 0.  1.
       -1   -1    0    0    0  501  0.00000000000E+00  0.00000000000E+00 -0.33311238351E+04  0.33311238351E+04  0.50400001928E-02 0. -1.
    10030    2    1    2    0    0  0.00000000000E+00  0.00000000000E+00 -0.21226562760E+04  0.45395913943E+04  0.40127572018E+04 0.  0.
        4    1    3    3  502    0  0.90688709424E+03 -0.12563990741E+03  0.95837239505E+03  0.13254089363E+04  0.12699999809E+01 0.  1.
       -4    1    3    3    0  502 -0.90688709424E+03  0.12563990741E+03 -0.30810286711E+04  0.32141824579E+04  0.12699999809E+01 0. -1.
</event>
<event>
 5   0  0.5515000E-08  0.4002136E+04  0.7818609E-02  0.8004116E-01
        1   -1    0    0  501    0  0.00000000000E+00  0.00000000000E+00  0.14447082783E+04  0.14447082783E+04  0.50400001928E-02 0.  1.
       -1   -1    0    0    0  501  0.00000000000E+00  0.00000000000E+00 -0.27716822396E+04  0.27716822396E+04  0.50400001928E-02 0. -1.
    10030    2    1    2    0    0  0.00000000000E+00  0.00000000000E+00 -0.13269739614E+04  0.42163905179E+04  0.40021355681E+04 0.  0.
        4    1    3    3  502    0 -0.61695614258E+03  0.19839628011E+03 -0.26580587847E+04  0.27359228939E+04  0.12699999809E+01 0. -1.
       -4    1    3    3    0  502  0.61695614258E+03 -0.19839628011E+03  0.13310848233E+04  0.14804676240E+04  0.12699999809E+01 0.  1.
</event>
<event>
 5   0  0.5515000E-08  0.4030960E+04  0.7818609E-02  0.7998330E-01
        3   -1    0    0  501    0  0.00000000000E+00  0.00000000000E+00  0.22221437694E+04  0.22221437717E+04  0.10100000352E+00 0.  1.
       -3   -1    0    0    0  501  0.00000000000E+00  0.00000000000E+00 -0.18280363811E+04  0.18280363839E+04  0.10100000352E+00 0. -1.
    10030    2    1    2    0    0  0.00000000000E+00  0.00000000000E+00  0.39410738830E+03  0.40501801556E+04  0.40309600171E+04 0.  0.
        4    1    3    3  502    0  0.88369242694E+02  0.19872559123E+04  0.52288819091E+03  0.20567957743E+04  0.12699999809E+01 0. -1.
       -4    1    3    3    0  502 -0.88369242694E+02 -0.19872559123E+04 -0.12878080261E+03  0.19933843814E+04  0.12699999809E+01 0.  1.
</event>
<event>
 5   0  0.1773903E-07  0.4009758E+04  0.7818609E-02  0.8002581E-01
       -2   -1    0    0    0  501  0.00000000000E+00  0.00000000000E+00  0.16534973775E+04  0.16534973775E+04  0.25500000920E-02 0. -1.
        2   -1    0    0  501    0  0.00000000000E+00  0.00000000000E+00 -0.24309318913E+04  0.24309318913E+04  0.25500000920E-02 0.  1.
    10030    2    1    2    0    0  0.00000000000E+00  0.00000000000E+00 -0.77743451374E+03  0.40844292688E+04  0.40097578516E+04 0.  0.
        3    1    3    3  502    0  0.14682838586E+03 -0.18226416644E+04 -0.12261948207E+04  0.22016209847E+04  0.10100000352E+00 0.  1.
       -3    1    3    3    0  502 -0.14682838586E+03  0.18226416644E+04  0.44876030698E+03  0.18828082842E+04  0.10100000352E+00 0. -1.
</event>
<event>
 5   0  0.1776653E-07  0.3930256E+04  0.7818609E-02  0.8018766E-01
        2   -1    0    0  501    0  0.00000000000E+00  0.00000000000E+00  0.20800163421E+04  0.20800163421E+04  0.25500000920E-02 0.  1.
       -2   -1    0    0    0  501  0.00000000000E+00  0.00000000000E+00 -0.18565851136E+04  0.18565851136E+04  0.25500000920E-02 0. -1.
    10030    2    1    2    0    0  0.00000000000E+00  0.00000000000E+00  0.22343122855E+03  0.39366014557E+04  0.39302556542E+04 0.  0.
        4    1    3    3  502    0 -0.28989692547E+03  0.18436351007E+04 -0.50466010189E+03  0.19333168502E+04  0.12699999809E+01 0. -1.
       -4    1    3    3    0  502  0.28989692547E+03 -0.18436351007E+04  0.72809133043E+03  0.20032846055E+04  0.12699999809E+01 0.  1.
</event>
<event>
 5   0  0.1821433E-07  0.4020513E+04  0.7818609E-02  0.8000421E-01
        2   -1    0    0  501    0  0.00000000000E+00  0.00000000000E+00  0.24373571860E+04  0.24373571860E+04  0.25500000920E-02 0. -1.
       -2   -1    0    0    0  501  0.00000000000E+00  0.00000000000E+00 -0.16579973903E+04  0.16579973903E+04  0.25500000920E-02 0.  1.
    10030    2    1    2    0    0  0.00000000000E+00  0.00000000000E+00  0.77935979570E+03  0.40953545764E+04  0.40205133273E+04 0.  0.
        5    1    3    3  502    0 -0.68505732943E+03  0.93122434973E+03 -0.12855087722E+04  0.17288832313E+04  0.46999998093E+01 0.  1.
       -5    1    3    3    0  502  0.68505732943E+03 -0.93122434973E+03  0.20648685679E+04  0.23664713450E+04  0.46999998093E+01 0. -1.
</event>
<event>
 5   0  0.5515000E-08  0.3985825E+04  0.7818609E-02  0.8007412E-01
       -1   -1    0    0    0  501  0.00000000000E+00  0.00000000000E+00  0.16171227271E+04  0.16171227272E+04  0.50400001928E-02 0.  1.
        1   -1    0    0  501    0  0.00000000000E+00  0.00000000000E+00 -0.24560285111E+04  0.24560285112E+04  0.50400001928E-02 0. -1.
    10030    2    1    2    0    0  0.00000000000E+00  0.00000000000E+00 -0.83890578400E+03  0.40731512383E+04  0.39858246444E+04 0.  0.
        2    1    3    3  502    0  0.80323144087E+02  0.10057871402E+04  0.13368164665E+04  0.16748545740E+04  0.25500000920E-02 0.  1.
       -2    1    3    3    0  502 -0.80323144087E+02 -0.10057871402E+04 -0.21757222505E+04  0.23982966643E+04  0.25500000920E-02 0. -1.
</event>
<event>
 5   0  0.5515000E-08  0.3977445E+04  0.7818609E-02  0.8009112E-01
       -1   -1    0    0    0  501  0.00000000000E+00  0.00000000000E+00  0.19279293541E+04  0.19279293541E+04  0.50400001928E-02 0.  1.
        1   -1    0    0  501    0  0.00000000000E+00  0.00000000000E+00 -0.20514327839E+04  0.20514327839E+04  0.50400001928E-02 0. -1.
    10030    2    1    2    0    0  0.00000000000E+00  0.00000000000E+00 -0.12350342978E+03  0.39793621380E+04  0.39774451509E+04 0.  0.
        2    1    3    3  502    0  0.17886053365E+04  0.83100407246E+03  0.19398968365E+03  0.19817438824E+04  0.25500000920E-02 0. -1.
       -2    1    3    3    0  502 -0.17886053365E+04 -0.83100407246E+03 -0.31749311343E+03  0.19976182556E+04  0.25500000920E-02 0.  1.
</event>
<event>
 5   0  0.5515000E-08  0.4021214E+04  0.7818609E-02  0.8000281E-01
       -1   -1    0    0    0  501  0.00000000000E+00  0.00000000000E+00  0.22523497518E+04  0.22523497518E+04  0.50400001928E-02 0.  1.
        1   -1    0    0  501    0  0.00000000000E+00  0.00000000000E+00 -0.17948099956E+04  0.17948099956E+04  0.50400001928E-02 0. -1.
    10030    2    1    2    0    0  0.00000000000E+00  0.00000000000E+00  0.45753975624E+03  0.40471597474E+04  0.40212136716E+04 0.  0.
        4    1    3    3  502    0  0.90112637124E+03 -0.10562725413E+04  0.16923874782E+04  0.21890448619E+04  0.12699999809E+01 0.  1.
       -4    1    3    3    0  502 -0.90112637124E+03  0.10562725413E+04 -0.12348477219E+04  0.18581148855E+04  0.12699999809E+01 0. -1.
</event>
<event>
 5   0  0.5515000E-08  0.4030568E+04  0.7818609E-02  0.7998408E-01
       -1   -1    0    0    0  501  0.00000000000E+00  0.00000000000E+00  0.17983878782E+04  0.17983878782E+04  0.50400001928E-02 0.  1.
        1   -1    0    0  501    0  0.00000000000E+00  0.00000000000E+00 -0.22583385738E+04  0.22583385738E+04  0.50400001928E-02 0. -1.
    10030    2    1    2    0    0  0.00000000000E+00  0.00000000000E+00 -0.45995069553E+03  0.40567264520E+04  0.40305675611E+04 0.  0.
        3    1    3    3  502    0 -0.22746858084E+03  0.60149126583E+03  0.16923509715E+04  0.18104103179E+04  0.10100000352E+00 0.  1.
       -3    1    3    3    0  502  0.22746858084E+03 -0.60149126583E+03 -0.21523016671E+04  0.22463161341E+04  0.10100000352E+00 0. -1.
</event>
<event>
 5   0  0.1776653E-07  0.4039802E+04  0.7818609E-02  0.7996565E-01
        2   -1    0    0  501    0  0.00000000000E+00  0.00000000000E+00  0.20980806900E+04  0.20980806900E+04  0.25500000920E-02 0.  1.
       -2   -1    0    0    0  501  0.00000000000E+00  0.00000000000E+00 -0.19446341367E+04  0.19446341367E+04  0.25500000920E-02 0. -1.
    10030    2    1    2    0    0  0.00000000000E+00  0.00000000000E+00  0.15344655335E+03  0.40427148268E+04  0.40398016443E+04 0.  0.
        4    1    3    3  502    0 -0.45357270499E+03 -0.60386104352E+03  0.19514725672E+04  0.20925159861E+04  0.12699999809E+01 0.  1.
       -4    1    3    3    0  502  0.45357270499E+03  0.60386104352E+03 -0.17980260139E+04  0.19501988406E+04  0.12699999809E+01 0. -1.
</event>
<event>
 5   0  0.1821433E-07  0.4000585E+04  0.7818609E-02  0.8004429E-01
       -2   -1    0    0    0  501  0.00000000000E+00  0.00000000000E+00  0.29558584193E+04  0.29558584193E+04  0.25500000920E-02 0.  1.
        2   -1    0    0  501    0  0.00000000000E+00  0.00000000000E+00 -0.13536404498E+04  0.13536404498E+04  0.25500000920E-02 0. -1.
    10030    2    1    2    0    0  0.00000000000E+00  0.00000000000E+00  0.16022179695E+04  0.43094988691E+04  0.40005847174E+04 0.  0.
        5    1    3    3  502    0  0.21930752570E+03  0.44890234672E+03 -0.12853410702E+04  0.13790333079E+04  0.46999998093E+01 0. -1.
       -5    1    3    3    0  502 -0.21930752570E+03 -0.44890234672E+03  0.28875590397E+04  0.29304655612E+04  0.46999998093E+01 0.  1.
</event>
<event>
 5   0  0.5515000E-08  0.4075188E+04  0.7818609E-02  0.7989548E-01
        1   -1    0    0  501    0  0.00000000000E+00  0.00000000000E+00  0.14309155632E+04  0.14309155632E+04  0.50400001928E-02 0.  1.
       -1   -1    0    0    0  501  0.00000000000E+00  0.00000000000E+00 -0.29014919431E+04  0.29014919431E+04  0.50400001928E-02 0. -1.
    10030    2    1    2    0    0  0.00000000000E+00  0.00000000000E+00 -0.14705763799E+04  0.43324075064E+04  0.40751883284E+04 0.  0.
        5    1    3    3  502    0  0.15205589127E+04  0.11836852766E+04 -0.31252039090E+02  0.19272283261E+04  0.46999998093E+01 0.  1.
       -5    1    3    3    0  502 -0.15205589127E+04 -0.11836852766E+04 -0.14393243408E+04  0.24051791803E+04  0.46999998093E+01 0. -1.
</event>
<event>
 5   0  0.1819906E-07  0.3994408E+04  0.7818609E-02  0.8005675E-01
        2   -1    0    0  501    0  0.00000000000E+00  0.00000000000E+00  0.25574812225E+04  0.25574812225E+04  0.25500000920E-02 0.  1.
       -2   -1    0    0    0  501  0.00000000000E+00  0.00000000000E+00 -0.15596691978E+04  0.15596691978E+04  0.25500000920E-02 0. -1.
    10030    2    1    2    0    0  0.00000000000E+00  0.00000000000E+00  0.99781202467E+03  0.41171504203E+04  0.39944084352E+04 0.  0.
        1    1    3    3  502    0  0.10611952279E+04 -0.13832882744E+04 -0.50530226781E+03  0.18152003040E+04  0.50400001928E-02 0. -1.
       -1    1    3    3    0  502 -0.10611952279E+04  0.13832882744E+04  0.15031142925E+04  0.23019501163E+04  0.50400001928E-02 0.  1.
</event>
<event>
 5   0  0.1785559E-07  0.4038911E+04  0.7818609E-02  0.7996743E-01
       -2   -1    0    0    0  501  0.00000000000E+00  0.00000000000E+00  0.16096226069E+04  0.16096226069E+04  0.25500000920E-02 0. -1.
        2   -1    0    0  501    0  0.00000000000E+00  0.00000000000E+00 -0.25336372894E+04  0.25336372894E+04  0.25500000920E-02 0.  1.
    10030    2    1    2    0    0  0.00000000000E+00  0.00000000000E+00 -0.92401468254E+03  0.41432598962E+04  0.40389106742E+04 0.  0.
        2    1    3    3  502    0 -0.56948983641E+03 -0.13478816291E+04 -0.18897618283E+04  0.23900425368E+04  0.25500000920E-02 0.  1.
       -2    1    3    3    0  502  0.56948983641E+03  0.13478816291E+04  0.96574714576E+03  0.17532173595E+04  0.25500000920E-02 0. -1.
</event>
<event>
 5   0  0.1785559E-07  0.3410152E+04  0.7818609E-02  0.8135419E-01
        2   -1    0    0  501    0  0.00000000000E+00  0.00000000000E+00  0.17558048372E+04  0.17558048372E+04  0.25500000920E-02 0.  1.
       -2   -1    0    0    0  501  0.00000000000E+00  0.00000000000E+00 -0.16558124702E+04  0.16558124702E+04  0.25500000920E-02 0. -1.
    10030    2    1    2    0    0  0.00000000000E+00  0.00000000000E+00  0.99992366968E+02  0.34116173075E+04  0.34101516358E+04 0.  0.
        2    1    3    3  502    0 -0.19344662689E+01 -0.57552699055E+03 -0.15557009597E+04  0.16587466759E+04  0.25500000920E-02 0. -1.
       -2    1    3    3    0  502  0.19344662689E+01  0.57552699055E+03  0.16556933266E+04  0.17528706315E+04  0.25500000920E-02 0.  1.
</event>
<event>
 5   0  0.5515000E-08  0.3990688E+04  0.7818609E-02  0.8006428E-01
        1   -1    0    0  501    0  0.00000000000E+00  0.00000000000E+00  0.24045994703E+04  0.24045994703E+04  0.50400001928E-02 0. -1.
       -1   -1    0    0    0  501  0.00000000000E+00  0.00000000000E+00 -0.16557428857E+04  0.16557428857E+04  0.50400001928E-02 0.  1.
    10030    2    1    2    0    0  0.00000000000E+00  0.00000000000E+00  0.74885658457E+03  0.40603423560E+04  0.39906883947E+04 0.  0.
        4    1    3    3  502    0 -0.19931849453E+04 -0.89991487893E+02  0.39745421941E+03  0.20344178931E+04  0.12699999809E+01 0. -1.
       -4    1    3    3    0  502  0.19931849453E+04  0.89991487893E+02  0.35140236516E+03  0.20259244629E+04  0.12699999809E+01 0.  1.
</event>
<event>
 5   0  0.5515000E-08  0.3984267E+04  0.7818609E-02  0.8007728E-01
        1   -1    0    0  501    0  0.00000000000E+00  0.00000000000E+00  0.11623864061E+04  0.11623864062E+04  0.50400001928E-02 0.  1.
       -1   -1    0    0    0  501  0.00000000000E+00  0.00000000000E+00 -0.34141797512E+04  0.34141797512E+04  0.50400001928E-02 0. -1.
    10030    2    1    2    0    0  0.00000000000E+00  0.00000000000E+00 -0.22517933451E+04  0.45765661574E+04  0.39842671251E+04 0.  0.
        1    1    3    3  502    0  0.17956581363E+04  0.85627110878E+03 -0.10053816728E+04  0.22289864653E+04  0.50400001928E-02 0. -1.
       -1    1    3    3    0  502 -0.17956581363E+04 -0.85627110878E+03 -0.12464116722E+04  0.23475796921E+04  0.50400001928E-02 0.  1.
</event>
<event>
 5   0  0.1821433E-07  0.3273031E+04  0.7818609E-02  0.8169792E-01
        2   -1    0    0  501    0  0.00000000000E+00  0.00000000000E+00  0.18547825838E+04  0.18547825838E+04  0.25500000920E-02 0.  1.
       -2   -1    0    0    0  501  0.00000000000E+00  0.00000000000E+00 -0.14439336614E+04  0.14439336614E+04  0.25500000920E-02 0. -1.
    10030    2    1    2    0    0  0.00000000000E+00  0.00000000000E+00  0.41084892246E+03  0.32987162452E+04  0.32730310156E+04 0.  0.
        5    1    3    3  502    0  0.59165209151E+03  0.70338481958E+03 -0.11592169259E+04  0.14793945968E+04  0.46999998093E+01 0. -1.
       -5    1    3    3    0  502 -0.59165209151E+03 -0.70338481958E+03  0.15700658484E+04  0.18193216483E+04  0.46999998093E+01 0.  1.
</event>
<event>
 5   0  0.5515000E-08  0.4017586E+04  0.7818609E-02  0.8001008E-01
       -1   -1    0    0    0  501  0.00000000000E+00  0.00000000000E+00  0.23226558094E+04  0.23226558094E+04  0.50400001928E-02 0. -1.
        1   -1    0    0  501    0  0.00000000000E+00  0.00000000000E+00 -0.17373431947E+04  0.17373431947E+04  0.50400001928E-02 0.  1.
    10030    2    1    2    0    0  0.00000000000E+00  0.00000000000E+00  0.58531261467E+03  0.40599990041E+04  0.40175864716E+04 0.  0.
        5    1    3    3  502    0  0.80139666255E+03 -0.66360701330E+03 -0.14438016540E+04  0.17796618176E+04  0.46999998093E+01 0.  1.
       -5    1    3    3    0  502 -0.80139666255E+03  0.66360701330E+03  0.20291142687E+04  0.22803371865E+04  0.46999998093E+01 0. -1.
</event>
<event>
 5   0  0.1785559E-07  0.3997197E+04  0.7818609E-02  0.8005112E-01
        2   -1    0    0  501    0  0.00000000000E+00  0.00000000000E+00  0.18672513225E+04  0.18672513225E+04  0.25500000920E-02 0. -1.
       -2   -1    0    0    0  501  0.00000000000E+00  0.00000000000E+00 -0.21391848239E+04  0.21391848239E+04  0.25500000920E-02 0.  1.
    10030    2    1    2    0    0  0.00000000000E+00  0.00000000000E+00 -0.27193350146E+03  0.40064361464E+04  0.39971968636E+04 0.  0.
        2    1    3    3  502    0 -0.12346694480E+04  0.15146485055E+04  0.28431971940E+03  0.19746914807E+04  0.25500000920E-02 0. -1.
       -2    1    3    3    0  502  0.12346694480E+04 -0.15146485055E+04 -0.55625322086E+03  0.20317446657E+04  0.25500000920E-02 0.  1.
</event>
<event>
 5   0  0.1776653E-07  0.4037055E+04  0.7818609E-02  0.7997113E-01
        2   -1    0    0  501    0  0.00000000000E+00  0.00000000000E+00  0.23101913713E+04  0.23101913713E+04  0.25500000920E-02 0.  1.
       -2   -1    0    0    0  501  0.00000000000E+00  0.00000000000E+00 -0.17636861321E+04  0.17636861322E+04  0.25500000920E-02 0. -1.
    10030    2    1    2    0    0  0.00000000000E+00  0.00000000000E+00  0.54650523912E+03  0.40738775034E+04  0.40370546115E+04 0.  0.
        4    1    3    3  502    0 -0.10514923775E+04 -0.13987090713E+04 -0.74211971587E+03  0.19007279058E+04  0.12699999809E+01 0. -1.
       -4    1    3    3    0  502  0.10514923775E+04  0.13987090713E+04  0.12886249550E+04  0.21731495976E+04  0.12699999809E+01 0.  1.
</event>
<event>
 5   0  0.5515000E-08  0.3979801E+04  0.7818609E-02  0.8008634E-01
       -1   -1    0    0    0  501  0.00000000000E+00  0.00000000000E+00  0.13842008304E+04  0.13842008304E+04  0.50400001928E-02 0. -1.
        1   -1    0    0  501    0  0.00000000000E+00  0.00000000000E+00 -0.28606420092E+04  0.28606420092E+04  0.50400001928E-02 0.  1.
    10030    2    1    2    0    0  0.00000000000E+00  0.00000000000E+00 -0.14764411788E+04  0.42448428397E+04  0.39798005200E+04 0.  0.
        4    1    3    3  502    0 -0.99226495860E+03  0.15897314122E+04 -0.14520167750E+04  0.23706939994E+04  0.12699999809E+01 0. -1.
       -4    1    3    3    0  502  0.99226495860E+03 -0.15897314122E+04 -0.24424403753E+02  0.18741488402E+04  0.12699999809E+01 0.  1.
</event>
<event>
 5   0  0.1821433E-07  0.3988190E+04  0.7818609E-02  0.8006933E-01
        2   -1    0    0  501    0  0.00000000000E+00  0.00000000000E+00  0.28425840641E+04  0.28425840641E+04  0.25500000920E-02 0.  1.
       -2   -1    0    0    0  501  0.00000000000E+00  0.00000000000E+00 -0.13988736110E+04  0.13988736110E+04  0.25500000920E-02 0. -1.
    10030    2    1    2    0    0  0.00000000000E+00  0.00000000000E+00  0.14437104531E+04  0.42414576751E+04  0.39881904841E+04 0.  0.
        5    1    3    3  502    0 -0.40764585046E+03  0.12509117646E+04  0.23154937286E+04  0.26631726717E+04  0.46999998093E+01 0.  1.
       -5    1    3    3    0  502  0.40764585046E+03 -0.12509117646E+04 -0.87178327553E+03  0.15782850033E+04  0.46999998093E+01 0. -1.
</event>
<event>
 5   0  0.1773903E-07  0.3981139E+04  0.7818609E-02  0.8008362E-01
       -2   -1    0    0    0  501  0.00000000000E+00  0.00000000000E+00  0.11943328186E+04  0.11943328186E+04  0.25500000920E-02 0.  1.
        2   -1    0    0  501    0  0.00000000000E+00  0.00000000000E+00 -0.33176400796E+04  0.33176400796E+04  0.25500000920E-02 0. -1.
    10030    2    1    2    0    0  0.00000000000E+00  0.00000000000E+00 -0.21233072610E+04  0.45119728983E+04  0.39811387454E+04 0.  0.
        3    1    3    3  502    0  0.12108261271E+04  0.11818847429E+04  0.12668438456E+03  0.16967617391E+04  0.10100000352E+00 0.  1.
       -3    1    3    3    0  502 -0.12108261271E+04 -0.11818847429E+04 -0.22499916456E+04  0.28152111592E+04  0.10100000352E+00 0. -1.
</event>
<event>
 5   0  0.1776653E-07  0.3990446E+04  0.7818609E-02  0.8006477E-01
       -2   -1    0    0    0  501  0.00000000000E+00  0.00000000000E+00  0.15775001327E+04  0.15775001327E+04  0.25500000920E-02 0.  1.
        2   -1    0    0  501    0  0.00000000000E+00  0.00000000000E+00 -0.25235589843E+04  0.25235589843E+04  0.25500000920E-02 0. -1.
    10030    2    1    2    0    0  0.00000000000E+00  0.00000000000E+00 -0.94605885157E+03  0.41010591170E+04  0.39904459062E+04 0.  0.
        4    1    3    3  502    0  0.91874568751E+03 -0.89040877755E+03  0.11004194134E+04  0.16875561998E+04  0.12699999809E+01 0.  1.
       -4    1    3    3    0  502 -0.91874568751E+03  0.89040877755E+03 -0.20464782649E+04  0.24135029172E+04  0.12699999809E+01 0. -1.
</event>
<event>
 5   0  0.5515000E-08  0.4060655E+04  0.7818609E-02  0.7992421E-01
       -1   -1    0    0    0  501  0.00000000000E+00  0.00000000000E+00  0.13352363907E+04  0.13352363907E+04  0.50400001928E-02 0. -1.
        1   -1    0    0  501    0  0.00000000000E+00  0.00000000000E+00 -0.30872665945E+04  0.30872665945E+04  0.50400001928E-02 0.  1.
    10030    2    1    2    0    0  0.00000000000E+00  0.00000000000E+00 -0.17520302038E+04  0.44225029852E+04  0.40606554667E+04 0.  0.
        2    1    3    3  502    0 -0.15293649666E+03 -0.19581383158E+04 -0.14361774934E+04  0.24331668723E+04  0.25500000920E-02 0.  1.
       -2    1    3    3    0  502  0.15293649666E+03  0.19581383158E+04 -0.31585271035E+03  0.19893361130E+04  0.25500000920E-02 0. -1.
</event>
<event>
 5   0  0.1821433E-07  0.3937355E+04  0.7818609E-02  0.8017305E-01
       -2   -1    0    0    0  501  0.00000000000E+00  0.00000000000E+00  0.14648444107E+04  0.14648444107E+04  0.25500000920E-02 0. -1.
        2   -1    0    0  501    0  0.00000000000E+00  0.00000000000E+00 -0.26458042240E+04  0.26458042240E+04  0.25500000920E-02 0.  1.
    10030    2    1    2    0    0  0.00000000000E+00  0.00000000000E+00 -0.11809598133E+04  0.41106486347E+04  0.39373552186E+04 0.  0.
        5    1    3    3  502    0  0.15413442845E+04  0.34331547419E+03 -0.18178328769E+04  0.24079340058E+04  0.46999998093E+01 0.  1.
       -5    1    3    3    0  502 -0.15413442845E+04 -0.34331547419E+03  0.63687306360E+03  0.17027146289E+04  0.46999998093E+01 0. -1.
</event>
<event>
 5   0  0.5515000E-08  0.4036704E+04  0.7818609E-02  0.7997183E-01
       -1   -1    0    0    0  501  0.00000000000E+00  0.00000000000E+00  0.16552282221E+04  0.16552282221E+04  0.50400001928E-02 0.  1.
        1   -1    0    0  501    0  0.00000000000E+00  0.00000000000E+00 -0.24611376285E+04  0.24611376285E+04  0.50400001928E-02 0. -1.
    10030    2    1    2    0    0  0.00000000000E+00  0.00000000000E+00 -0.80590940639E+03  0.41163658506E+04  0.40367038342E+04 0.  0.
        5    1    3    3  502    0  0.13140780557E+04  0.11139520997E+04 -0.14753895487E+04  0.22681461213E+04  0.46999998093E+01 0.  1.
       -5    1    3    3    0  502 -0.13140780557E+04 -0.11139520997E+04  0.66948014234E+03  0.18482197293E+04  0.46999998093E+01 0. -1.
</event>
<event>
 5   0  0.1776653E-07  0.3996092E+04  0.7818609E-02  0.8005335E-01
       -2   -1    0    0    0  501  0.00000000000E+00  0.00000000000E+00  0.15396404724E+04  0.15396404724E+04  0.25500000920E-02 0.  1.
        2   -1    0    0  501    0  0.00000000000E+00  0.00000000000E+00 -0.25929347875E+04  0.25929347875E+04  0.25500000920E-02 0. -1.
    10030    2    1    2    0    0  0.00000000000E+00  0.00000000000E+00 -0.10532943151E+04  0.41325752599E+04  0.39960917613E+04 0.  0.
        4    1    3    3  502    0  0.22123998325E+03  0.70166483469E+03  0.13944610378E+04  0.15766432282E+04  0.12699999809E+01 0.  1.
       -4    1    3    3    0  502 -0.22123998325E+03 -0.70166483469E+03 -0.24477553528E+04  0.25559320317E+04  0.12699999809E+01 0. -1.
</event>
<event>
 5   0  0.5515000E-08  0.3993818E+04  0.7818609E-02  0.8005795E-01
        1   -1    0    0  501    0  0.00000000000E+00  0.00000000000E+00  0.11891080515E+04  0.11891080515E+04  0.50400001928E-02 0. -1.
       -1   -1    0    0    0  501  0.00000000000E+00  0.00000000000E+00 -0.33534768392E+04  0.33534768392E+04  0.50400001928E-02 0.  1.
    10030    2    1    2    0    0  0.00000000000E+00  0.00000000000E+00 -0.21643687877E+04  0.45425848907E+04  0.39938183785E+04 0.  0.
        3    1    3    3  502    0  0.84020278329E+03  0.48165728517E+02  0.97754888817E+03  0.12899079399E+04  0.10100000352E+00 0. -1.
       -3    1    3    3    0  502 -0.84020278329E+03 -0.48165728517E+02 -0.31419176759E+04  0.32526769508E+04  0.10100000352E+00 0.  1.
</event>
<event>
 5   0  0.1821433E-07  0.3959878E+04  0.7818609E-02  0.8012690E-01
        2   -1    0    0  501    0  0.00000000000E+00  0.00000000000E+00  0.25537052366E+04  0.25537052366E+04  0.25500000920E-02 0.  1.
       -2   -1    0    0    0  501  0.00000000000E+00  0.00000000000E+00 -0.15350867459E+04  0.15350867459E+04  0.25500000920E-02 0. -1.
    10030    2    1    2    0    0  0.00000000000E+00  0.00000000000E+00  0.10186184907E+04  0.40887919825E+04  0.39598783121E+04 0.  0.
        5    1    3    3  502    0  0.10952510402E+04  0.44843690147E+03 -0.11296474101E+04  0.16360916408E+04  0.46999998093E+01 0. -1.
       -5    1    3    3    0  502 -0.10952510402E+04 -0.44843690147E+03  0.21482659009E+04  0.24527003418E+04  0.46999998093E+01 0.  1.
</event>
<event>
 5   0  0.5515000E-08  0.3961587E+04  0.7818609E-02  0.8012341E-01
        1   -1    0    0  501    0  0.00000000000E+00  0.00000000000E+00  0.24603504432E+04  0.24603504432E+04  0.50400001928E-02 0. -1.
       -1   -1    0    0    0  501  0.00000000000E+00  0.00000000000E+00 -0.15947092269E+04  0.15947092269E+04  0.50400001928E-02 0.  1.
    10030    2    1    2    0    0  0.00000000000E+00  0.00000000000E+00  0.86564121623E+03  0.40550596701E+04  0.39615873350E+04 0.  0.
        5    1    3    3  502    0  0.77719019940E+03  0.62288414609E+03 -0.13197433151E+04  0.16534067174E+04  0.46999998093E+01 0.  1.
       -5    1    3    3    0  502 -0.77719019940E+03 -0.62288414609E+03  0.21853845313E+04  0.24016529527E+04  0.46999998093E+01 0. -1.
</event>
<event>
 5   0  0.5515000E-08  0.4009953E+04  0.7818609E-02  0.8002542E-01
        1   -1    0    0  501    0  0.00000000000E+00  0.00000000000E+00  0.15445344227E+04  0.15445344227E+04  0.50400001928E-02 0. -1.
       -1   -1    0    0    0  501  0.00000000000E+00  0.00000000000E+00 -0.26026806686E+04  0.26026806686E+04  0.50400001928E-02 0.  1.
    10030    2    1    2    0    0  0.00000000000E+00  0.00000000000E+00 -0.10581462459E+04  0.41472150913E+04  0.40099525603E+04 0.  0.
        5    1    3    3  502    0 -0.52015662650E+02  0.17629575221E+04  0.45707684394E+03  0.18219951112E+04  0.46999998093E+01 0. -1.
       -5    1    3    3    0  502  0.52015662650E+02 -0.17629575221E+04 -0.15152230898E+04  0.23252199801E+04  0.46999998093E+01 0.  1.
</event>
<event>
 5   0  0.1821433E-07  0.3858847E+04  0.7818609E-02  0.8033643E-01
        2   -1    0    0  501    0  0.00000000000E+00  0.00000000000E+00  0.18242757674E+04  0.18242757674E+04  0.25500000920E-02 0.  1.
       -2   -1    0    0    0  501  0.00000000000E+00  0.00000000000E+00 -0.20406319157E+04  0.20406319157E+04  0.25500000920E-02 0. -1.
    10030    2    1    2    0    0  0.00000000000E+00  0.00000000000E+00 -0.21635614826E+03  0.38649076831E+04  0.38588471615E+04 0.  0.
        5    1    3    3  502    0 -0.14660578428E+04  0.10129132263E+04  0.63280441312E+03  0.18909739072E+04  0.46999998093E+01 0.  1.
       -5    1    3    3    0  502  0.14660578428E+04 -0.10129132263E+04 -0.84916056139E+03  0.19739337759E+04  0.46999998093E+01 0. -1.
</event>
<event>
 5   0  0.5515000E-08  0.3995300E+04  0.7818609E-02  0.8005495E-01
       -1   -1    0    0    0  501  0.00000000000E+00  0.00000000000E+00  0.17550515366E+04  0.17550515366E+04  0.50400001928E-02 0. -1.
        1   -1    0    0  501    0  0.00000000000E+00  0.00000000000E+00 -0.22737826693E+04  0.22737826693E+04  0.50400001928E-02 0.  1.
    10030    2    1    2    0    0  0.00000000000E+00  0.00000000000E+00 -0.51873113262E+03  0.40288342059E+04  0.39953001227E+04 0.  0.
        1    1    3    3  502    0 -0.20297659039E+03  0.11034501826E+04  0.14073241382E+04  0.17998230557E+04  0.50400001928E-02 0. -1.
       -1    1    3    3    0  502  0.20297659039E+03 -0.11034501826E+04 -0.19260552708E+04  0.22290111502E+04  0.50400001928E-02 0.  1.
</event>
<event>
 5   0  0.5515000E-08  0.4078448E+04  0.7818609E-02  0.7988906E-01
        1   -1    0    0  501    0  0.00000000000E+00  0.00000000000E+00  0.16349263923E+04  0.16349263923E+04  0.50400001928E-02 0. -1.
       -1   -1    0    0    0  501  0.00000000000E+00  0.00000000000E+00 -0.25434989734E+04  0.25434989734E+04  0.50400001928E-02 0.  1.
    10030    2    1    2    0    0  0.00000000000E+00  0.00000000000E+00 -0.90857258110E+03  0.41784253656E+04  0.40784475479E+04 0.  0.
        4    1    3    3  502    0 -0.15527435187E+04  0.10617277320E+04  0.35251663431E+03  0.19137784099E+04  0.12699999809E+01 0. -1.
       -4    1    3    3    0  502  0.15527435187E+04 -0.10617277320E+04 -0.12610892154E+04  0.22646469557E+04  0.12699999809E+01 0.  1.
</event>
<event>
 5   0  0.5515000E-08  0.3935870E+04  0.7818609E-02  0.8017610E-01
        1   -1    0    0  501    0  0.00000000000E+00  0.00000000000E+00  0.27756018181E+04  0.27756018181E+04  0.50400001928E-02 0. -1.
       -1   -1    0    0    0  501  0.00000000000E+00  0.00000000000E+00 -0.13952898064E+04  0.13952898064E+04  0.50400001928E-02 0.  1.
    10030    2    1    2    0    0  0.00000000000E+00  0.00000000000E+00  0.13803120117E+04  0.41708916245E+04  0.39358703858E+04 0.  0.
        5    1    3    3  502    0  0.16471185128E+04 -0.10689602023E+04  0.55169602464E+03  0.20396239611E+04  0.46999998093E+01 0.  1.
       -5    1    3    3    0  502 -0.16471185128E+04  0.10689602023E+04  0.82861598706E+03  0.21312676634E+04  0.46999998093E+01 0. -1.
</event>
<event>
 5   0  0.5515000E-08  0.4237733E+04  0.7818609E-02  0.7958233E-01
       -1   -1    0    0    0  501  0.00000000000E+00  0.00000000000E+00  0.29826204281E+04  0.29826204282E+04  0.50400001928E-02 0. -1.
        1   -1    0    0  501    0  0.00000000000E+00  0.00000000000E+00 -0.15052521274E+04  0.15052521274E+04  0.50400001928E-02 0.  1.
    10030    2    1    2    0    0  0.00000000000E+00  0.00000000000E+00  0.14773683008E+04  0.44878725555E+04  0.42377332359E+04 0.  0.
        4    1    3    3  502    0  0.17187464831E+04  0.12380490388E+04  0.79411118523E+03  0.22621823717E+04  0.12699999809E+01 0. -1.
       -4    1    3    3    0  502 -0.17187464831E+04 -0.12380490388E+04  0.68325711553E+03  0.22256901838E+04  0.12699999809E+01 0.  1.
</event>
<event>
 5   0  0.5515000E-08  0.4025977E+04  0.7818609E-02  0.7999327E-01
        1   -1    0    0  501    0  0.00000000000E+00  0.00000000000E+00  0.22856633820E+04  0.22856633820E+04  0.50400001928E-02 0.  1.
       -1   -1    0    0    0  501  0.00000000000E+00  0.00000000000E+00 -0.17728427776E+04  0.17728427776E+04  0.50400001928E-02 0. -1.
    10030    2    1    2    0    0  0.00000000000E+00  0.00000000000E+00  0.51282060438E+03  0.40585061596E+04  0.40259765617E+04 0.  0.
        4    1    3    3  502    0 -0.48161008281E+03  0.18580970839E+04  0.86764862502E+03  0.21064873117E+04  0.12699999809E+01 0.  1.
       -4    1    3    3    0  502  0.48161008281E+03 -0.18580970839E+04 -0.35482802064E+03  0.19520188478E+04  0.12699999809E+01 0. -1.
</event>
<event>
 5   0  0.5515000E-08  0.3980250E+04  0.7818609E-02  0.8008543E-01
        1   -1    0    0  501    0  0.00000000000E+00  0.00000000000E+00  0.15334132291E+04  0.15334132291E+04  0.50400001928E-02 0.  1.
       -1   -1    0    0    0  501  0.00000000000E+00  0.00000000000E+00 -0.25828635011E+04  0.25828635011E+04  0.50400001928E-02 0. -1.
    10030    2    1    2    0    0  0.00000000000E+00  0.00000000000E+00 -0.10494502720E+04  0.41162767302E+04  0.39802497718E+04 0.  0.
        4    1    3    3  502    0  0.32513117653E+03 -0.15920322515E+04  0.66359536122E+03  0.17551744609E+04  0.12699999809E+01 0.  1.
       -4    1    3    3    0  502 -0.32513117653E+03  0.15920322515E+04 -0.17130456332E+04  0.23611022693E+04  0.12699999809E+01 0. -1.
</event>
<event>
 5   0  0.5515000E-08  0.3941987E+04  0.7818609E-02  0.8016353E-01
       -1   -1    0    0    0  501  0.00000000000E+00  0.00000000000E+00  0.14339246458E+04  0.14339246458E+04  0.50400001928E-02 0.  1.
        1   -1    0    0  501    0  0.00000000000E+00  0.00000000000E+00 -0.27092191527E+04  0.27092191527E+04  0.50400001928E-02 0. -1.
    10030    2    1    2    0    0  0.00000000000E+00  0.00000000000E+00 -0.12752945069E+04  0.41431437985E+04  0.39419873739E+04 0.  0.
        3    1    3    3  502    0 -0.19408895108E+03 -0.13148961761E+04  0.89202224397E+03  0.16007267627E+04  0.10100000352E+00 0.  1.
       -3    1    3    3    0  502  0.19408895108E+03  0.13148961761E+04 -0.21673167509E+04  0.25424170358E+04  0.10100000352E+00 0. -1.
</event>
<event>
 5   0  0.1785559E-07  0.4061442E+04  0.7818609E-02  0.7992265E-01
       -2   -1    0    0    0  501  0.00000000000E+00  0.00000000000E+00  0.16847120109E+04  0.16847120109E+04  0.25500000920E-02 0. -1.
        2   -1    0    0  501    0  0.00000000000E+00  0.00000000000E+00 -0.24477942011E+04  0.24477942011E+04  0.25500000920E-02 0.  1.
    10030    2    1    2    0    0  0.00000000000E+00  0.00000000000E+00 -0.76308219024E+03  0.41325062120E+04  0.40614422516E+04 0.  0.
        2    1    3    3  502    0 -0.12564736039E+04 -0.15772089843E+04 -0.62555846940E+03  0.21113117951E+04  0.25500000920E-02 0. -1.
       -2    1    3    3    0  502  0.12564736039E+04  0.15772089843E+04 -0.13752372085E+03  0.20211944170E+04  0.25500000920E-02 0.  1.
</event>
<event>
 5   0  0.5515000E-08  0.4045121E+04  0.7818609E-02  0.7995506E-01
       -1   -1    0    0    0  501  0.00000000000E+00  0.00000000000E+00  0.16744042289E+04  0.16744042289E+04  0.50400001928E-02 0.  1.
        1   -1    0    0  501    0  0.00000000000E+00  0.00000000000E+00 -0.24431079726E+04  0.24431079726E+04  0.50400001928E-02 0. -1.
    10030    2    1    2    0    0  0.00000000000E+00  0.00000000000E+00 -0.76870374372E+03  0.41175122014E+04  0.40451206760E+04 0.  0.
        3    1    3    3  502    0 -0.13435305066E+04  0.17799879799E+03  0.11438462003E+04  0.17734548019E+04  0.10100000352E+00 0.  1.
       -3    1    3    3    0  502  0.13435305066E+04 -0.17799879799E+03 -0.19125499440E+04  0.23440573996E+04  0.10100000352E+00 0. -1.
</event>
<event>
 5   0  0.5515000E-08  0.3960906E+04  0.7818609E-02  0.8012480E-01
       -1   -1    0    0    0  501  0.00000000000E+00  0.00000000000E+00  0.15179489245E+04  0.15179489245E+04  0.50400001928E-02 0.  1.
        1   -1    0    0  501    0  0.00000000000E+00  0.00000000000E+00 -0.25838778853E+04  0.25838778853E+04  0.50400001928E-02 0. -1.
    10030    2    1    2    0    0  0.00000000000E+00  0.00000000000E+00 -0.10659289607E+04  0.41018268098E+04  0.39609062887E+04 0.  0.
        1    1    3    3  502    0  0.15298505141E+03  0.19506629920E+04 -0.21596240786E+03  0.19685350634E+04  0.50400001928E-02 0.  1.
       -1    1    3    3    0  502 -0.15298505141E+03 -0.19506629920E+04 -0.84996655288E+03  0.21332917464E+04  0.50400001928E-02 0. -1.
</event>
<event>
 5   0  0.1821433E-07  0.3736091E+04  0.7818609E-02  0.8060010E-01
       -2   -1    0    0    0  501  0.00000000000E+00  0.00000000000E+00  0.14793481579E+04  0.14793481579E+04  0.25500000920E-02 0.  1.
        2   -1    0    0  501    0  0.00000000000E+00  0.00000000000E+00 -0.23588724397E+04  0.23588724397E+04  0.25500000920E-02 0. -1.
    10030    2    1    2    0    0  0.00000000000E+00  0.00000000000E+00 -0.87952428172E+03  0.38382205976E+04  0.37360907904E+04 0.  0.
        5    1    3    3  502    0  0.11369374852E+04 -0.13735268472E+04 -0.10120986406E+04  0.20502606160E+04  0.46999998093E+01 0.  1.
       -5    1    3    3    0  502 -0.11369374852E+04  0.13735268472E+04  0.13257435889E+03  0.17879599816E+04  0.46999998093E+01 0. -1.
</event>
<event>
 5   0  0.5515000E-08  0.4026675E+04  0.7818609E-02  0.7999187E-01
       -1   -1    0    0    0  501  0.00000000000E+00  0.00000000000E+00  0.29271608880E+04  0.29271608880E+04  0.50400001928E-02 0. -1.
        1   -1    0    0  501    0  0.00000000000E+00  0.00000000000E+00 -0.13847983225E+04  0.13847983225E+04  0.50400001928E-02 0.  1.
    10030    2    1    2    0    0  0.00000000000E+00  0.00000000000E+00  0.15423625655E+04  0.43119592106E+04  0.40266748007E+04 0.  0.
        2    1    3    3  502    0  0.16339880668E+04 -0.65053757577E+03 -0.27825657848E+03  0.17806018262E+04  0.25500000920E-02 0.  1.
       -2    1    3    3    0  502 -0.16339880668E+04  0.65053757577E+03  0.18206191440E+04  0.25313573844E+04  0.25500000920E-02 0. -1.
</event>
<event>
 5   0  0.5515000E-08  0.3849543E+04  0.7818609E-02  0.8035606E-01
       -1   -1    0    0    0  501  0.00000000000E+00  0.00000000000E+00  0.16301981355E+04  0.16301981355E+04  0.50400001928E-02 0. -1.
        1   -1    0    0  501    0  0.00000000000E+00  0.00000000000E+00 -0.22725734934E+04  0.22725734934E+04  0.50400001928E-02 0.  1.
    10030    2    1    2    0    0  0.00000000000E+00  0.00000000000E+00 -0.64237535791E+03  0.39027716290E+04  0.38495428673E+04 0.  0.
        5    1    3    3  502    0  0.53048908535E+02 -0.66558375391E+03  0.15090182872E+04  0.16501436911E+04  0.46999998093E+01 0. -1.
       -5    1    3    3    0  502 -0.53048908535E+02  0.66558375391E+03 -0.21513936451E+04  0.22526279379E+04  0.46999998093E+01 0.  1.
</event>
<event>
 5   0  0.5515000E-08  0.4025893E+04  0.7818609E-02  0.7999343E-01
        1   -1    0    0  501    0  0.00000000000E+00  0.00000000000E+00  0.22337855320E+04  0.22337855320E+04  0.50400001928E-02 0.  1.
       -1   -1    0    0    0  501  0.00000000000E+00  0.00000000000E+00 -0.18139406807E+04  0.18139406808E+04  0.50400001928E-02 0. -1.
    10030    2    1    2    0    0  0.00000000000E+00  0.00000000000E+00  0.41984485125E+03  0.40477262128E+04  0.40258934157E+04 0.  0.
        4    1    3    3  502    0  0.40778234664E+02  0.15621298375E+04  0.14856772972E+04  0.21561890311E+04  0.12699999809E+01 0.  1.
       -4    1    3    3    0  502 -0.40778234664E+02 -0.15621298375E+04 -0.10658324460E+04  0.18915371816E+04  0.12699999809E+01 0. -1.
</event>
<event>
 5   0  0.5515000E-08  0.4037865E+04  0.7818609E-02  0.7996951E-01
        1   -1    0    0  501    0  0.00000000000E+00  0.00000000000E+00  0.28857148930E+04  0.28857148930E+04  0.50400001928E-02 0.  1.
       -1   -1    0    0    0  501  0.00000000000E+00  0.00000000000E+00 -0.14125052649E+04  0.14125052649E+04  0.50400001928E-02 0. -1.
    10030    2    1    2    0    0  0.00000000000E+00  0.00000000000E+00  0.14732096281E+04  0.42982201579E+04  0.40378645244E+04 0.  0.
        4    1    3    3  502    0  0.11450892195E+04  0.38752245761E+02 -0.10329142195E+04  0.15426096249E+04  0.12699999809E+01 0. -1.
       -4    1    3    3    0  502 -0.11450892195E+04 -0.38752245761E+02  0.25061238476E+04  0.27556105330E+04  0.12699999809E+01 0.  1.
</event>
<event>
 5   0  0.1776653E-07  0.4023790E+04  0.7818609E-02  0.7999764E-01
       -2   -1    0    0    0  501  0.00000000000E+00  0.00000000000E+00  0.19366330345E+04  0.19366330345E+04  0.25500000920E-02 0.  1.
        2   -1    0    0  501    0  0.00000000000E+00  0.00000000000E+00 -0.20900822003E+04  0.20900822003E+04  0.25500000920E-02 0. -1.
    10030    2    1    2    0    0  0.00000000000E+00  0.00000000000E+00 -0.15344916580E+03  0.40267152348E+04  0.40237903693E+04 0.  0.
        4    1    3    3  502    0  0.25710673510E+03 -0.19938007682E+04  0.31785846344E+01  0.20103126853E+04  0.12699999809E+01 0.  1.
       -4    1    3    3    0  502 -0.25710673510E+03  0.19938007682E+04 -0.15662775044E+03  0.20164025495E+04  0.12699999809E+01 0. -1.
</event>
<event>
 5   0  0.5515000E-08  0.4013726E+04  0.7818609E-02  0.8001783E-01
        1   -1    0    0  501    0  0.00000000000E+00  0.00000000000E+00  0.21585791578E+04  0.21585791578E+04  0.50400001928E-02 0. -1.
       -1   -1    0    0    0  501  0.00000000000E+00  0.00000000000E+00 -0.18658104514E+04  0.18658104514E+04  0.50400001928E-02 0.  1.
    10030    2    1    2    0    0  0.00000000000E+00  0.00000000000E+00  0.29276870641E+03  0.40243896092E+04  0.40137262252E+04 0.  0.
        3    1    3    3  502    0  0.36815692734E+03 -0.91252069599E+03  0.19001069295E+04  0.21397756653E+04  0.10100000352E+00 0. -1.
       -3    1    3    3    0  502 -0.36815692734E+03  0.91252069599E+03 -0.16073382231E+04  0.18846139439E+04  0.10100000352E+00 0.  1.
</event>
<event>
 5   0  0.1785559E-07  0.3983106E+04  0.7818609E-02  0.8007963E-01
       -2   -1    0    0    0  501  0.00000000000E+00  0.00000000000E+00  0.24862679159E+04  0.24862679159E+04  0.25500000920E-02 0. -1.
        2   -1    0    0  501    0  0.00000000000E+00  0.00000000000E+00 -0.15952756295E+04  0.15952756295E+04  0.25500000920E-02 0.  1.
    10030    2    1    2    0    0  0.00000000000E+00  0.00000000000E+00  0.89099228642E+03  0.40815435453E+04  0.39831056298E+04 0.  0.
        2    1    3    3  502    0  0.10226279657E+03 -0.13419820888E+04  0.19497359554E+04  0.23691441285E+04  0.25500000920E-02 0. -1.
       -2    1    3    3    0  502 -0.10226279657E+03  0.13419820888E+04 -0.10587436690E+04  0.17123994168E+04  0.25500000920E-02 0.  1.
</event>
<event>
 5   0  0.1821433E-07  0.4111831E+04  0.7818609E-02  0.7982359E-01
        2   -1    0    0  501    0  0.00000000000E+00  0.00000000000E+00  0.27815715017E+04  0.27815715017E+04  0.25500000920E-02 0. -1.
       -2   -1    0    0    0  501  0.00000000000E+00  0.00000000000E+00 -0.15195683924E+04  0.15195683924E+04  0.25500000920E-02 0.  1.
    10030    2    1    2    0    0  0.00000000000E+00  0.00000000000E+00  0.12620031093E+04  0.43011398942E+04  0.41118308016E+04 0.  0.
        5    1    3    3  502    0  0.15477219538E+04  0.12029910798E+04  0.12793230482E+04  0.23407948086E+04  0.46999998093E+01 0. -1.
       -5    1    3    3    0  502 -0.15477219538E+04 -0.12029910798E+04 -0.17319938911E+02  0.19603450856E+04  0.46999998093E+01 0.  1.
</event>
<event>
 5   0  0.1773903E-07  0.3928157E+04  0.7818609E-02  0.8019198E-01
        2   -1    0    0  501    0  0.00000000000E+00  0.00000000000E+00  0.20740300090E+04  0.20740300090E+04  0.25500000920E-02 0.  1.
       -2   -1    0    0    0  501  0.00000000000E+00  0.00000000000E+00 -0.18599556630E+04  0.18599556630E+04  0.25500000920E-02 0. -1.
    10030    2    1    2    0    0  0.00000000000E+00  0.00000000000E+00  0.21407434600E+03  0.39339856720E+04  0.39281567486E+04 0.  0.
        3    1    3    3  502    0  0.65260350429E+03  0.11717432767E+04 -0.13299195316E+04  0.18887984569E+04  0.10100000352E+00 0. -1.
       -3    1    3    3    0  502 -0.65260350429E+03 -0.11717432767E+04  0.15439938776E+04  0.20451872150E+04  0.10100000352E+00 0.  1.
</event>
<event>
 5   0  0.5515000E-08  0.3835092E+04  0.7818609E-02  0.8038666E-01
        1   -1    0    0  501    0  0.00000000000E+00  0.00000000000E+00  0.25730162601E+04  0.25730162601E+04  0.50400001928E-02 0. -1.
       -1   -1    0    0    0  501  0.00000000000E+00  0.00000000000E+00 -0.14290555113E+04  0.14290555113E+04  0.50400001928E-02 0.  1.
    10030    2    1    2    0    0  0.00000000000E+00  0.00000000000E+00  0.11439607488E+04  0.40020717714E+04  0.38350922112E+04 0.  0.
        2    1    3    3  502    0 -0.56345523248E+03  0.47972651493E+03 -0.12740425299E+04  0.14733647532E+04  0.25500000920E-02 0.  1.
       -2    1    3    3    0  502  0.56345523248E+03 -0.47972651493E+03  0.24180032787E+04  0.25287070182E+04  0.25500000920E-02 0. -1.
</event>
<event>
 5   0  0.1773903E-07  0.4000452E+04  0.7818609E-02  0.8004455E-01
       -2   -1    0    0    0  501  0.00000000000E+00  0.00000000000E+00  0.21822381092E+04  0.21822381092E+04  0.25500000920E-02 0.  1.
        2   -1    0    0  501    0  0.00000000000E+00  0.00000000000E+00 -0.18333949818E+04  0.18333949818E+04  0.25500000920E-02 0. -1.
    10030    2    1    2    0    0  0.00000000000E+00  0.00000000000E+00  0.34884312734E+03  0.40156330910E+04  0.40004521737E+04 0.  0.
        3    1    3    3  502    0  0.15618990889E+04 -0.12487182241E+04  0.22018427350E+03  0.20117920100E+04  0.10100000352E+00 0.  1.
       -3    1    3    3    0  502 -0.15618990889E+04  0.12487182241E+04  0.12865885384E+03  0.20038410810E+04  0.10100000352E+00 0. -1.
</event>
<event>
 5   0  0.5515000E-08  0.3998534E+04  0.7818609E-02  0.8004842E-01
        1   -1    0    0  501    0  0.00000000000E+00  0.00000000000E+00  0.12962765738E+04  0.12962765738E+04  0.50400001928E-02 0. -1.
       -1   -1    0    0    0  501  0.00000000000E+00  0.00000000000E+00 -0.30834990716E+04  0.30834990716E+04  0.50400001928E-02 0.  1.
    10030    2    1    2    0    0  0.00000000000E+00  0.00000000000E+00 -0.17872224978E+04  0.43797756455E+04  0.39985335372E+04 0.  0.
        5    1    3    3  502    0 -0.32041137627E+03 -0.82847984743E+03  0.10682510377E+04  0.13893252597E+04  0.46999998093E+01 0. -1.
       -5    1    3    3    0  502  0.32041137627E+03  0.82847984743E+03 -0.28554735355E+04  0.29904503858E+04  0.46999998093E+01 0.  1.
</event>
<event>
 5   0  0.5515000E-08  0.3933693E+04  0.7818609E-02  0.8018058E-01
       -1   -1    0    0    0  501  0.00000000000E+00  0.00000000000E+00  0.26995397268E+04  0.26995397268E+04  0.50400001928E-02 0.  1.
        1   -1    0    0  501    0  0.00000000000E+00  0.00000000000E+00 -0.14330162910E+04  0.14330162910E+04  0.50400001928E-02 0. -1.
    10030    2    1    2    0    0  0.00000000000E+00  0.00000000000E+00  0.12665234358E+04  0.41325560178E+04  0.39336926198E+04 0.  0.
        5    1    3    3  502    0  0.14556590647E+04  0.12036470926E+04  0.57128280031E+02  0.18897077463E+04  0.46999998093E+01 0. -1.
       -5    1    3    3    0  502 -0.14556590647E+04 -0.12036470926E+04  0.12093951557E+04  0.22428482715E+04  0.46999998093E+01 0.  1.
</event>
<event>
 5   0  0.5515000E-08  0.3945377E+04  0.7818609E-02  0.8015657E-01
       -1   -1    0    0    0  501  0.00000000000E+00  0.00000000000E+00  0.20138875416E+04  0.20138875416E+04  0.50400001928E-02 0.  1.
        1   -1    0    0  501    0  0.00000000000E+00  0.00000000000E+00 -0.19323323478E+04  0.19323323478E+04  0.50400001928E-02 0. -1.
    10030    2    1    2    0    0  0.00000000000E+00  0.00000000000E+00  0.81555193843E+02  0.39462198894E+04  0.39453770626E+04 0.  0.
        1    1    3    3  502    0  0.73418245548E+03  0.17410209674E+03  0.18638475798E+04  0.20107867164E+04  0.50400001928E-02 0.  1.
       -1    1    3    3    0  502 -0.73418245548E+03 -0.17410209674E+03 -0.17822923860E+04  0.19354331730E+04  0.50400001928E-02 0. -1.
</event>
<event>
 5   0  0.1776653E-07  0.3999568E+04  0.7818609E-02  0.8004634E-01
        2   -1    0    0  501    0  0.00000000000E+00  0.00000000000E+00  0.21679241601E+04  0.21679241601E+04  0.25500000920E-02 0.  1.
       -2   -1    0    0    0  501  0.00000000000E+00  0.00000000000E+00 -0.18446847609E+04  0.18446847609E+04  0.25500000920E-02 0. -1.
    10030    2    1    2    0    0  0.00000000000E+00  0.00000000000E+00  0.32323939929E+03  0.40126089210E+04  0.39995683072E+04 0.  0.
        4    1    3    3  502    0 -0.13089720773E+04  0.26496254989E+03  0.16549358054E+04  0.21265999118E+04  0.12699999809E+01 0.  1.
       -4    1    3    3    0  502  0.13089720773E+04 -0.26496254989E+03 -0.13316964061E+04  0.18860090092E+04  0.12699999809E+01 0. -1.
</event>
<event>
 5   0  0.5515000E-08  0.3863298E+04  0.7818609E-02  0.8032706E-01
        1   -1    0    0  501    0  0.00000000000E+00  0.00000000000E+00  0.22792978869E+04  0.22792978869E+04  0.50400001928E-02 0.  1.
       -1   -1    0    0    0  501  0.00000000000E+00  0.00000000000E+00 -0.16370254769E+04  0.16370254769E+04  0.50400001928E-02 0. -1.
    10030    2    1    2    0    0  0.00000000000E+00  0.00000000000E+00  0.64227241007E+03  0.39163233638E+04  0.38632984406E+04 0.  0.
        1    1    3    3  502    0 -0.14298039403E+04  0.11170597377E+04  0.99288274452E+03  0.20683273217E+04  0.50400001928E-02 0. -1.
       -1    1    3    3    0  502  0.14298039403E+04 -0.11170597377E+04 -0.35061033444E+03  0.18479960422E+04  0.50400001928E-02 0.  1.
</event>
<event>
 5   0  0.5515000E-08  0.3954099E+04  0.7818609E-02  0.8013871E-01
        1   -1    0    0  501    0  0.00000000000E+00  0.00000000000E+00  0.19007642948E+04  0.19007642948E+04  0.50400001928E-02 0. -1.
       -1   -1    0    0    0  501  0.00000000000E+00  0.00000000000E+00 -0.20563966843E+04  0.20563966843E+04  0.50400001928E-02 0.  1.
    10030    2    1    2    0    0  0.00000000000E+00  0.00000000000E+00 -0.15563238951E+03  0.39571609791E+04  0.39540993379E+04 0.  0.
        2    1    3    3  502    0  0.77033640460E+03 -0.16685270644E+04  0.65166840102E+03  0.19498903677E+04  0.25500000920E-02 0. -1.
       -2    1    3    3    0  502 -0.77033640460E+03  0.16685270644E+04 -0.80730079053E+03  0.20072706114E+04  0.25500000920E-02 0.  1.
</event>
<event>
 5   0  0.5515000E-08  0.4133139E+04  0.7818609E-02  0.7978214E-01
        1   -1    0    0  501    0  0.00000000000E+00  0.00000000000E+00  0.30091211915E+04  0.30091211915E+04  0.50400001928E-02 0. -1.
       -1   -1    0    0    0  501  0.00000000000E+00  0.00000000000E+00 -0.14192546938E+04  0.14192546938E+04  0.50400001928E-02 0.  1.
    10030    2    1    2    0    0  0.00000000000E+00  0.00000000000E+00  0.15898664976E+04  0.44283758853E+04  0.41331389404E+04 0.  0.
        5    1    3    3  502    0 -0.20164872047E+04  0.14199665842E+03  0.12549052184E+04  0.23793261430E+04  0.46999998093E+01 0.  1.
       -5    1    3    3    0  502  0.20164872047E+04 -0.14199665842E+03  0.33496127929E+03  0.20490497423E+04  0.46999998093E+01 0. -1.
</event>
<event>
 5   0  0.1785559E-07  0.3957451E+04  0.7818609E-02  0.8013185E-01
       -2   -1    0    0    0  501  0.00000000000E+00  0.00000000000E+00  0.19294695648E+04  0.19294695648E+04  0.25500000920E-02 0.  1.
        2   -1    0    0  501    0  0.00000000000E+00  0.00000000000E+00 -0.20292392793E+04  0.20292392794E+04  0.25500000920E-02 0. -1.
    10030    2    1    2    0    0  0.00000000000E+00  0.00000000000E+00 -0.99769714569E+02  0.39587088441E+04  0.39574514168E+04 0.  0.
        2    1    3    3  502    0  0.16428621459E+04 -0.65019373475E+03  0.84124470826E+03  0.19568956493E+04  0.25500000920E-02 0.  1.
       -2    1    3    3    0  502 -0.16428621459E+04  0.65019373475E+03 -0.94101442283E+03  0.20018131948E+04  0.25500000920E-02 0. -1.
</event>
<event>
 5   0  0.1776653E-07  0.4002616E+04  0.7818609E-02  0.8004019E-01
       -2   -1    0    0    0  501  0.00000000000E+00  0.00000000000E+00  0.16031239218E+04  0.16031239218E+04  0.25500000920E-02 0. -1.
        2   -1    0    0  501    0  0.00000000000E+00  0.00000000000E+00 -0.24983931860E+04  0.24983931860E+04  0.25500000920E-02 0.  1.
    10030    2    1    2    0    0  0.00000000000E+00  0.00000000000E+00 -0.89526926419E+03  0.41015171078E+04  0.40026160858E+04 0.  0.
        4    1    3    3  502    0  0.66233758816E+03  0.83889182650E+03  0.12861542896E+04  0.16723112888E+04  0.12699999809E+01 0. -1.
       -4    1    3    3    0  502 -0.66233758816E+03 -0.83889182650E+03 -0.21814235538E+04  0.24292058190E+04  0.12699999809E+01 0.  1.
</event>
<event>
 5   0  0.1785559E-07  0.3993454E+04  0.7818609E-02  0.8005868E-01
        2   -1    0    0  501    0  0.00000000000E+00  0.00000000000E+00  0.17396572196E+04  0.17396572196E+04  0.25500000920E-02 0.  1.
       -2   -1    0    0    0  501  0.00000000000E+00  0.00000000000E+00 -0.22917840815E+04  0.22917840815E+04  0.25500000920E-02 0. -1.
    10030    2    1    2    0    0  0.00000000000E+00  0.00000000000E+00 -0.55212686194E+03  0.40314413011E+04  0.39934540053E+04 0.  0.
        2    1    3    3  502    0  0.50615725530E+03 -0.14036536745E+04  0.10633886820E+04  0.18322757145E+04  0.25500000920E-02 0.  1.
       -2    1    3    3    0  502 -0.50615725530E+03  0.14036536745E+04 -0.16155155439E+04  0.21991655866E+04  0.25500000920E-02 0. -1.
</event>
<event>
 5   0  0.5515000E-08  0.4025095E+04  0.7818609E-02  0.7999503E-01
        1   -1    0    0  501    0  0.00000000000E+00  0.00000000000E+00  0.21250159785E+04  0.21250159785E+04  0.50400001928E-02 0. -1.
       -1   -1    0    0    0  501  0.00000000000E+00  0.00000000000E+00 -0.19060318230E+04  0.19060318231E+04  0.50400001928E-02 0.  1.
    10030    2    1    2    0    0  0.00000000000E+00  0.00000000000E+00  0.21898415543E+03  0.40310478015E+04  0.40250953179E+04 0.  0.
        4    1    3    3  502    0 -0.13403652704E+03 -0.19531585627E+04 -0.35762271755E+03  0.19901481811E+04  0.12699999809E+01 0.  1.
       -4    1    3    3    0  502  0.13403652704E+03  0.19531585627E+04  0.57660687298E+03  0.20408996204E+04  0.12699999809E+01 0. -1.
</event>
<event>
 5   0  0.1821433E-07  0.3986281E+04  0.7818609E-02  0.8007320E-01
       -2   -1    0    0    0  501  0.00000000000E+00  0.00000000000E+00  0.21370165628E+04  0.21370165628E+04  0.25500000920E-02 0. -1.
        2   -1    0    0  501    0  0.00000000000E+00  0.00000000000E+00 -0.18589512693E+04  0.18589512693E+04  0.25500000920E-02 0.  1.
    10030    2    1    2    0    0  0.00000000000E+00  0.00000000000E+00  0.27806529350E+03  0.39959678322E+04  0.39862813007E+04 0.  0.
        5    1    3    3  502    0  0.19957358938E+03 -0.16190610637E+04 -0.10089134641E+04  0.19181023991E+04  0.46999998093E+01 0.  1.
       -5    1    3    3    0  502 -0.19957358938E+03  0.16190610637E+04  0.12869787576E+04  0.20778654331E+04  0.46999998093E+01 0. -1.
</event>
<event>
 5   0  0.5515000E-08  0.3994261E+04  0.7818609E-02  0.8005705E-01
        1   -1    0    0  501    0  0.00000000000E+00  0.00000000000E+00  0.26099866370E+04  0.26099866370E+04  0.50400001928E-02 0.  1.
       -1   -1    0    0    0  501  0.00000000000E+00  0.00000000000E+00 -0.15281800455E+04  0.15281800455E+04  0.50400001928E-02 0. -1.
    10030    2    1    2    0    0  0.00000000000E+00  0.00000000000E+00  0.10818065915E+04  0.41381666825E+04  0.39942606313E+04 0.  0.
        2    1    3    3  502    0 -0.19470507201E+04  0.29734438784E+03  0.19868558875E+03  0.19796202047E+04  0.25500000920E-02 0. -1.
       -2    1    3    3    0  502  0.19470507201E+04 -0.29734438784E+03  0.88312100273E+03  0.21585464779E+04  0.25500000920E-02 0.  1.
</event>
<event>
 5   0  0.5515000E-08  0.3563103E+04  0.7818609E-02  0.8098996E-01
        1   -1    0    0  501    0  0.00000000000E+00  0.00000000000E+00  0.20249350341E+04  0.20249350341E+04  0.50400001928E-02 0. -1.
       -1   -1    0    0    0  501  0.00000000000E+00  0.00000000000E+00 -0.15674213917E+04  0.15674213917E+04  0.50400001928E-02 0.  1.
    10030    2    1    2    0    0  0.00000000000E+00  0.00000000000E+00  0.45751364237E+03  0.35923564259E+04  0.35631034166E+04 0.  0.
        1    1    3    3  502    0 -0.16964555156E+04 -0.54259654893E+03  0.26850329219E+03  0.18012402253E+04  0.50400001928E-02 0. -1.
       -1    1    3    3    0  502  0.16964555156E+04  0.54259654893E+03  0.18901035018E+03  0.17911162005E+04  0.50400001928E-02 0.  1.
</event>
<event>
 5   0  0.5515000E-08  0.4008807E+04  0.7818609E-02  0.8002772E-01
       -1   -1    0    0    0  501  0.00000000000E+00  0.00000000000E+00  0.30122587364E+04  0.30122587364E+04  0.50400001928E-02 0. -1.
        1   -1    0    0  501    0  0.00000000000E+00  0.00000000000E+00 -0.13337609569E+04  0.13337609569E+04  0.50400001928E-02 0.  1.
    10030    2    1    2    0    0  0.00000000000E+00  0.00000000000E+00  0.16784977795E+04  0.43460196933E+04  0.40088068523E+04 0.  0.
        5    1    3    3  502    0  0.10344659471E+04 -0.17079292262E+04  0.10284856158E+04  0.22460958994E+04  0.46999998093E+01 0. -1.
       -5    1    3    3    0  502 -0.10344659471E+04  0.17079292262E+04  0.65001216369E+03  0.20999237939E+04  0.46999998093E+01 0.  1.
</event>
<event>
 5   0  0.5515000E-08  0.4004888E+04  0.7818609E-02  0.8003561E-01
        1   -1    0    0  501    0  0.00000000000E+00  0.00000000000E+00  0.23199470446E+04  0.23199470446E+04  0.50400001928E-02 0. -1.
       -1   -1    0    0    0  501  0.00000000000E+00  0.00000000000E+00 -0.17283934870E+04  0.17283934870E+04  0.50400001928E-02 0.  1.
    10030    2    1    2    0    0  0.00000000000E+00  0.00000000000E+00  0.59155355763E+03  0.40483405316E+04  0.40048876948E+04 0.  0.
        4    1    3    3  502    0 -0.12500760210E+04 -0.15486765295E+03  0.18692989777E+04  0.22540972316E+04  0.12699999809E+01 0. -1.
       -4    1    3    3    0  502  0.12500760210E+04  0.15486765295E+03 -0.12777454201E+04  0.17942433001E+04  0.12699999809E+01 0.  1.
</event>
<event>
 5   0  0.1819906E-07  0.3337135E+04  0.7818609E-02  0.8153510E-01
       -2   -1    0    0    0  501  0.00000000000E+00  0.00000000000E+00  0.26789846266E+04  0.26789846266E+04  0.25500000920E-02 0.  1.
        2   -1    0    0  501    0  0.00000000000E+00  0.00000000000E+00 -0.10392436993E+04  0.10392436993E+04  0.25500000920E-02 0. -1.
    10030    2    1    2    0    0  0.00000000000E+00  0.00000000000E+00  0.16397409272E+04  0.37182283259E+04  0.33371352347E+04 0.  0.
        1    1    3    3  502    0 -0.80801846086E+03 -0.74793653651E+03 -0.57702196306E+03  0.12430837629E+04  0.50400001928E-02 0. -1.
       -1    1    3    3    0  502  0.80801846086E+03  0.74793653651E+03  0.22167628903E+04  0.24751445630E+04  0.50400001928E-02 0.  1.
</event>
<event>
 5   0  0.5515000E-08  0.3754044E+04  0.7818609E-02  0.8056090E-01
       -1   -1    0    0    0  501  0.00000000000E+00  0.00000000000E+00  0.11252278978E+04  0.11252278978E+04  0.50400001928E-02 0.  1.
        1   -1    0    0  501    0  0.00000000000E+00  0.00000000000E+00 -0.31311087815E+04  0.31311087816E+04  0.50400001928E-02 0. -1.
    10030    2    1    2    0    0  0.00000000000E+00  0.00000000000E+00 -0.20058808838E+04  0.42563366793E+04  0.37540436609E+04 0.  0.
        1    1    3    3  502    0 -0.31216139496E+03 -0.45664577616E+02  0.10949523862E+04  0.11394958175E+04  0.50400001928E-02 0.  1.
       -1    1    3    3    0  502  0.31216139496E+03  0.45664577616E+02 -0.31008332699E+04  0.31168408618E+04  0.50400001928E-02 0. -1.
</event>
<event>
 5   0  0.1773903E-07  0.3953461E+04  0.7818609E-02  0.8014001E-01
        2   -1    0    0  501    0  0.00000000000E+00  0.00000000000E+00  0.27769653986E+04  0.27769653986E+04  0.25500000920E-02 0. -1.
       -2   -1    0    0    0  501  0.00000000000E+00  0.00000000000E+00 -0.14070983110E+04  0.14070983110E+04  0.25500000920E-02 0.  1.
    10030    2    1    2    0    0  0.00000000000E+00  0.00000000000E+00  0.13698670876E+04  0.41840637096E+04  0.39534609254E+04 0.  0.
        3    1    3    3  502    0  0.11497446084E+04  0.15391274281E+04  0.11775257805E+04  0.22533070981E+04  0.10100000352E+00 0. -1.
       -3    1    3    3    0  502 -0.11497446084E+04 -0.15391274281E+04  0.19234130707E+03  0.19307566115E+04  0.10100000352E+00 0.  1.
</event>
<event>
 5   0  0.1819906E-07  0.3994952E+04  0.7818609E-02  0.8005566E-01
       -2   -1    0    0    0  501  0.00000000000E+00  0.00000000000E+00  0.21492957313E+04  0.21492957313E+04  0.25500000920E-02 0.  1.
        2   -1    0    0  501    0  0.00000000000E+00  0.00000000000E+00 -0.18563801641E+04  0.18563801641E+04  0.25500000920E-02 0. -1.
    10030    2    1    2    0    0  0.00000000000E+00  0.00000000000E+00  0.29291556722E+03  0.40056758954E+04  0.39949517956E+04 0.  0.
        1    1    3    3  502    0  0.45089076664E+03  0.10544761928E+04 -0.14933795992E+04  0.18829246273E+04  0.50400001928E-02 0. -1.
       -1    1    3    3    0  502 -0.45089076664E+03 -0.10544761928E+04  0.17862951664E+04  0.21227512681E+04  0.50400001928E-02 0.  1.
</event>
<event>
 5   0  0.1819906E-07  0.3996704E+04  0.7818609E-02  0.8005212E-01
        2   -1    0    0  501    0  0.00000000000E+00  0.00000000000E+00  0.20075981518E+04  0.20075981518E+04  0.25500000920E-02 0.  1.
       -2   -1    0    0    0  501  0.00000000000E+00  0.00000000000E+00 -0.19891482986E+04  0.19891482986E+04  0.25500000920E-02 0. -1.
    10030    2    1    2    0    0  0.00000000000E+00  0.00000000000E+00  0.18449853181E+02  0.39967464504E+04  0.39967038659E+04 0.  0.
        1    1    3    3  502    0  0.15328630675E+03 -0.11182765083E+04 -0.16398443129E+04  0.19907607620E+04  0.50400001928E-02 0. -1.
       -1    1    3    3    0  502 -0.15328630675E+03  0.11182765083E+04  0.16582941661E+04  0.20059856884E+04  0.50400001928E-02 0.  1.
</event>
<event>
 5   0  0.1821433E-07  0.3950483E+04  0.7818609E-02  0.8014611E-01
        2   -1    0    0  501    0  0.00000000000E+00  0.00000000000E+00  0.27341570765E+04  0.27341570765E+04  0.25500000920E-02 0. -1.
       -2   -1    0    0    0  501  0.00000000000E+00  0.00000000000E+00 -0.14269768229E+04  0.14269768229E+04  0.25500000920E-02 0.  1.
    10030    2    1    2    0    0  0.00000000000E+00  0.00000000000E+00  0.13071802536E+04  0.41611338994E+04  0.39504828962E+04 0.  0.
        5    1    3    3  502    0 -0.13838513279E+04 -0.13093843777E+04  0.12029610996E+04  0.22531465650E+04  0.46999998093E+01 0.  1.
       -5    1    3    3    0  502  0.13838513279E+04  0.13093843777E+04  0.10421915398E+03  0.19079873344E+04  0.46999998093E+01 0. -1.
</event>
<event>
 5   0  0.5515000E-08  0.3998361E+04  0.7818609E-02  0.8004877E-01
       -1   -1    0    0    0  501  0.00000000000E+00  0.00000000000E+00  0.20121006527E+04  0.20121006527E+04  0.50400001928E-02 0. -1.
        1   -1    0    0  501    0  0.00000000000E+00  0.00000000000E+00 -0.19863432424E+04  0.19863432425E+04  0.50400001928E-02 0.  1.
    10030    2    1    2    0    0  0.00000000000E+00  0.00000000000E+00  0.25757410281E+02  0.39984438952E+04  0.39983609315E+04 0.  0.
        5    1    3    3  502    0  0.47019726054E+03  0.12606901433E+04  0.14915152637E+04  0.20087471153E+04  0.46999998093E+01 0. -1.
       -5    1    3    3    0  502 -0.47019726054E+03 -0.12606901433E+04 -0.14657578534E+04  0.19896967799E+04  0.46999998093E+01 0.  1.
</event>
<event>
 5   0  0.1773903E-07  0.4060786E+04  0.7818609E-02  0.7992395E-01
        2   -1    0    0  501    0  0.00000000000E+00  0.00000000000E+00  0.20953608450E+04  0.20953608450E+04  0.25500000920E-02 0.  1.
       -2   -1    0    0    0  501  0.00000000000E+00  0.00000000000E+00 -0.19674395297E+04  0.19674395297E+04  0.25500000920E-02 0. -1.
    10030    2    1    2    0    0  0.00000000000E+00  0.00000000000E+00  0.12792131532E+03  0.40628003746E+04  0.40607860103E+04 0.  0.
        3    1    3    3  502    0  0.15368623280E+04 -0.12321252676E+04  0.55656376167E+03  0.20469102866E+04  0.10100000352E+00 0.  1.
       -3    1    3    3    0  502 -0.15368623280E+04  0.12321252676E+04 -0.42864244634E+03  0.20158900881E+04  0.10100000352E+00 0. -1.
</event>
<event>
 5   0  0.5515000E-08  0.3912776E+04  0.7818609E-02  0.8022377E-01
       -1   -1    0    0    0  501  0.00000000000E+00  0.00000000000E+00  0.18215641196E+04  0.18215641196E+04  0.50400001928E-02 0.  1.
        1   -1    0    0  501    0  0.00000000000E+00  0.00000000000E+00 -0.21011907305E+04  0.21011907305E+04  0.50400001928E-02 0. -1.
    10030    2    1    2    0    0  0.00000000000E+00  0.00000000000E+00 -0.27962661088E+03  0.39227548501E+04  0.39127758143E+04 0.  0.
        4    1    3    3  502    0 -0.84162118191E+03  0.11618122068E+04  0.11937363044E+04  0.18663177101E+04  0.12699999809E+01 0.  1.
       -4    1    3    3    0  502  0.84162118191E+03 -0.11618122068E+04 -0.14733629153E+04  0.20564371400E+04  0.12699999809E+01 0. -1.
</event>
<event>
 5   0  0.5515000E-08  0.3982001E+04  0.7818609E-02  0.8008187E-01
        1   -1    0    0  501    0  0.00000000000E+00  0.00000000000E+00  0.21462785313E+04  0.21462785313E+04  0.50400001928E-02 0. -1.
       -1   -1    0    0    0  501  0.00000000000E+00  0.00000000000E+00 -0.18469566333E+04  0.18469566333E+04  0.50400001928E-02 0.  1.
    10030    2    1    2    0    0  0.00000000000E+00  0.00000000000E+00  0.29932189807E+03  0.39932351646E+04  0.39820011905E+04 0.  0.
        1    1    3    3  502    0  0.61901212848E+03 -0.12441458855E+04 -0.12801976276E+04  0.18894393257E+04  0.50400001928E-02 0.  1.
       -1    1    3    3    0  502 -0.61901212848E+03  0.12441458855E+04  0.15795195257E+04  0.21037958389E+04  0.50400001928E-02 0. -1.
</event>
<event>
 5   0  0.5515000E-08  0.3809597E+04  0.7818609E-02  0.8044099E-01
       -1   -1    0    0    0  501  0.00000000000E+00  0.00000000000E+00  0.22593968254E+04  0.22593968254E+04  0.50400001928E-02 0.  1.
        1   -1    0    0  501    0  0.00000000000E+00  0.00000000000E+00 -0.16058519398E+04  0.16058519398E+04  0.50400001928E-02 0. -1.
    10030    2    1    2    0    0  0.00000000000E+00  0.00000000000E+00  0.65354488566E+03  0.38652487652E+04  0.38095967108E+04 0.  0.
        3    1    3    3  502    0 -0.85409297877E+03  0.67766555191E+03  0.19114956898E+04  0.22005729251E+04  0.10100000352E+00 0.  1.
       -3    1    3    3    0  502  0.85409297877E+03 -0.67766555191E+03 -0.12579508041E+04  0.16646758400E+04  0.10100000352E+00 0. -1.
</event>
<event>
 5   0  0.5515000E-08  0.3648568E+04  0.7818609E-02  0.8079456E-01
       -1   -1    0    0    0  501  0.00000000000E+00  0.00000000000E+00  0.12055604539E+04  0.12055604539E+04  0.50400001928E-02 0.  1.
        1   -1    0    0  501    0  0.00000000000E+00  0.00000000000E+00 -0.27605513439E+04  0.27605513439E+04  0.50400001928E-02 0. -1.
    10030    2    1    2    0    0  0.00000000000E+00  0.00000000000E+00 -0.15549908900E+04  0.39661117978E+04  0.36485676812E+04 0.  0.
        3    1    3    3  502    0 -0.33001310184E+03 -0.17941165754E+04 -0.79463431293E+03  0.19897755238E+04  0.10100000352E+00 0. -1.
       -3    1    3    3    0  502  0.33001310184E+03  0.17941165754E+04 -0.76035657707E+03  0.19763362740E+04  0.10100000352E+00 0.  1.
</event>
<event>
 5   0  0.1785559E-07  0.4134407E+04  0.7818609E-02  0.7977968E-01
       -2   -1    0    0    0  501  0.00000000000E+00  0.00000000000E+00  0.16304491627E+04  0.16304491627E+04  0.25500000920E-02 0.  1.
        2   -1    0    0  501    0  0.00000000000E+00  0.00000000000E+00 -0.26209531099E+04  0.26209531099E+04  0.25500000920E-02 0. -1.
    10030    2    1    2    0    0  0.00000000000E+00  0.00000000000E+00 -0.99050394723E+03  0.42514022726E+04  0.41344072385E+04 0.  0.
        2    1    3    3  502    0 -0.17356278261E+04 -0.19459182344E+03  0.64196408783E+03  0.18607492626E+04  0.25500000920E-02 0.  1.
       -2    1    3    3    0  502  0.17356278261E+04  0.19459182344E+03 -0.16324680351E+04  0.23906530099E+04  0.25500000920E-02 0. -1.
</event>
<event>
 5   0  0.5515000E-08  0.4040962E+04  0.7818609E-02  0.7996334E-01
       -3   -1    0    0    0  501  0.00000000000E+00  0.00000000000E+00  0.13407759413E+04  0.13407759451E+04  0.10100000352E+00 0.  1.
        3   -1    0    0  501    0  0.00000000000E+00  0.00000000000E+00 -0.30447615141E+04  0.30447615158E+04  0.10100000352E+00 0. -1.
    10030    2    1    2    0    0  0.00000000000E+00  0.00000000000E+00 -0.17039855729E+04  0.43855374609E+04  0.40409617653E+04 0.  0.
        4    1    3    3  502    0 -0.47859798697E+03  0.64051507141E+03 -0.28657551601E+04  0.29752092095E+04  0.12699999809E+01 0. -1.
       -4    1    3    3    0  502  0.47859798697E+03 -0.64051507141E+03  0.11617695872E+04  0.14103282514E+04  0.12699999809E+01 0.  1.
</event>
<event>
 5   0  0.1821433E-07  0.3976220E+04  0.7818609E-02  0.8009361E-01
       -2   -1    0    0    0  501  0.00000000000E+00  0.00000000000E+00  0.23124908398E+04  0.23124908398E+04  0.25500000920E-02 0. -1.
        2   -1    0    0  501    0  0.00000000000E+00  0.00000000000E+00 -0.17092314669E+04  0.17092314669E+04  0.25500000920E-02 0.  1.
    10030    2    1    2    0    0  0.00000000000E+00  0.00000000000E+00  0.60325937292E+03  0.40217223066E+04  0.39762203713E+04 0.  0.
        5    1    3    3  502    0  0.29710395815E+03  0.16707148753E+04 -0.74608181204E+03  0.18537041610E+04  0.46999998093E+01 0.  1.
       -5    1    3    3    0  502 -0.29710395815E+03 -0.16707148753E+04  0.13493411850E+04  0.21680181456E+04  0.46999998093E+01 0. -1.
</event>
<event>
 5   0  0.5515000E-08  0.3994076E+04  0.7818609E-02  0.8005743E-01
        1   -1    0    0  501    0  0.00000000000E+00  0.00000000000E+00  0.29378816424E+04  0.29378816424E+04  0.50400001928E-02 0. -1.
       -1   -1    0    0    0  501  0.00000000000E+00  0.00000000000E+00 -0.13574951321E+04  0.13574951321E+04  0.50400001928E-02 0.  1.
    10030    2    1    2    0    0  0.00000000000E+00  0.00000000000E+00  0.15803865103E+04  0.42953767744E+04  0.39940756268E+04 0.  0.
        2    1    3    3  502    0  0.83845870136E+03 -0.18120683077E+04  0.74777844534E+03  0.21320828195E+04  0.25500000920E-02 0. -1.
       -2    1    3    3    0  502 -0.83845870136E+03  0.18120683077E+04  0.83260806495E+03  0.21632939550E+04  0.25500000920E-02 0.  1.
</event>
<event>
 5   0  0.5515000E-08  0.4013406E+04  0.7818609E-02  0.8001848E-01
        1   -1    0    0  501    0  0.00000000000E+00  0.00000000000E+00  0.15904711465E+04  0.15904711465E+04  0.50400001928E-02 0. -1.
       -1   -1    0    0    0  501  0.00000000000E+00  0.00000000000E+00 -0.25318636520E+04  0.25318636520E+04  0.50400001928E-02 0.  1.
    10030    2    1    2    0    0  0.00000000000E+00  0.00000000000E+00 -0.94139250550E+03  0.41223347984E+04  0.40134055789E+04 0.  0.
        2    1    3    3  502    0 -0.87176428317E+03  0.18046212239E+04 -0.36683119345E+03  0.20374483678E+04  0.25500000920E-02 0. -1.
       -2    1    3    3    0  502  0.87176428317E+03 -0.18046212239E+04 -0.57456131205E+03  0.20848864306E+04  0.25500000920E-02 0.  1.
</event>
<event>
 5   0  0.5515000E-08  0.3992428E+04  0.7818609E-02  0.8006076E-01
       -1   -1    0    0    0  501  0.00000000000E+00  0.00000000000E+00  0.23788841870E+04  0.23788841870E+04  0.50400001928E-02 0. -1.
        1   -1    0    0  501    0  0.00000000000E+00  0.00000000000E+00 -0.16751001951E+04  0.16751001951E+04  0.50400001928E-02 0.  1.
    10030    2    1    2    0    0  0.00000000000E+00  0.00000000000E+00  0.70378399190E+03  0.40539843820E+04  0.39924275150E+04 0.  0.
        1    1    3    3  502    0 -0.19897188353E+03 -0.18239277360E+04  0.11505088368E+04  0.21656344983E+04  0.50400001928E-02 0. -1.
       -1    1    3    3    0  502  0.19897188353E+03  0.18239277360E+04 -0.44672484487E+03  0.18883498838E+04  0.50400001928E-02 0.  1.
</event>
<event>
 5   0  0.5515000E-08  0.4066891E+04  0.7818609E-02  0.7991187E-01
       -1   -1    0    0    0  501  0.00000000000E+00  0.00000000000E+00  0.30204439359E+04  0.30204439359E+04  0.50400001928E-02 0. -1.
        1   -1    0    0  501    0  0.00000000000E+00  0.00000000000E+00 -0.13689712416E+04  0.13689712416E+04  0.50400001928E-02 0.  1.
    10030    2    1    2    0    0  0.00000000000E+00  0.00000000000E+00  0.16514726943E+04  0.43894151776E+04  0.40668911395E+04 0.  0.
        2    1    3    3  502    0 -0.49883488153E+03 -0.18842669204E+04  0.14509909731E+04  0.24299532650E+04  0.25500000920E-02 0. -1.
       -2    1    3    3    0  502  0.49883488153E+03  0.18842669204E+04  0.20048172127E+03  0.19594619126E+04  0.25500000920E-02 0.  1.
</event>
<event>
 5   0  0.1819906E-07  0.4087723E+04  0.7818609E-02  0.7987080E-01
        2   -1    0    0  501    0  0.00000000000E+00  0.00000000000E+00  0.17214780481E+04  0.17214780481E+04  0.25500000920E-02 0. -1.
       -2   -1    0    0    0  501  0.00000000000E+00  0.00000000000E+00 -0.24266185210E+04  0.24266185210E+04  0.25500000920E-02 0.  1.
    10030    2    1    2    0    0  0.00000000000E+00  0.00000000000E+00 -0.70514047294E+03  0.41480965691E+04  0.40877233345E+04 0.  0.
        1    1    3    3  502    0 -0.92716345870E+03  0.48789603760E+03 -0.21333953890E+04  0.23767731294E+04  0.50400001928E-02 0.  1.
       -1    1    3    3    0  502  0.92716345870E+03 -0.48789603760E+03  0.14282549161E+04  0.17713234397E+04  0.50400001928E-02 0. -1.
</event>
<event>
 5   0  0.1819906E-07  0.3514706E+04  0.7818609E-02  0.8110314E-01
       -2   -1    0    0    0  501  0.00000000000E+00  0.00000000000E+00  0.99859961346E+03  0.99859961346E+03  0.25500000920E-02 0. -1.
        2   -1    0    0  501    0  0.00000000000E+00  0.00000000000E+00 -0.30926200041E+04  0.30926200041E+04  0.25500000920E-02 0.  1.
    10030    2    1    2    0    0  0.00000000000E+00  0.00000000000E+00 -0.20940203906E+04  0.40912196176E+04  0.35147057576E+04 0.  0.
        1    1    3    3  502    0 -0.80591805161E+03 -0.86228595370E+03 -0.25625957674E+04  0.28213362152E+04  0.50400001928E-02 0.  1.
       -1    1    3    3    0  502  0.80591805161E+03  0.86228595370E+03  0.46857537679E+03  0.12698834024E+04  0.50400001928E-02 0. -1.
</event>
<event>
 5   0  0.5515000E-08  0.3956471E+04  0.7818609E-02  0.8013386E-01
       -1   -1    0    0    0  501  0.00000000000E+00  0.00000000000E+00  0.27142047733E+04  0.27142047733E+04  0.50400001928E-02 0.  1.
        1   -1    0    0  501    0  0.00000000000E+00  0.00000000000E+00 -0.14418275604E+04  0.14418275605E+04  0.50400001928E-02 0. -1.
    10030    2    1    2    0    0  0.00000000000E+00  0.00000000000E+00  0.12723772128E+04  0.41560323337E+04  0.39564707742E+04 0.  0.
        4    1    3    3  502    0  0.63705143360E+03  0.16087701036E+04  0.16434267102E+04  0.23863840303E+04  0.12699999809E+01 0.  1.
       -4    1    3    3    0  502 -0.63705143360E+03 -0.16087701036E+04 -0.37104949736E+03  0.17696483034E+04  0.12699999809E+01 0. -1.
</event>
<event>
 5   0  0.1821433E-07  0.4052543E+04  0.7818609E-02  0.7994030E-01
       -2   -1    0    0    0  501  0.00000000000E+00  0.00000000000E+00  0.14421959827E+04  0.14421959827E+04  0.25500000920E-02 0. -1.
        2   -1    0    0  501    0  0.00000000000E+00  0.00000000000E+00 -0.28468918068E+04  0.28468918068E+04  0.25500000920E-02 0.  1.
    10030    2    1    2    0    0  0.00000000000E+00  0.00000000000E+00 -0.14046958240E+04  0.42890877895E+04  0.40525428693E+04 0.  0.
        5    1    3    3  502    0 -0.12924067645E+04 -0.15300612974E+04 -0.37725266952E+03  0.20380737193E+04  0.46999998093E+01 0. -1.
       -5    1    3    3    0  502  0.12924067645E+04  0.15300612974E+04 -0.10274431545E+04  0.22510140702E+04  0.46999998093E+01 0.  1.
</event>
<event>
 5   0  0.5515000E-08  0.3216238E+04  0.7818609E-02  0.8184542E-01
        1   -1    0    0  501    0  0.00000000000E+00  0.00000000000E+00  0.23160687014E+04  0.23160687014E+04  0.50400001928E-02 0.  1.
       -1   -1    0    0    0  501  0.00000000000E+00  0.00000000000E+00 -0.11165672868E+04  0.11165672868E+04  0.50400001928E-02 0. -1.
    10030    2    1    2    0    0  0.00000000000E+00  0.00000000000E+00  0.11995014146E+04  0.34326359882E+04  0.32162378929E+04 0.  0.
        5    1    3    3  502    0  0.95324011930E+03 -0.12508783084E+04  0.24151674944E+03  0.15911366056E+04  0.46999998093E+01 0.  1.
       -5    1    3    3    0  502 -0.95324011930E+03  0.12508783084E+04  0.95798466515E+03  0.18414993826E+04  0.46999998093E+01 0. -1.
</event>
<event>
 5   0  0.5515000E-08  0.3997700E+04  0.7818609E-02  0.8005011E-01
        1   -1    0    0  501    0  0.00000000000E+00  0.00000000000E+00  0.12951593559E+04  0.12951593559E+04  0.50400001928E-02 0.  1.
       -1   -1    0    0    0  501  0.00000000000E+00  0.00000000000E+00 -0.30848722819E+04  0.30848722819E+04  0.50400001928E-02 0. -1.
    10030    2    1    2    0    0  0.00000000000E+00  0.00000000000E+00 -0.17897129260E+04  0.43800316379E+04  0.39976999376E+04 0.  0.
        2    1    3    3  502    0 -0.12133498908E+04 -0.68915862637E+03  0.67318614813E+03  0.15493021525E+04  0.25500000920E-02 0.  1.
       -2    1    3    3    0  502  0.12133498908E+04  0.68915862637E+03 -0.24628990741E+04  0.28307294853E+04  0.25500000920E-02 0. -1.
</event>
<event>
 5   0  0.1821433E-07  0.3997070E+04  0.7818609E-02  0.8005138E-01
       -2   -1    0    0    0  501  0.00000000000E+00  0.00000000000E+00  0.21988494562E+04  0.21988494562E+04  0.25500000920E-02 0.  1.
        2   -1    0    0  501    0  0.00000000000E+00  0.00000000000E+00 -0.18164689427E+04  0.18164689427E+04  0.25500000920E-02 0. -1.
    10030    2    1    2    0    0  0.00000000000E+00  0.00000000000E+00  0.38238051346E+03  0.40153183989E+04  0.39970698001E+04 0.  0.
        5    1    3    3  502    0 -0.66623958824E+03  0.11161804410E+04 -0.13337605758E+04  0.18624374699E+04  0.46999998093E+01 0. -1.
       -5    1    3    3    0  502  0.66623958824E+03 -0.11161804410E+04  0.17161410893E+04  0.21528809289E+04  0.46999998093E+01 0.  1.
</event>
<event>
 5   0  0.1819906E-07  0.4048326E+04  0.7818609E-02  0.7994868E-01
       -2   -1    0    0    0  501  0.00000000000E+00  0.00000000000E+00  0.18938446916E+04  0.18938446916E+04  0.25500000920E-02 0. -1.
        2   -1    0    0  501    0  0.00000000000E+00  0.00000000000E+00 -0.21634491332E+04  0.21634491332E+04  0.25500000920E-02 0.  1.
    10030    2    1    2    0    0  0.00000000000E+00  0.00000000000E+00 -0.26960444160E+03  0.40572938247E+04  0.40483263981E+04 0.  0.
        1    1    3    3  502    0 -0.21880002584E+03  0.14851573022E+03 -0.21460624659E+04  0.21622938008E+04  0.50400001928E-02 0.  1.
       -1    1    3    3    0  502  0.21880002584E+03 -0.14851573022E+03  0.18764580243E+04  0.18950000239E+04  0.50400001928E-02 0. -1.
</event>
<event>
 5   0  0.5515000E-08  0.4021219E+04  0.7818609E-02  0.8000280E-01
       -1   -1    0    0    0  501  0.00000000000E+00  0.00000000000E+00  0.16033204213E+04  0.16033204213E+04  0.50400001928E-02 0. -1.
        1   -1    0    0  501    0  0.00000000000E+00  0.00000000000E+00 -0.25213611669E+04  0.25213611669E+04  0.50400001928E-02 0.  1.
    10030    2    1    2    0    0  0.00000000000E+00  0.00000000000E+00 -0.91804074566E+03  0.41246815882E+04  0.40212186453E+04 0.  0.
        4    1    3    3  502    0 -0.32441545414E+03  0.11931029625E+04  0.11672726812E+04  0.17003726625E+04  0.12699999809E+01 0. -1.
       -4    1    3    3    0  502  0.32441545414E+03 -0.11931029625E+04 -0.20853134269E+04  0.24243089257E+04  0.12699999809E+01 0.  1.
</event>
<event>
 5   0  0.5515000E-08  0.3994575E+04  0.7818609E-02  0.8005642E-01
       -1   -1    0    0    0  501  0.00000000000E+00  0.00000000000E+00  0.20796143936E+04  0.20796143937E+04  0.50400001928E-02 0.  1.
        1   -1    0    0  501    0  0.00000000000E+00  0.00000000000E+00 -0.19182192789E+04  0.19182192789E+04  0.50400001928E-02 0. -1.
    10030    2    1    2    0    0  0.00000000000E+00  0.00000000000E+00  0.16139511471E+03  0.39978336726E+04  0.39945745319E+04 0.  0.
        5    1    3    3  502    0 -0.49036476827E+03 -0.58979915138E+03  0.19263316879E+04  0.20734262723E+04  0.46999998093E+01 0.  1.
       -5    1    3    3    0  502  0.49036476827E+03  0.58979915138E+03 -0.17649365732E+04  0.19244074003E+04  0.46999998093E+01 0. -1.
</event>
<event>
 5   0  0.5515000E-08  0.4129511E+04  0.7818609E-02  0.7978918E-01
       -1   -1    0    0    0  501  0.00000000000E+00  0.00000000000E+00  0.16654907032E+04  0.16654907032E+04  0.50400001928E-02 0.  1.
        1   -1    0    0  501    0  0.00000000000E+00  0.00000000000E+00 -0.25597351875E+04  0.25597351875E+04  0.50400001928E-02 0. -1.
    10030    2    1    2    0    0  0.00000000000E+00  0.00000000000E+00 -0.89424448432E+03  0.42252258907E+04  0.41295109432E+04 0.  0.
        3    1    3    3  502    0  0.16115935780E+04 -0.12447720062E+04 -0.97854167921E+02  0.20386923889E+04  0.10100000352E+00 0.  1.
       -3    1    3    3    0  502 -0.16115935780E+04  0.12447720062E+04 -0.79639031640E+03  0.21865335018E+04  0.10100000352E+00 0. -1.
</event>
<event>
 5   0  0.5515000E-08  0.4029960E+04  0.7818609E-02  0.7998530E-01
       -3   -1    0    0    0  501  0.00000000000E+00  0.00000000000E+00  0.13870098376E+04  0.13870098413E+04  0.10100000352E+00 0.  1.
        3   -1    0    0  501    0  0.00000000000E+00  0.00000000000E+00 -0.29272645816E+04  0.29272645833E+04  0.10100000352E+00 0. -1.
    10030    2    1    2    0    0  0.00000000000E+00  0.00000000000E+00 -0.15402547439E+04  0.43142744246E+04  0.40299601902E+04 0.  0.
        5    1    3    3  502    0 -0.82458397351E+03 -0.12122510726E+04  0.70964684020E+03  0.16288376593E+04  0.46999998093E+01 0.  1.
       -5    1    3    3    0  502  0.82458397351E+03  0.12122510726E+04 -0.22499015841E+04  0.26854367653E+04  0.46999998093E+01 0. -1.
</event>
<event>
 5   0  0.5515000E-08  0.3919767E+04  0.7818609E-02  0.8020931E-01
       -1   -1    0    0    0  501  0.00000000000E+00  0.00000000000E+00  0.29270828193E+04  0.29270828193E+04  0.50400001928E-02 0.  1.
        1   -1    0    0  501    0  0.00000000000E+00  0.00000000000E+00 -0.13122767032E+04  0.13122767032E+04  0.50400001928E-02 0. -1.
    10030    2    1    2    0    0  0.00000000000E+00  0.00000000000E+00  0.16148061160E+04  0.42393595225E+04  0.39197666217E+04 0.  0.
        4    1    3    3  502    0 -0.13221694735E+04 -0.31228236342E+03 -0.72039045842E+03  0.15377309312E+04  0.12699999809E+01 0. -1.
       -4    1    3    3    0  502  0.13221694735E+04  0.31228236342E+03  0.23351965745E+04  0.27016285913E+04  0.12699999809E+01 0.  1.
</event>
<event>
 5   0  0.5515000E-08  0.4019410E+04  0.7818609E-02  0.8000642E-01
        1   -1    0    0  501    0  0.00000000000E+00  0.00000000000E+00  0.19279224382E+04  0.19279224382E+04  0.50400001928E-02 0.  1.
       -1   -1    0    0    0  501  0.00000000000E+00  0.00000000000E+00 -0.20949568170E+04  0.20949568170E+04  0.50400001928E-02 0. -1.
    10030    2    1    2    0    0  0.00000000000E+00  0.00000000000E+00 -0.16703437886E+03  0.40228792552E+04  0.40194100336E+04 0.  0.
        5    1    3    3  502    0 -0.51927809781E+02 -0.20060641385E+04  0.25674818409E+02  0.20069058551E+04  0.46999998093E+01 0. -1.
       -5    1    3    3    0  502  0.51927809781E+02  0.20060641385E+04 -0.19270919727E+03  0.20159734001E+04  0.46999998093E+01 0.  1.
</event>
<event>
 5   0  0.1776653E-07  0.4009675E+04  0.7818609E-02  0.8002598E-01
       -2   -1    0    0    0  501  0.00000000000E+00  0.00000000000E+00  0.17955609618E+04  0.17955609618E+04  0.25500000920E-02 0. -1.
        2   -1    0    0  501    0  0.00000000000E+00  0.00000000000E+00 -0.22385053389E+04  0.22385053389E+04  0.25500000920E-02 0.  1.
    10030    2    1    2    0    0  0.00000000000E+00  0.00000000000E+00 -0.44294437708E+03  0.40340663007E+04  0.40096746996E+04 0.  0.
        4    1    3    3  502    0 -0.13839012688E+04 -0.97171067067E+03 -0.13050414535E+04  0.21360101024E+04  0.12699999809E+01 0.  1.
       -4    1    3    3    0  502  0.13839012688E+04  0.97171067067E+03  0.86209707646E+03  0.18980561982E+04  0.12699999809E+01 0. -1.
</event>
<event>
 5   0  0.5515000E-08  0.3734561E+04  0.7818609E-02  0.8060346E-01
       -1   -1    0    0    0  501  0.00000000000E+00  0.00000000000E+00  0.15297902301E+04  0.15297902301E+04  0.50400001928E-02 0. -1.
        1   -1    0    0  501    0  0.00000000000E+00  0.00000000000E+00 -0.22792249867E+04  0.22792249867E+04  0.50400001928E-02 0.  1.
    10030    2    1    2    0    0  0.00000000000E+00  0.00000000000E+00 -0.74943475658E+03  0.38090152167E+04  0.37345608131E+04 0.  0.
        5    1    3    3  502    0  0.70757992093E+03 -0.17280094908E+04 -0.38010297229E+03  0.19055672396E+04  0.46999998093E+01 0.  1.
       -5    1    3    3    0  502 -0.70757992093E+03  0.17280094908E+04 -0.36933178429E+03  0.19034479772E+04  0.46999998093E+01 0. -1.
</event>
<event>
 5   0  0.1773903E-07  0.4015249E+04  0.7818609E-02  0.8001477E-01
       -2   -1    0    0    0  501  0.00000000000E+00  0.00000000000E+00  0.16132056396E+04  0.16132056396E+04  0.25500000920E-02 0.  1.
        2   -1    0    0  501    0  0.00000000000E+00  0.00000000000E+00 -0.24984762549E+04  0.24984762549E+04  0.25500000920E-02 0. -1.
    10030    2    1    2    0    0  0.00000000000E+00  0.00000000000E+00 -0.88527061528E+03  0.41116818945E+04  0.40152489262E+04 0.  0.
        3    1    3    3  502    0  0.10376974779E+03 -0.18293876845E+04 -0.12827837506E+04  0.22367301182E+04  0.10100000352E+00 0.  1.
       -3    1    3    3    0  502 -0.10376974779E+03  0.18293876845E+04  0.39751313529E+03  0.18749517763E+04  0.10100000352E+00 0. -1.
</event>
<event>
 5   0  0.1773903E-07  0.3992511E+04  0.7818609E-02  0.8006059E-01
        2   -1    0    0  501    0  0.00000000000E+00  0.00000000000E+00  0.11880785532E+04  0.11880785532E+04  0.25500000920E-02 0.  1.
       -2   -1    0    0    0  501  0.00000000000E+00  0.00000000000E+00 -0.33541848332E+04  0.33541848332E+04  0.25500000920E-02 0. -1.
    10030    2    1    2    0    0  0.00000000000E+00  0.00000000000E+00 -0.21661062800E+04  0.45422633865E+04  0.39925105204E+04 0.  0.
        3    1    3    3  502    0 -0.17162006296E+03  0.18823296059E+04 -0.35242827003E+03  0.19227126377E+04  0.10100000352E+00 0.  1.
       -3    1    3    3    0  502  0.17162006296E+03 -0.18823296059E+04 -0.18136780100E+04  0.26195507488E+04  0.10100000352E+00 0. -1.
</event>
<event>
 5   0  0.5515000E-08  0.3978478E+04  0.7818609E-02  0.8008902E-01
        1   -1    0    0  501    0  0.00000000000E+00  0.00000000000E+00  0.30731852528E+04  0.30731852528E+04  0.50400001928E-02 0.  1.
       -1   -1    0    0    0  501  0.00000000000E+00  0.00000000000E+00 -0.12876124927E+04  0.12876124928E+04  0.50400001928E-02 0. -1.
    10030    2    1    2    0    0  0.00000000000E+00  0.00000000000E+00  0.17855727601E+04  0.43607977456E+04  0.39784779623E+04 0.  0.
        2    1    3    3  502    0  0.17670852281E+04 -0.27331673945E+03 -0.62630187476E+02  0.17891938922E+04  0.25500000920E-02 0. -1.
       -2    1    3    3    0  502 -0.17670852281E+04  0.27331673945E+03  0.18482029475E+04  0.25716038534E+04  0.25500000920E-02 0.  1.
</event>
<event>
 5   0  0.1821433E-07  0.3990035E+04  0.7818609E-02  0.8006560E-01
        2   -1    0    0  501    0  0.00000000000E+00  0.00000000000E+00  0.30579101128E+04  0.30579101128E+04  0.25500000920E-02 0. -1.
       -2   -1    0    0    0  501  0.00000000000E+00  0.00000000000E+00 -0.13015734901E+04  0.13015734901E+04  0.25500000920E-02 0.  1.
    10030    2    1    2    0    0  0.00000000000E+00  0.00000000000E+00  0.17563366227E+04  0.43594836029E+04  0.39900349562E+04 0.  0.
        5    1    3    3  502    0 -0.15002342055E+04 -0.96806688098E+03 -0.94310812618E+02  0.17879521181E+04  0.46999998093E+01 0. -1.
       -5    1    3    3    0  502  0.15002342055E+04  0.96806688098E+03  0.18506474353E+04  0.25715314848E+04  0.46999998093E+01 0.  1.
</event>
<event>
 5   0  0.5515000E-08  0.3983827E+04  0.7818609E-02  0.8007817E-01
        3   -1    0    0  501    0  0.00000000000E+00  0.00000000000E+00  0.15450168492E+04  0.15450168525E+04  0.10100000352E+00 0.  1.
       -3   -1    0    0    0  501  0.00000000000E+00  0.00000000000E+00 -0.25680753405E+04  0.25680753424E+04  0.10100000352E+00 0. -1.
    10030    2    1    2    0    0  0.00000000000E+00  0.00000000000E+00 -0.10230584912E+04  0.41130921950E+04  0.39838271458E+04 0.  0.
        3    1    3    3  502    0  0.13189278322E+04  0.14712396485E+04 -0.25114988265E+03  0.19917813644E+04  0.10100000352E+00 0.  1.
       -3    1    3    3    0  502 -0.13189278322E+04 -0.14712396485E+04 -0.77190860857E+03  0.21213108306E+04  0.10100000352E+00 0. -1.
</event>
<event>
 5   0  0.5515000E-08  0.3878124E+04  0.7818609E-02  0.8029594E-01
        1   -1    0    0  501    0  0.00000000000E+00  0.00000000000E+00  0.16898422455E+04  0.16898422455E+04  0.50400001928E-02 0.  1.
       -1   -1    0    0    0  501  0.00000000000E+00  0.00000000000E+00 -0.22250368307E+04  0.22250368307E+04  0.50400001928E-02 0. -1.
    10030    2    1    2    0    0  0.00000000000E+00  0.00000000000E+00 -0.53519458524E+03  0.39148790762E+04  0.38781238940E+04 0.  0.
        4    1    3    3  502    0  0.11555304509E+04  0.15569389691E+04 -0.29333491438E+03  0.19609580723E+04  0.12699999809E+01 0. -1.
       -4    1    3    3    0  502 -0.11555304509E+04 -0.15569389691E+04 -0.24185967086E+03  0.19539210039E+04  0.12699999809E+01 0.  1.
</event>
<event>
 5   0  0.1821433E-07  0.4010401E+04  0.7818609E-02  0.8002452E-01
        2   -1    0    0  501    0  0.00000000000E+00  0.00000000000E+00  0.15351993771E+04  0.15351993771E+04  0.25500000920E-02 0. -1.
       -2   -1    0    0    0  501  0.00000000000E+00  0.00000000000E+00 -0.26190924130E+04  0.26190924130E+04  0.25500000920E-02 0.  1.
    10030    2    1    2    0    0  0.00000000000E+00  0.00000000000E+00 -0.10838930359E+04  0.41542917901E+04  0.40104009980E+04 0.  0.
        5    1    3    3  502    0 -0.71472044049E+02 -0.14440548667E+04  0.89729384151E+03  0.17016348137E+04  0.46999998093E+01 0. -1.
       -5    1    3    3    0  502  0.71472044049E+02  0.14440548667E+04 -0.19811868774E+04  0.24526569765E+04  0.46999998093E+01 0.  1.
</event>
<event>
 5   0  0.1819906E-07  0.3968894E+04  0.7818609E-02  0.8010851E-01
        2   -1    0    0  501    0  0.00000000000E+00  0.00000000000E+00  0.30071341582E+04  0.30071341582E+04  0.25500000920E-02 0. -1.
       -2   -1    0    0    0  501  0.00000000000E+00  0.00000000000E+00 -0.13095623238E+04  0.13095623238E+04  0.25500000920E-02 0.  1.
    10030    2    1    2    0    0  0.00000000000E+00  0.00000000000E+00  0.16975718344E+04  0.43166964820E+04  0.39688938491E+04 0.  0.
        1    1    3    3  502    0  0.18563476049E+04 -0.69052631645E+03  0.71479699924E+03  0.21056561386E+04  0.50400001928E-02 0.  1.
       -1    1    3    3    0  502 -0.18563476049E+04  0.69052631645E+03  0.98277483514E+03  0.22110403435E+04  0.50400001928E-02 0. -1.
</event>
<event>
 5   0  0.5515000E-08  0.3988657E+04  0.7818609E-02  0.8006839E-01
        1   -1    0    0  501    0  0.00000000000E+00  0.00000000000E+00  0.22506916624E+04  0.22506916624E+04  0.50400001928E-02 0.  1.
       -1   -1    0    0    0  501  0.00000000000E+00  0.00000000000E+00 -0.17671666013E+04  0.17671666013E+04  0.50400001928E-02 0. -1.
    10030    2    1    2    0    0  0.00000000000E+00  0.00000000000E+00  0.48352506106E+03  0.40178582637E+04  0.39886574862E+04 0.  0.
        4    1    3    3  502    0 -0.17623217531E+03  0.19729801985E+04  0.47505440871E+03  0.20370044053E+04  0.12699999809E+01 0. -1.
       -4    1    3    3    0  502  0.17623217531E+03 -0.19729801985E+04  0.84706523476E+01  0.19808538583E+04  0.12699999809E+01 0.  1.
</event>
<event>
 5   0  0.1819906E-07  0.3914197E+04  0.7818609E-02  0.8022083E-01
        2   -1    0    0  501    0  0.00000000000E+00  0.00000000000E+00  0.20863681556E+04  0.20863681556E+04  0.25500000920E-02 0. -1.
       -2   -1    0    0    0  501  0.00000000000E+00  0.00000000000E+00 -0.18358385619E+04  0.18358385619E+04  0.25500000920E-02 0.  1.
    10030    2    1    2    0    0  0.00000000000E+00  0.00000000000E+00  0.25052959372E+03  0.39222067175E+04  0.39141972942E+04 0.  0.
        1    1    3    3  502    0  0.80029465472E+03 -0.91722083996E+03 -0.14103427220E+04  0.18630169611E+04  0.50400001928E-02 0.  1.
       -1    1    3    3    0  502 -0.80029465472E+03  0.91722083996E+03  0.16608723158E+04  0.20591897564E+04  0.50400001928E-02 0. -1.
</event>
<event>
 5   0  0.5515000E-08  0.3984130E+04  0.7818609E-02  0.8007756E-01
       -1   -1    0    0    0  501  0.00000000000E+00  0.00000000000E+00  0.26233994190E+04  0.26233994190E+04  0.50400001928E-02 0.  1.
        1   -1    0    0  501    0  0.00000000000E+00  0.00000000000E+00 -0.15126643100E+04  0.15126643100E+04  0.50400001928E-02 0. -1.
    10030    2    1    2    0    0  0.00000000000E+00  0.00000000000E+00  0.11107351090E+04  0.41360637291E+04  0.39841298534E+04 0.  0.
        4    1    3    3  502    0 -0.23932702044E+03 -0.19581680156E+03 -0.14875960611E+04  0.15193963592E+04  0.12699999809E+01 0. -1.
       -4    1    3    3    0  502  0.23932702044E+03  0.19581680156E+03  0.25983311701E+04  0.26166673699E+04  0.12699999809E+01 0.  1.
</event>
<event>
 5   0  0.1773903E-07  0.3973262E+04  0.7818609E-02  0.8009962E-01
       -2   -1    0    0    0  501  0.00000000000E+00  0.00000000000E+00  0.28525028378E+04  0.28525028378E+04  0.25500000920E-02 0.  1.
        2   -1    0    0  501    0  0.00000000000E+00  0.00000000000E+00 -0.13835932409E+04  0.13835932409E+04  0.25500000920E-02 0. -1.
    10030    2    1    2    0    0  0.00000000000E+00  0.00000000000E+00  0.14689095969E+04  0.42360960787E+04  0.39732624610E+04 0.  0.
        3    1    3    3  502    0  0.40492482080E+02  0.18118117253E+04  0.16021744890E+04  0.24189387079E+04  0.10100000352E+00 0. -1.
       -3    1    3    3    0  502 -0.40492482080E+02 -0.18118117253E+04 -0.13326489209E+03  0.18171573709E+04  0.10100000352E+00 0.  1.
</event>
<event>
 5   0  0.5515000E-08  0.3992478E+04  0.7818609E-02  0.8006066E-01
       -1   -1    0    0    0  501  0.00000000000E+00  0.00000000000E+00  0.20632206722E+04  0.20632206723E+04  0.50400001928E-02 0. -1.
        1   -1    0    0  501    0  0.00000000000E+00  0.00000000000E+00 -0.19314322767E+04  0.19314322767E+04  0.50400001928E-02 0.  1.
    10030    2    1    2    0    0  0.00000000000E+00  0.00000000000E+00  0.13178839551E+03  0.39946529490E+04  0.39924784285E+04 0.  0.
        4    1    3    3  502    0  0.17751613927E+04  0.91301054998E+03  0.52353417408E+02  0.19968797479E+04  0.12699999809E+01 0. -1.
       -4    1    3    3    0  502 -0.17751613927E+04 -0.91301054998E+03  0.79434978103E+02  0.19977732011E+04  0.12699999809E+01 0.  1.
</event>
<event>
 5   0  0.1773903E-07  0.4012308E+04  0.7818609E-02  0.8002068E-01
       -2   -1    0    0    0  501  0.00000000000E+00  0.00000000000E+00  0.17875996366E+04  0.17875996366E+04  0.25500000920E-02 0.  1.
        2   -1    0    0  501    0  0.00000000000E+00  0.00000000000E+00 -0.22514291211E+04  0.22514291211E+04  0.25500000920E-02 0. -1.
    10030    2    1    2    0    0  0.00000000000E+00  0.00000000000E+00 -0.46382948444E+03  0.40390287577E+04  0.40123080035E+04 0.  0.
        3    1    3    3  502    0 -0.18019775101E+04 -0.40787977905E+03  0.55506204312E+03  0.19291404156E+04  0.10100000352E+00 0. -1.
       -3    1    3    3    0  502  0.18019775101E+04  0.40787977905E+03 -0.10188915276E+04  0.21098883421E+04  0.10100000352E+00 0.  1.
</event>
<event>
 5   0  0.1776653E-07  0.4000202E+04  0.7818609E-02  0.8004506E-01
       -2   -1    0    0    0  501  0.00000000000E+00  0.00000000000E+00  0.19304536640E+04  0.19304536640E+04  0.25500000920E-02 0.  1.
        2   -1    0    0  501    0  0.00000000000E+00  0.00000000000E+00 -0.20722615727E+04  0.20722615727E+04  0.25500000920E-02 0. -1.
    10030    2    1    2    0    0  0.00000000000E+00  0.00000000000E+00 -0.14180790868E+03  0.40027152368E+04  0.40002024678E+04 0.  0.
        4    1    3    3  502    0 -0.11272529648E+04  0.14869520759E+04 -0.79154911016E+03  0.20268885833E+04  0.12699999809E+01 0. -1.
       -4    1    3    3    0  502  0.11272529648E+04 -0.14869520759E+04  0.64974120148E+03  0.19758266534E+04  0.12699999809E+01 0.  1.
</event>
<event>
 5   0  0.1785559E-07  0.3455644E+04  0.7818609E-02  0.8124383E-01
       -2   -1    0    0    0  501  0.00000000000E+00  0.00000000000E+00  0.21071878081E+04  0.21071878081E+04  0.25500000920E-02 0.  1.
        2   -1    0    0  501    0  0.00000000000E+00  0.00000000000E+00 -0.14167546150E+04  0.14167546150E+04  0.25500000920E-02 0. -1.
    10030    2    1    2    0    0  0.00000000000E+00  0.00000000000E+00  0.69043319311E+03  0.35239424231E+04  0.34556435301E+04 0.  0.
        2    1    3    3  502    0 -0.91229081619E+03 -0.97068095697E+03  0.14673616153E+04  0.19818289945E+04  0.25500000920E-02 0.  1.
       -2    1    3    3    0  502  0.91229081619E+03  0.97068095697E+03 -0.77692842217E+03  0.15421134286E+04  0.25500000920E-02 0. -1.
</event>
<event>
 5   0  0.1785559E-07  0.3969916E+04  0.7818609E-02  0.8010643E-01
        2   -1    0    0  501    0  0.00000000000E+00  0.00000000000E+00  0.24181432632E+04  0.24181432632E+04  0.25500000920E-02 0.  1.
       -2   -1    0    0    0  501  0.00000000000E+00  0.00000000000E+00 -0.16293730341E+04  0.16293730341E+04  0.25500000920E-02 0. -1.
    10030    2    1    2    0    0  0.00000000000E+00  0.00000000000E+00  0.78877022912E+03  0.40475162974E+04  0.39699155788E+04 0.  0.
        2    1    3    3  502    0 -0.79287697268E+03  0.96212111154E+02  0.22470869010E+04  0.23848082113E+04  0.25500000920E-02 0.  1.
       -2    1    3    3    0  502  0.79287697268E+03 -0.96212111154E+02 -0.14583166718E+04  0.16627080861E+04  0.25500000920E-02 0. -1.
</event>
<event>
 5   0  0.5515000E-08  0.3912578E+04  0.7818609E-02  0.8022418E-01
        1   -1    0    0  501    0  0.00000000000E+00  0.00000000000E+00  0.15978901010E+04  0.15978901010E+04  0.50400001928E-02 0. -1.
       -1   -1    0    0    0  501  0.00000000000E+00  0.00000000000E+00 -0.23950749791E+04  0.23950749791E+04  0.50400001928E-02 0.  1.
    10030    2    1    2    0    0  0.00000000000E+00  0.00000000000E+00 -0.79718487811E+03  0.39929650802E+04  0.39125779739E+04 0.  0.
        4    1    3    3  502    0 -0.29084460135E+03  0.19195142789E+04 -0.15294102247E+03  0.19474388869E+04  0.12699999809E+01 0. -1.
       -4    1    3    3    0  502  0.29084460135E+03 -0.19195142789E+04 -0.64424385564E+03  0.20455261933E+04  0.12699999809E+01 0.  1.
</event>
<event>
 5   0  0.1785559E-07  0.4000917E+04  0.7818609E-02  0.8004362E-01
       -2   -1    0    0    0  501  0.00000000000E+00  0.00000000000E+00  0.24335241096E+04  0.24335241096E+04  0.25500000920E-02 0. -1.
        2   -1    0    0  501    0  0.00000000000E+00  0.00000000000E+00 -0.16444607503E+04  0.16444607503E+04  0.25500000920E-02 0.  1.
    10030    2    1    2    0    0  0.00000000000E+00  0.00000000000E+00  0.78906335931E+03  0.40779848599E+04  0.40009173364E+04 0.  0.
        2    1    3    3  502    0  0.13420213284E+04  0.21422690057E+03  0.18907730348E+04  0.23285053317E+04  0.25500000920E-02 0. -1.
       -2    1    3    3    0  502 -0.13420213284E+04 -0.21422690057E+03 -0.11017096754E+04  0.17494795282E+04  0.25500000920E-02 0.  1.
</event>
<event>
 5   0  0.1821433E-07  0.4010380E+04  0.7818609E-02  0.8002456E-01
        2   -1    0    0  501    0  0.00000000000E+00  0.00000000000E+00  0.16802874756E+04  0.16802874756E+04  0.25500000920E-02 0. -1.
       -2   -1    0    0    0  501  0.00000000000E+00  0.00000000000E+00 -0.23929161281E+04  0.23929161281E+04  0.25500000920E-02 0.  1.
    10030    2    1    2    0    0  0.00000000000E+00  0.00000000000E+00 -0.71262865251E+03  0.40732036037E+04  0.40103800320E+04 0.  0.
        5    1    3    3  502    0 -0.27455654454E+03 -0.18990208115E+04 -0.94776260502E+03  0.21400788266E+04  0.46999998093E+01 0.  1.
       -5    1    3    3    0  502  0.27455654454E+03  0.18990208115E+04  0.23513395251E+03  0.19331247772E+04  0.46999998093E+01 0. -1.
</event>
<event>
 5   0  0.1821433E-07  0.3752954E+04  0.7818609E-02  0.8056327E-01
       -2   -1    0    0    0  501  0.00000000000E+00  0.00000000000E+00  0.15747242208E+04  0.15747242208E+04  0.25500000920E-02 0.  1.
        2   -1    0    0  501    0  0.00000000000E+00  0.00000000000E+00 -0.22360522068E+04  0.22360522068E+04  0.25500000920E-02 0. -1.
    10030    2    1    2    0    0  0.00000000000E+00  0.00000000000E+00 -0.66132798596E+03  0.38107764276E+04  0.37529538068E+04 0.  0.
        5    1    3    3  502    0 -0.34571946079E+02 -0.17572716494E+04 -0.99801493927E+03  0.20212013206E+04  0.46999998093E+01 0.  1.
       -5    1    3    3    0  502  0.34571946079E+02  0.17572716494E+04  0.33668695331E+03  0.17895751070E+04  0.46999998093E+01 0. -1.
</event>
<event>
 5   0  0.1773903E-07  0.3738048E+04  0.7818609E-02  0.8059582E-01
       -2   -1    0    0    0  501  0.00000000000E+00  0.00000000000E+00  0.16035458040E+04  0.16035458040E+04  0.25500000920E-02 0.  1.
        2   -1    0    0  501    0  0.00000000000E+00  0.00000000000E+00 -0.21784541707E+04  0.21784541707E+04  0.25500000920E-02 0. -1.
    10030    2    1    2    0    0  0.00000000000E+00  0.00000000000E+00 -0.57490836664E+03  0.37819999747E+04  0.37380481777E+04 0.  0.
        3    1    3    3  502    0 -0.11549382251E+04  0.78397956863E+03 -0.15449454960E+04  0.20821534198E+04  0.10100000352E+00 0.  1.
       -3    1    3    3    0  502  0.11549382251E+04 -0.78397956863E+03  0.97003712932E+03  0.16998465549E+04  0.10100000352E+00 0. -1.
</event>
<event>
 5   0  0.5515000E-08  0.4062170E+04  0.7818609E-02  0.7992121E-01
       -1   -1    0    0    0  501  0.00000000000E+00  0.00000000000E+00  0.18856220975E+04  0.18856220975E+04  0.50400001928E-02 0. -1.
        1   -1    0    0  501    0  0.00000000000E+00  0.00000000000E+00 -0.21877694654E+04  0.21877694654E+04  0.50400001928E-02 0.  1.
    10030    2    1    2    0    0  0.00000000000E+00  0.00000000000E+00 -0.30214736785E+03  0.40733915629E+04  0.40621700842E+04 0.  0.
        5    1    3    3  502    0  0.27796720612E+03  0.58917893025E+03  0.17780095011E+04  0.18936043556E+04  0.46999998093E+01 0. -1.
       -5    1    3    3    0  502 -0.27796720612E+03 -0.58917893025E+03 -0.20801568690E+04  0.21797872073E+04  0.46999998093E+01 0.  1.
</event>
<event>
 5   0  0.5515000E-08  0.3389900E+04  0.7818609E-02  0.8140390E-01
       -1   -1    0    0    0  501  0.00000000000E+00  0.00000000000E+00  0.17391658334E+04  0.17391658334E+04  0.50400001928E-02 0. -1.
        1   -1    0    0  501    0  0.00000000000E+00  0.00000000000E+00 -0.16518580147E+04  0.16518580147E+04  0.50400001928E-02 0.  1.
    10030    2    1    2    0    0  0.00000000000E+00  0.00000000000E+00  0.87307818752E+02  0.33910238481E+04  0.33898997158E+04 0.  0.
        1    1    3    3  502    0 -0.86759456412E+03 -0.99899915249E+03  0.11033141084E+04  0.17227947226E+04  0.50400001928E-02 0. -1.
       -1    1    3    3    0  502  0.86759456412E+03  0.99899915249E+03 -0.10160062897E+04  0.16682291255E+04  0.50400001928E-02 0.  1.
</event>
<event>
 5   0  0.1773903E-07  0.3962299E+04  0.7818609E-02  0.8012195E-01
        2   -1    0    0  501    0  0.00000000000E+00  0.00000000000E+00  0.16986155134E+04  0.16986155134E+04  0.25500000920E-02 0.  1.
       -2   -1    0    0    0  501  0.00000000000E+00  0.00000000000E+00 -0.23106783929E+04  0.23106783929E+04  0.25500000920E-02 0. -1.
    10030    2    1    2    0    0  0.00000000000E+00  0.00000000000E+00 -0.61206287948E+03  0.40092939063E+04  0.39622994156E+04 0.  0.
        3    1    3    3  502    0 -0.11916003367E+04  0.14315339726E+03  0.12889089828E+04  0.17611617285E+04  0.10100000352E+00 0.  1.
       -3    1    3    3    0  502  0.11916003367E+04 -0.14315339726E+03 -0.19009718623E+04  0.22481321778E+04  0.10100000352E+00 0. -1.
</event>
<event>
 5   0  0.5515000E-08  0.4002800E+04  0.7818609E-02  0.8003982E-01
       -1   -1    0    0    0  501  0.00000000000E+00  0.00000000000E+00  0.20901479156E+04  0.20901479156E+04  0.50400001928E-02 0. -1.
        1   -1    0    0  501    0  0.00000000000E+00  0.00000000000E+00 -0.19164206949E+04  0.19164206949E+04  0.50400001928E-02 0.  1.
    10030    2    1    2    0    0  0.00000000000E+00  0.00000000000E+00  0.17372722070E+03  0.40065686104E+04  0.40028003801E+04 0.  0.
        2    1    3    3  502    0 -0.19772400255E+04  0.30186355606E+03  0.15766205558E+03  0.20063541683E+04  0.25500000920E-02 0. -1.
       -2    1    3    3    0  502  0.19772400255E+04 -0.30186355606E+03  0.16065165120E+02  0.20002144421E+04  0.25500000920E-02 0.  1.
</event>
<event>
 5   0  0.1776653E-07  0.3356168E+04  0.7818609E-02  0.8148749E-01
        2   -1    0    0  501    0  0.00000000000E+00  0.00000000000E+00  0.20586685456E+04  0.20586685456E+04  0.25500000920E-02 0. -1.
       -2   -1    0    0    0  501  0.00000000000E+00  0.00000000000E+00 -0.13678580518E+04  0.13678580518E+04  0.25500000920E-02 0.  1.
    10030    2    1    2    0    0  0.00000000000E+00  0.00000000000E+00  0.69081049377E+03  0.34265265974E+04  0.33561682593E+04 0.  0.
        4    1    3    3  502    0  0.24246778522E+03 -0.32029992434E+03  0.20088502984E+04  0.20486248565E+04  0.12699999809E+01 0. -1.
       -4    1    3    3    0  502 -0.24246778522E+03  0.32029992434E+03 -0.13180398046E+04  0.13779017410E+04  0.12699999809E+01 0.  1.
</event>
<event>
 5   0  0.5515000E-08  0.4004705E+04  0.7818609E-02  0.8003598E-01
        1   -1    0    0  501    0  0.00000000000E+00  0.00000000000E+00  0.11864768236E+04  0.11864768236E+04  0.50400001928E-02 0. -1.
       -1   -1    0    0    0  501  0.00000000000E+00  0.00000000000E+00 -0.33792616900E+04  0.33792616900E+04  0.50400001928E-02 0.  1.
    10030    2    1    2    0    0  0.00000000000E+00  0.00000000000E+00 -0.21927848664E+04  0.45657385136E+04  0.40047050708E+04 0.  0.
        1    1    3    3  502    0  0.18116175420E+04  0.80606610153E+03 -0.14142209899E+04  0.24355126127E+04  0.50400001928E-02 0.  1.
       -1    1    3    3    0  502 -0.18116175420E+04 -0.80606610153E+03 -0.77856387658E+03  0.21302259008E+04  0.50400001928E-02 0. -1.
</event>
<event>
 5   0  0.1776653E-07  0.4021186E+04  0.7818609E-02  0.8000286E-01
        2   -1    0    0  501    0  0.00000000000E+00  0.00000000000E+00  0.21239460999E+04  0.21239460999E+04  0.25500000920E-02 0. -1.
       -2   -1    0    0    0  501  0.00000000000E+00  0.00000000000E+00 -0.19032895493E+04  0.19032895493E+04  0.25500000920E-02 0.  1.
    10030    2    1    2    0    0  0.00000000000E+00  0.00000000000E+00  0.22065655059E+03  0.40272356492E+04  0.40211861012E+04 0.  0.
        4    1    3    3  502    0  0.14547708772E+04  0.47796008904E+03 -0.11945818872E+04  0.19421204005E+04  0.12699999809E+01 0.  1.
       -4    1    3    3    0  502 -0.14547708772E+04 -0.47796008904E+03  0.14152384378E+04  0.20851152487E+04  0.12699999809E+01 0. -1.
</event>
<event>
 5   0  0.1819906E-07  0.3958665E+04  0.7818609E-02  0.8012937E-01
       -2   -1    0    0    0  501  0.00000000000E+00  0.00000000000E+00  0.24114802658E+04  0.24114802658E+04  0.25500000920E-02 0. -1.
        2   -1    0    0  501    0  0.00000000000E+00  0.00000000000E+00 -0.16246272659E+04  0.16246272659E+04  0.25500000920E-02 0.  1.
    10030    2    1    2    0    0  0.00000000000E+00  0.00000000000E+00  0.78685299990E+03  0.40361075316E+04  0.39586647197E+04 0.  0.
        1    1    3    3  502    0  0.44356813709E+03  0.99435429737E+03 -0.12918660170E+04  0.16895002121E+04  0.50400001928E-02 0.  1.
       -1    1    3    3    0  502 -0.44356813709E+03 -0.99435429737E+03  0.20787190168E+04  0.23466073195E+04  0.50400001928E-02 0. -1.
</event>
<event>
 5   0  0.1785559E-07  0.3943925E+04  0.7818609E-02  0.8015955E-01
       -2   -1    0    0    0  501  0.00000000000E+00  0.00000000000E+00  0.17926717229E+04  0.17926717229E+04  0.25500000920E-02 0.  1.
        2   -1    0    0  501    0  0.00000000000E+00  0.00000000000E+00 -0.21691843342E+04  0.21691843342E+04  0.25500000920E-02 0. -1.
    10030    2    1    2    0    0  0.00000000000E+00  0.00000000000E+00 -0.37651261128E+03  0.39618560572E+04  0.39439246533E+04 0.  0.
        2    1    3    3  502    0 -0.15335435419E+04 -0.65224431523E+03  0.87079356448E+03  0.18802818601E+04  0.25500000920E-02 0.  1.
       -2    1    3    3    0  502  0.15335435419E+04  0.65224431523E+03 -0.12473061758E+04  0.20815741970E+04  0.25500000920E-02 0. -1.
</event>
<event>
 5   0  0.5515000E-08  0.3673432E+04  0.7818609E-02  0.8073875E-01
        1   -1    0    0  501    0  0.00000000000E+00  0.00000000000E+00  0.17592379072E+04  0.17592379072E+04  0.50400001928E-02 0. -1.
       -1   -1    0    0    0  501  0.00000000000E+00  0.00000000000E+00 -0.19176061434E+04  0.19176061434E+04  0.50400001928E-02 0.  1.
    10030    2    1    2    0    0  0.00000000000E+00  0.00000000000E+00 -0.15836823622E+03  0.36768440506E+04  0.36734318660E+04 0.  0.
        3    1    3    3  502    0 -0.12521845399E+04 -0.37189871072E+03  0.12132358724E+04  0.17827551894E+04  0.10100000352E+00 0. -1.
       -3    1    3    3    0  502  0.12521845399E+04  0.37189871072E+03 -0.13716041086E+04  0.18940888612E+04  0.10100000352E+00 0.  1.
</event>
<event>
 5   0  0.5515000E-08  0.3993266E+04  0.7818609E-02  0.8005906E-01
        1   -1    0    0  501    0  0.00000000000E+00  0.00000000000E+00  0.27473654896E+04  0.27473654896E+04  0.50400001928E-02 0.  1.
       -1   -1    0    0    0  501  0.00000000000E+00  0.00000000000E+00 -0.14510420567E+04  0.14510420567E+04  0.50400001928E-02 0. -1.
    10030    2    1    2    0    0  0.00000000000E+00  0.00000000000E+00  0.12963234329E+04  0.41984075462E+04  0.39932657665E+04 0.  0.
        1    1    3    3  502    0  0.35037394650E+03 -0.18999893817E+04  0.11847336080E+03  0.19356542797E+04  0.50400001928E-02 0.  1.
       -1    1    3    3    0  502 -0.35037394650E+03  0.18999893817E+04  0.11778500721E+04  0.22627532666E+04  0.50400001928E-02 0. -1.
</event>
<event>
 5   0  0.5515000E-08  0.3938917E+04  0.7818609E-02  0.8016984E-01
        1   -1    0    0  501    0  0.00000000000E+00  0.00000000000E+00  0.18766761620E+04  0.18766761620E+04  0.50400001928E-02 0. -1.
       -1   -1    0    0    0  501  0.00000000000E+00  0.00000000000E+00 -0.20668278528E+04  0.20668278528E+04  0.50400001928E-02 0.  1.
    10030    2    1    2    0    0  0.00000000000E+00  0.00000000000E+00 -0.19015169085E+03  0.39435040148E+04  0.39389168879E+04 0.  0.
        2    1    3    3  502    0 -0.86705029268E+03  0.15217467784E+04  0.80668230709E+03  0.19282701606E+04  0.25500000920E-02 0. -1.
       -2    1    3    3    0  502  0.86705029268E+03 -0.15217467784E+04 -0.99683399794E+03  0.20152338542E+04  0.25500000920E-02 0.  1.
</event>
<event>
 5   0  0.1785559E-07  0.3983063E+04  0.7818609E-02  0.8007972E-01
        2   -1    0    0  501    0  0.00000000000E+00  0.00000000000E+00  0.19282044854E+04  0.19282044854E+04  0.25500000920E-02 0.  1.
       -2   -1    0    0    0  501  0.00000000000E+00  0.00000000000E+00 -0.20569380740E+04  0.20569380740E+04  0.25500000920E-02 0. -1.
    10030    2    1    2    0    0  0.00000000000E+00  0.00000000000E+00 -0.12873358862E+03  0.39851425594E+04  0.39830627515E+04 0.  0.
        2    1    3    3  502    0  0.58459100820E+03 -0.13414976787E+04 -0.14159365378E+04  0.20362315555E+04  0.25500000920E-02 0. -1.
       -2    1    3    3    0  502 -0.58459100820E+03  0.13414976787E+04  0.12872029492E+04  0.19489110039E+04  0.25500000920E-02 0.  1.
</event>
<event>
 5   0  0.1821433E-07  0.3901191E+04  0.7818609E-02  0.8024781E-01
       -2   -1    0    0    0  501  0.00000000000E+00  0.00000000000E+00  0.27318491419E+04  0.27318491419E+04  0.25500000920E-02 0.  1.
        2   -1    0    0  501    0  0.00000000000E+00  0.00000000000E+00 -0.13927648096E+04  0.13927648096E+04  0.25500000920E-02 0. -1.
    10030    2    1    2    0    0  0.00000000000E+00  0.00000000000E+00  0.13390843323E+04  0.41246139515E+04  0.39011912796E+04 0.  0.
        5    1    3    3  502    0  0.88998389397E+03  0.70231250720E+03 -0.10086516973E+04  0.15174697775E+04  0.46999998093E+01 0. -1.
       -5    1    3    3    0  502 -0.88998389397E+03 -0.70231250720E+03  0.23477360296E+04  0.26071441740E+04  0.46999998093E+01 0.  1.
</event>
<event>
 5   0  0.5515000E-08  0.3996442E+04  0.7818609E-02  0.8005265E-01
        1   -1    0    0  501    0  0.00000000000E+00  0.00000000000E+00  0.24976054863E+04  0.24976054863E+04  0.50400001928E-02 0. -1.
       -1   -1    0    0    0  501  0.00000000000E+00  0.00000000000E+00 -0.15986861025E+04  0.15986861025E+04  0.50400001928E-02 0.  1.
    10030    2    1    2    0    0  0.00000000000E+00  0.00000000000E+00  0.89891938387E+03  0.40962915888E+04  0.39964420078E+04 0.  0.
        1    1    3    3  502    0  0.92474326606E+03  0.15923914228E+03  0.22577312611E+04  0.24449657789E+04  0.50400001928E-02 0. -1.
       -1    1    3    3    0  502 -0.92474326606E+03 -0.15923914228E+03 -0.13588118773E+04  0.16513258099E+04  0.50400001928E-02 0.  1.
</event>
<event>
 5   0  0.1819906E-07  0.4007633E+04  0.7818609E-02  0.8003008E-01
       -2   -1    0    0    0  501  0.00000000000E+00  0.00000000000E+00  0.27985038049E+04  0.27985038049E+04  0.25500000920E-02 0. -1.
        2   -1    0    0  501    0  0.00000000000E+00  0.00000000000E+00 -0.14347958037E+04  0.14347958037E+04  0.25500000920E-02 0.  1.
    10030    2    1    2    0    0  0.00000000000E+00  0.00000000000E+00  0.13637080013E+04  0.42332996086E+04  0.40076334742E+04 0.  0.
        1    1    3    3  502    0 -0.19295066977E+04 -0.86964847779E+02  0.11821383808E+03  0.19350797123E+04  0.50400001928E-02 0.  1.
       -1    1    3    3    0  502  0.19295066977E+04  0.86964847779E+02  0.12454941632E+04  0.22982198963E+04  0.50400001928E-02 0. -1.
</event>
<event>
 5   0  0.5515000E-08  0.3988952E+04  0.7818609E-02  0.8006779E-01
       -1   -1    0    0    0  501  0.00000000000E+00  0.00000000000E+00  0.12158448813E+04  0.12158448813E+04  0.50400001928E-02 0.  1.
        1   -1    0    0  501    0  0.00000000000E+00  0.00000000000E+00 -0.32717457486E+04  0.32717457486E+04  0.50400001928E-02 0. -1.
    10030    2    1    2    0    0  0.00000000000E+00  0.00000000000E+00 -0.20559008673E+04  0.44875906300E+04  0.39889524046E+04 0.  0.
        1    1    3    3  502    0  0.62873644631E+03 -0.65011369173E+03  0.97189489076E+03  0.13276057434E+04  0.50400001928E-02 0.  1.
       -1    1    3    3    0  502 -0.62873644631E+03  0.65011369173E+03 -0.30277957581E+04  0.31599848866E+04  0.50400001928E-02 0. -1.
</event>
<event>
 5   0  0.1821433E-07  0.3992324E+04  0.7818609E-02  0.8006097E-01
       -2   -1    0    0    0  501  0.00000000000E+00  0.00000000000E+00  0.19176229202E+04  0.19176229202E+04  0.25500000920E-02 0.  1.
        2   -1    0    0  501    0  0.00000000000E+00  0.00000000000E+00 -0.20779181699E+04  0.20779181699E+04  0.25500000920E-02 0. -1.
    10030    2    1    2    0    0  0.00000000000E+00  0.00000000000E+00 -0.16029524972E+03  0.39955410902E+04  0.39923243901E+04 0.  0.
        5    1    3    3  502    0 -0.95910501941E+03 -0.46209564474E+03  0.16097704305E+04  0.19299735107E+04  0.46999998093E+01 0.  1.
       -5    1    3    3    0  502  0.95910501941E+03  0.46209564474E+03 -0.17700656802E+04  0.20655675795E+04  0.46999998093E+01 0. -1.
</event>
<event>
 5   0  0.1819906E-07  0.4038281E+04  0.7818609E-02  0.7996868E-01
       -2   -1    0    0    0  501  0.00000000000E+00  0.00000000000E+00  0.17280743668E+04  0.17280743668E+04  0.25500000920E-02 0. -1.
        2   -1    0    0  501    0  0.00000000000E+00  0.00000000000E+00 -0.23592324619E+04  0.23592324619E+04  0.25500000920E-02 0.  1.
    10030    2    1    2    0    0  0.00000000000E+00  0.00000000000E+00 -0.63115809510E+03  0.40873068288E+04  0.40382813884E+04 0.  0.
        1    1    3    3  502    0  0.16383717156E+04 -0.69699514425E+03 -0.12794346850E+04  0.21924910998E+04  0.50400001928E-02 0.  1.
       -1    1    3    3    0  502 -0.16383717156E+04  0.69699514425E+03  0.64827658989E+03  0.18948157290E+04  0.50400001928E-02 0. -1.
</event>
<event>
 5   0  0.1821433E-07  0.3881201E+04  0.7818609E-02  0.8028950E-01
       -2   -1    0    0    0  501  0.00000000000E+00  0.00000000000E+00  0.26106555966E+04  0.26106555966E+04  0.25500000920E-02 0.  1.
        2   -1    0    0  501    0  0.00000000000E+00  0.00000000000E+00 -0.14425230544E+04  0.14425230544E+04  0.25500000920E-02 0. -1.
    10030    2    1    2    0    0  0.00000000000E+00  0.00000000000E+00  0.11681325423E+04  0.40531786510E+04  0.38812013013E+04 0.  0.
        5    1    3    3  502    0 -0.19163291015E+04  0.25750555289E+03  0.75655921820E+03  0.20763020676E+04  0.46999998093E+01 0.  1.
       -5    1    3    3    0  502  0.19163291015E+04 -0.25750555289E+03  0.41157332407E+03  0.19768765835E+04  0.46999998093E+01 0. -1.
</event>
<event>
 5   0  0.1821433E-07  0.3920924E+04  0.7818609E-02  0.8020691E-01
       -2   -1    0    0    0  501  0.00000000000E+00  0.00000000000E+00  0.17525480441E+04  0.17525480441E+04  0.25500000920E-02 0. -1.
        2   -1    0    0  501    0  0.00000000000E+00  0.00000000000E+00 -0.21930420624E+04  0.21930420624E+04  0.25500000920E-02 0.  1.
    10030    2    1    2    0    0  0.00000000000E+00  0.00000000000E+00 -0.44049401828E+03  0.39455901065E+04  0.39209241651E+04 0.  0.
        5    1    3    3  502    0 -0.13261788192E+04 -0.13499117947E+04 -0.73569720986E+03  0.20303410031E+04  0.46999998093E+01 0.  1.
       -5    1    3    3    0  502  0.13261788192E+04  0.13499117947E+04  0.29520319158E+03  0.19152491035E+04  0.46999998093E+01 0. -1.
</event>
<event>
 5   0  0.5515000E-08  0.3955230E+04  0.7818609E-02  0.8013639E-01
       -1   -1    0    0    0  501  0.00000000000E+00  0.00000000000E+00  0.27831754974E+04  0.27831754974E+04  0.50400001928E-02 0. -1.
        1   -1    0    0  501    0  0.00000000000E+00  0.00000000000E+00 -0.14052157362E+04  0.14052157362E+04  0.50400001928E-02 0.  1.
    10030    2    1    2    0    0  0.00000000000E+00  0.00000000000E+00  0.13779597612E+04  0.41883912337E+04  0.39552304639E+04 0.  0.
        2    1    3    3  502    0  0.11050161050E+04 -0.12905803302E+04  0.17607208802E+04  0.24467930437E+04  0.25500000920E-02 0.  1.
       -2    1    3    3    0  502 -0.11050161050E+04  0.12905803302E+04 -0.38276111902E+03  0.17415981899E+04  0.25500000920E-02 0. -1.
</event>
<event>
 5   0  0.1773903E-07  0.4047422E+04  0.7818609E-02  0.7995048E-01
        2   -1    0    0  501    0  0.00000000000E+00  0.00000000000E+00  0.20780760675E+04  0.20780760675E+04  0.25500000920E-02 0.  1.
       -2   -1    0    0    0  501  0.00000000000E+00  0.00000000000E+00 -0.19707680557E+04  0.19707680557E+04  0.25500000920E-02 0. -1.
    10030    2    1    2    0    0  0.00000000000E+00  0.00000000000E+00  0.10730801185E+03  0.40488441232E+04  0.40474218615E+04 0.  0.
        3    1    3    3  502    0  0.13109566646E+04  0.58749817877E+03  0.14795125272E+04  0.20622121169E+04  0.10100000352E+00 0.  1.
       -3    1    3    3    0  502 -0.13109566646E+04 -0.58749817877E+03 -0.13722045153E+04  0.19866320064E+04  0.10100000352E+00 0. -1.
</event>
<event>
 5   0  0.5515000E-08  0.3984701E+04  0.7818609E-02  0.8007640E-01
        1   -1    0    0  501    0  0.00000000000E+00  0.00000000000E+00  0.22622519511E+04  0.22622519511E+04  0.50400001928E-02 0. -1.
       -1   -1    0    0    0  501  0.00000000000E+00  0.00000000000E+00 -0.17546498286E+04  0.17546498287E+04  0.50400001928E-02 0.  1.
    10030    2    1    2    0    0  0.00000000000E+00  0.00000000000E+00  0.50760212246E+03  0.40169017798E+04  0.39847007408E+04 0.  0.
        2    1    3    3  502    0 -0.11678388332E+04  0.15457928184E+04 -0.21486130675E+03  0.19492276313E+04  0.25500000920E-02 0. -1.
       -2    1    3    3    0  502  0.11678388332E+04 -0.15457928184E+04  0.72246342921E+03  0.20676741484E+04  0.25500000920E-02 0.  1.
</event>
<event>
 5   0  0.1776653E-07  0.3256188E+04  0.7818609E-02  0.8174134E-01
       -2   -1    0    0    0  501  0.00000000000E+00  0.00000000000E+00  0.13930415064E+04  0.13930415064E+04  0.25500000920E-02 0. -1.
        2   -1    0    0  501    0  0.00000000000E+00  0.00000000000E+00 -0.19028082270E+04  0.19028082270E+04  0.25500000920E-02 0.  1.
    10030    2    1    2    0    0  0.00000000000E+00  0.00000000000E+00 -0.50976672060E+03  0.32958497333E+04  0.32561884705E+04 0.  0.
        4    1    3    3  502    0 -0.13380703373E+04  0.55716539631E+03  0.49564931465E+03  0.15318405147E+04  0.12699999809E+01 0. -1.
       -4    1    3    3    0  502  0.13380703373E+04 -0.55716539631E+03 -0.10054160352E+04  0.17640092186E+04  0.12699999809E+01 0.  1.
</event>
<event>
 5   0  0.5515000E-08  0.4013695E+04  0.7818609E-02  0.8001790E-01
       -1   -1    0    0    0  501  0.00000000000E+00  0.00000000000E+00  0.14831764106E+04  0.14831764106E+04  0.50400001928E-02 0. -1.
        1   -1    0    0  501    0  0.00000000000E+00  0.00000000000E+00 -0.27154133089E+04  0.27154133089E+04  0.50400001928E-02 0.  1.
    10030    2    1    2    0    0  0.00000000000E+00  0.00000000000E+00 -0.12322368984E+04  0.41985897195E+04  0.40136950382E+04 0.  0.
        3    1    3    3  502    0 -0.12387256504E+03 -0.14184697063E+04  0.86325560767E+03  0.16651159042E+04  0.10100000352E+00 0. -1.
       -3    1    3    3    0  502  0.12387256504E+03  0.14184697063E+04 -0.20954925060E+04  0.25334738153E+04  0.10100000352E+00 0.  1.
</event>
<event>
 5   0  0.1773903E-07  0.3998256E+04  0.7818609E-02  0.8004899E-01
        2   -1    0    0  501    0  0.00000000000E+00  0.00000000000E+00  0.25320552848E+04  0.25320552848E+04  0.25500000920E-02 0. -1.
       -2   -1    0    0    0  501  0.00000000000E+00  0.00000000000E+00 -0.15783667071E+04  0.15783667071E+04  0.25500000920E-02 0.  1.
    10030    2    1    2    0    0  0.00000000000E+00  0.00000000000E+00  0.95368857770E+03  0.41104219920E+04  0.39982555007E+04 0.  0.
        3    1    3    3  502    0  0.88181417162E+03  0.12309589391E+04 -0.86501436336E+03  0.17438767164E+04  0.10100000352E+00 0.  1.
       -3    1    3    3    0  502 -0.88181417162E+03 -0.12309589391E+04  0.18187029411E+04  0.23665452755E+04  0.10100000352E+00 0. -1.
</event>
<event>
 5   0  0.5515000E-08  0.3985994E+04  0.7818609E-02  0.8007378E-01
        1   -1    0    0  501    0  0.00000000000E+00  0.00000000000E+00  0.18122202921E+04  0.18122202921E+04  0.50400001928E-02 0. -1.
       -1   -1    0    0    0  501  0.00000000000E+00  0.00000000000E+00 -0.21918067744E+04  0.21918067744E+04  0.50400001928E-02 0.  1.
    10030    2    1    2    0    0  0.00000000000E+00  0.00000000000E+00 -0.37958648233E+03  0.40040270665E+04  0.39859938349E+04 0.  0.
        4    1    3    3  502    0  0.14538718424E+04 -0.94436128456E+03  0.79774827858E+03  0.19083934340E+04  0.12699999809E+01 0. -1.
       -4    1    3    3    0  502 -0.14538718424E+04  0.94436128456E+03 -0.11773347609E+04  0.20956336326E+04  0.12699999809E+01 0.  1.
</event>
<event>
 5   0  0.1819906E-07  0.3995350E+04  0.7818609E-02  0.8005485E-01
       -2   -1    0    0    0  501  0.00000000000E+00  0.00000000000E+00  0.22466371366E+04  0.22466371366E+04  0.25500000920E-02 0. -1.
        2   -1    0    0  501    0  0.00000000000E+00  0.00000000000E+00 -0.17763020435E+04  0.17763020435E+04  0.25500000920E-02 0.  1.
    10030    2    1    2    0    0  0.00000000000E+00  0.00000000000E+00  0.47033509307E+03  0.40229391801E+04  0.39953503660E+04 0.  0.
        1    1    3    3  502    0 -0.18650727371E+04 -0.49682353782E+03  0.75387152328E+03  0.20721129834E+04  0.50400001928E-02 0. -1.
       -1    1    3    3    0  502  0.18650727371E+04  0.49682353782E+03 -0.28353643021E+03  0.19508261967E+04  0.50400001928E-02 0.  1.
</event>
<event>
 5   0  0.5515000E-08  0.3963465E+04  0.7818609E-02  0.8011958E-01
        1   -1    0    0  501    0  0.00000000000E+00  0.00000000000E+00  0.20331677379E+04  0.20331677379E+04  0.50400001928E-02 0. -1.
       -1   -1    0    0    0  501  0.00000000000E+00  0.00000000000E+00 -0.19315987884E+04  0.19315987884E+04  0.50400001928E-02 0.  1.
    10030    2    1    2    0    0  0.00000000000E+00  0.00000000000E+00  0.10156894952E+03  0.39647665263E+04  0.39634653217E+04 0.  0.
        5    1    3    3  502    0 -0.15900058048E+04 -0.10643436803E+04  0.56699295849E+03  0.19956074349E+04  0.46999998093E+01 0. -1.
       -5    1    3    3    0  502  0.15900058048E+04  0.10643436803E+04 -0.46542400897E+03  0.19691590914E+04  0.46999998093E+01 0.  1.
</event>
<event>
 5   0  0.5515000E-08  0.4050903E+04  0.7818609E-02  0.7994356E-01
       -1   -1    0    0    0  501  0.00000000000E+00  0.00000000000E+00  0.15610908911E+04  0.15610908911E+04  0.50400001928E-02 0.  1.
        1   -1    0    0  501    0  0.00000000000E+00  0.00000000000E+00 -0.26279400480E+04  0.26279400480E+04  0.50400001928E-02 0. -1.
    10030    2    1    2    0    0  0.00000000000E+00  0.00000000000E+00 -0.10668491569E+04  0.41890309391E+04  0.40509027495E+04 0.  0.
        4    1    3    3  502    0 -0.42020890423E+02 -0.15951205996E+04 -0.18234702484E+04  0.24230602226E+04  0.12699999809E+01 0. -1.
       -4    1    3    3    0  502  0.42020890423E+02  0.15951205996E+04  0.75662109155E+03  0.17659707165E+04  0.12699999809E+01 0.  1.
</event>
<event>
 5   0  0.1773903E-07  0.3986296E+04  0.7818609E-02  0.8007317E-01
        2   -1    0    0  501    0  0.00000000000E+00  0.00000000000E+00  0.15837878383E+04  0.15837878383E+04  0.25500000920E-02 0.  1.
       -2   -1    0    0    0  501  0.00000000000E+00  0.00000000000E+00 -0.25083151001E+04  0.25083151001E+04  0.25500000920E-02 0. -1.
    10030    2    1    2    0    0  0.00000000000E+00  0.00000000000E+00 -0.92452726182E+03  0.40921029383E+04  0.39862960001E+04 0.  0.
        3    1    3    3  502    0  0.16487556557E+04  0.11144745303E+04 -0.34892360840E+03  0.20204446010E+04  0.10100000352E+00 0. -1.
       -3    1    3    3    0  502 -0.16487556557E+04 -0.11144745303E+04 -0.57560365342E+03  0.20716583374E+04  0.10100000352E+00 0.  1.
</event>
<event>
 5   0  0.5515000E-08  0.4052187E+04  0.7818609E-02  0.7994101E-01
        1   -1    0    0  501    0  0.00000000000E+00  0.00000000000E+00  0.24208466569E+04  0.24208466569E+04  0.50400001928E-02 0. -1.
       -1   -1    0    0    0  501  0.00000000000E+00  0.00000000000E+00 -0.16957104247E+04  0.16957104247E+04  0.50400001928E-02 0.  1.
    10030    2    1    2    0    0  0.00000000000E+00  0.00000000000E+00  0.72513623222E+03  0.41165570816E+04  0.40521870207E+04 0.  0.
        3    1    3    3  502    0 -0.58921753887E+03  0.12125823077E+04 -0.11739131731E+04  0.17876256066E+04  0.10100000352E+00 0.  1.
       -3    1    3    3    0  502  0.58921753887E+03 -0.12125823077E+04  0.18990494053E+04  0.23289314750E+04  0.10100000352E+00 0. -1.
</event>
<event>
 5   0  0.5515000E-08  0.4023710E+04  0.7818609E-02  0.7999781E-01
       -1   -1    0    0    0  501  0.00000000000E+00  0.00000000000E+00  0.16129560767E+04  0.16129560767E+04  0.50400001928E-02 0.  1.
        1   -1    0    0  501    0  0.00000000000E+00  0.00000000000E+00 -0.25094052327E+04  0.25094052327E+04  0.50400001928E-02 0. -1.
    10030    2    1    2    0    0  0.00000000000E+00  0.00000000000E+00 -0.89644915600E+03  0.41223613094E+04  0.40237099393E+04 0.  0.
        2    1    3    3  502    0 -0.10569966580E+04  0.16915385479E+04 -0.17907498422E+03  0.20026513536E+04  0.25500000920E-02 0. -1.
       -2    1    3    3    0  502  0.10569966580E+04 -0.16915385479E+04 -0.71737417177E+03  0.21197099558E+04  0.25500000920E-02 0.  1.
</event>
<event>
 5   0  0.1785559E-07  0.4011931E+04  0.7818609E-02  0.8002144E-01
        2   -1    0    0  501    0  0.00000000000E+00  0.00000000000E+00  0.18422385661E+04  0.18422385661E+04  0.25500000920E-02 0.  1.
       -2   -1    0    0    0  501  0.00000000000E+00  0.00000000000E+00 -0.21842437932E+04  0.21842437932E+04  0.25500000920E-02 0. -1.
    10030    2    1    2    0    0  0.00000000000E+00  0.00000000000E+00 -0.34200522715E+03  0.40264823593E+04  0.40119312823E+04 0.  0.
        2    1    3    3  502    0 -0.10466274767E+03 -0.14242333034E+04 -0.15848360046E+04  0.21333307186E+04  0.25500000920E-02 0. -1.
       -2    1    3    3    0  502  0.10466274767E+03  0.14242333034E+04  0.12428307774E+04  0.18931516407E+04  0.25500000920E-02 0.  1.
</event>
<event>
 5   0  0.5515000E-08  0.4040813E+04  0.7818609E-02  0.7996364E-01
       -1   -1    0    0    0  501  0.00000000000E+00  0.00000000000E+00  0.18921520819E+04  0.18921520819E+04  0.50400001928E-02 0. -1.
        1   -1    0    0  501    0  0.00000000000E+00  0.00000000000E+00 -0.21573540530E+04  0.21573540530E+04  0.50400001928E-02 0.  1.
    10030    2    1    2    0    0  0.00000000000E+00  0.00000000000E+00 -0.26520197102E+03  0.40495061349E+04  0.40408127711E+04 0.  0.
        4    1    3    3  502    0 -0.21487413634E+02  0.88708832139E+03  0.16864219298E+04  0.19056253402E+04  0.12699999809E+01 0. -1.
       -4    1    3    3    0  502  0.21487413634E+02 -0.88708832139E+03 -0.19516239008E+04  0.21438807947E+04  0.12699999809E+01 0.  1.
</event>
<event>
 5   0  0.5515000E-08  0.3893213E+04  0.7818609E-02  0.8026442E-01
        1   -1    0    0  501    0  0.00000000000E+00  0.00000000000E+00  0.18359587429E+04  0.18359587429E+04  0.50400001928E-02 0. -1.
       -1   -1    0    0    0  501  0.00000000000E+00  0.00000000000E+00 -0.20639222604E+04  0.20639222604E+04  0.50400001928E-02 0.  1.
    10030    2    1    2    0    0  0.00000000000E+00  0.00000000000E+00 -0.22796351755E+03  0.38998810033E+04  0.38932126162E+04 0.  0.
        2    1    3    3  502    0  0.64672997448E+03  0.52759064411E+03 -0.18755912567E+04  0.20529135661E+04  0.25500000920E-02 0.  1.
       -2    1    3    3    0  502 -0.64672997448E+03 -0.52759064411E+03  0.16476277391E+04  0.18469674373E+04  0.25500000920E-02 0. -1.
</event>
<event>
 5   0  0.5515000E-08  0.3960859E+04  0.7818609E-02  0.8012489E-01
       -1   -1    0    0    0  501  0.00000000000E+00  0.00000000000E+00  0.21555331943E+04  0.21555331943E+04  0.50400001928E-02 0. -1.
        1   -1    0    0  501    0  0.00000000000E+00  0.00000000000E+00 -0.18195501081E+04  0.18195501081E+04  0.50400001928E-02 0.  1.
    10030    2    1    2    0    0  0.00000000000E+00  0.00000000000E+00  0.33598308617E+03  0.39750833025E+04  0.39608588245E+04 0.  0.
        3    1    3    3  502    0  0.17027067492E+04  0.12574429271E+03 -0.83914553774E+03  0.19024161334E+04  0.10100000352E+00 0.  1.
       -3    1    3    3    0  502 -0.17027067492E+04 -0.12574429271E+03  0.11751286239E+04  0.20726671691E+04  0.10100000352E+00 0. -1.
</event>
<event>
 5   0  0.1819906E-07  0.4016605E+04  0.7818609E-02  0.8001205E-01
       -2   -1    0    0    0  501  0.00000000000E+00  0.00000000000E+00  0.13165728744E+04  0.13165728744E+04  0.25500000920E-02 0. -1.
        2   -1    0    0  501    0  0.00000000000E+00  0.00000000000E+00 -0.30634677250E+04  0.30634677250E+04  0.25500000920E-02 0.  1.
    10030    2    1    2    0    0  0.00000000000E+00  0.00000000000E+00 -0.17468948505E+04  0.43800405994E+04  0.40166047893E+04 0.  0.
        1    1    3    3  502    0  0.17059895713E+04  0.28439906954E+03 -0.19865928511E+04  0.26339769179E+04  0.50400001928E-02 0.  1.
       -1    1    3    3    0  502 -0.17059895713E+04 -0.28439906954E+03  0.23969800051E+03  0.17460636815E+04  0.50400001928E-02 0. -1.
</event>
<event>
 5   0  0.1776653E-07  0.3390732E+04  0.7818609E-02  0.8140185E-01
       -2   -1    0    0    0  501  0.00000000000E+00  0.00000000000E+00  0.14549665921E+04  0.14549665921E+04  0.25500000920E-02 0. -1.
        2   -1    0    0  501    0  0.00000000000E+00  0.00000000000E+00 -0.19754857877E+04  0.19754857878E+04  0.25500000920E-02 0.  1.
    10030    2    1    2    0    0  0.00000000000E+00  0.00000000000E+00 -0.52051919566E+03  0.34304523798E+04  0.33907319707E+04 0.  0.
        4    1    3    3  502    0  0.54639769388E+03 -0.15271945344E+04  0.23886601605E+03  0.16394914371E+04  0.12699999809E+01 0. -1.
       -4    1    3    3    0  502 -0.54639769388E+03  0.15271945344E+04 -0.75938521171E+03  0.17909609427E+04  0.12699999809E+01 0.  1.
</event>
<event>
 5   0  0.5515000E-08  0.4001753E+04  0.7818609E-02  0.8004193E-01
        1   -1    0    0  501    0  0.00000000000E+00  0.00000000000E+00  0.18012463676E+04  0.18012463676E+04  0.50400001928E-02 0.  1.
       -1   -1    0    0    0  501  0.00000000000E+00  0.00000000000E+00 -0.22226317329E+04  0.22226317329E+04  0.50400001928E-02 0. -1.
    10030    2    1    2    0    0  0.00000000000E+00  0.00000000000E+00 -0.42138536534E+03  0.40238781005E+04  0.40017532834E+04 0.  0.
        3    1    3    3  502    0  0.19945785535E+04 -0.14334025766E+03 -0.27901900735E+03  0.20190942653E+04  0.10100000352E+00 0. -1.
       -3    1    3    3    0  502 -0.19945785535E+04  0.14334025766E+03 -0.14236635799E+03  0.20047838352E+04  0.10100000352E+00 0.  1.
</event>
<event>
 5   0  0.1819906E-07  0.3991803E+04  0.7818609E-02  0.8006202E-01
       -2   -1    0    0    0  501  0.00000000000E+00  0.00000000000E+00  0.17722665332E+04  0.17722665332E+04  0.25500000920E-02 0.  1.
        2   -1    0    0  501    0  0.00000000000E+00  0.00000000000E+00 -0.22477564913E+04  0.22477564913E+04  0.25500000920E-02 0. -1.
    10030    2    1    2    0    0  0.00000000000E+00  0.00000000000E+00 -0.47548995807E+03  0.40200230245E+04  0.39918034041E+04 0.  0.
        1    1    3    3  502    0 -0.19923248869E+04  0.11581539879E+03 -0.26713937993E+03  0.20134882939E+04  0.50400001928E-02 0. -1.
       -1    1    3    3    0  502  0.19923248869E+04 -0.11581539879E+03 -0.20835057814E+03  0.20065347306E+04  0.50400001928E-02 0.  1.
</event>
<event>
 5   0  0.1776653E-07  0.3996084E+04  0.7818609E-02  0.8005337E-01
        2   -1    0    0  501    0  0.00000000000E+00  0.00000000000E+00  0.20947221715E+04  0.20947221715E+04  0.25500000920E-02 0.  1.
       -2   -1    0    0    0  501  0.00000000000E+00  0.00000000000E+00 -0.19058242489E+04  0.19058242489E+04  0.25500000920E-02 0. -1.
    10030    2    1    2    0    0  0.00000000000E+00  0.00000000000E+00  0.18889792256E+03  0.40005464204E+04  0.39960842379E+04 0.  0.
        4    1    3    3  502    0 -0.14645011421E+04  0.13401233514E+04 -0.13268872724E+03  0.19895482159E+04  0.12699999809E+01 0.  1.
       -4    1    3    3    0  502  0.14645011421E+04 -0.13401233514E+04  0.32158664980E+03  0.20109982045E+04  0.12699999809E+01 0. -1.
</event>
<event>
 5   0  0.1821433E-07  0.3999700E+04  0.7818609E-02  0.8004607E-01
        2   -1    0    0  501    0  0.00000000000E+00  0.00000000000E+00  0.19071734319E+04  0.19071734319E+04  0.25500000920E-02 0. -1.
       -2   -1    0    0    0  501  0.00000000000E+00  0.00000000000E+00 -0.20970295572E+04  0.20970295572E+04  0.25500000920E-02 0.  1.
    10030    2    1    2    0    0  0.00000000000E+00  0.00000000000E+00 -0.18985612535E+03  0.40042029891E+04  0.39996995174E+04 0.  0.
        5    1    3    3  502    0 -0.57115629098E+02 -0.18761950915E+04  0.59578119346E+03  0.19693520602E+04  0.46999998093E+01 0. -1.
       -5    1    3    3    0  502  0.57115629098E+02  0.18761950915E+04 -0.78563731882E+03  0.20348509290E+04  0.46999998093E+01 0.  1.
</event>
<event>
 5   0  0.1819906E-07  0.4033467E+04  0.7818609E-02  0.7997829E-01
       -2   -1    0    0    0  501  0.00000000000E+00  0.00000000000E+00  0.16796390308E+04  0.16796390308E+04  0.25500000920E-02 0.  1.
        2   -1    0    0  501    0  0.00000000000E+00  0.00000000000E+00 -0.24214812779E+04  0.24214812779E+04  0.25500000920E-02 0. -1.
    10030    2    1    2    0    0  0.00000000000E+00  0.00000000000E+00 -0.74184224711E+03  0.41011203087E+04  0.40334672265E+04 0.  0.
        1    1    3    3  502    0 -0.14476883301E+04 -0.69153420852E+03  0.87153771152E+03  0.18258146252E+04  0.50400001928E-02 0.  1.
       -1    1    3    3    0  502  0.14476883301E+04  0.69153420852E+03 -0.16133799586E+04  0.22753056836E+04  0.50400001928E-02 0. -1.
</event>
<event>
 5   0  0.1821433E-07  0.3964232E+04  0.7818609E-02  0.8011801E-01
       -2   -1    0    0    0  501  0.00000000000E+00  0.00000000000E+00  0.22983785185E+04  0.22983785185E+04  0.25500000920E-02 0.  1.
        2   -1    0    0  501    0  0.00000000000E+00  0.00000000000E+00 -0.17093719798E+04  0.17093719798E+04  0.25500000920E-02 0. -1.
    10030    2    1    2    0    0  0.00000000000E+00  0.00000000000E+00  0.58900653865E+03  0.40077504983E+04  0.39642320005E+04 0.  0.
        5    1    3    3  502    0 -0.92545931092E+03  0.11294760974E+04  0.16495795796E+04  0.22030265704E+04  0.46999998093E+01 0.  1.
       -5    1    3    3    0  502  0.92545931092E+03 -0.11294760974E+04 -0.10605730409E+04  0.18047239279E+04  0.46999998093E+01 0. -1.
</event>
<event>
 5   0  0.1819906E-07  0.4023629E+04  0.7818609E-02  0.7999797E-01
        2   -1    0    0  501    0  0.00000000000E+00  0.00000000000E+00  0.15405140330E+04  0.15405140330E+04  0.25500000920E-02 0. -1.
       -2   -1    0    0    0  501  0.00000000000E+00  0.00000000000E+00 -0.26273033518E+04  0.26273033518E+04  0.25500000920E-02 0.  1.
    10030    2    1    2    0    0  0.00000000000E+00  0.00000000000E+00 -0.10867893188E+04  0.41678173848E+04  0.40236290497E+04 0.  0.
        1    1    3    3  502    0  0.70669705891E+03 -0.16655839816E+04  0.36779138553E+03  0.18463101679E+04  0.50400001928E-02 0. -1.
       -1    1    3    3    0  502 -0.70669705891E+03  0.16655839816E+04 -0.14545807044E+04  0.23215072169E+04  0.50400001928E-02 0.  1.
</event>
<event>
 5   0  0.5515000E-08  0.4149535E+04  0.7818609E-02  0.7975042E-01
       -1   -1    0    0    0  501  0.00000000000E+00  0.00000000000E+00  0.17857056594E+04  0.17857056594E+04  0.50400001928E-02 0. -1.
        1   -1    0    0  501    0  0.00000000000E+00  0.00000000000E+00 -0.24106218405E+04  0.24106218405E+04  0.50400001928E-02 0.  1.
    10030    2    1    2    0    0  0.00000000000E+00  0.00000000000E+00 -0.62491618110E+03  0.41963274998E+04  0.41495354261E+04 0.  0.
        4    1    3    3  502    0 -0.60976938208E+03  0.11650108554E+04  0.13105037254E+04  0.18564726283E+04  0.12699999809E+01 0. -1.
       -4    1    3    3    0  502  0.60976938208E+03 -0.11650108554E+04 -0.19354199065E+04  0.23398548715E+04  0.12699999809E+01 0.  1.
</event>
<event>
 5   0  0.5515000E-08  0.3879330E+04  0.7818609E-02  0.8029342E-01
        1   -1    0    0  501    0  0.00000000000E+00  0.00000000000E+00  0.30647892749E+04  0.30647892749E+04  0.50400001928E-02 0. -1.
       -1   -1    0    0    0  501  0.00000000000E+00  0.00000000000E+00 -0.12275887032E+04  0.12275887032E+04  0.50400001928E-02 0.  1.
    10030    2    1    2    0    0  0.00000000000E+00  0.00000000000E+00  0.18372005716E+04  0.42923779781E+04  0.38793301956E+04 0.  0.
        3    1    3    3  502    0 -0.14537984438E+04  0.10151075148E+04  0.17886628685E+04  0.25185885033E+04  0.10100000352E+00 0. -1.
       -3    1    3    3    0  502  0.14537984438E+04 -0.10151075148E+04  0.48537703180E+02  0.17737894747E+04  0.10100000352E+00 0.  1.
</event>
<event>
 5   0  0.1819906E-07  0.3988649E+04  0.7818609E-02  0.8006840E-01
       -2   -1    0    0    0  501  0.00000000000E+00  0.00000000000E+00  0.13812490617E+04  0.13812490617E+04  0.25500000920E-02 0.  1.
        2   -1    0    0  501    0  0.00000000000E+00  0.00000000000E+00 -0.28795165588E+04  0.28795165588E+04  0.25500000920E-02 0. -1.
    10030    2    1    2    0    0  0.00000000000E+00  0.00000000000E+00 -0.14982674971E+04  0.42607656205E+04  0.39886486659E+04 0.  0.
        1    1    3    3  502    0 -0.13100025229E+04 -0.15027597790E+04 -0.80701508307E+03  0.21507363640E+04  0.50400001928E-02 0.  1.
       -1    1    3    3    0  502  0.13100025229E+04  0.15027597790E+04 -0.69125241408E+03  0.21100292565E+04  0.50400001928E-02 0. -1.
</event>
<event>
 5   0  0.5515000E-08  0.4001630E+04  0.7818609E-02  0.8004218E-01
       -1   -1    0    0    0  501  0.00000000000E+00  0.00000000000E+00  0.34461294429E+04  0.34461294429E+04  0.50400001928E-02 0.  1.
        1   -1    0    0  501    0  0.00000000000E+00  0.00000000000E+00 -0.11616689285E+04  0.11616689285E+04  0.50400001928E-02 0. -1.
    10030    2    1    2    0    0  0.00000000000E+00  0.00000000000E+00  0.22844605144E+04  0.46077983714E+04  0.40016304165E+04 0.  0.
        2    1    3    3  502    0  0.21863841114E+03 -0.96544345943E+03 -0.85994777483E+03  0.13112566506E+04  0.25500000920E-02 0. -1.
       -2    1    3    3    0  502 -0.21863841114E+03  0.96544345943E+03  0.31444082892E+04  0.32965417209E+04  0.25500000920E-02 0.  1.
</event>
<event>
 5   0  0.1785559E-07  0.3995049E+04  0.7818609E-02  0.8005546E-01
        2   -1    0    0  501    0  0.00000000000E+00  0.00000000000E+00  0.20553446059E+04  0.20553446059E+04  0.25500000920E-02 0.  1.
       -2   -1    0    0    0  501  0.00000000000E+00  0.00000000000E+00 -0.19413309797E+04  0.19413309797E+04  0.25500000920E-02 0. -1.
    10030    2    1    2    0    0  0.00000000000E+00  0.00000000000E+00  0.11401362625E+03  0.39966755857E+04  0.39950490147E+04 0.  0.
        2    1    3    3  502    0  0.19835516520E+04  0.23571684911E+03  0.65045540958E+02  0.19985671145E+04  0.25500000920E-02 0. -1.
       -2    1    3    3    0  502 -0.19835516520E+04 -0.23571684911E+03  0.48968085289E+02  0.19981084711E+04  0.25500000920E-02 0.  1.
</event>
<event>
 5   0  0.5515000E-08  0.3918850E+04  0.7818609E-02  0.8021120E-01
        1   -1    0    0  501    0  0.00000000000E+00  0.00000000000E+00  0.14316368693E+04  0.14316368694E+04  0.50400001928E-02 0. -1.
       -1   -1    0    0    0  501  0.00000000000E+00  0.00000000000E+00 -0.26817878829E+04  0.26817878829E+04  0.50400001928E-02 0.  1.
    10030    2    1    2    0    0  0.00000000000E+00  0.00000000000E+00 -0.12501510136E+04  0.41134247523E+04  0.39188500400E+04 0.  0.
        4    1    3    3  502    0 -0.12854856154E+04 -0.14319808930E+04 -0.10125975628E+04  0.21744879817E+04  0.12699999809E+01 0. -1.
       -4    1    3    3    0  502  0.12854856154E+04  0.14319808930E+04 -0.23755345078E+03  0.19389367706E+04  0.12699999809E+01 0.  1.
</event>
<event>
 5   0  0.1821433E-07  0.3997478E+04  0.7818609E-02  0.8005056E-01
        2   -1    0    0  501    0  0.00000000000E+00  0.00000000000E+00  0.18805949596E+04  0.18805949596E+04  0.25500000920E-02 0. -1.
       -2   -1    0    0    0  501  0.00000000000E+00  0.00000000000E+00 -0.21243050041E+04  0.21243050041E+04  0.25500000920E-02 0.  1.
    10030    2    1    2    0    0  0.00000000000E+00  0.00000000000E+00 -0.24371004457E+03  0.40048999637E+04  0.39974778465E+04 0.  0.
        5    1    3    3  502    0 -0.19133241772E+04  0.53479249925E+02 -0.69848056825E+03  0.20375393571E+04  0.46999998093E+01 0. -1.
       -5    1    3    3    0  502  0.19133241772E+04 -0.53479249925E+02  0.45477052368E+03  0.19673606066E+04  0.46999998093E+01 0.  1.
</event>
<event>
 5   0  0.5515000E-08  0.3987652E+04  0.7818609E-02  0.8007042E-01
        1   -1    0    0  501    0  0.00000000000E+00  0.00000000000E+00  0.20454082424E+04  0.20454082424E+04  0.50400001928E-02 0. -1.
       -1   -1    0    0    0  501  0.00000000000E+00  0.00000000000E+00 -0.19435450055E+04  0.19435450055E+04  0.50400001928E-02 0.  1.
    10030    2    1    2    0    0  0.00000000000E+00  0.00000000000E+00  0.10186323690E+03  0.39889532480E+04  0.39876524291E+04 0.  0.
        1    1    3    3  502    0  0.95485714857E+03 -0.17453539150E+04 -0.80756725220E+02  0.19911137867E+04  0.50400001928E-02 0.  1.
       -1    1    3    3    0  502 -0.95485714857E+03  0.17453539150E+04  0.18261996212E+03  0.19978394613E+04  0.50400001928E-02 0. -1.
</event>
<event>
 5   0  0.1819906E-07  0.4007388E+04  0.7818609E-02  0.8003058E-01
        2   -1    0    0  501    0  0.00000000000E+00  0.00000000000E+00  0.19562141622E+04  0.19562141622E+04  0.25500000920E-02 0.  1.
       -2   -1    0    0    0  501  0.00000000000E+00  0.00000000000E+00 -0.20523266563E+04  0.20523266563E+04  0.25500000920E-02 0. -1.
    10030    2    1    2    0    0  0.00000000000E+00  0.00000000000E+00 -0.96112494133E+02  0.40085408185E+04  0.40073884117E+04 0.  0.
        1    1    3    3  502    0 -0.87652038175E+01  0.17351924917E+04  0.95414038021E+03  0.19802408130E+04  0.50400001928E-02 0.  1.
       -1    1    3    3    0  502  0.87652038175E+01 -0.17351924917E+04 -0.10502528743E+04  0.20283000055E+04  0.50400001928E-02 0. -1.
</event>
<event>
 5   0  0.5515000E-08  0.3976269E+04  0.7818609E-02  0.8009351E-01
        1   -1    0    0  501    0  0.00000000000E+00  0.00000000000E+00  0.24140599808E+04  0.24140599808E+04  0.50400001928E-02 0. -1.
       -1   -1    0    0    0  501  0.00000000000E+00  0.00000000000E+00 -0.16373574039E+04  0.16373574039E+04  0.50400001928E-02 0.  1.
    10030    2    1    2    0    0  0.00000000000E+00  0.00000000000E+00  0.77670257690E+03  0.40514173848E+04  0.39762690971E+04 0.  0.
        2    1    3    3  502    0  0.17510184533E+04  0.70710300489E+03 -0.24518667967E+03  0.19042522919E+04  0.25500000920E-02 0.  1.
       -2    1    3    3    0  502 -0.17510184533E+04 -0.70710300489E+03  0.10218892566E+04  0.21471650929E+04  0.25500000920E-02 0. -1.
</event>
<event>
 5   0  0.5515000E-08  0.4015849E+04  0.7818609E-02  0.8001357E-01
        1   -1    0    0  501    0  0.00000000000E+00  0.00000000000E+00  0.22700009560E+04  0.22700009560E+04  0.50400001928E-02 0.  1.
       -1   -1    0    0    0  501  0.00000000000E+00  0.00000000000E+00 -0.17761057205E+04  0.17761057205E+04  0.50400001928E-02 0. -1.
    10030    2    1    2    0    0  0.00000000000E+00  0.00000000000E+00  0.49389523543E+03  0.40461066765E+04  0.40158494412E+04 0.  0.
        2    1    3    3  502    0 -0.83732303509E+03  0.17211388422E+04  0.85842467272E+03  0.20976943767E+04  0.25500000920E-02 0. -1.
       -2    1    3    3    0  502  0.83732303509E+03 -0.17211388422E+04 -0.36452943729E+03  0.19484122998E+04  0.25500000920E-02 0.  1.
</event>
<event>
 5   0  0.5515000E-08  0.4017432E+04  0.7818609E-02  0.8001039E-01
        1   -1    0    0  501    0  0.00000000000E+00  0.00000000000E+00  0.26089511422E+04  0.26089511422E+04  0.50400001928E-02 0.  1.
       -1   -1    0    0    0  501  0.00000000000E+00  0.00000000000E+00 -0.15465758046E+04  0.15465758046E+04  0.50400001928E-02 0. -1.
    10030    2    1    2    0    0  0.00000000000E+00  0.00000000000E+00  0.10623753376E+04  0.41555269468E+04  0.40174323700E+04 0.  0.
        5    1    3    3  502    0  0.16178887090E+04  0.84460265003E+03  0.13990767020E+04  0.22996424111E+04  0.46999998093E+01 0.  1.
       -5    1    3    3    0  502 -0.16178887090E+04 -0.84460265003E+03 -0.33670136437E+03  0.18558845357E+04  0.46999998093E+01 0. -1.
</event>
<event>
 5   0  0.5515000E-08  0.3996801E+04  0.7818609E-02  0.8005192E-01
       -1   -1    0    0    0  501  0.00000000000E+00  0.00000000000E+00  0.25609395172E+04  0.25609395172E+04  0.50400001928E-02 0.  1.
        1   -1    0    0  501    0  0.00000000000E+00  0.00000000000E+00 -0.15594298312E+04  0.15594298313E+04  0.50400001928E-02 0. -1.
    10030    2    1    2    0    0  0.00000000000E+00  0.00000000000E+00  0.10015096859E+04  0.41203693484E+04  0.39968014607E+04 0.  0.
        5    1    3    3  502    0 -0.57354893294E+03 -0.56947676839E+03 -0.13834047623E+04  0.16022150276E+04  0.46999998093E+01 0. -1.
       -5    1    3    3    0  502  0.57354893294E+03  0.56947676839E+03  0.23849144482E+04  0.25181543209E+04  0.46999998093E+01 0.  1.
</event>
<event>
 5   0  0.5515000E-08  0.4040018E+04  0.7818609E-02  0.7996522E-01
        1   -1    0    0  501    0  0.00000000000E+00  0.00000000000E+00  0.16621520512E+04  0.16621520512E+04  0.50400001928E-02 0.  1.
       -1   -1    0    0    0  501  0.00000000000E+00  0.00000000000E+00 -0.24549110337E+04  0.24549110337E+04  0.50400001928E-02 0. -1.
    10030    2    1    2    0    0  0.00000000000E+00  0.00000000000E+00 -0.79275898252E+03  0.41170630849E+04  0.40400175297E+04 0.  0.
        4    1    3    3  502    0 -0.85853763623E+03 -0.11635839692E+04  0.10409867229E+04  0.17817602241E+04  0.12699999809E+01 0.  1.
       -4    1    3    3    0  502  0.85853763623E+03  0.11635839692E+04 -0.18337457054E+04  0.23353028607E+04  0.12699999809E+01 0. -1.
</event>
<event>
 5   0  0.1776653E-07  0.3330337E+04  0.7818609E-02  0.8155219E-01
       -2   -1    0    0    0  501  0.00000000000E+00  0.00000000000E+00  0.12907542891E+04  0.12907542891E+04  0.25500000920E-02 0.  1.
        2   -1    0    0  501    0  0.00000000000E+00  0.00000000000E+00 -0.21481903524E+04  0.21481903524E+04  0.25500000920E-02 0. -1.
    10030    2    1    2    0    0  0.00000000000E+00  0.00000000000E+00 -0.85743606329E+03  0.34389446415E+04  0.33303368665E+04 0.  0.
        4    1    3    3  502    0  0.93568765161E+03  0.78453288866E+03 -0.15977972631E+04  0.20109602039E+04  0.12699999809E+01 0. -1.
       -4    1    3    3    0  502 -0.93568765161E+03 -0.78453288866E+03  0.74036119985E+03  0.14279844376E+04  0.12699999809E+01 0.  1.
</event>
<event>
 5   0  0.1819906E-07  0.3987462E+04  0.7818609E-02  0.8007081E-01
        2   -1    0    0  501    0  0.00000000000E+00  0.00000000000E+00  0.22133266969E+04  0.22133266969E+04  0.25500000920E-02 0. -1.
       -2   -1    0    0    0  501  0.00000000000E+00  0.00000000000E+00 -0.17959227949E+04  0.17959227949E+04  0.25500000920E-02 0.  1.
    10030    2    1    2    0    0  0.00000000000E+00  0.00000000000E+00  0.41740390208E+03  0.40092494918E+04  0.39874622845E+04 0.  0.
        1    1    3    3  502    0  0.27806517111E+03 -0.71118330881E+03 -0.16430617951E+04  0.18118371893E+04  0.50400001928E-02 0.  1.
       -1    1    3    3    0  502 -0.27806517111E+03  0.71118330881E+03  0.20604656971E+04  0.21974123025E+04  0.50400001928E-02 0. -1.
</event>
<event>
 5   0  0.1821433E-07  0.3974898E+04  0.7818609E-02  0.8009630E-01
       -2   -1    0    0    0  501  0.00000000000E+00  0.00000000000E+00  0.25833871206E+04  0.25833871206E+04  0.25500000920E-02 0.  1.
        2   -1    0    0  501    0  0.00000000000E+00  0.00000000000E+00 -0.15289822760E+04  0.15289822760E+04  0.25500000920E-02 0. -1.
    10030    2    1    2    0    0  0.00000000000E+00  0.00000000000E+00  0.10544048446E+04  0.41123693966E+04  0.39748977946E+04 0.  0.
        5    1    3    3  502    0 -0.37814441851E+03  0.56708046689E+03 -0.14042758294E+04  0.15609568067E+04  0.46999998093E+01 0. -1.
       -5    1    3    3    0  502  0.37814441851E+03 -0.56708046689E+03  0.24586806741E+04  0.25514125900E+04  0.46999998093E+01 0.  1.
</event>
<event>
 5   0  0.1785559E-07  0.4043433E+04  0.7818609E-02  0.7995842E-01
        2   -1    0    0  501    0  0.00000000000E+00  0.00000000000E+00  0.20754311558E+04  0.20754311558E+04  0.25500000920E-02 0.  1.
       -2   -1    0    0    0  501  0.00000000000E+00  0.00000000000E+00 -0.19693917836E+04  0.19693917836E+04  0.25500000920E-02 0. -1.
    10030    2    1    2    0    0  0.00000000000E+00  0.00000000000E+00  0.10603937222E+03  0.40448229394E+04  0.40434327325E+04 0.  0.
        2    1    3    3  502    0 -0.91257232325E+02 -0.52238103554E+03 -0.18985809186E+04  0.19712481664E+04  0.25500000920E-02 0. -1.
       -2    1    3    3    0  502  0.91257232325E+02  0.52238103554E+03  0.20046202909E+04  0.20735747730E+04  0.25500000920E-02 0.  1.
</event>
<event>
 5   0  0.5515000E-08  0.4006746E+04  0.7818609E-02  0.8003187E-01
       -1   -1    0    0    0  501  0.00000000000E+00  0.00000000000E+00  0.17591521157E+04  0.17591521157E+04  0.50400001928E-02 0. -1.
        1   -1    0    0  501    0  0.00000000000E+00  0.00000000000E+00 -0.22814989164E+04  0.22814989164E+04  0.50400001928E-02 0.  1.
    10030    2    1    2    0    0  0.00000000000E+00  0.00000000000E+00 -0.52234680069E+03  0.40406510321E+04  0.40067461340E+04 0.  0.
        2    1    3    3  502    0 -0.20474535590E+03 -0.63368832473E+03  0.16442652477E+04  0.17740038778E+04  0.25500000920E-02 0. -1.
       -2    1    3    3    0  502  0.20474535590E+03  0.63368832473E+03 -0.21666120484E+04  0.22666471543E+04  0.25500000920E-02 0.  1.
</event>
<event>
 5   0  0.5515000E-08  0.4093923E+04  0.7818609E-02  0.7985863E-01
        1   -1    0    0  501    0  0.00000000000E+00  0.00000000000E+00  0.22137274818E+04  0.22137274818E+04  0.50400001928E-02 0. -1.
       -1   -1    0    0    0  501  0.00000000000E+00  0.00000000000E+00 -0.18927589013E+04  0.18927589013E+04  0.50400001928E-02 0.  1.
    10030    2    1    2    0    0  0.00000000000E+00  0.00000000000E+00  0.32096858049E+03  0.41064863831E+04  0.40939234952E+04 0.  0.
        1    1    3    3  502    0 -0.10404445724E+04 -0.61780850939E+02 -0.16066570028E+04  0.19151210162E+04  0.50400001928E-02 0.  1.
       -1    1    3    3    0  502  0.10404445724E+04  0.61780850939E+02  0.19276255833E+04  0.21913653669E+04  0.50400001928E-02 0. -1.
</event>
<event>
 5   0  0.1821433E-07  0.4036642E+04  0.7818609E-02  0.7997195E-01
       -2   -1    0    0    0  501  0.00000000000E+00  0.00000000000E+00  0.11963640759E+04  0.11963640759E+04  0.25500000920E-02 0. -1.
        2   -1    0    0  501    0  0.00000000000E+00  0.00000000000E+00 -0.34049999222E+04  0.34049999222E+04  0.25500000920E-02 0.  1.
    10030    2    1    2    0    0  0.00000000000E+00  0.00000000000E+00 -0.22086358463E+04  0.46013639982E+04  0.40366419636E+04 0.  0.
        5    1    3    3  502    0  0.94508950654E+03 -0.13814376808E+04 -0.23899467211E+04  0.29177785490E+04  0.46999998093E+01 0.  1.
       -5    1    3    3    0  502 -0.94508950654E+03  0.13814376808E+04  0.18131087476E+03  0.16835854492E+04  0.46999998093E+01 0. -1.
</event>
<event>
 5   0  0.1819906E-07  0.4007983E+04  0.7818609E-02  0.8002938E-01
       -2   -1    0    0    0  501  0.00000000000E+00  0.00000000000E+00  0.16268513178E+04  0.16268513178E+04  0.25500000920E-02 0. -1.
        2   -1    0    0  501    0  0.00000000000E+00  0.00000000000E+00 -0.24685611918E+04  0.24685611918E+04  0.25500000920E-02 0.  1.
    10030    2    1    2    0    0  0.00000000000E+00  0.00000000000E+00 -0.84170987396E+03  0.40954125096E+04  0.40079830478E+04 0.  0.
        1    1    3    3  502    0  0.42983511017E+02  0.22278699542E+02  0.16262536600E+04  0.16269741514E+04  0.50400001928E-02 0. -1.
       -1    1    3    3    0  502 -0.42983511017E+02 -0.22278699542E+02 -0.24679635340E+04  0.24684383581E+04  0.50400001928E-02 0.  1.
</event>
<event>
 5   0  0.5515000E-08  0.3975722E+04  0.7818609E-02  0.8009462E-01
        1   -1    0    0  501    0  0.00000000000E+00  0.00000000000E+00  0.28776591682E+04  0.28776591682E+04  0.50400001928E-02 0. -1.
       -1   -1    0    0    0  501  0.00000000000E+00  0.00000000000E+00 -0.13731964977E+04  0.13731964977E+04  0.50400001928E-02 0.  1.
    10030    2    1    2    0    0  0.00000000000E+00  0.00000000000E+00  0.15044626705E+04  0.42508556659E+04  0.39757220685E+04 0.  0.
        3    1    3    3  502    0 -0.90852669294E+02 -0.11010841355E+04 -0.10146903328E+04  0.15000789855E+04  0.10100000352E+00 0.  1.
       -3    1    3    3    0  502  0.90852669294E+02  0.11010841355E+04  0.25191530034E+04  0.27507766804E+04  0.10100000352E+00 0. -1.
</event>
<event>
 5   0  0.1821433E-07  0.3998063E+04  0.7818609E-02  0.8004937E-01
       -2   -1    0    0    0  501  0.00000000000E+00  0.00000000000E+00  0.17525619283E+04  0.17525619283E+04  0.25500000920E-02 0.  1.
        2   -1    0    0  501    0  0.00000000000E+00  0.00000000000E+00 -0.22801629273E+04  0.22801629273E+04  0.25500000920E-02 0. -1.
    10030    2    1    2    0    0  0.00000000000E+00  0.00000000000E+00 -0.52760099895E+03  0.40327248556E+04  0.39980628993E+04 0.  0.
        5    1    3    3  502    0  0.12229223429E+04 -0.20501367926E+03 -0.18453659371E+04  0.22232784795E+04  0.46999998093E+01 0. -1.
       -5    1    3    3    0  502 -0.12229223429E+04  0.20501367926E+03  0.13177649382E+04  0.18094463761E+04  0.46999998093E+01 0.  1.
</event>
<event>
 5   0  0.5515000E-08  0.4013396E+04  0.7818609E-02  0.8001850E-01
       -1   -1    0    0    0  501  0.00000000000E+00  0.00000000000E+00  0.21895671535E+04  0.21895671535E+04  0.50400001928E-02 0. -1.
        1   -1    0    0  501    0  0.00000000000E+00  0.00000000000E+00 -0.18391021069E+04  0.18391021069E+04  0.50400001928E-02 0.  1.
    10030    2    1    2    0    0  0.00000000000E+00  0.00000000000E+00  0.35046504666E+03  0.40286692604E+04  0.40133963498E+04 0.  0.
        3    1    3    3  502    0 -0.90554499764E+03  0.15437758899E+04 -0.73573509058E+03  0.19350870458E+04  0.10100000352E+00 0.  1.
       -3    1    3    3    0  502  0.90554499764E+03 -0.15437758899E+04  0.10862001372E+04  0.20935822146E+04  0.10100000352E+00 0. -1.
</event>
<event>
 5   0  0.1821433E-07  0.3970428E+04  0.7818609E-02  0.8010539E-01
       -2   -1    0    0    0  501  0.00000000000E+00  0.00000000000E+00  0.19237853182E+04  0.19237853182E+04  0.25500000920E-02 0. -1.
        2   -1    0    0  501    0  0.00000000000E+00  0.00000000000E+00 -0.20486039797E+04  0.20486039797E+04  0.25500000920E-02 0.  1.
    10030    2    1    2    0    0  0.00000000000E+00  0.00000000000E+00 -0.12481866143E+03  0.39723892979E+04  0.39704278152E+04 0.  0.
        5    1    3    3  502    0 -0.68572218358E+03 -0.27869905557E+03 -0.19053736610E+04  0.20441034599E+04  0.46999998093E+01 0.  1.
       -5    1    3    3    0  502  0.68572218358E+03  0.27869905557E+03  0.17805549996E+04  0.19282858380E+04  0.46999998093E+01 0. -1.
</event>
<event>
 5   0  0.5515000E-08  0.3999008E+04  0.7818609E-02  0.8004747E-01
       -1   -1    0    0    0  501  0.00000000000E+00  0.00000000000E+00  0.17925966233E+04  0.17925966233E+04  0.50400001928E-02 0.  1.
        1   -1    0    0  501    0  0.00000000000E+00  0.00000000000E+00 -0.22302932057E+04  0.22302932057E+04  0.50400001928E-02 0. -1.
    10030    2    1    2    0    0  0.00000000000E+00  0.00000000000E+00 -0.43769658244E+03  0.40228898290E+04  0.39990079117E+04 0.  0.
        2    1    3    3  502    0  0.87561353149E+03 -0.17973507325E+04 -0.24813153231E+03  0.20146309760E+04  0.25500000920E-02 0.  1.
       -2    1    3    3    0  502 -0.87561353149E+03  0.17973507325E+04 -0.18956505014E+03  0.20082588530E+04  0.25500000920E-02 0. -1.
</event>
<event>
 5   0  0.1819906E-07  0.3316866E+04  0.7818609E-02  0.8158617E-01
        2   -1    0    0  501    0  0.00000000000E+00  0.00000000000E+00  0.12750223886E+04  0.12750223886E+04  0.25500000920E-02 0.  1.
       -2   -1    0    0    0  501  0.00000000000E+00  0.00000000000E+00 -0.21571390221E+04  0.21571390221E+04  0.25500000920E-02 0. -1.
    10030    2    1    2    0    0  0.00000000000E+00  0.00000000000E+00 -0.88211663350E+03  0.34321614108E+04  0.33168663215E+04 0.  0.
        1    1    3    3  502    0 -0.46498191549E+03  0.10850219020E+04 -0.16464184728E+04  0.20258762295E+04  0.50400001928E-02 0. -1.
       -1    1    3    3    0  502  0.46498191549E+03 -0.10850219020E+04  0.76430183928E+03  0.14062851813E+04  0.50400001928E-02 0.  1.
</event>
<event>
 5   0  0.5515000E-08  0.3984986E+04  0.7818609E-02  0.8007582E-01
       -1   -1    0    0    0  501  0.00000000000E+00  0.00000000000E+00  0.34364517377E+04  0.34364517377E+04  0.50400001928E-02 0. -1.
        1   -1    0    0  501    0  0.00000000000E+00  0.00000000000E+00 -0.11552697744E+04  0.11552697745E+04  0.50400001928E-02 0.  1.
    10030    2    1    2    0    0  0.00000000000E+00  0.00000000000E+00  0.22811819632E+04  0.45917215121E+04  0.39849862353E+04 0.  0.
        2    1    3    3  502    0 -0.11902553356E+03  0.35955047424E+03 -0.11134115967E+04  0.11760650513E+04  0.25500000920E-02 0.  1.
       -2    1    3    3    0  502  0.11902553356E+03 -0.35955047424E+03  0.33945935599E+04  0.34156564608E+04  0.25500000920E-02 0. -1.
</event>
<event>
 5   0  0.1776653E-07  0.4002779E+04  0.7818609E-02  0.8003986E-01
       -2   -1    0    0    0  501  0.00000000000E+00  0.00000000000E+00  0.16217528375E+04  0.16217528375E+04  0.25500000920E-02 0. -1.
        2   -1    0    0  501    0  0.00000000000E+00  0.00000000000E+00 -0.24698955561E+04  0.24698955561E+04  0.25500000920E-02 0.  1.
    10030    2    1    2    0    0  0.00000000000E+00  0.00000000000E+00 -0.84814271858E+03  0.40916483936E+04  0.40027790978E+04 0.  0.
        4    1    3    3  502    0 -0.93194373959E+03 -0.14503975952E+04  0.61505416150E+03  0.18304276965E+04  0.12699999809E+01 0. -1.
       -4    1    3    3    0  502  0.93194373959E+03  0.14503975952E+04 -0.14631968801E+04  0.22612206970E+04  0.12699999809E+01 0.  1.
</event>
<event>
 5   0  0.5515000E-08  0.3998957E+04  0.7818609E-02  0.8004757E-01
        1   -1    0    0  501    0  0.00000000000E+00  0.00000000000E+00  0.19433083330E+04  0.19433083330E+04  0.50400001928E-02 0. -1.
       -1   -1    0    0    0  501  0.00000000000E+00  0.00000000000E+00 -0.20572725496E+04  0.20572725496E+04  0.50400001928E-02 0.  1.
    10030    2    1    2    0    0  0.00000000000E+00  0.00000000000E+00 -0.11396421656E+03  0.40005808826E+04  0.39989573085E+04 0.  0.
        4    1    3    3  502    0  0.17224742068E+03  0.97309121568E+03 -0.17958873410E+04  0.20498264908E+04  0.12699999809E+01 0.  1.
       -4    1    3    3    0  502 -0.17224742068E+03 -0.97309121568E+03  0.16819231244E+04  0.19507543918E+04  0.12699999809E+01 0. -1.
</event>
<event>
 5   0  0.5515000E-08  0.3958734E+04  0.7818609E-02  0.8012923E-01
       -1   -1    0    0    0  501  0.00000000000E+00  0.00000000000E+00  0.14705922120E+04  0.14705922120E+04  0.50400001928E-02 0.  1.
        1   -1    0    0  501    0  0.00000000000E+00  0.00000000000E+00 -0.26641598589E+04  0.26641598590E+04  0.50400001928E-02 0. -1.
    10030    2    1    2    0    0  0.00000000000E+00  0.00000000000E+00 -0.11935676469E+04  0.41347520710E+04  0.39587335046E+04 0.  0.
        2    1    3    3  502    0 -0.89120642576E+03  0.12826515586E+04 -0.18667622836E+04  0.24339772673E+04  0.25500000920E-02 0. -1.
       -2    1    3    3    0  502  0.89120642576E+03 -0.12826515586E+04  0.67319463671E+03  0.17007748037E+04  0.25500000920E-02 0.  1.
</event>
<event>
 5   0  0.5515000E-08  0.4004064E+04  0.7818609E-02  0.8003727E-01
        1   -1    0    0  501    0  0.00000000000E+00  0.00000000000E+00  0.18948777249E+04  0.18948777249E+04  0.50400001928E-02 0. -1.
       -1   -1    0    0    0  501  0.00000000000E+00  0.00000000000E+00 -0.21152460561E+04  0.21152460561E+04  0.50400001928E-02 0.  1.
    10030    2    1    2    0    0  0.00000000000E+00  0.00000000000E+00 -0.22036833120E+03  0.40101237809E+04  0.40040642523E+04 0.  0.
        5    1    3    3  502    0  0.22291914536E+03 -0.16461024606E+04 -0.12293565246E+04  0.20665637688E+04  0.46999998093E+01 0.  1.
       -5    1    3    3    0  502 -0.22291914536E+03  0.16461024606E+04  0.10089881934E+04  0.19435600121E+04  0.46999998093E+01 0. -1.
</event>
<event>
 5   0  0.5515000E-08  0.3919842E+04  0.7818609E-02  0.8020915E-01
        1   -1    0    0  501    0  0.00000000000E+00  0.00000000000E+00  0.17016496114E+04  0.17016496114E+04  0.50400001928E-02 0.  1.
       -1   -1    0    0    0  501  0.00000000000E+00  0.00000000000E+00 -0.22573919446E+04  0.22573919447E+04  0.50400001928E-02 0. -1.
    10030    2    1    2    0    0  0.00000000000E+00  0.00000000000E+00 -0.55574233322E+03  0.39590415561E+04  0.39198418976E+04 0.  0.
        2    1    3    3  502    0  0.51715204988E+02 -0.14012761367E+04  0.11051437901E+04  0.17853828919E+04  0.25500000920E-02 0.  1.
       -2    1    3    3    0  502 -0.51715204988E+02  0.14012761367E+04 -0.16608861234E+04  0.21736586642E+04  0.25500000920E-02 0. -1.
</event>
<event>
 5   0  0.5515000E-08  0.3917023E+04  0.7818609E-02  0.8021498E-01
        1   -1    0    0  501    0  0.00000000000E+00  0.00000000000E+00  0.20834633042E+04  0.20834633042E+04  0.50400001928E-02 0. -1.
       -1   -1    0    0    0  501  0.00000000000E+00  0.00000000000E+00 -0.18410533485E+04  0.18410533485E+04  0.50400001928E-02 0.  1.
    10030    2    1    2    0    0  0.00000000000E+00  0.00000000000E+00  0.24240995574E+03  0.39245166527E+04  0.39170228964E+04 0.  0.
        3    1    3    3  502    0 -0.35507057367E+03 -0.18084451562E+04 -0.54279822510E+03  0.19212441070E+04  0.10100000352E+00 0.  1.
       -3    1    3    3    0  502  0.35507057367E+03  0.18084451562E+04  0.78520818083E+03  0.20032725458E+04  0.10100000352E+00 0. -1.
</event>
<event>
 5   0  0.5515000E-08  0.3860699E+04  0.7818609E-02  0.8033253E-01
        1   -1    0    0  501    0  0.00000000000E+00  0.00000000000E+00  0.16479646691E+04  0.16479646691E+04  0.50400001928E-02 0.  1.
       -1   -1    0    0    0  501  0.00000000000E+00  0.00000000000E+00 -0.22611223247E+04  0.22611223247E+04  0.50400001928E-02 0. -1.
    10030    2    1    2    0    0  0.00000000000E+00  0.00000000000E+00 -0.61315765558E+03  0.39090869939E+04  0.38606992650E+04 0.  0.
        5    1    3    3  502    0 -0.19302064042E+04  0.15692299253E+02 -0.32366043558E+03  0.19572228230E+04  0.46999998093E+01 0. -1.
       -5    1    3    3    0  502  0.19302064042E+04 -0.15692299253E+02 -0.28949722000E+03  0.19518641709E+04  0.46999998093E+01 0.  1.
</event>
<event>
 5   0  0.5515000E-08  0.4119598E+04  0.7818609E-02  0.7980845E-01
        3   -1    0    0  501    0  0.00000000000E+00  0.00000000000E+00  0.22851368872E+04  0.22851368895E+04  0.10100000352E+00 0.  1.
       -3   -1    0    0    0  501  0.00000000000E+00  0.00000000000E+00 -0.18566820035E+04  0.18566820063E+04  0.10100000352E+00 0. -1.
    10030    2    1    2    0    0  0.00000000000E+00  0.00000000000E+00  0.42845488369E+03  0.41418188957E+04  0.41195983030E+04 0.  0.
        4    1    3    3  502    0 -0.49408047562E+03 -0.17230956843E+04  0.12343909884E+04  0.21764413566E+04  0.12699999809E+01 0.  1.
       -4    1    3    3    0  502  0.49408047562E+03  0.17230956843E+04 -0.80593610469E+03  0.19653775391E+04  0.12699999809E+01 0. -1.
</event>
<event>
 5   0  0.5515000E-08  0.3988750E+04  0.7818609E-02  0.8006820E-01
        1   -1    0    0  501    0  0.00000000000E+00  0.00000000000E+00  0.26184084884E+04  0.26184084884E+04  0.50400001928E-02 0. -1.
       -1   -1    0    0    0  501  0.00000000000E+00  0.00000000000E+00 -0.15190647833E+04  0.15190647833E+04  0.50400001928E-02 0.  1.
    10030    2    1    2    0    0  0.00000000000E+00  0.00000000000E+00  0.10993437051E+04  0.41374732717E+04  0.39887502419E+04 0.  0.
        5    1    3    3  502    0  0.15898140347E+04 -0.64427201561E+03  0.16049104925E+04  0.23491178927E+04  0.46999998093E+01 0. -1.
       -5    1    3    3    0  502 -0.15898140347E+04  0.64427201561E+03 -0.50556678736E+03  0.17883553790E+04  0.46999998093E+01 0.  1.
</event>
<event>
 5   0  0.1776653E-07  0.3974787E+04  0.7818609E-02  0.8009652E-01
        2   -1    0    0  501    0  0.00000000000E+00  0.00000000000E+00  0.21158979612E+04  0.21158979612E+04  0.25500000920E-02 0.  1.
       -2   -1    0    0    0  501  0.00000000000E+00  0.00000000000E+00 -0.18666937358E+04  0.18666937359E+04  0.25500000920E-02 0. -1.
    10030    2    1    2    0    0  0.00000000000E+00  0.00000000000E+00  0.24920422534E+03  0.39825916970E+04  0.39747872747E+04 0.  0.
        4    1    3    3  502    0 -0.12189572645E+04 -0.10392225236E+04  0.13033011488E+04  0.20650510317E+04  0.12699999809E+01 0.  1.
       -4    1    3    3    0  502  0.12189572645E+04  0.10392225236E+04 -0.10540969235E+04  0.19175406653E+04  0.12699999809E+01 0. -1.
</event>
<event>
 5   0  0.5515000E-08  0.4015320E+04  0.7818609E-02  0.8001463E-01
        1   -1    0    0  501    0  0.00000000000E+00  0.00000000000E+00  0.13247999186E+04  0.13247999186E+04  0.50400001928E-02 0.  1.
       -1   -1    0    0    0  501  0.00000000000E+00  0.00000000000E+00 -0.30424966589E+04  0.30424966589E+04  0.50400001928E-02 0. -1.
    10030    2    1    2    0    0  0.00000000000E+00  0.00000000000E+00 -0.17176967404E+04  0.43672965775E+04  0.40153203240E+04 0.  0.
        4    1    3    3  502    0  0.92520382416E+03 -0.50891200939E+03 -0.27160720690E+04  0.29141109530E+04  0.12699999809E+01 0. -1.
       -4    1    3    3    0  502 -0.92520382416E+03  0.50891200939E+03  0.99837532862E+03  0.14531856245E+04  0.12699999809E+01 0.  1.
</event>
<event>
 5   0  0.1773903E-07  0.4003123E+04  0.7818609E-02  0.8003917E-01
        2   -1    0    0  501    0  0.00000000000E+00  0.00000000000E+00  0.13949334021E+04  0.13949334021E+04  0.25500000920E-02 0.  1.
       -2   -1    0    0    0  501  0.00000000000E+00  0.00000000000E+00 -0.28720002403E+04  0.28720002403E+04  0.25500000920E-02 0. -1.
    10030    2    1    2    0    0  0.00000000000E+00  0.00000000000E+00 -0.14770668382E+04  0.42669336424E+04  0.40031233137E+04 0.  0.
        3    1    3    3  502    0  0.12476195949E+04 -0.76507522042E+03 -0.21939293151E+04  0.26372752219E+04  0.10100000352E+00 0. -1.
       -3    1    3    3    0  502 -0.12476195949E+04  0.76507522042E+03  0.71686247690E+03  0.16296584205E+04  0.10100000352E+00 0.  1.
</event>
<event>
 5   0  0.1819906E-07  0.3945778E+04  0.7818609E-02  0.8015575E-01
       -2   -1    0    0    0  501  0.00000000000E+00  0.00000000000E+00  0.15876843371E+04  0.15876843371E+04  0.25500000920E-02 0.  1.
        2   -1    0    0  501    0  0.00000000000E+00  0.00000000000E+00 -0.24515520140E+04  0.24515520140E+04  0.25500000920E-02 0. -1.
    10030    2    1    2    0    0  0.00000000000E+00  0.00000000000E+00 -0.86386767688E+03  0.40392363510E+04  0.39457778620E+04 0.  0.
        1    1    3    3  502    0 -0.15404802160E+04 -0.12161519966E+04 -0.63714582459E+03  0.20635066699E+04  0.50400001928E-02 0.  1.
       -1    1    3    3    0  502  0.15404802160E+04  0.12161519966E+04 -0.22672185229E+03  0.19757296812E+04  0.50400001928E-02 0. -1.
</event>
<event>
 5   0  0.5515000E-08  0.3602370E+04  0.7818609E-02  0.8089949E-01
       -1   -1    0    0    0  501  0.00000000000E+00  0.00000000000E+00  0.15319389157E+04  0.15319389157E+04  0.50400001928E-02 0. -1.
        1   -1    0    0  501    0  0.00000000000E+00  0.00000000000E+00 -0.21177525854E+04  0.21177525854E+04  0.50400001928E-02 0.  1.
    10030    2    1    2    0    0  0.00000000000E+00  0.00000000000E+00 -0.58581366969E+03  0.36496915011E+04  0.36023701083E+04 0.  0.
        4    1    3    3  502    0  0.29281730925E+03  0.14470708256E+03  0.15016842163E+04  0.15367951115E+04  0.12699999809E+01 0. -1.
       -4    1    3    3    0  502 -0.29281730925E+03 -0.14470708256E+03 -0.20874978860E+04  0.21128963896E+04  0.12699999809E+01 0.  1.
</event>
<event>
 5   0  0.1819906E-07  0.3940999E+04  0.7818609E-02  0.8016556E-01
       -2   -1    0    0    0  501  0.00000000000E+00  0.00000000000E+00  0.20977467497E+04  0.20977467497E+04  0.25500000920E-02 0.  1.
        2   -1    0    0  501    0  0.00000000000E+00  0.00000000000E+00 -0.18509707445E+04  0.18509707445E+04  0.25500000920E-02 0. -1.
    10030    2    1    2    0    0  0.00000000000E+00  0.00000000000E+00  0.24677600523E+03  0.39487174941E+04  0.39409987886E+04 0.  0.
        1    1    3    3  502    0  0.80493308772E+03  0.17724411070E+04 -0.18282979553E+03  0.19552215956E+04  0.50400001928E-02 0. -1.
       -1    1    3    3    0  502 -0.80493308772E+03 -0.17724411070E+04  0.42960580075E+03  0.19934958986E+04  0.50400001928E-02 0.  1.
</event>
<event>
 5   0  0.1773903E-07  0.3993094E+04  0.7818609E-02  0.8005941E-01
        2   -1    0    0  501    0  0.00000000000E+00  0.00000000000E+00  0.26921561174E+04  0.26921561174E+04  0.25500000920E-02 0.  1.
       -2   -1    0    0    0  501  0.00000000000E+00  0.00000000000E+00 -0.14806719441E+04  0.14806719441E+04  0.25500000920E-02 0. -1.
    10030    2    1    2    0    0  0.00000000000E+00  0.00000000000E+00  0.12114841733E+04  0.41728280615E+04  0.39930940546E+04 0.  0.
        3    1    3    3  502    0  0.58971826152E+03  0.49844720805E+03  0.25298068945E+04  0.26450217732E+04  0.10100000352E+00 0.  1.
       -3    1    3    3    0  502 -0.58971826152E+03 -0.49844720805E+03 -0.13183227212E+04  0.15278062883E+04  0.10100000352E+00 0. -1.
</event>
<event>
 5   0  0.5515000E-08  0.3907522E+04  0.7818609E-02  0.8023467E-01
        1   -1    0    0  501    0  0.00000000000E+00  0.00000000000E+00  0.22845877942E+04  0.22845877942E+04  0.50400001928E-02 0.  1.
       -1   -1    0    0    0  501  0.00000000000E+00  0.00000000000E+00 -0.16708407694E+04  0.16708407694E+04  0.50400001928E-02 0. -1.
    10030    2    1    2    0    0  0.00000000000E+00  0.00000000000E+00  0.61374702484E+03  0.39554285636E+04  0.39075221959E+04 0.  0.
        2    1    3    3  502    0  0.19128136174E+04 -0.39174298449E+03  0.37747041117E+03  0.19886685023E+04  0.25500000920E-02 0. -1.
       -2    1    3    3    0  502 -0.19128136174E+04  0.39174298449E+03  0.23627661367E+03  0.19667600613E+04  0.25500000920E-02 0.  1.
</event>
<event>
 5   0  0.1773903E-07  0.4025441E+04  0.7818609E-02  0.7999434E-01
        2   -1    0    0  501    0  0.00000000000E+00  0.00000000000E+00  0.23833884730E+04  0.23833884730E+04  0.25500000920E-02 0. -1.
       -2   -1    0    0    0  501  0.00000000000E+00  0.00000000000E+00 -0.16996993323E+04  0.16996993323E+04  0.25500000920E-02 0.  1.
    10030    2    1    2    0    0  0.00000000000E+00  0.00000000000E+00  0.68368914076E+03  0.40830878053E+04  0.40254409926E+04 0.  0.
        3    1    3    3  502    0  0.96858019898E+03 -0.17146955566E+04  0.76338642399E+03  0.21121286173E+04  0.10100000352E+00 0. -1.
       -3    1    3    3    0  502 -0.96858019898E+03  0.17146955566E+04 -0.79697283225E+02  0.19709591880E+04  0.10100000352E+00 0.  1.
</event>
<event>
 5   0  0.5515000E-08  0.3973676E+04  0.7818609E-02  0.8009878E-01
       -1   -1    0    0    0  501  0.00000000000E+00  0.00000000000E+00  0.17883705561E+04  0.17883705561E+04  0.50400001928E-02 0.  1.
        1   -1    0    0  501    0  0.00000000000E+00  0.00000000000E+00 -0.22073307751E+04  0.22073307751E+04  0.50400001928E-02 0. -1.
    10030    2    1    2    0    0  0.00000000000E+00  0.00000000000E+00 -0.41896021899E+03  0.39957013311E+04  0.39736760641E+04 0.  0.
        1    1    3    3  502    0 -0.18923012488E+04  0.48785071270E+03  0.15128845437E+03  0.19600230944E+04  0.50400001928E-02 0.  1.
       -1    1    3    3    0  502  0.18923012488E+04 -0.48785071270E+03 -0.57024867336E+03  0.20356782367E+04  0.50400001928E-02 0. -1.
</event>
<event>
 5   0  0.5515000E-08  0.3983760E+04  0.7818609E-02  0.8007831E-01
        1   -1    0    0  501    0  0.00000000000E+00  0.00000000000E+00  0.20180519514E+04  0.20180519514E+04  0.50400001928E-02 0.  1.
       -1   -1    0    0    0  501  0.00000000000E+00  0.00000000000E+00 -0.19660476534E+04  0.19660476534E+04  0.50400001928E-02 0. -1.
    10030    2    1    2    0    0  0.00000000000E+00  0.00000000000E+00  0.52004298070E+02  0.39840996048E+04  0.39837601853E+04 0.  0.
        2    1    3    3  502    0 -0.40863735162E+03 -0.10251597575E+04 -0.16323457802E+04  0.19704034510E+04  0.25500000920E-02 0. -1.
       -2    1    3    3    0  502  0.40863735162E+03  0.10251597575E+04  0.16843500783E+04  0.20136961538E+04  0.25500000920E-02 0.  1.
</event>
<event>
 5   0  0.5515000E-08  0.3900459E+04  0.7818609E-02  0.8024934E-01
       -1   -1    0    0    0  501  0.00000000000E+00  0.00000000000E+00  0.19931914387E+04  0.19931914387E+04  0.50400001928E-02 0. -1.
        1   -1    0    0  501    0  0.00000000000E+00  0.00000000000E+00 -0.19081936122E+04  0.19081936122E+04  0.50400001928E-02 0.  1.
    10030    2    1    2    0    0  0.00000000000E+00  0.00000000000E+00  0.84997826481E+02  0.39013850509E+04  0.39004590351E+04 0.  0.
        1    1    3    3  502    0  0.13597246093E+04 -0.47578531712E+03  0.13574107601E+04  0.19793399539E+04  0.50400001928E-02 0. -1.
       -1    1    3    3    0  502 -0.13597246093E+04  0.47578531712E+03 -0.12724129336E+04  0.19220450970E+04  0.50400001928E-02 0.  1.
</event>
<event>
 5   0  0.1819906E-07  0.4005909E+04  0.7818609E-02  0.8003356E-01
        2   -1    0    0  501    0  0.00000000000E+00  0.00000000000E+00  0.20445818700E+04  0.20445818700E+04  0.25500000920E-02 0.  1.
       -2   -1    0    0    0  501  0.00000000000E+00  0.00000000000E+00 -0.19621749326E+04  0.19621749326E+04  0.25500000920E-02 0. -1.
    10030    2    1    2    0    0  0.00000000000E+00  0.00000000000E+00  0.82406937380E+02  0.40067568027E+04  0.40059092816E+04 0.  0.
        1    1    3    3  502    0 -0.11735179975E+04  0.10512252548E+04  0.12782384585E+04  0.20288204908E+04  0.50400001928E-02 0.  1.
       -1    1    3    3    0  502  0.11735179975E+04 -0.10512252548E+04 -0.11958315212E+04  0.19779363119E+04  0.50400001928E-02 0. -1.
</event>
<event>
 5   0  0.5515000E-08  0.4007490E+04  0.7818609E-02  0.8003037E-01
        1   -1    0    0  501    0  0.00000000000E+00  0.00000000000E+00  0.18292991533E+04  0.18292991533E+04  0.50400001928E-02 0.  1.
       -1   -1    0    0    0  501  0.00000000000E+00  0.00000000000E+00 -0.21948268459E+04  0.21948268459E+04  0.50400001928E-02 0. -1.
    10030    2    1    2    0    0  0.00000000000E+00  0.00000000000E+00 -0.36552769260E+03  0.40241259992E+04  0.40074904321E+04 0.  0.
        1    1    3    3  502    0  0.34553887604E+03  0.13565021830E+04 -0.16224166752E+04  0.21428325075E+04  0.50400001928E-02 0. -1.
       -1    1    3    3    0  502 -0.34553887604E+03 -0.13565021830E+04  0.12568889826E+04  0.18812934917E+04  0.50400001928E-02 0.  1.
</event>
<event>
 5   0  0.5515000E-08  0.4018322E+04  0.7818609E-02  0.8000861E-01
       -1   -1    0    0    0  501  0.00000000000E+00  0.00000000000E+00  0.14756614445E+04  0.14756614445E+04  0.50400001928E-02 0. -1.
        1   -1    0    0  501    0  0.00000000000E+00  0.00000000000E+00 -0.27355376907E+04  0.27355376907E+04  0.50400001928E-02 0.  1.
    10030    2    1    2    0    0  0.00000000000E+00  0.00000000000E+00 -0.12598762462E+04  0.42111991353E+04  0.40183217891E+04 0.  0.
        4    1    3    3  502    0 -0.55140792233E+03 -0.15787340663E+04 -0.17970698506E+04  0.24547736372E+04  0.12699999809E+01 0.  1.
       -4    1    3    3    0  502  0.55140792233E+03  0.15787340663E+04  0.53719360443E+03  0.17564254981E+04  0.12699999809E+01 0. -1.
</event>
<event>
 5   0  0.1785559E-07  0.3959500E+04  0.7818609E-02  0.8012767E-01
        2   -1    0    0  501    0  0.00000000000E+00  0.00000000000E+00  0.19100852062E+04  0.19100852062E+04  0.25500000920E-02 0.  1.
       -2   -1    0    0    0  501  0.00000000000E+00  0.00000000000E+00 -0.20519560186E+04  0.20519560186E+04  0.25500000920E-02 0. -1.
    10030    2    1    2    0    0  0.00000000000E+00  0.00000000000E+00 -0.14187081242E+03  0.39620412248E+04  0.39595003902E+04 0.  0.
        2    1    3    3  502    0  0.41648724875E+03  0.15360594012E+04  0.11073051067E+04  0.19388307589E+04  0.25500000920E-02 0.  1.
       -2    1    3    3    0  502 -0.41648724875E+03 -0.15360594012E+04 -0.12491759191E+04  0.20232104659E+04  0.25500000920E-02 0. -1.
</event>
<event>
 5   0  0.1785559E-07  0.3896280E+04  0.7818609E-02  0.8025803E-01
        2   -1    0    0  501    0  0.00000000000E+00  0.00000000000E+00  0.12893417976E+04  0.12893417976E+04  0.25500000920E-02 0.  1.
       -2   -1    0    0    0  501  0.00000000000E+00  0.00000000000E+00 -0.29435555085E+04  0.29435555085E+04  0.25500000920E-02 0. -1.
    10030    2    1    2    0    0  0.00000000000E+00  0.00000000000E+00 -0.16542137109E+04  0.42328973061E+04  0.38962798414E+04 0.  0.
        2    1    3    3  502    0  0.39926017100E+03 -0.10646506147E+04  0.89144422424E+03  0.14448399290E+04  0.25500000920E-02 0.  1.
       -2    1    3    3    0  502 -0.39926017100E+03  0.10646506147E+04 -0.25456579351E+04  0.27880573771E+04  0.25500000920E-02 0. -1.
</event>
<event>
 5   0  0.5515000E-08  0.4041728E+04  0.7818609E-02  0.7996181E-01
        1   -1    0    0  501    0  0.00000000000E+00  0.00000000000E+00  0.23154863486E+04  0.23154863486E+04  0.50400001928E-02 0.  1.
       -1   -1    0    0    0  501  0.00000000000E+00  0.00000000000E+00 -0.17637296793E+04  0.17637296793E+04  0.50400001928E-02 0. -1.
    10030    2    1    2    0    0  0.00000000000E+00  0.00000000000E+00  0.55175666932E+03  0.40792160279E+04  0.40417283408E+04 0.  0.
        2    1    3    3  502    0  0.19693059727E+04 -0.31515303835E+03  0.60510095876E+03  0.20841388202E+04  0.25500000920E-02 0. -1.
       -2    1    3    3    0  502 -0.19693059727E+04  0.31515303835E+03 -0.53344289439E+02  0.19950772077E+04  0.25500000920E-02 0.  1.
</event>
<event>
 5   0  0.1819906E-07  0.4006245E+04  0.7818609E-02  0.8003288E-01
       -2   -1    0    0    0  501  0.00000000000E+00  0.00000000000E+00  0.17617152036E+04  0.17617152036E+04  0.25500000920E-02 0. -1.
        2   -1    0    0  501    0  0.00000000000E+00  0.00000000000E+00 -0.22776101419E+04  0.22776101419E+04  0.25500000920E-02 0.  1.
    10030    2    1    2    0    0  0.00000000000E+00  0.00000000000E+00 -0.51589493825E+03  0.40393253455E+04  0.40062453319E+04 0.  0.
        1    1    3    3  502    0  0.13170626250E+04 -0.10836119994E+04 -0.13171605511E+04  0.21549433498E+04  0.50400001928E-02 0.  1.
       -1    1    3    3    0  502 -0.13170626250E+04  0.10836119994E+04  0.80126561284E+03  0.18843819957E+04  0.50400001928E-02 0. -1.
</event>
<event>
 5   0  0.5515000E-08  0.4000238E+04  0.7818609E-02  0.8004499E-01
        1   -1    0    0  501    0  0.00000000000E+00  0.00000000000E+00  0.14370908181E+04  0.14370908181E+04  0.50400001928E-02 0.  1.
       -1   -1    0    0    0  501  0.00000000000E+00  0.00000000000E+00 -0.27837324394E+04  0.27837324394E+04  0.50400001928E-02 0. -1.
    10030    2    1    2    0    0  0.00000000000E+00  0.00000000000E+00 -0.13466416213E+04  0.42208232575E+04  0.40002381572E+04 0.  0.
        3    1    3    3  502    0  0.47769805184E+03  0.17043463738E+04 -0.16560687402E+04  0.24239545526E+04  0.10100000352E+00 0. -1.
       -3    1    3    3    0  502 -0.47769805184E+03 -0.17043463738E+04  0.30942711883E+03  0.17968687049E+04  0.10100000352E+00 0.  1.
</event>
<event>
 5   0  0.1776653E-07  0.3986468E+04  0.7818609E-02  0.8007282E-01
       -2   -1    0    0    0  501  0.00000000000E+00  0.00000000000E+00  0.19167951580E+04  0.19167951580E+04  0.25500000920E-02 0.  1.
        2   -1    0    0  501    0  0.00000000000E+00  0.00000000000E+00 -0.20727210321E+04  0.20727210321E+04  0.25500000920E-02 0. -1.
    10030    2    1    2    0    0  0.00000000000E+00  0.00000000000E+00 -0.15592587407E+03  0.39895161901E+04  0.39864679295E+04 0.  0.
        4    1    3    3  502    0  0.10291033978E+04  0.47385618776E+03  0.15632259605E+04  0.19306140232E+04  0.12699999809E+01 0.  1.
       -4    1    3    3    0  502 -0.10291033978E+04 -0.47385618776E+03 -0.17191518345E+04  0.20589021670E+04  0.12699999809E+01 0. -1.
</event>
<event>
 5   0  0.1821433E-07  0.4005777E+04  0.7818609E-02  0.8003382E-01
       -2   -1    0    0    0  501  0.00000000000E+00  0.00000000000E+00  0.14657031208E+04  0.14657031208E+04  0.25500000920E-02 0. -1.
        2   -1    0    0  501    0  0.00000000000E+00  0.00000000000E+00 -0.27369535973E+04  0.27369535973E+04  0.25500000920E-02 0.  1.
    10030    2    1    2    0    0  0.00000000000E+00  0.00000000000E+00 -0.12712504765E+04  0.42026567181E+04  0.40057765434E+04 0.  0.
        5    1    3    3  502    0 -0.43963628069E+03 -0.10641621226E+04 -0.23550196426E+04  0.26214234090E+04  0.46999998093E+01 0.  1.
       -5    1    3    3    0  502  0.43963628069E+03  0.10641621226E+04  0.10837691661E+04  0.15812333091E+04  0.46999998093E+01 0. -1.
</event>
<event>
 5   0  0.1773903E-07  0.3997526E+04  0.7818609E-02  0.8005046E-01
       -2   -1    0    0    0  501  0.00000000000E+00  0.00000000000E+00  0.13415072436E+04  0.13415072436E+04  0.25500000920E-02 0.  1.
        2   -1    0    0  501    0  0.00000000000E+00  0.00000000000E+00 -0.29780329377E+04  0.29780329377E+04  0.25500000920E-02 0. -1.
    10030    2    1    2    0    0  0.00000000000E+00  0.00000000000E+00 -0.16365256940E+04  0.43195401813E+04  0.39975256135E+04 0.  0.
        3    1    3    3  502    0  0.16046130504E+04  0.83993334464E+03  0.95288516890E+02  0.18136567969E+04  0.10100000352E+00 0.  1.
       -3    1    3    3    0  502 -0.16046130504E+04 -0.83993334464E+03 -0.17318142109E+04  0.25058833844E+04  0.10100000352E+00 0. -1.
</event>
<event>
 5   0  0.5515000E-08  0.3993667E+04  0.7818609E-02  0.8005825E-01
       -1   -1    0    0    0  501  0.00000000000E+00  0.00000000000E+00  0.19585832990E+04  0.19585832990E+04  0.50400001928E-02 0. -1.
        1   -1    0    0  501    0  0.00000000000E+00  0.00000000000E+00 -0.20358307864E+04  0.20358307864E+04  0.50400001928E-02 0.  1.
    10030    2    1    2    0    0  0.00000000000E+00  0.00000000000E+00 -0.77247487353E+02  0.39944140854E+04  0.39936670757E+04 0.  0.
        1    1    3    3  502    0  0.18358003505E+04 -0.44981160822E+03  0.60558583168E+03  0.19847487522E+04  0.50400001928E-02 0. -1.
       -1    1    3    3    0  502 -0.18358003505E+04  0.44981160822E+03 -0.68283331904E+03  0.20096653332E+04  0.50400001928E-02 0.  1.
</event>
<event>
 5   0  0.5515000E-08  0.3957053E+04  0.7818609E-02  0.8013267E-01
       -1   -1    0    0    0  501  0.00000000000E+00  0.00000000000E+00  0.22278224675E+04  0.22278224675E+04  0.50400001928E-02 0.  1.
        1   -1    0    0  501    0  0.00000000000E+00  0.00000000000E+00 -0.17571273948E+04  0.17571273949E+04  0.50400001928E-02 0. -1.
    10030    2    1    2    0    0  0.00000000000E+00  0.00000000000E+00  0.47069507263E+03  0.39849498623E+04  0.39570533929E+04 0.  0.
        2    1    3    3  502    0 -0.90746553513E+01  0.95379860139E+02 -0.17547898454E+04  0.17574035020E+04  0.25500000920E-02 0. -1.
       -2    1    3    3    0  502  0.90746553513E+01 -0.95379860139E+02  0.22254849181E+04  0.22275463604E+04  0.25500000920E-02 0.  1.
</event>
<event>
 5   0  0.5515000E-08  0.4173118E+04  0.7818609E-02  0.7970506E-01
       -1   -1    0    0    0  501  0.00000000000E+00  0.00000000000E+00  0.20129493471E+04  0.20129493471E+04  0.50400001928E-02 0.  1.
        1   -1    0    0  501    0  0.00000000000E+00  0.00000000000E+00 -0.21628604858E+04  0.21628604858E+04  0.50400001928E-02 0. -1.
    10030    2    1    2    0    0  0.00000000000E+00  0.00000000000E+00 -0.14991113869E+03  0.41758098330E+04  0.41731180683E+04 0.  0.
        2    1    3    3  502    0  0.15521476665E+03  0.15034699303E+04  0.13644489600E+04  0.20362304436E+04  0.25500000920E-02 0.  1.
       -2    1    3    3    0  502 -0.15521476665E+03 -0.15034699303E+04 -0.15143600987E+04  0.21395793894E+04  0.25500000920E-02 0. -1.
</event>
<event>
 5   0  0.1785559E-07  0.3966702E+04  0.7818609E-02  0.8011298E-01
        2   -1    0    0  501    0  0.00000000000E+00  0.00000000000E+00  0.30737504756E+04  0.30737504756E+04  0.25500000920E-02 0. -1.
       -2   -1    0    0    0  501  0.00000000000E+00  0.00000000000E+00 -0.12797661946E+04  0.12797661947E+04  0.25500000920E-02 0.  1.
    10030    2    1    2    0    0  0.00000000000E+00  0.00000000000E+00  0.17939842810E+04  0.43535166703E+04  0.39667023834E+04 0.  0.
        2    1    3    3  502    0  0.11489314193E+04 -0.56160546195E+03 -0.76683452742E+03  0.14911335599E+04  0.25500000920E-02 0.  1.
       -2    1    3    3    0  502 -0.11489314193E+04  0.56160546195E+03  0.25608188084E+04  0.28623831104E+04  0.25500000920E-02 0. -1.
</event>
<event>
 5   0  0.1776653E-07  0.4018194E+04  0.7818609E-02  0.8000886E-01
       -2   -1    0    0    0  501  0.00000000000E+00  0.00000000000E+00  0.20123245063E+04  0.20123245063E+04  0.25500000920E-02 0.  1.
        2   -1    0    0  501    0  0.00000000000E+00  0.00000000000E+00 -0.20058747969E+04  0.20058747969E+04  0.25500000920E-02 0. -1.
    10030    2    1    2    0    0  0.00000000000E+00  0.00000000000E+00  0.64497093930E+01  0.40181993031E+04  0.40181941268E+04 0.  0.
        4    1    3    3  502    0  0.22203997650E+03 -0.44641742086E+03 -0.19430251014E+04  0.20059756784E+04  0.12699999809E+01 0. -1.
       -4    1    3    3    0  502 -0.22203997650E+03  0.44641742086E+03  0.19494748108E+04  0.20122236247E+04  0.12699999809E+01 0.  1.
</event>
<event>
 5   0  0.1821433E-07  0.4017019E+04  0.7818609E-02  0.8001122E-01
       -2   -1    0    0    0  501  0.00000000000E+00  0.00000000000E+00  0.16948079159E+04  0.16948079159E+04  0.25500000920E-02 0.  1.
        2   -1    0    0  501    0  0.00000000000E+00  0.00000000000E+00 -0.23802760279E+04  0.23802760279E+04  0.25500000920E-02 0. -1.
    10030    2    1    2    0    0  0.00000000000E+00  0.00000000000E+00 -0.68546811200E+03  0.40750839438E+04  0.40170191207E+04 0.  0.
        5    1    3    3  502    0 -0.12472780510E+04  0.80758476225E+03 -0.17136347078E+04  0.22681405791E+04  0.46999998093E+01 0. -1.
       -5    1    3    3    0  502  0.12472780510E+04 -0.80758476225E+03  0.10281665958E+04  0.18069433647E+04  0.46999998093E+01 0.  1.
</event>
<event>
 5   0  0.5515000E-08  0.3520997E+04  0.7818609E-02  0.8108832E-01
       -1   -1    0    0    0  501  0.00000000000E+00  0.00000000000E+00  0.25039392894E+04  0.25039392894E+04  0.50400001928E-02 0.  1.
        1   -1    0    0  501    0  0.00000000000E+00  0.00000000000E+00 -0.12377916230E+04  0.12377916230E+04  0.50400001928E-02 0. -1.
    10030    2    1    2    0    0  0.00000000000E+00  0.00000000000E+00  0.12661476665E+04  0.37417309124E+04  0.35209970616E+04 0.  0.
        1    1    3    3  502    0  0.10216181076E+04  0.37791181344E+03 -0.83668321335E+03  0.13735209121E+04  0.50400001928E-02 0. -1.
       -1    1    3    3    0  502 -0.10216181076E+04 -0.37791181344E+03  0.21028308798E+04  0.23682100003E+04  0.50400001928E-02 0.  1.
</event>
<event>
 5   0  0.5515000E-08  0.4003450E+04  0.7818609E-02  0.8003851E-01
        1   -1    0    0  501    0  0.00000000000E+00  0.00000000000E+00  0.14879042695E+04  0.14879042695E+04  0.50400001928E-02 0. -1.
       -1   -1    0    0    0  501  0.00000000000E+00  0.00000000000E+00 -0.26929848301E+04  0.26929848301E+04  0.50400001928E-02 0.  1.
    10030    2    1    2    0    0  0.00000000000E+00  0.00000000000E+00 -0.12050805606E+04  0.41808890996E+04  0.40034503251E+04 0.  0.
        4    1    3    3  502    0 -0.11120855795E+04  0.48993605280E+03 -0.22636780425E+04  0.25692433837E+04  0.12699999809E+01 0.  1.
       -4    1    3    3    0  502  0.11120855795E+04 -0.48993605280E+03  0.10585974819E+04  0.16116457159E+04  0.12699999809E+01 0. -1.
</event>
<event>
 5   0  0.1785559E-07  0.3936257E+04  0.7818609E-02  0.8017530E-01
       -2   -1    0    0    0  501  0.00000000000E+00  0.00000000000E+00  0.21776875616E+04  0.21776875616E+04  0.25500000920E-02 0. -1.
        2   -1    0    0  501    0  0.00000000000E+00  0.00000000000E+00 -0.17787350144E+04  0.17787350144E+04  0.25500000920E-02 0.  1.
    10030    2    1    2    0    0  0.00000000000E+00  0.00000000000E+00  0.39895254725E+03  0.39564225760E+04  0.39362566564E+04 0.  0.
        2    1    3    3  502    0 -0.26247857821E+02 -0.15159423515E+02  0.21774529428E+04  0.21776639034E+04  0.25500000920E-02 0. -1.
       -2    1    3    3    0  502  0.26247857821E+02  0.15159423515E+02 -0.17785003956E+04  0.17787586726E+04  0.25500000920E-02 0.  1.
</event>
<event>
 5   0  0.1819906E-07  0.4006519E+04  0.7818609E-02  0.8003233E-01
        2   -1    0    0  501    0  0.00000000000E+00  0.00000000000E+00  0.29410228318E+04  0.29410228318E+04  0.25500000920E-02 0.  1.
       -2   -1    0    0    0  501  0.00000000000E+00  0.00000000000E+00 -0.13645080755E+04  0.13645080755E+04  0.25500000920E-02 0. -1.
    10030    2    1    2    0    0  0.00000000000E+00  0.00000000000E+00  0.15765147563E+04  0.43055309073E+04  0.40065193893E+04 0.  0.
        1    1    3    3  502    0  0.60544371767E+03 -0.15078588728E+04  0.20473881475E+04  0.26138092321E+04  0.50400001928E-02 0.  1.
       -1    1    3    3    0  502 -0.60544371767E+03  0.15078588728E+04 -0.47087339121E+03  0.16917216751E+04  0.50400001928E-02 0. -1.
</event>
<event>
 5   0  0.1819906E-07  0.3987579E+04  0.7818609E-02  0.8007057E-01
       -2   -1    0    0    0  501  0.00000000000E+00  0.00000000000E+00  0.13922533633E+04  0.13922533633E+04  0.25500000920E-02 0.  1.
        2   -1    0    0  501    0  0.00000000000E+00  0.00000000000E+00 -0.28552255010E+04  0.28552255010E+04  0.25500000920E-02 0. -1.
    10030    2    1    2    0    0  0.00000000000E+00  0.00000000000E+00 -0.14629721377E+04  0.42474788643E+04  0.39875793693E+04 0.  0.
        1    1    3    3  502    0  0.75491102376E+01 -0.58414703200E+03 -0.27620147241E+04  0.28231206280E+04  0.50400001928E-02 0. -1.
       -1    1    3    3    0  502 -0.75491102376E+01  0.58414703200E+03  0.12990425863E+04  0.14243582363E+04  0.50400001928E-02 0.  1.
</event>
<event>
 5   0  0.5515000E-08  0.3991033E+04  0.7818609E-02  0.8006358E-01
        1   -1    0    0  501    0  0.00000000000E+00  0.00000000000E+00  0.25240032672E+04  0.25240032672E+04  0.50400001928E-02 0.  1.
       -1   -1    0    0    0  501  0.00000000000E+00  0.00000000000E+00 -0.15776868785E+04  0.15776868785E+04  0.50400001928E-02 0. -1.
    10030    2    1    2    0    0  0.00000000000E+00  0.00000000000E+00  0.94631638873E+03  0.41016901457E+04  0.39910333679E+04 0.  0.
        2    1    3    3  502    0 -0.11864672456E+03  0.15132871127E+04 -0.85812310975E+03  0.17437001469E+04  0.25500000920E-02 0. -1.
       -2    1    3    3    0  502  0.11864672456E+03 -0.15132871127E+04  0.18044394985E+04  0.23579899988E+04  0.25500000920E-02 0.  1.
</event>
<event>
 5   0  0.1821433E-07  0.4089102E+04  0.7818609E-02  0.7986809E-01
       -2   -1    0    0    0  501  0.00000000000E+00  0.00000000000E+00  0.14743191409E+04  0.14743191409E+04  0.25500000920E-02 0. -1.
        2   -1    0    0  501    0  0.00000000000E+00  0.00000000000E+00 -0.28353354507E+04  0.28353354507E+04  0.25500000920E-02 0.  1.
    10030    2    1    2    0    0  0.00000000000E+00  0.00000000000E+00 -0.13610163098E+04  0.43096545916E+04  0.40891022613E+04 0.  0.
        5    1    3    3  502    0  0.12092205171E+04 -0.97332340547E+03 -0.20829150901E+04  0.25977163189E+04  0.46999998093E+01 0.  1.
       -5    1    3    3    0  502 -0.12092205171E+04  0.97332340547E+03  0.72189878034E+03  0.17119382728E+04  0.46999998093E+01 0. -1.
</event>
<event>
 5   0  0.5515000E-08  0.3992931E+04  0.7818609E-02  0.8005974E-01
       -1   -1    0    0    0  501  0.00000000000E+00  0.00000000000E+00  0.21720334298E+04  0.21720334298E+04  0.50400001928E-02 0.  1.
        1   -1    0    0  501    0  0.00000000000E+00  0.00000000000E+00 -0.18350885484E+04  0.18350885484E+04  0.50400001928E-02 0. -1.
    10030    2    1    2    0    0  0.00000000000E+00  0.00000000000E+00  0.33694488145E+03  0.40071219782E+04  0.39929305898E+04 0.  0.
        4    1    3    3  502    0 -0.12356579529E+04 -0.14662634836E+04  0.72640962100E+03  0.20504759765E+04  0.12699999809E+01 0. -1.
       -4    1    3    3    0  502  0.12356579529E+04  0.14662634836E+04 -0.38946473955E+03  0.19566460017E+04  0.12699999809E+01 0.  1.
</event>
<event>
 5   0  0.5515000E-08  0.4004521E+04  0.7818609E-02  0.8003635E-01
        1   -1    0    0  501    0  0.00000000000E+00  0.00000000000E+00  0.16994901878E+04  0.16994901878E+04  0.50400001928E-02 0.  1.
       -1   -1    0    0    0  501  0.00000000000E+00  0.00000000000E+00 -0.23589700904E+04  0.23589700904E+04  0.50400001928E-02 0. -1.
    10030    2    1    2    0    0  0.00000000000E+00  0.00000000000E+00 -0.65947990255E+03  0.40584602782E+04  0.40045207064E+04 0.  0.
        1    1    3    3  502    0  0.27801654885E+03  0.11514175852E+04 -0.19657923185E+04  0.22950806296E+04  0.50400001928E-02 0. -1.
       -1    1    3    3    0  502 -0.27801654885E+03 -0.11514175852E+04  0.13063124159E+04  0.17633796486E+04  0.50400001928E-02 0.  1.
</event>
<event>
 5   0  0.5515000E-08  0.3994287E+04  0.7818609E-02  0.8005700E-01
        1   -1    0    0  501    0  0.00000000000E+00  0.00000000000E+00  0.14113720608E+04  0.14113720608E+04  0.50400001928E-02 0. -1.
       -1   -1    0    0    0  501  0.00000000000E+00  0.00000000000E+00 -0.28260320075E+04  0.28260320075E+04  0.50400001928E-02 0.  1.
    10030    2    1    2    0    0  0.00000000000E+00  0.00000000000E+00 -0.14146599466E+04  0.42374040683E+04  0.39942872297E+04 0.  0.
        1    1    3    3  502    0 -0.35797327758E+02 -0.22068778808E+03  0.13980545168E+04  0.14158181311E+04  0.50400001928E-02 0. -1.
       -1    1    3    3    0  502  0.35797327758E+02  0.22068778808E+03 -0.28127144634E+04  0.28215859372E+04  0.50400001928E-02 0.  1.
</event>
<event>
 5   0  0.5515000E-08  0.3981881E+04  0.7818609E-02  0.8008212E-01
        1   -1    0    0  501    0  0.00000000000E+00  0.00000000000E+00  0.22828676710E+04  0.22828676710E+04  0.50400001928E-02 0. -1.
       -1   -1    0    0    0  501  0.00000000000E+00  0.00000000000E+00 -0.17363439172E+04  0.17363439172E+04  0.50400001928E-02 0.  1.
    10030    2    1    2    0    0  0.00000000000E+00  0.00000000000E+00  0.54652375376E+03  0.40192115882E+04  0.39818806584E+04 0.  0.
        2    1    3    3  502    0 -0.25471134483E+02  0.18924922414E+04 -0.35032268159E+03  0.19248121060E+04  0.25500000920E-02 0.  1.
       -2    1    3    3    0  502  0.25471134483E+02 -0.18924922414E+04  0.89684643535E+03  0.20943994822E+04  0.25500000920E-02 0. -1.
</event>
<event>
 5   0  0.5515000E-08  0.4008196E+04  0.7818609E-02  0.8002895E-01
       -1   -1    0    0    0  501  0.00000000000E+00  0.00000000000E+00  0.21709649717E+04  0.21709649717E+04  0.50400001928E-02 0.  1.
        1   -1    0    0  501    0  0.00000000000E+00  0.00000000000E+00 -0.18500572441E+04  0.18500572441E+04  0.50400001928E-02 0. -1.
    10030    2    1    2    0    0  0.00000000000E+00  0.00000000000E+00  0.32090772765E+03  0.40210222158E+04  0.40081963388E+04 0.  0.
        3    1    3    3  502    0 -0.11705924044E+04 -0.13281918214E+04  0.11026232942E+04  0.20857032941E+04  0.10100000352E+00 0.  1.
       -3    1    3    3    0  502  0.11705924044E+04  0.13281918214E+04 -0.78171556656E+03  0.19353189218E+04  0.10100000352E+00 0. -1.
</event>
<event>
 5   0  0.1773903E-07  0.3987606E+04  0.7818609E-02  0.8007052E-01
       -2   -1    0    0    0  501  0.00000000000E+00  0.00000000000E+00  0.30616750720E+04  0.30616750720E+04  0.25500000920E-02 0.  1.
        2   -1    0    0  501    0  0.00000000000E+00  0.00000000000E+00 -0.12983904004E+04  0.12983904004E+04  0.25500000920E-02 0. -1.
    10030    2    1    2    0    0  0.00000000000E+00  0.00000000000E+00  0.17632846715E+04  0.43600654724E+04  0.39876055586E+04 0.  0.
        3    1    3    3  502    0 -0.33150531370E+03 -0.47847706527E+03 -0.12034123268E+04  0.13368011496E+04  0.10100000352E+00 0. -1.
       -3    1    3    3    0  502  0.33150531370E+03  0.47847706527E+03  0.29666969984E+04  0.30232643228E+04  0.10100000352E+00 0.  1.
</event>
<event>
 5   0  0.5515000E-08  0.3995022E+04  0.7818609E-02  0.8005552E-01
       -1   -1    0    0    0  501  0.00000000000E+00  0.00000000000E+00  0.12827362793E+04  0.12827362793E+04  0.50400001928E-02 0. -1.
        1   -1    0    0  501    0  0.00000000000E+00  0.00000000000E+00 -0.31105768807E+04  0.31105768807E+04  0.50400001928E-02 0.  1.
    10030    2    1    2    0    0  0.00000000000E+00  0.00000000000E+00 -0.18278406013E+04  0.43933131600E+04  0.39950218094E+04 0.  0.
        3    1    3    3  502    0  0.67937344059E+03 -0.18515329125E+04 -0.56559678144E+03  0.20517363688E+04  0.10100000352E+00 0. -1.
       -3    1    3    3    0  502 -0.67937344059E+03  0.18515329125E+04 -0.12622438199E+04  0.23415767912E+04  0.10100000352E+00 0.  1.
</event>
<event>
 5   0  0.1776653E-07  0.3990593E+04  0.7818609E-02  0.8006447E-01
       -2   -1    0    0    0  501  0.00000000000E+00  0.00000000000E+00  0.17270664565E+04  0.17270664565E+04  0.25500000920E-02 0.  1.
        2   -1    0    0  501    0  0.00000000000E+00  0.00000000000E+00 -0.23051847771E+04  0.23051847771E+04  0.25500000920E-02 0. -1.
    10030    2    1    2    0    0  0.00000000000E+00  0.00000000000E+00 -0.57811832061E+03  0.40322512336E+04  0.39905925899E+04 0.  0.
        4    1    3    3  502    0  0.26179586114E+03 -0.18196224638E+04 -0.10728127092E+04  0.21284951740E+04  0.12699999809E+01 0. -1.
       -4    1    3    3    0  502 -0.26179586114E+03  0.18196224638E+04  0.49469438859E+03  0.19037560597E+04  0.12699999809E+01 0.  1.
</event>
<event>
 5   0  0.1773903E-07  0.3972745E+04  0.7818609E-02  0.8010067E-01
       -2   -1    0    0    0  501  0.00000000000E+00  0.00000000000E+00  0.18484125955E+04  0.18484125955E+04  0.25500000920E-02 0. -1.
        2   -1    0    0  501    0  0.00000000000E+00  0.00000000000E+00 -0.21346290881E+04  0.21346290881E+04  0.25500000920E-02 0.  1.
    10030    2    1    2    0    0  0.00000000000E+00  0.00000000000E+00 -0.28621649265E+03  0.39830416836E+04  0.39727447907E+04 0.  0.
        3    1    3    3  502    0  0.12670653157E+04  0.15277056102E+04 -0.63300815001E+02  0.19857859776E+04  0.10100000352E+00 0. -1.
       -3    1    3    3    0  502 -0.12670653157E+04 -0.15277056102E+04 -0.22291567765E+03  0.19972557060E+04  0.10100000352E+00 0.  1.
</event>
<event>
 5   0  0.1785559E-07  0.4084196E+04  0.7818609E-02  0.7987774E-01
       -2   -1    0    0    0  501  0.00000000000E+00  0.00000000000E+00  0.16549687143E+04  0.16549687143E+04  0.25500000920E-02 0. -1.
        2   -1    0    0  501    0  0.00000000000E+00  0.00000000000E+00 -0.25197844475E+04  0.25197844475E+04  0.25500000920E-02 0.  1.
    10030    2    1    2    0    0  0.00000000000E+00  0.00000000000E+00 -0.86481573323E+03  0.41747531619E+04  0.40841960910E+04 0.  0.
        2    1    3    3  502    0  0.10659709988E+04  0.96722156174E+03  0.10482798097E+04  0.17806465902E+04  0.25500000920E-02 0. -1.
       -2    1    3    3    0  502 -0.10659709988E+04 -0.96722156174E+03 -0.19130955429E+04  0.23941065716E+04  0.25500000920E-02 0.  1.
</event>
<event>
 5   0  0.5515000E-08  0.4023648E+04  0.7818609E-02  0.7999793E-01
        3   -1    0    0  501    0  0.00000000000E+00  0.00000000000E+00  0.15740654015E+04  0.15740654047E+04  0.10100000352E+00 0. -1.
       -3   -1    0    0    0  501  0.00000000000E+00  0.00000000000E+00 -0.25713262037E+04  0.25713262057E+04  0.10100000352E+00 0.  1.
    10030    2    1    2    0    0  0.00000000000E+00  0.00000000000E+00 -0.99726080224E+03  0.41453916105E+04  0.40236479091E+04 0.  0.
        2    1    3    3  502    0  0.18882064038E+04  0.40822620415E+03  0.80025249530E+02  0.19334880650E+04  0.25500000920E-02 0. -1.
       -2    1    3    3    0  502 -0.18882064038E+04 -0.40822620415E+03 -0.10772860518E+04  0.22119035454E+04  0.25500000920E-02 0.  1.
</event>
<event>
 5   0  0.5515000E-08  0.3974260E+04  0.7818609E-02  0.8009759E-01
        1   -1    0    0  501    0  0.00000000000E+00  0.00000000000E+00  0.26568961755E+04  0.26568961755E+04  0.50400001928E-02 0. -1.
       -1   -1    0    0    0  501  0.00000000000E+00  0.00000000000E+00 -0.14862028036E+04  0.14862028036E+04  0.50400001928E-02 0.  1.
    10030    2    1    2    0    0  0.00000000000E+00  0.00000000000E+00  0.11706933719E+04  0.41430989790E+04  0.39742604569E+04 0.  0.
        3    1    3    3  502    0  0.11874492727E+04 -0.36685796126E+03 -0.10310285047E+04  0.16148189765E+04  0.10100000352E+00 0.  1.
       -3    1    3    3    0  502 -0.11874492727E+04  0.36685796126E+03  0.22017218766E+04  0.25282800025E+04  0.10100000352E+00 0. -1.
</event>
<event>
 5   0  0.1819906E-07  0.4031898E+04  0.7818609E-02  0.7998142E-01
       -2   -1    0    0    0  501  0.00000000000E+00  0.00000000000E+00  0.14831153187E+04  0.14831153187E+04  0.25500000920E-02 0.  1.
        2   -1    0    0  501    0  0.00000000000E+00  0.00000000000E+00 -0.27402118354E+04  0.27402118354E+04  0.25500000920E-02 0. -1.
    10030    2    1    2    0    0  0.00000000000E+00  0.00000000000E+00 -0.12570965167E+04  0.42233271541E+04  0.40318978904E+04 0.  0.
        1    1    3    3  502    0  0.91492295937E+03 -0.12581828885E+04 -0.19715866840E+04  0.25114263388E+04  0.50400001928E-02 0. -1.
       -1    1    3    3    0  502 -0.91492295937E+03  0.12581828885E+04  0.71449016731E+03  0.17119008154E+04  0.50400001928E-02 0.  1.
</event>
<event>
 5   0  0.1776653E-07  0.4062792E+04  0.7818609E-02  0.7991998E-01
       -2   -1    0    0    0  501  0.00000000000E+00  0.00000000000E+00  0.18159646284E+04  0.18159646284E+04  0.25500000920E-02 0.  1.
        2   -1    0    0  501    0  0.00000000000E+00  0.00000000000E+00 -0.22723845011E+04  0.22723845011E+04  0.25500000920E-02 0. -1.
    10030    2    1    2    0    0  0.00000000000E+00  0.00000000000E+00 -0.45641987271E+03  0.40883491294E+04  0.40627920823E+04 0.  0.
        4    1    3    3  502    0 -0.39658404390E+03 -0.17735134417E+04 -0.11416309996E+04  0.21461481272E+04  0.12699999809E+01 0. -1.
       -4    1    3    3    0  502  0.39658404390E+03  0.17735134417E+04  0.68521112693E+03  0.19422010022E+04  0.12699999809E+01 0.  1.
</event>
<event>
 5   0  0.5515000E-08  0.4083347E+04  0.7818609E-02  0.7987941E-01
        1   -1    0    0  501    0  0.00000000000E+00  0.00000000000E+00  0.13095547952E+04  0.13095547952E+04  0.50400001928E-02 0.  1.
       -1   -1    0    0    0  501  0.00000000000E+00  0.00000000000E+00 -0.31830901916E+04  0.31830901916E+04  0.50400001928E-02 0. -1.
    10030    2    1    2    0    0  0.00000000000E+00  0.00000000000E+00 -0.18735353964E+04  0.44926449869E+04  0.40833471682E+04 0.  0.
        2    1    3    3  502    0  0.17105955519E+04 -0.62533463312E+03  0.78345514759E+02  0.18229971380E+04  0.25500000920E-02 0.  1.
       -2    1    3    3    0  502 -0.17105955519E+04  0.62533463312E+03 -0.19518809112E+04  0.26696478488E+04  0.25500000920E-02 0. -1.
</event>
<event>
 5   0  0.1773903E-07  0.3970897E+04  0.7818609E-02  0.8010443E-01
       -2   -1    0    0    0  501  0.00000000000E+00  0.00000000000E+00  0.21846738217E+04  0.21846738217E+04  0.25500000920E-02 0. -1.
        2   -1    0    0  501    0  0.00000000000E+00  0.00000000000E+00 -0.18043909038E+04  0.18043909038E+04  0.25500000920E-02 0.  1.
    10030    2    1    2    0    0  0.00000000000E+00  0.00000000000E+00  0.38028291793E+03  0.39890647255E+04  0.39708969121E+04 0.  0.
        3    1    3    3  502    0 -0.15326549843E+04 -0.57883085088E+03  0.13168473204E+04  0.21019427514E+04  0.10100000352E+00 0. -1.
       -3    1    3    3    0  502  0.15326549843E+04  0.57883085088E+03 -0.93656440243E+03  0.18871219741E+04  0.10100000352E+00 0.  1.
</event>
<event>
 5   0  0.1776653E-07  0.4040047E+04  0.7818609E-02  0.7996516E-01
       -2   -1    0    0    0  501  0.00000000000E+00  0.00000000000E+00  0.19982601367E+04  0.19982601367E+04  0.25500000920E-02 0.  1.
        2   -1    0    0  501    0  0.00000000000E+00  0.00000000000E+00 -0.20420242587E+04  0.20420242587E+04  0.25500000920E-02 0. -1.
    10030    2    1    2    0    0  0.00000000000E+00  0.00000000000E+00 -0.43764122034E+02  0.40402843953E+04  0.40400473632E+04 0.  0.
        4    1    3    3  502    0  0.53539164644E+03  0.12374507860E+04 -0.15261529470E+04  0.20364363711E+04  0.12699999809E+01 0. -1.
       -4    1    3    3    0  502 -0.53539164644E+03 -0.12374507860E+04  0.14823888250E+04  0.20038480242E+04  0.12699999809E+01 0.  1.
</event>
<event>
 5   0  0.5515000E-08  0.3320314E+04  0.7818609E-02  0.8157746E-01
       -1   -1    0    0    0  501  0.00000000000E+00  0.00000000000E+00  0.15528261736E+04  0.15528261736E+04  0.50400001928E-02 0.  1.
        1   -1    0    0  501    0  0.00000000000E+00  0.00000000000E+00 -0.17749061665E+04  0.17749061665E+04  0.50400001928E-02 0. -1.
    10030    2    1    2    0    0  0.00000000000E+00  0.00000000000E+00 -0.22207999293E+03  0.33277323401E+04  0.33203136906E+04 0.  0.
        5    1    3    3  502    0  0.35615558894E+03 -0.15415474366E+04 -0.61503867338E+03  0.16975010935E+04  0.46999998093E+01 0. -1.
       -5    1    3    3    0  502 -0.35615558894E+03  0.15415474366E+04  0.39295868044E+03  0.16302312466E+04  0.46999998093E+01 0.  1.
</event>
<event>
 5   0  0.5515000E-08  0.4031345E+04  0.7818609E-02  0.7998253E-01
        1   -1    0    0  501    0  0.00000000000E+00  0.00000000000E+00  0.18480223589E+04  0.18480223589E+04  0.50400001928E-02 0.  1.
       -1   -1    0    0    0  501  0.00000000000E+00  0.00000000000E+00 -0.21985312327E+04  0.21985312327E+04  0.50400001928E-02 0. -1.
    10030    2    1    2    0    0  0.00000000000E+00  0.00000000000E+00 -0.35050887387E+03  0.40465535916E+04  0.40313446267E+04 0.  0.
        2    1    3    3  502    0  0.52725743667E+03  0.18210303652E+04  0.51200583763E+03  0.19637469219E+04  0.25500000920E-02 0.  1.
       -2    1    3    3    0  502 -0.52725743667E+03 -0.18210303652E+04 -0.86251471151E+03  0.20828066697E+04  0.25500000920E-02 0. -1.
</event>
<event>
 5   0  0.1776653E-07  0.3939328E+04  0.7818609E-02  0.8016899E-01
        2   -1    0    0  501    0  0.00000000000E+00  0.00000000000E+00  0.16541356376E+04  0.16541356377E+04  0.25500000920E-02 0.  1.
       -2   -1    0    0    0  501  0.00000000000E+00  0.00000000000E+00 -0.23453800101E+04  0.23453800101E+04  0.25500000920E-02 0. -1.
    10030    2    1    2    0    0  0.00000000000E+00  0.00000000000E+00 -0.69124437243E+03  0.39995156477E+04  0.39393281958E+04 0.  0.
        4    1    3    3  502    0 -0.59677469377E+03  0.18590602095E+04 -0.82177149740E+02  0.19542260858E+04  0.12699999809E+01 0. -1.
       -4    1    3    3    0  502  0.59677469377E+03 -0.18590602095E+04 -0.60906722269E+03  0.20452895619E+04  0.12699999809E+01 0.  1.
</event>
<event>
 5   0  0.1773903E-07  0.3885465E+04  0.7818609E-02  0.8028059E-01
       -2   -1    0    0    0  501  0.00000000000E+00  0.00000000000E+00  0.22063015926E+04  0.22063015926E+04  0.25500000920E-02 0.  1.
        2   -1    0    0  501    0  0.00000000000E+00  0.00000000000E+00 -0.17106497015E+04  0.17106497015E+04  0.25500000920E-02 0. -1.
    10030    2    1    2    0    0  0.00000000000E+00  0.00000000000E+00  0.49565189111E+03  0.39169512941E+04  0.38854647911E+04 0.  0.
        3    1    3    3  502    0  0.16235318959E+04  0.51802990391E+03  0.11881215554E+04  0.20774608634E+04  0.10100000352E+00 0.  1.
       -3    1    3    3    0  502 -0.16235318959E+04 -0.51802990391E+03 -0.69246966433E+03  0.18394904307E+04  0.10100000352E+00 0. -1.
</event>
<event>
 5   0  0.1785559E-07  0.3946544E+04  0.7818609E-02  0.8015418E-01
       -2   -1    0    0    0  501  0.00000000000E+00  0.00000000000E+00  0.14446121738E+04  0.14446121738E+04  0.25500000920E-02 0. -1.
        2   -1    0    0  501    0  0.00000000000E+00  0.00000000000E+00 -0.26953962274E+04  0.26953962274E+04  0.25500000920E-02 0.  1.
    10030    2    1    2    0    0  0.00000000000E+00  0.00000000000E+00 -0.12507840536E+04  0.41400084013E+04  0.39465439075E+04 0.  0.
        2    1    3    3  502    0 -0.11190207171E+04 -0.34868641593E+03  0.10398817432E+04  0.15668897925E+04  0.25500000920E-02 0. -1.
       -2    1    3    3    0  502  0.11190207171E+04  0.34868641593E+03 -0.22906657968E+04  0.25731186088E+04  0.25500000920E-02 0.  1.
</event>
<event>
 5   0  0.1776653E-07  0.3996501E+04  0.7818609E-02  0.8005253E-01
        2   -1    0    0  501    0  0.00000000000E+00  0.00000000000E+00  0.17246412635E+04  0.17246412635E+04  0.25500000920E-02 0. -1.
       -2   -1    0    0    0  501  0.00000000000E+00  0.00000000000E+00 -0.23152665813E+04  0.23152665813E+04  0.25500000920E-02 0.  1.
    10030    2    1    2    0    0  0.00000000000E+00  0.00000000000E+00 -0.59062531777E+03  0.40399078447E+04  0.39965006103E+04 0.  0.
        4    1    3    3  502    0 -0.18186338704E+04 -0.82788546493E+03 -0.28178177606E+03  0.20179757381E+04  0.12699999809E+01 0.  1.
       -4    1    3    3    0  502  0.18186338704E+04  0.82788546493E+03 -0.30884354172E+03  0.20219321066E+04  0.12699999809E+01 0. -1.
</event>
<event>
 5   0  0.5515000E-08  0.3927777E+04  0.7818609E-02  0.8019277E-01
        1   -1    0    0  501    0  0.00000000000E+00  0.00000000000E+00  0.17178666009E+04  0.17178666009E+04  0.50400001928E-02 0. -1.
       -1   -1    0    0    0  501  0.00000000000E+00  0.00000000000E+00 -0.22451436698E+04  0.22451436698E+04  0.50400001928E-02 0.  1.
    10030    2    1    2    0    0  0.00000000000E+00  0.00000000000E+00 -0.52727706892E+03  0.39630102706E+04  0.39277766354E+04 0.  0.
        1    1    3    3  502    0 -0.91219684901E+03 -0.37042517509E+03  0.14508807590E+04  0.17533889696E+04  0.50400001928E-02 0. -1.
       -1    1    3    3    0  502  0.91219684901E+03  0.37042517509E+03 -0.19781578280E+04  0.22096213011E+04  0.50400001928E-02 0.  1.
</event>
<event>
 5   0  0.1785559E-07  0.4009292E+04  0.7818609E-02  0.8002675E-01
        2   -1    0    0  501    0  0.00000000000E+00  0.00000000000E+00  0.23357278420E+04  0.23357278420E+04  0.25500000920E-02 0. -1.
       -2   -1    0    0    0  501  0.00000000000E+00  0.00000000000E+00 -0.17204937444E+04  0.17204937444E+04  0.25500000920E-02 0.  1.
    10030    2    1    2    0    0  0.00000000000E+00  0.00000000000E+00  0.61523409756E+03  0.40562215864E+04  0.40092917782E+04 0.  0.
        2    1    3    3  502    0 -0.69018609273E+03  0.50352594429E+03  0.21423243651E+04  0.23063930507E+04  0.25500000920E-02 0. -1.
       -2    1    3    3    0  502  0.69018609273E+03 -0.50352594429E+03 -0.15270902675E+04  0.17498285357E+04  0.25500000920E-02 0.  1.
</event>
<event>
 5   0  0.5515000E-08  0.3944590E+04  0.7818609E-02  0.8015819E-01
        1   -1    0    0  501    0  0.00000000000E+00  0.00000000000E+00  0.14157911087E+04  0.14157911087E+04  0.50400001928E-02 0.  1.
       -1   -1    0    0    0  501  0.00000000000E+00  0.00000000000E+00 -0.27475440242E+04  0.27475440242E+04  0.50400001928E-02 0. -1.
    10030    2    1    2    0    0  0.00000000000E+00  0.00000000000E+00 -0.13317529155E+04  0.41633351329E+04  0.39445904224E+04 0.  0.
        5    1    3    3  502    0 -0.18168283925E+04 -0.12396264495E+03  0.13355212478E+03  0.18259491793E+04  0.46999998093E+01 0.  1.
       -5    1    3    3    0  502  0.18168283925E+04  0.12396264495E+03 -0.14653050403E+04  0.23373859536E+04  0.46999998093E+01 0. -1.
</event>
<event>
 5   0  0.5515000E-08  0.3986101E+04  0.7818609E-02  0.8007356E-01
       -1   -1    0    0    0  501  0.00000000000E+00  0.00000000000E+00  0.24196457088E+04  0.24196457088E+04  0.50400001928E-02 0. -1.
        1   -1    0    0  501    0  0.00000000000E+00  0.00000000000E+00 -0.16416660274E+04  0.16416660274E+04  0.50400001928E-02 0.  1.
    10030    2    1    2    0    0  0.00000000000E+00  0.00000000000E+00  0.77797968139E+03  0.40613117362E+04  0.39861009312E+04 0.  0.
        3    1    3    3  502    0 -0.20532625029E+03 -0.41976438593E+03  0.23630426034E+04  0.24088028903E+04  0.10100000352E+00 0. -1.
       -3    1    3    3    0  502  0.20532625029E+03  0.41976438593E+03 -0.15850629220E+04  0.16525088459E+04  0.10100000352E+00 0.  1.
</event>
<event>
 5   0  0.1821433E-07  0.4001245E+04  0.7818609E-02  0.8004295E-01
        2   -1    0    0  501    0  0.00000000000E+00  0.00000000000E+00  0.25025352429E+04  0.25025352429E+04  0.25500000920E-02 0. -1.
       -2   -1    0    0    0  501  0.00000000000E+00  0.00000000000E+00 -0.15993744329E+04  0.15993744329E+04  0.25500000920E-02 0.  1.
    10030    2    1    2    0    0  0.00000000000E+00  0.00000000000E+00  0.90316080999E+03  0.41019096758E+04  0.40012452486E+04 0.  0.
        5    1    3    3  502    0  0.98028409116E+03  0.12301775428E+04  0.17188747072E+04  0.23299884195E+04  0.46999998093E+01 0. -1.
       -5    1    3    3    0  502 -0.98028409116E+03 -0.12301775428E+04 -0.81571389719E+03  0.17719212562E+04  0.46999998093E+01 0.  1.
</event>
<event>
 5   0  0.5515000E-08  0.3882884E+04  0.7818609E-02  0.8028598E-01
       -1   -1    0    0    0  501  0.00000000000E+00  0.00000000000E+00  0.29912363232E+04  0.29912363232E+04  0.50400001928E-02 0.  1.
        1   -1    0    0  501    0  0.00000000000E+00  0.00000000000E+00 -0.12600799021E+04  0.12600799021E+04  0.50400001928E-02 0. -1.
    10030    2    1    2    0    0  0.00000000000E+00  0.00000000000E+00  0.17311564211E+04  0.42513162253E+04  0.38828838630E+04 0.  0.
        5    1    3    3  502    0 -0.18148756369E+04  0.79124770059E+02  0.16155076719E+04  0.24310329974E+04  0.46999998093E+01 0. -1.
       -5    1    3    3    0  502  0.18148756369E+04 -0.79124770059E+02  0.11564874920E+03  0.18202832279E+04  0.46999998093E+01 0.  1.
</event>
<event>
 5   0  0.1773903E-07  0.4398917E+04  0.7818609E-02  0.7928576E-01
        2   -1    0    0  501    0  0.00000000000E+00  0.00000000000E+00  0.18906066808E+04  0.18906066808E+04  0.25500000920E-02 0.  1.
       -2   -1    0    0    0  501  0.00000000000E+00  0.00000000000E+00 -0.25587643117E+04  0.25587643117E+04  0.25500000920E-02 0. -1.
    10030    2    1    2    0    0  0.00000000000E+00  0.00000000000E+00 -0.66815763086E+03  0.44493709925E+04  0.43989166404E+04 0.  0.
        3    1    3    3  502    0 -0.45718245401E+03 -0.14070745526E+03 -0.25055143282E+04  0.25507678145E+04  0.10100000352E+00 0. -1.
       -3    1    3    3    0  502  0.45718245401E+03  0.14070745526E+03  0.18373566973E+04  0.18986031780E+04  0.10100000352E+00 0.  1.
</event>
<event>
 5   0  0.5515000E-08  0.3986330E+04  0.7818609E-02  0.8007310E-01
        1   -1    0    0  501    0  0.00000000000E+00  0.00000000000E+00  0.28484289945E+04  0.28484289945E+04  0.50400001928E-02 0.  1.
       -1   -1    0    0    0  501  0.00000000000E+00  0.00000000000E+00 -0.13947011663E+04  0.13947011663E+04  0.50400001928E-02 0. -1.
    10030    2    1    2    0    0  0.00000000000E+00  0.00000000000E+00  0.14537278282E+04  0.42431301608E+04  0.39863302627E+04 0.  0.
        1    1    3    3  502    0  0.13213122825E+04 -0.12270049301E+04 -0.17714152191E+03  0.18118461207E+04  0.50400001928E-02 0. -1.
       -1    1    3    3    0  502 -0.13213122825E+04  0.12270049301E+04  0.16308693501E+04  0.24312840401E+04  0.50400001928E-02 0.  1.
</event>
<event>
 5   0  0.5515000E-08  0.3993049E+04  0.7818609E-02  0.8005950E-01
        1   -1    0    0  501    0  0.00000000000E+00  0.00000000000E+00  0.22163101154E+04  0.22163101154E+04  0.50400001928E-02 0.  1.
       -1   -1    0    0    0  501  0.00000000000E+00  0.00000000000E+00 -0.17985343704E+04  0.17985343704E+04  0.50400001928E-02 0. -1.
    10030    2    1    2    0    0  0.00000000000E+00  0.00000000000E+00  0.41777574500E+03  0.40148444858E+04  0.39930489193E+04 0.  0.
        5    1    3    3  502    0 -0.91847514924E+03  0.14207068029E+04  0.12749029950E+04  0.21183493943E+04  0.46999998093E+01 0.  1.
       -5    1    3    3    0  502  0.91847514924E+03 -0.14207068029E+04 -0.85712724997E+03  0.18964950916E+04  0.46999998093E+01 0. -1.
</event>
<event>
 5   0  0.1773903E-07  0.4073976E+04  0.7818609E-02  0.7989787E-01
        2   -1    0    0  501    0  0.00000000000E+00  0.00000000000E+00  0.16593586602E+04  0.16593586602E+04  0.25500000920E-02 0.  1.
       -2   -1    0    0    0  501  0.00000000000E+00  0.00000000000E+00 -0.25005561180E+04  0.25005561180E+04  0.25500000920E-02 0. -1.
    10030    2    1    2    0    0  0.00000000000E+00  0.00000000000E+00 -0.84119745779E+03  0.41599147783E+04  0.40739756749E+04 0.  0.
        3    1    3    3  502    0 -0.19695149573E+04 -0.24478130334E+03 -0.88898229927E+03  0.21746716056E+04  0.10100000352E+00 0.  1.
       -3    1    3    3    0  502  0.19695149573E+04  0.24478130334E+03  0.47784841488E+02  0.19852431727E+04  0.10100000352E+00 0. -1.
</event>
<event>
 5   0  0.1821433E-07  0.3975317E+04  0.7818609E-02  0.8009545E-01
        2   -1    0    0  501    0  0.00000000000E+00  0.00000000000E+00  0.16718923962E+04  0.16718923962E+04  0.25500000920E-02 0.  1.
       -2   -1    0    0    0  501  0.00000000000E+00  0.00000000000E+00 -0.23630620533E+04  0.23630620533E+04  0.25500000920E-02 0. -1.
    10030    2    1    2    0    0  0.00000000000E+00  0.00000000000E+00 -0.69116965712E+03  0.40349544494E+04  0.39753165804E+04 0.  0.
        5    1    3    3  502    0 -0.86350106651E+03  0.13751117285E+04  0.81799760757E+03  0.18181607557E+04  0.46999998093E+01 0.  1.
       -5    1    3    3    0  502  0.86350106651E+03 -0.13751117285E+04 -0.15091672647E+04  0.22167936937E+04  0.46999998093E+01 0. -1.
</event>
<event>
 5   0  0.1821433E-07  0.4002395E+04  0.7818609E-02  0.8004064E-01
       -2   -1    0    0    0  501  0.00000000000E+00  0.00000000000E+00  0.25777135532E+04  0.25777135532E+04  0.25500000920E-02 0.  1.
        2   -1    0    0  501    0  0.00000000000E+00  0.00000000000E+00 -0.15536217407E+04  0.15536217407E+04  0.25500000920E-02 0. -1.
    10030    2    1    2    0    0  0.00000000000E+00  0.00000000000E+00  0.10240918125E+04  0.41313352939E+04  0.40023951917E+04 0.  0.
        5    1    3    3  502    0 -0.14299862168E+04  0.13800375463E+04  0.26907907745E+03  0.20054400638E+04  0.46999998093E+01 0. -1.
       -5    1    3    3    0  502  0.14299862168E+04 -0.13800375463E+04  0.75501273503E+03  0.21258952301E+04  0.46999998093E+01 0.  1.
</event>
<event>
 5   0  0.5515000E-08  0.4024864E+04  0.7818609E-02  0.7999549E-01
       -1   -1    0    0    0  501  0.00000000000E+00  0.00000000000E+00  0.21301683343E+04  0.21301683343E+04  0.50400001928E-02 0.  1.
        1   -1    0    0  501    0  0.00000000000E+00  0.00000000000E+00 -0.19012027496E+04  0.19012027496E+04  0.50400001928E-02 0. -1.
    10030    2    1    2    0    0  0.00000000000E+00  0.00000000000E+00  0.22896558468E+03  0.40313710838E+04  0.40248636718E+04 0.  0.
        4    1    3    3  502    0  0.14376885897E+04 -0.10102838261E+03 -0.12923253819E+04  0.19357845233E+04  0.12699999809E+01 0. -1.
       -4    1    3    3    0  502 -0.14376885897E+04  0.10102838261E+03  0.15212909666E+04  0.20955865606E+04  0.12699999809E+01 0.  1.
</event>
<event>
 5   0  0.5515000E-08  0.4001954E+04  0.7818609E-02  0.8004153E-01
       -1   -1    0    0    0  501  0.00000000000E+00  0.00000000000E+00  0.14988499641E+04  0.14988499641E+04  0.50400001928E-02 0. -1.
        1   -1    0    0  501    0  0.00000000000E+00  0.00000000000E+00 -0.26713200819E+04  0.26713200819E+04  0.50400001928E-02 0.  1.
    10030    2    1    2    0    0  0.00000000000E+00  0.00000000000E+00 -0.11724701178E+04  0.41701700460E+04  0.40019535274E+04 0.  0.
        4    1    3    3  502    0  0.34506679413E+03 -0.49479017480E+03 -0.25743133735E+04  0.26440460222E+04  0.12699999809E+01 0.  1.
       -4    1    3    3    0  502 -0.34506679413E+03  0.49479017480E+03  0.14018432557E+04  0.15261240238E+04  0.12699999809E+01 0. -1.
</event>
<event>
 5   0  0.5515000E-08  0.4023442E+04  0.7818609E-02  0.7999834E-01
        1   -1    0    0  501    0  0.00000000000E+00  0.00000000000E+00  0.22858703665E+04  0.22858703665E+04  0.50400001928E-02 0. -1.
       -1   -1    0    0    0  501  0.00000000000E+00  0.00000000000E+00 -0.17704506091E+04  0.17704506091E+04  0.50400001928E-02 0.  1.
    10030    2    1    2    0    0  0.00000000000E+00  0.00000000000E+00  0.51541975741E+03  0.40563209756E+04  0.40234416028E+04 0.  0.
        3    1    3    3  502    0  0.93105538910E+03 -0.75858564350E+03 -0.13693885321E+04  0.18214118914E+04  0.10100000352E+00 0.  1.
       -3    1    3    3    0  502 -0.93105538910E+03  0.75858564350E+03  0.18848082896E+04  0.22349090842E+04  0.10100000352E+00 0. -1.
</event>
<event>
 5   0  0.5515000E-08  0.3972940E+04  0.7818609E-02  0.8010028E-01
        1   -1    0    0  501    0  0.00000000000E+00  0.00000000000E+00  0.21648651961E+04  0.21648651962E+04  0.50400001928E-02 0. -1.
       -1   -1    0    0    0  501  0.00000000000E+00  0.00000000000E+00 -0.18227756980E+04  0.18227756980E+04  0.50400001928E-02 0.  1.
    10030    2    1    2    0    0  0.00000000000E+00  0.00000000000E+00  0.34208949811E+03  0.39876408942E+04  0.39729403062E+04 0.  0.
        1    1    3    3  502    0 -0.11381989173E+04  0.45974636332E+03 -0.13965280635E+04  0.18593423908E+04  0.50400001928E-02 0.  1.
       -1    1    3    3    0  502  0.11381989173E+04 -0.45974636332E+03  0.17386175616E+04  0.21282985034E+04  0.50400001928E-02 0. -1.
</event>
<event>
 5   0  0.1773903E-07  0.3945412E+04  0.7818609E-02  0.8015650E-01
        2   -1    0    0  501    0  0.00000000000E+00  0.00000000000E+00  0.13320064283E+04  0.13320064283E+04  0.25500000920E-02 0.  1.
       -2   -1    0    0    0  501  0.00000000000E+00  0.00000000000E+00 -0.29215837450E+04  0.29215837450E+04  0.25500000920E-02 0. -1.
    10030    2    1    2    0    0  0.00000000000E+00  0.00000000000E+00 -0.15895773167E+04  0.42535901734E+04  0.39454116790E+04 0.  0.
        3    1    3    3  502    0  0.74311494982E+03  0.17351306984E+04 -0.14128667040E+04  0.23577724026E+04  0.10100000352E+00 0. -1.
       -3    1    3    3    0  502 -0.74311494982E+03 -0.17351306984E+04 -0.17671061273E+03  0.18958177707E+04  0.10100000352E+00 0.  1.
</event>
<event>
 5   0  0.1821433E-07  0.3989656E+04  0.7818609E-02  0.8006637E-01
       -2   -1    0    0    0  501  0.00000000000E+00  0.00000000000E+00  0.14089255053E+04  0.14089255053E+04  0.25500000920E-02 0.  1.
        2   -1    0    0  501    0  0.00000000000E+00  0.00000000000E+00 -0.28243784274E+04  0.28243784274E+04  0.25500000920E-02 0. -1.
    10030    2    1    2    0    0  0.00000000000E+00  0.00000000000E+00 -0.14154529221E+04  0.42333039326E+04  0.39896560267E+04 0.  0.
        5    1    3    3  502    0  0.24132388290E+03 -0.10326923712E+04 -0.25004717985E+04  0.27160765923E+04  0.46999998093E+01 0. -1.
       -5    1    3    3    0  502 -0.24132388290E+03  0.10326923712E+04  0.10850188764E+04  0.15172273403E+04  0.46999998093E+01 0.  1.
</event>
<event>
 5   0  0.1821433E-07  0.3971463E+04  0.7818609E-02  0.8010328E-01
       -2   -1    0    0    0  501  0.00000000000E+00  0.00000000000E+00  0.28058252799E+04  0.28058252799E+04  0.25500000920E-02 0.  1.
        2   -1    0    0  501    0  0.00000000000E+00  0.00000000000E+00 -0.14053364908E+04  0.14053364908E+04  0.25500000920E-02 0. -1.
    10030    2    1    2    0    0  0.00000000000E+00  0.00000000000E+00  0.14004887891E+04  0.42111617707E+04  0.39714625279E+04 0.  0.
        5    1    3    3  502    0 -0.19331420158E+04  0.30468929228E+03  0.34343370563E+03  0.19869178187E+04  0.46999998093E+01 0.  1.
       -5    1    3    3    0  502  0.19331420158E+04 -0.30468929228E+03  0.10570550835E+04  0.22242439519E+04  0.46999998093E+01 0. -1.
</event>
<event>
 5   0  0.5515000E-08  0.3408081E+04  0.7818609E-02  0.8135926E-01
        1   -1    0    0  501    0  0.00000000000E+00  0.00000000000E+00  0.18030080805E+04  0.18030080805E+04  0.50400001928E-02 0. -1.
       -1   -1    0    0    0  501  0.00000000000E+00  0.00000000000E+00 -0.16105053482E+04  0.16105053482E+04  0.50400001928E-02 0.  1.
    10030    2    1    2    0    0  0.00000000000E+00  0.00000000000E+00  0.19250273237E+03  0.34135134287E+04  0.34080810768E+04 0.  0.
        1    1    3    3  502    0 -0.10779104752E+04  0.12983875110E+04 -0.14088123449E+03  0.16933837851E+04  0.50400001928E-02 0.  1.
       -1    1    3    3    0  502  0.10779104752E+04 -0.12983875110E+04  0.33338396686E+03  0.17201296436E+04  0.50400001928E-02 0. -1.
</event>
<event>
 5   0  0.1819906E-07  0.3413118E+04  0.7818609E-02  0.8134694E-01
       -2   -1    0    0    0  501  0.00000000000E+00  0.00000000000E+00  0.13819359571E+04  0.13819359571E+04  0.25500000920E-02 0.  1.
        2   -1    0    0  501    0  0.00000000000E+00  0.00000000000E+00 -0.21074378111E+04  0.21074378111E+04  0.25500000920E-02 0. -1.
    10030    2    1    2    0    0  0.00000000000E+00  0.00000000000E+00 -0.72550185403E+03  0.34893737682E+04  0.34131182742E+04 0.  0.
        1    1    3    3  502    0 -0.13098762266E+04  0.10217844439E+04  0.36518946353E+02  0.16616716921E+04  0.50400001928E-02 0. -1.
       -1    1    3    3    0  502  0.13098762266E+04 -0.10217844439E+04 -0.76202080038E+03  0.18277020761E+04  0.50400001928E-02 0.  1.
</event>
<event>
 5   0  0.1819906E-07  0.4009151E+04  0.7818609E-02  0.8002703E-01
       -2   -1    0    0    0  501  0.00000000000E+00  0.00000000000E+00  0.16913773524E+04  0.16913773524E+04  0.25500000920E-02 0.  1.
        2   -1    0    0  501    0  0.00000000000E+00  0.00000000000E+00 -0.23757700970E+04  0.23757700970E+04  0.25500000920E-02 0. -1.
    10030    2    1    2    0    0  0.00000000000E+00  0.00000000000E+00 -0.68439274459E+03  0.40671474495E+04  0.40091513999E+04 0.  0.
        1    1    3    3  502    0  0.57201574749E+03 -0.18819726845E+04  0.49787450589E+02  0.19676132727E+04  0.50400001928E-02 0.  1.
       -1    1    3    3    0  502 -0.57201574749E+03  0.18819726845E+04 -0.73418019518E+03  0.20995341768E+04  0.50400001928E-02 0. -1.
</event>
<event>
 5   0  0.5515000E-08  0.3911067E+04  0.7818609E-02  0.8022731E-01
        1   -1    0    0  501    0  0.00000000000E+00  0.00000000000E+00  0.17300994376E+04  0.17300994376E+04  0.50400001928E-02 0. -1.
       -1   -1    0    0    0  501  0.00000000000E+00  0.00000000000E+00 -0.22103424351E+04  0.22103424351E+04  0.50400001928E-02 0.  1.
    10030    2    1    2    0    0  0.00000000000E+00  0.00000000000E+00 -0.48024299757E+03  0.39404418727E+04  0.39110674777E+04 0.  0.
        3    1    3    3  502    0  0.70380324355E+03  0.13745859343E+03 -0.20730926546E+04  0.21936150609E+04  0.10100000352E+00 0.  1.
       -3    1    3    3    0  502 -0.70380324355E+03 -0.13745859343E+03  0.15928496570E+04  0.17468268118E+04  0.10100000352E+00 0. -1.
</event>
<event>
 5   0  0.1776653E-07  0.3962867E+04  0.7818609E-02  0.8012080E-01
        2   -1    0    0  501    0  0.00000000000E+00  0.00000000000E+00  0.16974431738E+04  0.16974431738E+04  0.25500000920E-02 0.  1.
       -2   -1    0    0    0  501  0.00000000000E+00  0.00000000000E+00 -0.23129362046E+04  0.23129362046E+04  0.25500000920E-02 0. -1.
    10030    2    1    2    0    0  0.00000000000E+00  0.00000000000E+00 -0.61549303088E+03  0.40103793784E+04  0.39628665241E+04 0.  0.
        4    1    3    3  502    0  0.11376167627E+04  0.70652586796E+03  0.11701481794E+04  0.17783697804E+04  0.12699999809E+01 0.  1.
       -4    1    3    3    0  502 -0.11376167627E+04 -0.70652586796E+03 -0.17856412103E+04  0.22320095981E+04  0.12699999809E+01 0. -1.
</event>
<event>
 5   0  0.5515000E-08  0.3925604E+04  0.7818609E-02  0.8019725E-01
       -1   -1    0    0    0  501  0.00000000000E+00  0.00000000000E+00  0.27753197483E+04  0.27753197483E+04  0.50400001928E-02 0.  1.
        1   -1    0    0  501    0  0.00000000000E+00  0.00000000000E+00 -0.13881614954E+04  0.13881614954E+04  0.50400001928E-02 0. -1.
    10030    2    1    2    0    0  0.00000000000E+00  0.00000000000E+00  0.13871582529E+04  0.41634812437E+04  0.39256041634E+04 0.  0.
        2    1    3    3  502    0 -0.71416309536E+02  0.10184974458E+04 -0.10843531713E+04  0.14893821325E+04  0.25500000920E-02 0. -1.
       -2    1    3    3    0  502  0.71416309536E+02 -0.10184974458E+04  0.24715114242E+04  0.26740991112E+04  0.25500000920E-02 0.  1.
</event>
<event>
 5   0  0.1785559E-07  0.3958919E+04  0.7818609E-02  0.8012886E-01
       -2   -1    0    0    0  501  0.00000000000E+00  0.00000000000E+00  0.17315390522E+04  0.17315390522E+04  0.25500000920E-02 0. -1.
        2   -1    0    0  501    0  0.00000000000E+00  0.00000000000E+00 -0.22628764589E+04  0.22628764589E+04  0.25500000920E-02 0.  1.
    10030    2    1    2    0    0  0.00000000000E+00  0.00000000000E+00 -0.53133740671E+03  0.39944155111E+04  0.39589185184E+04 0.  0.
        2    1    3    3  502    0 -0.77493799329E+03  0.16543907782E+04 -0.10345521721E+04  0.20994846837E+04  0.25500000920E-02 0.  1.
       -2    1    3    3    0  502  0.77493799329E+03 -0.16543907782E+04  0.50321476535E+03  0.18949308274E+04  0.25500000920E-02 0. -1.
</event>
<event>
 5   0  0.5515000E-08  0.3780980E+04  0.7818609E-02  0.8050249E-01
       -1   -1    0    0    0  501  0.00000000000E+00  0.00000000000E+00  0.17408331501E+04  0.17408331501E+04  0.50400001928E-02 0. -1.
        1   -1    0    0  501    0  0.00000000000E+00  0.00000000000E+00 -0.20530126870E+04  0.20530126870E+04  0.50400001928E-02 0.  1.
    10030    2    1    2    0    0  0.00000000000E+00  0.00000000000E+00 -0.31217953686E+03  0.37938458371E+04  0.37809800545E+04 0.  0.
        3    1    3    3  502    0 -0.18507844519E+03 -0.12240565674E+04  0.12775421071E+04  0.17789554117E+04  0.10100000352E+00 0. -1.
       -3    1    3    3    0  502  0.18507844519E+03  0.12240565674E+04 -0.15897216440E+04  0.20148904255E+04  0.10100000352E+00 0.  1.
</event>
<event>
 5   0  0.1785559E-07  0.4021518E+04  0.7818609E-02  0.8000220E-01
       -2   -1    0    0    0  501  0.00000000000E+00  0.00000000000E+00  0.16338976243E+04  0.16338976243E+04  0.25500000920E-02 0.  1.
        2   -1    0    0  501    0  0.00000000000E+00  0.00000000000E+00 -0.24745437254E+04  0.24745437254E+04  0.25500000920E-02 0. -1.
    10030    2    1    2    0    0  0.00000000000E+00  0.00000000000E+00 -0.84064610109E+03  0.41084413497E+04  0.40215176808E+04 0.  0.
        2    1    3    3  502    0 -0.89216310111E+03 -0.16899741127E+04 -0.10592885896E+04  0.21849622003E+04  0.25500000920E-02 0. -1.
       -2    1    3    3    0  502  0.89216310111E+03  0.16899741127E+04  0.21864248855E+03  0.19234791494E+04  0.25500000920E-02 0.  1.
</event>
<event>
 5   0  0.1821433E-07  0.4019698E+04  0.7818609E-02  0.8000585E-01
        2   -1    0    0  501    0  0.00000000000E+00  0.00000000000E+00  0.19648654624E+04  0.19648654624E+04  0.25500000920E-02 0. -1.
       -2   -1    0    0    0  501  0.00000000000E+00  0.00000000000E+00 -0.20558622345E+04  0.20558622345E+04  0.25500000920E-02 0.  1.
    10030    2    1    2    0    0  0.00000000000E+00  0.00000000000E+00 -0.90996772082E+02  0.40207276969E+04  0.40196978493E+04 0.  0.
        5    1    3    3  502    0  0.17959807424E+03  0.12510893395E+04 -0.16085857297E+04  0.20457395101E+04  0.46999998093E+01 0.  1.
       -5    1    3    3    0  502 -0.17959807424E+03 -0.12510893395E+04  0.15175889576E+04  0.19749881868E+04  0.46999998093E+01 0. -1.
</event>
<event>
 5   0  0.1821433E-07  0.3348159E+04  0.7818609E-02  0.8150748E-01
        2   -1    0    0  501    0  0.00000000000E+00  0.00000000000E+00  0.22375802242E+04  0.22375802242E+04  0.25500000920E-02 0. -1.
       -2   -1    0    0    0  501  0.00000000000E+00  0.00000000000E+00 -0.12524881952E+04  0.12524881952E+04  0.25500000920E-02 0.  1.
    10030    2    1    2    0    0  0.00000000000E+00  0.00000000000E+00  0.98509202904E+03  0.34900684195E+04  0.33481593849E+04 0.  0.
        5    1    3    3  502    0 -0.12302762387E+04 -0.11122608065E+04  0.72982755639E+03  0.18120082995E+04  0.46999998093E+01 0.  1.
       -5    1    3    3    0  502  0.12302762387E+04  0.11122608065E+04  0.25526447265E+03  0.16780601200E+04  0.46999998093E+01 0. -1.
</event>
<event>
 5   0  0.5515000E-08  0.3982708E+04  0.7818609E-02  0.8008044E-01
       -1   -1    0    0    0  501  0.00000000000E+00  0.00000000000E+00  0.15742796189E+04  0.15742796189E+04  0.50400001928E-02 0. -1.
        1   -1    0    0  501    0  0.00000000000E+00  0.00000000000E+00 -0.25189236104E+04  0.25189236104E+04  0.50400001928E-02 0.  1.
    10030    2    1    2    0    0  0.00000000000E+00  0.00000000000E+00 -0.94464399157E+03  0.40932032293E+04  0.39827076726E+04 0.  0.
        2    1    3    3  502    0  0.19649662275E+04  0.14261050941E+03 -0.77029694078E+03  0.21153693317E+04  0.25500000920E-02 0.  1.
       -2    1    3    3    0  502 -0.19649662275E+04 -0.14261050941E+03 -0.17434705079E+03  0.19778338976E+04  0.25500000920E-02 0. -1.
</event>
<event>
 5   0  0.5515000E-08  0.4111798E+04  0.7818609E-02  0.7982366E-01
       -1   -1    0    0    0  501  0.00000000000E+00  0.00000000000E+00  0.25210843639E+04  0.25210843639E+04  0.50400001928E-02 0. -1.
        1   -1    0    0  501    0  0.00000000000E+00  0.00000000000E+00 -0.16765482899E+04  0.16765482900E+04  0.50400001928E-02 0.  1.
    10030    2    1    2    0    0  0.00000000000E+00  0.00000000000E+00  0.84453607396E+03  0.41976326539E+04  0.41117975043E+04 0.  0.
        3    1    3    3  502    0  0.99483643621E+03 -0.17398062081E+04  0.89019712678E+03  0.21929605813E+04  0.10100000352E+00 0. -1.
       -3    1    3    3    0  502 -0.99483643621E+03  0.17398062081E+04 -0.45661052828E+02  0.20046720725E+04  0.10100000352E+00 0.  1.
</event>
<event>
 5   0  0.5515000E-08  0.3882690E+04  0.7818609E-02  0.8028639E-01
        1   -1    0    0  501    0  0.00000000000E+00  0.00000000000E+00  0.13311133327E+04  0.13311133328E+04  0.50400001928E-02 0.  1.
       -1   -1    0    0    0  501  0.00000000000E+00  0.00000000000E+00 -0.28313298736E+04  0.28313298736E+04  0.50400001928E-02 0. -1.
    10030    2    1    2    0    0  0.00000000000E+00  0.00000000000E+00 -0.15002165409E+04  0.41624432064E+04  0.38826902757E+04 0.  0.
        3    1    3    3  502    0 -0.19269725322E+04 -0.46026882839E+02 -0.99802652835E+03  0.21705756323E+04  0.10100000352E+00 0.  1.
       -3    1    3    3    0  502  0.19269725322E+04  0.46026882839E+02 -0.50219001254E+03  0.19918675741E+04  0.10100000352E+00 0. -1.
</event>
<event>
 5   0  0.5515000E-08  0.3403909E+04  0.7818609E-02  0.8136948E-01
        1   -1    0    0  501    0  0.00000000000E+00  0.00000000000E+00  0.18727679479E+04  0.18727679479E+04  0.50400001928E-02 0. -1.
       -1   -1    0    0    0  501  0.00000000000E+00  0.00000000000E+00 -0.15467207776E+04  0.15467207776E+04  0.50400001928E-02 0.  1.
    10030    2    1    2    0    0  0.00000000000E+00  0.00000000000E+00  0.32604717030E+03  0.34194887256E+04  0.34039089863E+04 0.  0.
        5    1    3    3  502    0  0.11844232082E+04  0.43352610244E+03  0.13109803320E+04  0.18192016761E+04  0.46999998093E+01 0. -1.
       -5    1    3    3    0  502 -0.11844232082E+04 -0.43352610244E+03 -0.98493316165E+03  0.16002870494E+04  0.46999998093E+01 0.  1.
</event>
<event>
 5   0  0.1819906E-07  0.3937309E+04  0.7818609E-02  0.8017314E-01
       -2   -1    0    0    0  501  0.00000000000E+00  0.00000000000E+00  0.13095302109E+04  0.13095302109E+04  0.25500000920E-02 0. -1.
        2   -1    0    0  501    0  0.00000000000E+00  0.00000000000E+00 -0.29595354942E+04  0.29595354942E+04  0.25500000920E-02 0.  1.
    10030    2    1    2    0    0  0.00000000000E+00  0.00000000000E+00 -0.16500052833E+04  0.42690657051E+04  0.39373093046E+04 0.  0.
        1    1    3    3  502    0 -0.12653923519E+04  0.28742339167E+03  0.78020384831E+03  0.15141162621E+04  0.50400001928E-02 0. -1.
       -1    1    3    3    0  502  0.12653923519E+04 -0.28742339167E+03 -0.24302091316E+04  0.27549494430E+04  0.50400001928E-02 0.  1.
</event>
<event>
 5   0  0.5515000E-08  0.4008208E+04  0.7818609E-02  0.8002893E-01
       -1   -1    0    0    0  501  0.00000000000E+00  0.00000000000E+00  0.25117264521E+04  0.25117264521E+04  0.50400001928E-02 0.  1.
        1   -1    0    0  501    0  0.00000000000E+00  0.00000000000E+00 -0.15990727005E+04  0.15990727005E+04  0.50400001928E-02 0. -1.
    10030    2    1    2    0    0  0.00000000000E+00  0.00000000000E+00  0.91265375161E+03  0.41107991527E+04  0.40082081786E+04 0.  0.
        5    1    3    3  502    0 -0.55362561534E+03 -0.11528002373E+04 -0.11262039051E+04  0.17040560539E+04  0.46999998093E+01 0. -1.
       -5    1    3    3    0  502  0.55362561534E+03  0.11528002373E+04  0.20388576567E+04  0.24067430987E+04  0.46999998093E+01 0.  1.
</event>
<event>
 5   0  0.1819906E-07  0.3958002E+04  0.7818609E-02  0.8013073E-01
       -2   -1    0    0    0  501  0.00000000000E+00  0.00000000000E+00  0.21685782725E+04  0.21685782725E+04  0.25500000920E-02 0. -1.
        2   -1    0    0  501    0  0.00000000000E+00  0.00000000000E+00 -0.18059963955E+04  0.18059963955E+04  0.25500000920E-02 0.  1.
    10030    2    1    2    0    0  0.00000000000E+00  0.00000000000E+00  0.36258187698E+03  0.39745746680E+04  0.39580017905E+04 0.  0.
        1    1    3    3  502    0 -0.60304213241E+03  0.13343772736E+04 -0.11555315361E+04  0.18653352655E+04  0.50400001928E-02 0.  1.
       -1    1    3    3    0  502  0.60304213241E+03 -0.13343772736E+04  0.15181134131E+04  0.21092394024E+04  0.50400001928E-02 0. -1.
</event>
<event>
 5   0  0.1773903E-07  0.3996331E+04  0.7818609E-02  0.8005287E-01
        2   -1    0    0  501    0  0.00000000000E+00  0.00000000000E+00  0.19842920973E+04  0.19842920974E+04  0.25500000920E-02 0. -1.
       -2   -1    0    0    0  501  0.00000000000E+00  0.00000000000E+00 -0.20121361242E+04  0.20121361242E+04  0.25500000920E-02 0.  1.
    10030    2    1    2    0    0  0.00000000000E+00  0.00000000000E+00 -0.27844026860E+02  0.39964282216E+04  0.39963312225E+04 0.  0.
        3    1    3    3  502    0  0.19642089220E+04  0.27510633850E+03  0.22870624320E+03  0.19965236644E+04  0.10100000352E+00 0.  1.
       -3    1    3    3    0  502 -0.19642089220E+04 -0.27510633850E+03 -0.25655027006E+03  0.19999045572E+04  0.10100000352E+00 0. -1.
</event>
<event>
 5   0  0.1785559E-07  0.4023000E+04  0.7818609E-02  0.7999923E-01
       -2   -1    0    0    0  501  0.00000000000E+00  0.00000000000E+00  0.22100913413E+04  0.22100913413E+04  0.25500000920E-02 0.  1.
        2   -1    0    0  501    0  0.00000000000E+00  0.00000000000E+00 -0.18307532923E+04  0.18307532923E+04  0.25500000920E-02 0. -1.
    10030    2    1    2    0    0  0.00000000000E+00  0.00000000000E+00  0.37933804897E+03  0.40408446336E+04  0.40229998754E+04 0.  0.
        2    1    3    3  502    0 -0.84971343817E+03  0.76115488261E+03  0.18537501885E+04  0.21766394841E+04  0.25500000920E-02 0.  1.
       -2    1    3    3    0  502  0.84971343817E+03 -0.76115488261E+03 -0.14744121395E+04  0.18642051495E+04  0.25500000920E-02 0. -1.
</event>
<event>
 5   0  0.5515000E-08  0.3959787E+04  0.7818609E-02  0.8012708E-01
       -1   -1    0    0    0  501  0.00000000000E+00  0.00000000000E+00  0.24872263850E+04  0.24872263850E+04  0.50400001928E-02 0. -1.
        1   -1    0    0  501    0  0.00000000000E+00  0.00000000000E+00 -0.15760437930E+04  0.15760437930E+04  0.50400001928E-02 0.  1.
    10030    2    1    2    0    0  0.00000000000E+00  0.00000000000E+00  0.91118259202E+03  0.40632701780E+04  0.39597867144E+04 0.  0.
        4    1    3    3  502    0 -0.10804437914E+03 -0.14687367519E+04 -0.90228817681E+03  0.17271325372E+04  0.12699999809E+01 0.  1.
       -4    1    3    3    0  502  0.10804437914E+03  0.14687367519E+04  0.18134707688E+04  0.23361376407E+04  0.12699999809E+01 0. -1.
</event>
<event>
 5   0  0.1821433E-07  0.3956422E+04  0.7818609E-02  0.8013396E-01
       -2   -1    0    0    0  501  0.00000000000E+00  0.00000000000E+00  0.20967861501E+04  0.20967861501E+04  0.25500000920E-02 0.  1.
        2   -1    0    0  501    0  0.00000000000E+00  0.00000000000E+00 -0.18663413008E+04  0.18663413008E+04  0.25500000920E-02 0. -1.
    10030    2    1    2    0    0  0.00000000000E+00  0.00000000000E+00  0.23044484933E+03  0.39631274509E+04  0.39564219143E+04 0.  0.
        5    1    3    3  502    0 -0.12719517392E+04  0.14808006952E+04  0.43617860861E+03  0.20002264358E+04  0.46999998093E+01 0. -1.
       -5    1    3    3    0  502  0.12719517392E+04 -0.14808006952E+04 -0.20573375928E+03  0.19629010152E+04  0.46999998093E+01 0.  1.
</event>
<event>
 5   0  0.1821433E-07  0.3888523E+04  0.7818609E-02  0.8027421E-01
       -2   -1    0    0    0  501  0.00000000000E+00  0.00000000000E+00  0.10991998142E+04  0.10991998142E+04  0.25500000920E-02 0. -1.
        2   -1    0    0  501    0  0.00000000000E+00  0.00000000000E+00 -0.34390034238E+04  0.34390034238E+04  0.25500000920E-02 0.  1.
    10030    2    1    2    0    0  0.00000000000E+00  0.00000000000E+00 -0.23398036096E+04  0.45382032379E+04  0.38885225597E+04 0.  0.
        5    1    3    3  502    0  0.15770787881E+04  0.10191663823E+04 -0.58142182642E+03  0.19656935287E+04  0.46999998093E+01 0.  1.
       -5    1    3    3    0  502 -0.15770787881E+04 -0.10191663823E+04 -0.17583817832E+04  0.25725097092E+04  0.46999998093E+01 0. -1.
</event>
<event>
 5   0  0.1819906E-07  0.3947504E+04  0.7818609E-02  0.8015221E-01
        2   -1    0    0  501    0  0.00000000000E+00  0.00000000000E+00  0.22042135566E+04  0.22042135566E+04  0.25500000920E-02 0. -1.
       -2   -1    0    0    0  501  0.00000000000E+00  0.00000000000E+00 -0.17673862772E+04  0.17673862772E+04  0.25500000920E-02 0.  1.
    10030    2    1    2    0    0  0.00000000000E+00  0.00000000000E+00  0.43682727942E+03  0.39715998337E+04  0.39475039161E+04 0.  0.
        1    1    3    3  502    0  0.11525028860E+03 -0.78216808822E+03  0.20379403670E+04  0.21859255447E+04  0.50400001928E-02 0. -1.
       -1    1    3    3    0  502 -0.11525028860E+03  0.78216808822E+03 -0.16011130876E+04  0.17856742891E+04  0.50400001928E-02 0.  1.
</event>
<event>
 5   0  0.1776653E-07  0.3976519E+04  0.7818609E-02  0.8009300E-01
       -2   -1    0    0    0  501  0.00000000000E+00  0.00000000000E+00  0.18777700159E+04  0.18777700159E+04  0.25500000920E-02 0.  1.
        2   -1    0    0  501    0  0.00000000000E+00  0.00000000000E+00 -0.21052498264E+04  0.21052498264E+04  0.25500000920E-02 0. -1.
    10030    2    1    2    0    0  0.00000000000E+00  0.00000000000E+00 -0.22747981046E+03  0.39830198423E+04  0.39765185778E+04 0.  0.
        4    1    3    3  502    0  0.51179387802E+03 -0.15414458819E+04  0.10349501965E+04  0.19259054760E+04  0.12699999809E+01 0.  1.
       -4    1    3    3    0  502 -0.51179387802E+03  0.15414458819E+04 -0.12624300070E+04  0.20571143663E+04  0.12699999809E+01 0. -1.
</event>
<event>
 5   0  0.5515000E-08  0.3995104E+04  0.7818609E-02  0.8005535E-01
        1   -1    0    0  501    0  0.00000000000E+00  0.00000000000E+00  0.29102196380E+04  0.29102196380E+04  0.50400001928E-02 0.  1.
       -1   -1    0    0    0  501  0.00000000000E+00  0.00000000000E+00 -0.13711043536E+04  0.13711043536E+04  0.50400001928E-02 0. -1.
    10030    2    1    2    0    0  0.00000000000E+00  0.00000000000E+00  0.15391152844E+04  0.42813239916E+04  0.39951044120E+04 0.  0.
        4    1    3    3  502    0 -0.14838771843E+04 -0.67709448460E+03  0.20053733187E+04  0.25849317591E+04  0.12699999809E+01 0.  1.
       -4    1    3    3    0  502  0.14838771843E+04  0.67709448460E+03 -0.46625803426E+03  0.16963922325E+04  0.12699999809E+01 0. -1.
</event>
<event>
 5   0  0.5515000E-08  0.4013375E+04  0.7818609E-02  0.8001854E-01
       -1   -1    0    0    0  501  0.00000000000E+00  0.00000000000E+00  0.17586390836E+04  0.17586390836E+04  0.50400001928E-02 0. -1.
        1   -1    0    0  501    0  0.00000000000E+00  0.00000000000E+00 -0.22897218983E+04  0.22897218983E+04  0.50400001928E-02 0.  1.
    10030    2    1    2    0    0  0.00000000000E+00  0.00000000000E+00 -0.53108281479E+03  0.40483609819E+04  0.40133748496E+04 0.  0.
        2    1    3    3  502    0  0.47833309739E+03 -0.19461758729E+04 -0.16271484940E+03  0.20106912250E+04  0.25500000920E-02 0.  1.
       -2    1    3    3    0  502 -0.47833309739E+03  0.19461758729E+04 -0.36836796538E+03  0.20376697569E+04  0.25500000920E-02 0. -1.
</event>
<event>
 5   0  0.1821433E-07  0.3924563E+04  0.7818609E-02  0.8019940E-01
        2   -1    0    0  501    0  0.00000000000E+00  0.00000000000E+00  0.11968855690E+04  0.11968855690E+04  0.25500000920E-02 0. -1.
       -2   -1    0    0    0  501  0.00000000000E+00  0.00000000000E+00 -0.32171406448E+04  0.32171406448E+04  0.25500000920E-02 0.  1.
    10030    2    1    2    0    0  0.00000000000E+00  0.00000000000E+00 -0.20202550757E+04  0.44140262138E+04  0.39245632680E+04 0.  0.
        5    1    3    3  502    0  0.18962690968E+03 -0.83436927528E+03 -0.29962647672E+04  0.31160479935E+04  0.46999998093E+01 0.  1.
       -5    1    3    3    0  502 -0.18962690968E+03  0.83436927528E+03  0.97600969150E+03  0.12979782203E+04  0.46999998093E+01 0. -1.
</event>
<event>
 5   0  0.1773903E-07  0.3991166E+04  0.7818609E-02  0.8006331E-01
        2   -1    0    0  501    0  0.00000000000E+00  0.00000000000E+00  0.15881576495E+04  0.15881576495E+04  0.25500000920E-02 0.  1.
       -2   -1    0    0    0  501  0.00000000000E+00  0.00000000000E+00 -0.25075286193E+04  0.25075286193E+04  0.25500000920E-02 0. -1.
    10030    2    1    2    0    0  0.00000000000E+00  0.00000000000E+00 -0.91937096985E+03  0.40956862688E+04  0.39911656233E+04 0.  0.
        3    1    3    3  502    0 -0.69501151742E+03 -0.15970584747E+04 -0.14592125974E+04  0.22722099805E+04  0.10100000352E+00 0. -1.
       -3    1    3    3    0  502  0.69501151742E+03  0.15970584747E+04  0.53984162755E+03  0.18234762883E+04  0.10100000352E+00 0.  1.
</event>
<event>
 5   0  0.5515000E-08  0.3942237E+04  0.7818609E-02  0.8016302E-01
       -1   -1    0    0    0  501  0.00000000000E+00  0.00000000000E+00  0.22428398632E+04  0.22428398632E+04  0.50400001928E-02 0.  1.
        1   -1    0    0  501    0  0.00000000000E+00  0.00000000000E+00 -0.17323160782E+04  0.17323160782E+04  0.50400001928E-02 0. -1.
    10030    2    1    2    0    0  0.00000000000E+00  0.00000000000E+00  0.51052378505E+03  0.39751559414E+04  0.39422367031E+04 0.  0.
        2    1    3    3  502    0 -0.27773739206E+03 -0.90290020366E+02  0.22209031312E+04  0.22400225590E+04  0.25500000920E-02 0.  1.
       -2    1    3    3    0  502  0.27773739206E+03  0.90290020366E+02 -0.17103793462E+04  0.17351333824E+04  0.25500000920E-02 0. -1.
</event>
<event>
 5   0  0.1776653E-07  0.3980927E+04  0.7818609E-02  0.8008405E-01
        2   -1    0    0  501    0  0.00000000000E+00  0.00000000000E+00  0.23091783654E+04  0.23091783654E+04  0.25500000920E-02 0.  1.
       -2   -1    0    0    0  501  0.00000000000E+00  0.00000000000E+00 -0.17157378659E+04  0.17157378659E+04  0.25500000920E-02 0. -1.
    10030    2    1    2    0    0  0.00000000000E+00  0.00000000000E+00  0.59344049943E+03  0.40249162313E+04  0.39809269075E+04 0.  0.
        4    1    3    3  502    0  0.40819419382E+03 -0.18233622238E+03  0.22577596433E+04  0.23015971015E+04  0.12699999809E+01 0.  1.
       -4    1    3    3    0  502 -0.40819419382E+03  0.18233622238E+03 -0.16643191438E+04  0.17233191298E+04  0.12699999809E+01 0. -1.
</event>
<event>
 5   0  0.5515000E-08  0.3993113E+04  0.7818609E-02  0.8005937E-01
       -1   -1    0    0    0  501  0.00000000000E+00  0.00000000000E+00  0.13242505507E+04  0.13242505507E+04  0.50400001928E-02 0.  1.
        1   -1    0    0  501    0  0.00000000000E+00  0.00000000000E+00 -0.30101837211E+04  0.30101837211E+04  0.50400001928E-02 0. -1.
    10030    2    1    2    0    0  0.00000000000E+00  0.00000000000E+00 -0.16859331704E+04  0.43344342718E+04  0.39931127960E+04 0.  0.
        4    1    3    3  502    0 -0.66613243238E+03  0.33365905768E+03  0.11677102814E+04  0.13851388734E+04  0.12699999809E+01 0.  1.
       -4    1    3    3    0  502  0.66613243238E+03 -0.33365905768E+03 -0.28536434518E+04  0.29492953984E+04  0.12699999809E+01 0. -1.
</event>
<event>
 5   0  0.5515000E-08  0.3886139E+04  0.7818609E-02  0.8027918E-01
        1   -1    0    0  501    0  0.00000000000E+00  0.00000000000E+00  0.28932445562E+04  0.28932445562E+04  0.50400001928E-02 0.  1.
       -1   -1    0    0    0  501  0.00000000000E+00  0.00000000000E+00 -0.13049432072E+04  0.13049432072E+04  0.50400001928E-02 0. -1.
    10030    2    1    2    0    0  0.00000000000E+00  0.00000000000E+00  0.15883013489E+04  0.41981877634E+04  0.38861393853E+04 0.  0.
        5    1    3    3  502    0 -0.10928285919E+04 -0.72288924466E+03  0.23441632550E+04  0.26855105003E+04  0.46999998093E+01 0.  1.
       -5    1    3    3    0  502  0.10928285919E+04  0.72288924466E+03 -0.75586190604E+03  0.15126772631E+04  0.46999998093E+01 0. -1.
</event>
<event>
 5   0  0.1773903E-07  0.3999088E+04  0.7818609E-02  0.8004731E-01
       -2   -1    0    0    0  501  0.00000000000E+00  0.00000000000E+00  0.15155798689E+04  0.15155798689E+04  0.25500000920E-02 0. -1.
        2   -1    0    0  501    0  0.00000000000E+00  0.00000000000E+00 -0.26380508028E+04  0.26380508028E+04  0.25500000920E-02 0.  1.
    10030    2    1    2    0    0  0.00000000000E+00  0.00000000000E+00 -0.11224709339E+04  0.41536306716E+04  0.39990882409E+04 0.  0.
        3    1    3    3  502    0  0.19908496555E+04 -0.15473052149E+03 -0.45353252682E+03  0.20477098545E+04  0.10100000352E+00 0. -1.
       -3    1    3    3    0  502 -0.19908496555E+04  0.15473052149E+03 -0.66893840707E+03  0.21059208171E+04  0.10100000352E+00 0.  1.
</event>
<event>
 5   0  0.5515000E-08  0.3994648E+04  0.7818609E-02  0.8005627E-01
       -1   -1    0    0    0  501  0.00000000000E+00  0.00000000000E+00  0.32301018552E+04  0.32301018552E+04  0.50400001928E-02 0.  1.
        1   -1    0    0  501    0  0.00000000000E+00  0.00000000000E+00 -0.12350393378E+04  0.12350393378E+04  0.50400001928E-02 0. -1.
    10030    2    1    2    0    0  0.00000000000E+00  0.00000000000E+00  0.19950625174E+04  0.44651411930E+04  0.39946478475E+04 0.  0.
        2    1    3    3  502    0  0.23418253596E+03 -0.29410763221E+03 -0.11951327575E+04  0.12528699324E+04  0.25500000920E-02 0. -1.
       -2    1    3    3    0  502 -0.23418253596E+03  0.29410763221E+03  0.31901952749E+04  0.32122712606E+04  0.25500000920E-02 0.  1.
</event>
<event>
 5   0  0.1819906E-07  0.3999014E+04  0.7818609E-02  0.8004745E-01
        2   -1    0    0  501    0  0.00000000000E+00  0.00000000000E+00  0.15753111705E+04  0.15753111705E+04  0.25500000920E-02 0. -1.
       -2   -1    0    0    0  501  0.00000000000E+00  0.00000000000E+00 -0.25379294291E+04  0.25379294291E+04  0.25500000920E-02 0.  1.
    10030    2    1    2    0    0  0.00000000000E+00  0.00000000000E+00 -0.96261825855E+03  0.41132405996E+04  0.39990141684E+04 0.  0.
        1    1    3    3  502    0 -0.34375536816E+02 -0.45806585587E+01  0.15750018179E+04  0.15753835681E+04  0.50400001928E-02 0. -1.
       -1    1    3    3    0  502  0.34375536816E+02  0.45806585587E+01 -0.25376200765E+04  0.25378570316E+04  0.50400001928E-02 0.  1.
</event>
<event>
 5   0  0.1773903E-07  0.3985216E+04  0.7818609E-02  0.8007536E-01
        2   -1    0    0  501    0  0.00000000000E+00  0.00000000000E+00  0.25852137836E+04  0.25852137836E+04  0.25500000920E-02 0. -1.
       -2   -1    0    0    0  501  0.00000000000E+00  0.00000000000E+00 -0.15358447432E+04  0.15358447432E+04  0.25500000920E-02 0.  1.
    10030    2    1    2    0    0  0.00000000000E+00  0.00000000000E+00  0.10493690404E+04  0.41210585268E+04  0.39852161796E+04 0.  0.
        3    1    3    3  502    0 -0.10339003464E+04 -0.11405820866E+04 -0.78359216434E+03  0.17273951814E+04  0.10100000352E+00 0.  1.
       -3    1    3    3    0  502  0.10339003464E+04  0.11405820866E+04  0.18329612048E+04  0.23936633454E+04  0.10100000352E+00 0. -1.
</event>
<event>
 5   0  0.5515000E-08  0.3989582E+04  0.7818609E-02  0.8006651E-01
        1   -1    0    0  501    0  0.00000000000E+00  0.00000000000E+00  0.20174291099E+04  0.20174291099E+04  0.50400001928E-02 0.  1.
       -1   -1    0    0    0  501  0.00000000000E+00  0.00000000000E+00 -0.19724071310E+04  0.19724071310E+04  0.50400001928E-02 0. -1.
    10030    2    1    2    0    0  0.00000000000E+00  0.00000000000E+00  0.45021978886E+02  0.39898362410E+04  0.39895822151E+04 0.  0.
        3    1    3    3  502    0 -0.64510453502E+03  0.18502815330E+04 -0.35099631156E+03  0.19907034017E+04  0.10100000352E+00 0.  1.
       -3    1    3    3    0  502  0.64510453502E+03 -0.18502815330E+04  0.39601829044E+03  0.19991328393E+04  0.10100000352E+00 0. -1.
</event>
<event>
 5   0  0.5515000E-08  0.3978535E+04  0.7818609E-02  0.8008891E-01
       -1   -1    0    0    0  501  0.00000000000E+00  0.00000000000E+00  0.21233416214E+04  0.21233416214E+04  0.50400001928E-02 0. -1.
        1   -1    0    0  501    0  0.00000000000E+00  0.00000000000E+00 -0.18636594481E+04  0.18636594481E+04  0.50400001928E-02 0.  1.
    10030    2    1    2    0    0  0.00000000000E+00  0.00000000000E+00  0.25968217325E+03  0.39870010695E+04  0.39785352452E+04 0.  0.
        1    1    3    3  502    0  0.17826971465E+04  0.20566093649E+02  0.10141890385E+04  0.20511000673E+04  0.50400001928E-02 0. -1.
       -1    1    3    3    0  502 -0.17826971465E+04 -0.20566093649E+02 -0.75450686522E+03  0.19359010022E+04  0.50400001928E-02 0.  1.
</event>
<event>
 5   0  0.1819906E-07  0.3984582E+04  0.7818609E-02  0.8007664E-01
        2   -1    0    0  501    0  0.00000000000E+00  0.00000000000E+00  0.28488378532E+04  0.28488378532E+04  0.25500000920E-02 0.  1.
       -2   -1    0    0    0  501  0.00000000000E+00  0.00000000000E+00 -0.13932781032E+04  0.13932781032E+04  0.25500000920E-02 0. -1.
    10030    2    1    2    0    0  0.00000000000E+00  0.00000000000E+00  0.14555597500E+04  0.42421159564E+04  0.39845819858E+04 0.  0.
        1    1    3    3  502    0 -0.63492937829E+02 -0.19787465807E+04  0.96525265826E+03  0.22025399152E+04  0.50400001928E-02 0. -1.
       -1    1    3    3    0  502  0.63492937829E+02  0.19787465807E+04  0.49030709176E+03  0.20395760412E+04  0.50400001928E-02 0.  1.
</event>
<event>
 5   0  0.5515000E-08  0.4019326E+04  0.7818609E-02  0.8000659E-01
       -1   -1    0    0    0  501  0.00000000000E+00  0.00000000000E+00  0.22455347401E+04  0.22455347401E+04  0.50400001928E-02 0.  1.
        1   -1    0    0  501    0  0.00000000000E+00  0.00000000000E+00 -0.17985673189E+04  0.17985673190E+04  0.50400001928E-02 0. -1.
    10030    2    1    2    0    0  0.00000000000E+00  0.00000000000E+00  0.44696742119E+03  0.40441020591E+04  0.40193260118E+04 0.  0.
        2    1    3    3  502    0  0.16734178197E+04  0.91044558945E+03  0.86735572999E+03  0.20932138765E+04  0.25500000920E-02 0.  1.
       -2    1    3    3    0  502 -0.16734178197E+04 -0.91044558945E+03 -0.42038830880E+03  0.19508881825E+04  0.25500000920E-02 0. -1.
</event>
<event>
 5   0  0.5515000E-08  0.3871411E+04  0.7818609E-02  0.8031001E-01
       -1   -1    0    0    0  501  0.00000000000E+00  0.00000000000E+00  0.14866412386E+04  0.14866412386E+04  0.50400001928E-02 0.  1.
        1   -1    0    0  501    0  0.00000000000E+00  0.00000000000E+00 -0.25204175602E+04  0.25204175602E+04  0.50400001928E-02 0. -1.
    10030    2    1    2    0    0  0.00000000000E+00  0.00000000000E+00 -0.10337763216E+04  0.40070587987E+04  0.38714114653E+04 0.  0.
        1    1    3    3  502    0 -0.17747363308E+04  0.54469950798E+03 -0.10843403302E+04  0.21499257079E+04  0.50400001928E-02 0. -1.
       -1    1    3    3    0  502  0.17747363308E+04 -0.54469950798E+03  0.50564008589E+02  0.18571330908E+04  0.50400001928E-02 0.  1.
</event>
<event>
 5   0  0.1773903E-07  0.4024725E+04  0.7818609E-02  0.7999577E-01
       -2   -1    0    0    0  501  0.00000000000E+00  0.00000000000E+00  0.16008611806E+04  0.16008611806E+04  0.25500000920E-02 0. -1.
        2   -1    0    0  501    0  0.00000000000E+00  0.00000000000E+00 -0.25296402499E+04  0.25296402499E+04  0.25500000920E-02 0.  1.
    10030    2    1    2    0    0  0.00000000000E+00  0.00000000000E+00 -0.92877906931E+03  0.41305014306E+04  0.40247250227E+04 0.  0.
        3    1    3    3  502    0  0.54201382509E+03  0.18592556540E+04 -0.10255622669E+04  0.21914352710E+04  0.10100000352E+00 0.  1.
       -3    1    3    3    0  502 -0.54201382509E+03 -0.18592556540E+04  0.96783197617E+02  0.19390661595E+04  0.10100000352E+00 0. -1.
</event>
<event>
 5   0  0.5515000E-08  0.3982157E+04  0.7818609E-02  0.8008156E-01
       -1   -1    0    0    0  501  0.00000000000E+00  0.00000000000E+00  0.19403797019E+04  0.19403797019E+04  0.50400001928E-02 0.  1.
        1   -1    0    0  501    0  0.00000000000E+00  0.00000000000E+00 -0.20431024419E+04  0.20431024419E+04  0.50400001928E-02 0. -1.
    10030    2    1    2    0    0  0.00000000000E+00  0.00000000000E+00 -0.10272273992E+03  0.39834821438E+04  0.39821574591E+04 0.  0.
        4    1    3    3  502    0  0.14537137689E+04  0.13585807790E+04 -0.12464855177E+03  0.19936309411E+04  0.12699999809E+01 0. -1.
       -4    1    3    3    0  502 -0.14537137689E+04 -0.13585807790E+04  0.21925811846E+02  0.19898512027E+04  0.12699999809E+01 0.  1.
</event>
<event>
 5   0  0.5515000E-08  0.3990289E+04  0.7818609E-02  0.8006508E-01
       -1   -1    0    0    0  501  0.00000000000E+00  0.00000000000E+00  0.29253520963E+04  0.29253520963E+04  0.50400001928E-02 0.  1.
        1   -1    0    0  501    0  0.00000000000E+00  0.00000000000E+00 -0.13607255081E+04  0.13607255081E+04  0.50400001928E-02 0. -1.
    10030    2    1    2    0    0  0.00000000000E+00  0.00000000000E+00  0.15646265882E+04  0.42860776044E+04  0.39902888204E+04 0.  0.
        1    1    3    3  502    0  0.92166927369E+03  0.15596946624E+04 -0.11538942254E+03  0.18153336908E+04  0.50400001928E-02 0. -1.
       -1    1    3    3    0  502 -0.92166927369E+03 -0.15596946624E+04  0.16800160107E+04  0.24707439136E+04  0.50400001928E-02 0.  1.
</event>
<event>
 5   0  0.5515000E-08  0.4091323E+04  0.7818609E-02  0.7986373E-01
       -1   -1    0    0    0  501  0.00000000000E+00  0.00000000000E+00  0.20741352362E+04  0.20741352362E+04  0.50400001928E-02 0. -1.
        1   -1    0    0  501    0  0.00000000000E+00  0.00000000000E+00 -0.20175791315E+04  0.20175791315E+04  0.50400001928E-02 0.  1.
    10030    2    1    2    0    0  0.00000000000E+00  0.00000000000E+00  0.56556104673E+02  0.40917143677E+04  0.40913234868E+04 0.  0.
        1    1    3    3  502    0 -0.48598608074E+03  0.12857669290E+04  0.15434650092E+04  0.20668002567E+04  0.50400001928E-02 0. -1.
       -1    1    3    3    0  502  0.48598608074E+03 -0.12857669290E+04 -0.14869089045E+04  0.20249141110E+04  0.50400001928E-02 0.  1.
</event>
<event>
 5   0  0.1785559E-07  0.3947443E+04  0.7818609E-02  0.8015234E-01
       -2   -1    0    0    0  501  0.00000000000E+00  0.00000000000E+00  0.32945627380E+04  0.32945627380E+04  0.25500000920E-02 0. -1.
        2   -1    0    0  501    0  0.00000000000E+00  0.00000000000E+00 -0.11824260908E+04  0.11824260908E+04  0.25500000920E-02 0.  1.
    10030    2    1    2    0    0  0.00000000000E+00  0.00000000000E+00  0.21121366472E+04  0.44769888288E+04  0.39474431923E+04 0.  0.
        2    1    3    3  502    0  0.23625543586E+03  0.19267040416E+04  0.14611546081E+04  0.24296044706E+04  0.25500000920E-02 0.  1.
       -2    1    3    3    0  502 -0.23625543586E+03 -0.19267040416E+04  0.65098203914E+03  0.20473843582E+04  0.25500000920E-02 0. -1.
</event>
<event>
 5   0  0.1776653E-07  0.3962297E+04  0.7818609E-02  0.8012196E-01
       -2   -1    0    0    0  501  0.00000000000E+00  0.00000000000E+00  0.29999534802E+04  0.29999534802E+04  0.25500000920E-02 0.  1.
        2   -1    0    0  501    0  0.00000000000E+00  0.00000000000E+00 -0.13083366955E+04  0.13083366955E+04  0.25500000920E-02 0. -1.
    10030    2    1    2    0    0  0.00000000000E+00  0.00000000000E+00  0.16916167846E+04  0.43082901757E+04  0.39622969212E+04 0.  0.
        4    1    3    3  502    0 -0.11021534803E+04  0.71792732891E+03 -0.76503747493E+03  0.15216589285E+04  0.12699999809E+01 0. -1.
       -4    1    3    3    0  502  0.11021534803E+04 -0.71792732891E+03  0.24566542596E+04  0.27866312472E+04  0.12699999809E+01 0.  1.
</event>
<event>
 5   0  0.1773903E-07  0.4008298E+04  0.7818609E-02  0.8002875E-01
        2   -1    0    0  501    0  0.00000000000E+00  0.00000000000E+00  0.19082917768E+04  0.19082917768E+04  0.25500000920E-02 0.  1.
       -2   -1    0    0    0  501  0.00000000000E+00  0.00000000000E+00 -0.21048210497E+04  0.21048210497E+04  0.25500000920E-02 0. -1.
    10030    2    1    2    0    0  0.00000000000E+00  0.00000000000E+00 -0.19652927295E+03  0.40131128265E+04  0.40082977439E+04 0.  0.
        3    1    3    3  502    0  0.92495141019E+02 -0.14082984457E+04 -0.15229120785E+04  0.20763239324E+04  0.10100000352E+00 0. -1.
       -3    1    3    3    0  502 -0.92495141019E+02  0.14082984457E+04  0.13263828056E+04  0.19367888941E+04  0.10100000352E+00 0.  1.
</event>
<event>
 5   0  0.5515000E-08  0.4050389E+04  0.7818609E-02  0.7994458E-01
       -1   -1    0    0    0  501  0.00000000000E+00  0.00000000000E+00  0.26167150999E+04  0.26167151000E+04  0.50400001928E-02 0.  1.
        1   -1    0    0  501    0  0.00000000000E+00  0.00000000000E+00 -0.15673897453E+04  0.15673897453E+04  0.50400001928E-02 0. -1.
    10030    2    1    2    0    0  0.00000000000E+00  0.00000000000E+00  0.10493253547E+04  0.41841048453E+04  0.40503888278E+04 0.  0.
        5    1    3    3  502    0  0.10500631558E+01  0.69350779523E+03  0.24902226026E+04  0.25849922370E+04  0.46999998093E+01 0.  1.
       -5    1    3    3    0  502 -0.10500631558E+01 -0.69350779523E+03 -0.14408972480E+04  0.15991126083E+04  0.46999998093E+01 0. -1.
</event>
<event>
 5   0  0.1821433E-07  0.4131998E+04  0.7818609E-02  0.7978435E-01
        2   -1    0    0  501    0  0.00000000000E+00  0.00000000000E+00  0.25008104191E+04  0.25008104191E+04  0.25500000920E-02 0. -1.
       -2   -1    0    0    0  501  0.00000000000E+00  0.00000000000E+00 -0.17067874919E+04  0.17067874919E+04  0.25500000920E-02 0.  1.
    10030    2    1    2    0    0  0.00000000000E+00  0.00000000000E+00  0.79402292717E+03  0.42075979111E+04  0.41319980363E+04 0.  0.
        5    1    3    3  502    0 -0.37085180018E+03  0.10111893030E+04 -0.13982811270E+04  0.17650062505E+04  0.46999998093E+01 0.  1.
       -5    1    3    3    0  502  0.37085180018E+03 -0.10111893030E+04  0.21923040542E+04  0.24425916605E+04  0.46999998093E+01 0. -1.
</event>
<event>
 5   0  0.1785559E-07  0.3992571E+04  0.7818609E-02  0.8006047E-01
        2   -1    0    0  501    0  0.00000000000E+00  0.00000000000E+00  0.18265543817E+04  0.18265543817E+04  0.25500000920E-02 0.  1.
       -2   -1    0    0    0  501  0.00000000000E+00  0.00000000000E+00 -0.21817883108E+04  0.21817883108E+04  0.25500000920E-02 0. -1.
    10030    2    1    2    0    0  0.00000000000E+00  0.00000000000E+00 -0.35523392913E+03  0.40083426925E+04  0.39925706001E+04 0.  0.
        2    1    3    3  502    0  0.11641072037E+03  0.11652394519E+04  0.14455011515E+04  0.18603247069E+04  0.25500000920E-02 0.  1.
       -2    1    3    3    0  502 -0.11641072037E+03 -0.11652394519E+04 -0.18007350806E+04  0.21480179856E+04  0.25500000920E-02 0. -1.
</event>
<event>
 5   0  0.5515000E-08  0.4168418E+04  0.7818609E-02  0.7971407E-01
       -1   -1    0    0    0  501  0.00000000000E+00  0.00000000000E+00  0.17350232501E+04  0.17350232501E+04  0.50400001928E-02 0.  1.
        1   -1    0    0  501    0  0.00000000000E+00  0.00000000000E+00 -0.25036712784E+04  0.25036712784E+04  0.50400001928E-02 0. -1.
    10030    2    1    2    0    0  0.00000000000E+00  0.00000000000E+00 -0.76864802835E+03  0.42386945285E+04  0.41684183469E+04 0.  0.
        5    1    3    3  502    0  0.20101730977E+04 -0.51724313315E+03 -0.57610227605E+03  0.21541244774E+04  0.46999998093E+01 0. -1.
       -5    1    3    3    0  502 -0.20101730977E+04  0.51724313315E+03 -0.19254575230E+03  0.20845700512E+04  0.46999998093E+01 0.  1.
</event>
<event>
 5   0  0.1821433E-07  0.3998296E+04  0.7818609E-02  0.8004890E-01
       -2   -1    0    0    0  501  0.00000000000E+00  0.00000000000E+00  0.18029497754E+04  0.18029497754E+04  0.25500000920E-02 0.  1.
        2   -1    0    0  501    0  0.00000000000E+00  0.00000000000E+00 -0.22166965757E+04  0.22166965757E+04  0.25500000920E-02 0. -1.
    10030    2    1    2    0    0  0.00000000000E+00  0.00000000000E+00 -0.41374680027E+03  0.40196463512E+04  0.39982959337E+04 0.  0.
        5    1    3    3  502    0 -0.24161822654E+03 -0.42074282741E+03 -0.21566021524E+04  0.22105109879E+04  0.46999998093E+01 0. -1.
       -5    1    3    3    0  502  0.24161822654E+03  0.42074282741E+03  0.17428553521E+04  0.18091353632E+04  0.46999998093E+01 0.  1.
</event>
<event>
 5   0  0.1821433E-07  0.3972987E+04  0.7818609E-02  0.8010018E-01
       -2   -1    0    0    0  501  0.00000000000E+00  0.00000000000E+00  0.18296264672E+04  0.18296264672E+04  0.25500000920E-02 0. -1.
        2   -1    0    0  501    0  0.00000000000E+00  0.00000000000E+00 -0.21568100247E+04  0.21568100247E+04  0.25500000920E-02 0.  1.
    10030    2    1    2    0    0  0.00000000000E+00  0.00000000000E+00 -0.32718355754E+03  0.39864364919E+04  0.39729871412E+04 0.  0.
        5    1    3    3  502    0  0.18873165205E+04  0.58928293396E+03  0.29195550479E+02  0.19773953815E+04  0.46999998093E+01 0.  1.
       -5    1    3    3    0  502 -0.18873165205E+04 -0.58928293396E+03 -0.35637910802E+03  0.20090411104E+04  0.46999998093E+01 0. -1.
</event>
<event>
 5   0  0.1819906E-07  0.4063361E+04  0.7818609E-02  0.7991885E-01
       -2   -1    0    0    0  501  0.00000000000E+00  0.00000000000E+00  0.18058525237E+04  0.18058525237E+04  0.25500000920E-02 0.  1.
        2   -1    0    0  501    0  0.00000000000E+00  0.00000000000E+00 -0.22857485630E+04  0.22857485630E+04  0.25500000920E-02 0. -1.
    10030    2    1    2    0    0  0.00000000000E+00  0.00000000000E+00 -0.47989603924E+03  0.40916010867E+04  0.40633605851E+04 0.  0.
        1    1    3    3  502    0 -0.90313926025E+03 -0.32398227638E+02  0.15923177677E+04  0.18308976055E+04  0.50400001928E-02 0.  1.
       -1    1    3    3    0  502  0.90313926025E+03  0.32398227638E+02 -0.20722138069E+04  0.22607034812E+04  0.50400001928E-02 0. -1.
</event>
<event>
 5   0  0.1776653E-07  0.3623479E+04  0.7818609E-02  0.8085135E-01
       -2   -1    0    0    0  501  0.00000000000E+00  0.00000000000E+00  0.13822315905E+04  0.13822315905E+04  0.25500000920E-02 0. -1.
        2   -1    0    0  501    0  0.00000000000E+00  0.00000000000E+00 -0.23747100311E+04  0.23747100311E+04  0.25500000920E-02 0.  1.
    10030    2    1    2    0    0  0.00000000000E+00  0.00000000000E+00 -0.99247844063E+03  0.37569416216E+04  0.36234785625E+04 0.  0.
        4    1    3    3  502    0  0.11975864464E+04 -0.84789073392E+03  0.60557101665E+03  0.15874034970E+04  0.12699999809E+01 0. -1.
       -4    1    3    3    0  502 -0.11975864464E+04  0.84789073392E+03 -0.15980494573E+04  0.21695381246E+04  0.12699999809E+01 0.  1.
</event>
<event>
 5   0  0.5515000E-08  0.3960525E+04  0.7818609E-02  0.8012558E-01
       -1   -1    0    0    0  501  0.00000000000E+00  0.00000000000E+00  0.33342674747E+04  0.33342674747E+04  0.50400001928E-02 0. -1.
        1   -1    0    0  501    0  0.00000000000E+00  0.00000000000E+00 -0.11761023917E+04  0.11761023918E+04  0.50400001928E-02 0.  1.
    10030    2    1    2    0    0  0.00000000000E+00  0.00000000000E+00  0.21581650830E+04  0.45103698665E+04  0.39605251933E+04 0.  0.
        3    1    3    3  502    0  0.12283411174E+03  0.13877765309E+04  0.26817333548E+04  0.30220366833E+04  0.10100000352E+00 0. -1.
       -3    1    3    3    0  502 -0.12283411174E+03 -0.13877765309E+04 -0.52356827180E+03  0.14883331832E+04  0.10100000352E+00 0.  1.
</event>
<event>
 5   0  0.5515000E-08  0.3825495E+04  0.7818609E-02  0.8040706E-01
       -1   -1    0    0    0  501  0.00000000000E+00  0.00000000000E+00  0.21862232176E+04  0.21862232177E+04  0.50400001928E-02 0.  1.
        1   -1    0    0  501    0  0.00000000000E+00  0.00000000000E+00 -0.16734809389E+04  0.16734809389E+04  0.50400001928E-02 0. -1.
    10030    2    1    2    0    0  0.00000000000E+00  0.00000000000E+00  0.51274227878E+03  0.38597041565E+04  0.38254949394E+04 0.  0.
        1    1    3    3  502    0  0.12939113237E+04 -0.68507976263E+03  0.14982567676E+04  0.20948303360E+04  0.50400001928E-02 0.  1.
       -1    1    3    3    0  502 -0.12939113237E+04  0.68507976263E+03 -0.98551448886E+03  0.17648738206E+04  0.50400001928E-02 0. -1.
</event>
<event>
 5   0  0.1819906E-07  0.4012270E+04  0.7818609E-02  0.8002076E-01
       -2   -1    0    0    0  501  0.00000000000E+00  0.00000000000E+00  0.26293847809E+04  0.26293847809E+04  0.25500000920E-02 0. -1.
        2   -1    0    0  501    0  0.00000000000E+00  0.00000000000E+00 -0.15306153794E+04  0.15306153794E+04  0.25500000920E-02 0.  1.
    10030    2    1    2    0    0  0.00000000000E+00  0.00000000000E+00  0.10987694015E+04  0.41600001603E+04  0.40122695742E+04 0.  0.
        1    1    3    3  502    0  0.79080453768E+03  0.18414588824E+04  0.45530137208E+03  0.20551501093E+04  0.50400001928E-02 0.  1.
       -1    1    3    3    0  502 -0.79080453768E+03 -0.18414588824E+04  0.64346802946E+03  0.21048500510E+04  0.50400001928E-02 0. -1.
</event>
<event>
 5   0  0.5515000E-08  0.4026537E+04  0.7818609E-02  0.7999214E-01
       -1   -1    0    0    0  501  0.00000000000E+00  0.00000000000E+00  0.18774787425E+04  0.18774787425E+04  0.50400001928E-02 0.  1.
        1   -1    0    0  501    0  0.00000000000E+00  0.00000000000E+00 -0.21588794223E+04  0.21588794223E+04  0.50400001928E-02 0. -1.
    10030    2    1    2    0    0  0.00000000000E+00  0.00000000000E+00 -0.28140067972E+03  0.40363581648E+04  0.40265370844E+04 0.  0.
        1    1    3    3  502    0 -0.14464335878E+04 -0.13103042706E+03  0.12569424734E+04  0.19207403464E+04  0.50400001928E-02 0.  1.
       -1    1    3    3    0  502  0.14464335878E+04  0.13103042706E+03 -0.15383431532E+04  0.21156178184E+04  0.50400001928E-02 0. -1.
</event>
<event>
 5   0  0.1776653E-07  0.4009147E+04  0.7818609E-02  0.8002704E-01
       -2   -1    0    0    0  501  0.00000000000E+00  0.00000000000E+00  0.28366765212E+04  0.28366765212E+04  0.25500000920E-02 0. -1.
        2   -1    0    0  501    0  0.00000000000E+00  0.00000000000E+00 -0.14165574664E+04  0.14165574664E+04  0.25500000920E-02 0.  1.
    10030    2    1    2    0    0  0.00000000000E+00  0.00000000000E+00  0.14201190547E+04  0.42532339876E+04  0.40091471941E+04 0.  0.
        4    1    3    3  502    0 -0.12812188159E+04  0.18460322752E+03 -0.91371932747E+03  0.15844508917E+04  0.12699999809E+01 0.  1.
       -4    1    3    3    0  502  0.12812188159E+04 -0.18460322752E+03  0.23338383822E+04  0.26687830959E+04  0.12699999809E+01 0. -1.
</event>
<event>
 5   0  0.1821433E-07  0.4076379E+04  0.7818609E-02  0.7989313E-01
       -2   -1    0    0    0  501  0.00000000000E+00  0.00000000000E+00  0.17007675351E+04  0.17007675351E+04  0.25500000920E-02 0.  1.
        2   -1    0    0  501    0  0.00000000000E+00  0.00000000000E+00 -0.24425533847E+04  0.24425533847E+04  0.25500000920E-02 0. -1.
    10030    2    1    2    0    0  0.00000000000E+00  0.00000000000E+00 -0.74178584960E+03  0.41433209199E+04  0.40763785396E+04 0.  0.
        5    1    3    3  502    0 -0.90431210537E+03 -0.10502843505E+04 -0.18898627141E+04  0.23436042262E+04  0.46999998093E+01 0. -1.
       -5    1    3    3    0  502  0.90431210537E+03  0.10502843505E+04  0.11480768645E+04  0.17997166937E+04  0.46999998093E+01 0.  1.
</event>
<event>
 5   0  0.1821433E-07  0.4032158E+04  0.7818609E-02  0.7998091E-01
       -2   -1    0    0    0  501  0.00000000000E+00  0.00000000000E+00  0.21992510523E+04  0.21992510523E+04  0.25500000920E-02 0. -1.
        2   -1    0    0  501    0  0.00000000000E+00  0.00000000000E+00 -0.18481630062E+04  0.18481630062E+04  0.25500000920E-02 0.  1.
    10030    2    1    2    0    0  0.00000000000E+00  0.00000000000E+00  0.35108804609E+03  0.40474140585E+04  0.40321579514E+04 0.  0.
        5    1    3    3  502    0  0.18252914243E+04 -0.69513063452E+03  0.67709137492E+03  0.20672131488E+04  0.46999998093E+01 0. -1.
       -5    1    3    3    0  502 -0.18252914243E+04  0.69513063452E+03 -0.32600332883E+03  0.19802009097E+04  0.46999998093E+01 0.  1.
</event>
<event>
 5   0  0.5515000E-08  0.3297535E+04  0.7818609E-02  0.8163523E-01
       -1   -1    0    0    0  501  0.00000000000E+00  0.00000000000E+00  0.12116105414E+04  0.12116105414E+04  0.50400001928E-02 0. -1.
        1   -1    0    0  501    0  0.00000000000E+00  0.00000000000E+00 -0.22436541403E+04  0.22436541403E+04  0.50400001928E-02 0.  1.
    10030    2    1    2    0    0  0.00000000000E+00  0.00000000000E+00 -0.10320435988E+04  0.34552646817E+04  0.32975354480E+04 0.  0.
        4    1    3    3  502    0 -0.48624197376E+03 -0.96313781278E+02 -0.21637281960E+04  0.22197812776E+04  0.12699999809E+01 0.  1.
       -4    1    3    3    0  502  0.48624197376E+03  0.96313781278E+02  0.11316845971E+04  0.12354834041E+04  0.12699999809E+01 0. -1.
</event>
<event>
 5   0  0.5515000E-08  0.3273059E+04  0.7818609E-02  0.8169785E-01
       -1   -1    0    0    0  501  0.00000000000E+00  0.00000000000E+00  0.17286503271E+04  0.17286503272E+04  0.50400001928E-02 0. -1.
        1   -1    0    0  501    0  0.00000000000E+00  0.00000000000E+00 -0.15493176076E+04  0.15493176076E+04  0.50400001928E-02 0.  1.
    10030    2    1    2    0    0  0.00000000000E+00  0.00000000000E+00  0.17933271958E+03  0.32779679347E+04  0.32730587463E+04 0.  0.
        4    1    3    3  502    0  0.15376138823E+04 -0.25395095772E+03 -0.41056176249E+03  0.16116172355E+04  0.12699999809E+01 0.  1.
       -4    1    3    3    0  502 -0.15376138823E+04  0.25395095772E+03  0.58989448207E+03  0.16663506992E+04  0.12699999809E+01 0. -1.
</event>
<event>
 5   0  0.5515000E-08  0.4090131E+04  0.7818609E-02  0.7986607E-01
        1   -1    0    0  501    0  0.00000000000E+00  0.00000000000E+00  0.25898996454E+04  0.25898996455E+04  0.50400001928E-02 0.  1.
       -1   -1    0    0    0  501  0.00000000000E+00  0.00000000000E+00 -0.16148474888E+04  0.16148474888E+04  0.50400001928E-02 0. -1.
    10030    2    1    2    0    0  0.00000000000E+00  0.00000000000E+00  0.97505215662E+03  0.42047471343E+04  0.40901310193E+04 0.  0.
        1    1    3    3  502    0  0.16662632657E+04 -0.11830061376E+04  0.40556651737E+03  0.20833677045E+04  0.50400001928E-02 0.  1.
       -1    1    3    3    0  502 -0.16662632657E+04  0.11830061376E+04  0.56948563925E+03  0.21213794298E+04  0.50400001928E-02 0. -1.
</event>
<event>
 5   0  0.1821433E-07  0.3996821E+04  0.7818609E-02  0.8005188E-01
       -2   -1    0    0    0  501  0.00000000000E+00  0.00000000000E+00  0.25728286477E+04  0.25728286477E+04  0.25500000920E-02 0. -1.
        2   -1    0    0  501    0  0.00000000000E+00  0.00000000000E+00 -0.15522389438E+04  0.15522389438E+04  0.25500000920E-02 0.  1.
    10030    2    1    2    0    0  0.00000000000E+00  0.00000000000E+00  0.10205897039E+04  0.41250675915E+04  0.39968211482E+04 0.  0.
        5    1    3    3  502    0  0.16721111097E+02  0.10969653237E+04 -0.12136336547E+04  0.16360138309E+04  0.46999998093E+01 0.  1.
       -5    1    3    3    0  502 -0.16721111097E+02 -0.10969653237E+04  0.22342233586E+04  0.24890537606E+04  0.46999998093E+01 0. -1.
</event>
<event>
 5   0  0.1819906E-07  0.3999456E+04  0.7818609E-02  0.8004656E-01
       -2   -1    0    0    0  501  0.00000000000E+00  0.00000000000E+00  0.19548598407E+04  0.19548598407E+04  0.25500000920E-02 0. -1.
        2   -1    0    0  501    0  0.00000000000E+00  0.00000000000E+00 -0.20456257116E+04  0.20456257116E+04  0.25500000920E-02 0.  1.
    10030    2    1    2    0    0  0.00000000000E+00  0.00000000000E+00 -0.90765870879E+02  0.40004855523E+04  0.39994557393E+04 0.  0.
        1    1    3    3  502    0 -0.13191919280E+03  0.57362440544E+03  0.18662512074E+04  0.19568702566E+04  0.50400001928E-02 0. -1.
       -1    1    3    3    0  502  0.13191919280E+03 -0.57362440544E+03 -0.19570170783E+04  0.20436152957E+04  0.50400001928E-02 0.  1.
</event>
<event>
 5   0  0.1819906E-07  0.4011138E+04  0.7818609E-02  0.8002303E-01
       -2   -1    0    0    0  501  0.00000000000E+00  0.00000000000E+00  0.13428058909E+04  0.13428058909E+04  0.25500000920E-02 0. -1.
        2   -1    0    0  501    0  0.00000000000E+00  0.00000000000E+00 -0.29954488715E+04  0.29954488715E+04  0.25500000920E-02 0.  1.
    10030    2    1    2    0    0  0.00000000000E+00  0.00000000000E+00 -0.16526429805E+04  0.43382547624E+04  0.40111376893E+04 0.  0.
        1    1    3    3  502    0  0.18385477366E+03  0.11297739653E+04 -0.26074756127E+04  0.28476518153E+04  0.50400001928E-02 0.  1.
       -1    1    3    3    0  502 -0.18385477366E+03 -0.11297739653E+04  0.95483263219E+03  0.14906029471E+04  0.50400001928E-02 0. -1.
</event>
<event>
 5   0  0.1819906E-07  0.4008098E+04  0.7818609E-02  0.8002915E-01
        2   -1    0    0  501    0  0.00000000000E+00  0.00000000000E+00  0.27362729573E+04  0.27362729573E+04  0.25500000920E-02 0.  1.
       -2   -1    0    0    0  501  0.00000000000E+00  0.00000000000E+00 -0.14677673667E+04  0.14677673667E+04  0.25500000920E-02 0. -1.
    10030    2    1    2    0    0  0.00000000000E+00  0.00000000000E+00  0.12685055906E+04  0.42040403239E+04  0.40080978795E+04 0.  0.
        1    1    3    3  502    0 -0.11367917421E+04 -0.14449091781E+04  0.14708371500E+04  0.23544468394E+04  0.50400001928E-02 0.  1.
       -1    1    3    3    0  502  0.11367917421E+04  0.14449091781E+04 -0.20233155943E+03  0.18495934845E+04  0.50400001928E-02 0. -1.
</event>
<event>
 5   0  0.5515000E-08  0.4050484E+04  0.7818609E-02  0.7994439E-01
        1   -1    0    0  501    0  0.00000000000E+00  0.00000000000E+00  0.25939665514E+04  0.25939665514E+04  0.50400001928E-02 0.  1.
       -1   -1    0    0    0  501  0.00000000000E+00  0.00000000000E+00 -0.15812098279E+04  0.15812098279E+04  0.50400001928E-02 0. -1.
    10030    2    1    2    0    0  0.00000000000E+00  0.00000000000E+00  0.10127567236E+04  0.41751763793E+04  0.40504841214E+04 0.  0.
        2    1    3    3  502    0 -0.90134787045E+03 -0.16059697745E+04  0.13749563979E+04  0.22982758747E+04  0.25500000920E-02 0.  1.
       -2    1    3    3    0  502  0.90134787045E+03  0.16059697745E+04 -0.36219967436E+03  0.18769005046E+04  0.25500000920E-02 0. -1.
</event>
<event>
 5   0  0.5515000E-08  0.3883625E+04  0.7818609E-02  0.8028444E-01
        3   -1    0    0  501    0  0.00000000000E+00  0.00000000000E+00  0.27370425904E+04  0.27370425923E+04  0.10100000352E+00 0.  1.
       -3   -1    0    0    0  501  0.00000000000E+00  0.00000000000E+00 -0.13776310354E+04  0.13776310391E+04  0.10100000352E+00 0. -1.
    10030    2    1    2    0    0  0.00000000000E+00  0.00000000000E+00  0.13594115550E+04  0.41146736313E+04  0.38836245077E+04 0.  0.
        5    1    3    3  502    0  0.11772635857E+04  0.14004445144E+04 -0.97128265181E+01  0.18295657455E+04  0.46999998093E+01 0.  1.
       -5    1    3    3    0  502 -0.11772635857E+04 -0.14004445144E+04  0.13691243815E+04  0.22851078859E+04  0.46999998093E+01 0. -1.
</event>
<event>
 5   0  0.1821433E-07  0.4105797E+04  0.7818609E-02  0.7983538E-01
       -2   -1    0    0    0  501  0.00000000000E+00  0.00000000000E+00  0.21354076137E+04  0.21354076137E+04  0.25500000920E-02 0. -1.
        2   -1    0    0  501    0  0.00000000000E+00  0.00000000000E+00 -0.19735774886E+04  0.19735774886E+04  0.25500000920E-02 0.  1.
    10030    2    1    2    0    0  0.00000000000E+00  0.00000000000E+00  0.16183012507E+03  0.41089851023E+04  0.41057970702E+04 0.  0.
        5    1    3    3  502    0 -0.18815017632E+04  0.30835301927E+03  0.84258409246E+03  0.20844904682E+04  0.46999998093E+01 0. -1.
       -5    1    3    3    0  502  0.18815017632E+04 -0.30835301927E+03 -0.68075396739E+03  0.20244946341E+04  0.46999998093E+01 0.  1.
</event>
<event>
 5   0  0.5515000E-08  0.4008799E+04  0.7818609E-02  0.8002774E-01
        1   -1    0    0  501    0  0.00000000000E+00  0.00000000000E+00  0.15599042739E+04  0.15599042739E+04  0.50400001928E-02 0.  1.
       -1   -1    0    0    0  501  0.00000000000E+00  0.00000000000E+00 -0.25755540626E+04  0.25755540626E+04  0.50400001928E-02 0. -1.
    10030    2    1    2    0    0  0.00000000000E+00  0.00000000000E+00 -0.10156497887E+04  0.41354583365E+04  0.40087992166E+04 0.  0.
        4    1    3    3  502    0 -0.71738988615E+03  0.91277512313E+03  0.11777555427E+04  0.16537582669E+04  0.12699999809E+01 0.  1.
       -4    1    3    3    0  502  0.71738988615E+03 -0.91277512313E+03 -0.21934053314E+04  0.24817000695E+04  0.12699999809E+01 0. -1.
</event>
<event>
 5   0  0.1785559E-07  0.3649744E+04  0.7818609E-02  0.8079191E-01
        2   -1    0    0  501    0  0.00000000000E+00  0.00000000000E+00  0.97411015675E+03  0.97411015675E+03  0.25500000920E-02 0. -1.
       -2   -1    0    0    0  501  0.00000000000E+00  0.00000000000E+00 -0.34186670182E+04  0.34186670182E+04  0.25500000920E-02 0.  1.
    10030    2    1    2    0    0  0.00000000000E+00  0.00000000000E+00 -0.24445568615E+04  0.43927771750E+04  0.36497442458E+04 0.  0.
        2    1    3    3  502    0  0.15945733166E+04 -0.22301523417E+03 -0.22560719982E+04  0.27716891452E+04  0.25500000920E-02 0.  1.
       -2    1    3    3    0  502 -0.15945733166E+04  0.22301523417E+03 -0.18848486328E+03  0.16210880298E+04  0.25500000920E-02 0. -1.
</event>
<event>
 5   0  0.5515000E-08  0.3975225E+04  0.7818609E-02  0.8009563E-01
        1   -1    0    0  501    0  0.00000000000E+00  0.00000000000E+00  0.20470221597E+04  0.20470221597E+04  0.50400001928E-02 0.  1.
       -1   -1    0    0    0  501  0.00000000000E+00  0.00000000000E+00 -0.19299273691E+04  0.19299273691E+04  0.50400001928E-02 0. -1.
    10030    2    1    2    0    0  0.00000000000E+00  0.00000000000E+00  0.11709479061E+03  0.39769495288E+04  0.39752253225E+04 0.  0.
        1    1    3    3  502    0  0.29730834348E+03 -0.18419102733E+04  0.74410251450E+03  0.20086598164E+04  0.50400001928E-02 0.  1.
       -1    1    3    3    0  502 -0.29730834348E+03  0.18419102733E+04 -0.62700772389E+03  0.19682897124E+04  0.50400001928E-02 0. -1.
</event>
<event>
 5   0  0.1773903E-07  0.3812017E+04  0.7818609E-02  0.8043581E-01
        2   -1    0    0  501    0  0.00000000000E+00  0.00000000000E+00  0.21244075212E+04  0.21244075212E+04  0.25500000920E-02 0. -1.
       -2   -1    0    0    0  501  0.00000000000E+00  0.00000000000E+00 -0.17100621773E+04  0.17100621773E+04  0.25500000920E-02 0.  1.
    10030    2    1    2    0    0  0.00000000000E+00  0.00000000000E+00  0.41434534386E+03  0.38344696985E+04  0.38120172881E+04 0.  0.
        3    1    3    3  502    0  0.16480671760E+04 -0.75681324000E+03 -0.38277746330E+03  0.18534859841E+04  0.10100000352E+00 0.  1.
       -3    1    3    3    0  502 -0.16480671760E+04  0.75681324000E+03  0.79712280716E+03  0.19809837144E+04  0.10100000352E+00 0. -1.
</event>
<event>
 5   0  0.1821433E-07  0.3936008E+04  0.7818609E-02  0.8017582E-01
       -2   -1    0    0    0  501  0.00000000000E+00  0.00000000000E+00  0.14137547674E+04  0.14137547674E+04  0.25500000920E-02 0.  1.
        2   -1    0    0  501    0  0.00000000000E+00  0.00000000000E+00 -0.27395420981E+04  0.27395420981E+04  0.25500000920E-02 0. -1.
    10030    2    1    2    0    0  0.00000000000E+00  0.00000000000E+00 -0.13257873307E+04  0.41532968655E+04  0.39360084866E+04 0.  0.
        5    1    3    3  502    0  0.16910970472E+04  0.44494630183E+03  0.28985336673E+03  0.17725189700E+04  0.46999998093E+01 0.  1.
       -5    1    3    3    0  502 -0.16910970472E+04 -0.44494630183E+03 -0.16156406974E+04  0.23807778956E+04  0.46999998093E+01 0. -1.
</event>
<event>
 5   0  0.5515000E-08  0.3641074E+04  0.7818609E-02  0.8081148E-01
       -1   -1    0    0    0  501  0.00000000000E+00  0.00000000000E+00  0.12937129384E+04  0.12937129384E+04  0.50400001928E-02 0.  1.
        1   -1    0    0  501    0  0.00000000000E+00  0.00000000000E+00 -0.25618933549E+04  0.25618933549E+04  0.50400001928E-02 0. -1.
    10030    2    1    2    0    0  0.00000000000E+00  0.00000000000E+00 -0.12681804165E+04  0.38556062933E+04  0.36410737867E+04 0.  0.
        3    1    3    3  502    0 -0.36078180410E+03 -0.13150858326E+04 -0.19112814666E+04  0.23478950385E+04  0.10100000352E+00 0. -1.
       -3    1    3    3    0  502  0.36078180410E+03  0.13150858326E+04  0.64310105007E+03  0.15077112548E+04  0.10100000352E+00 0.  1.
</event>
<event>
 5   0  0.5515000E-08  0.3975045E+04  0.7818609E-02  0.8009600E-01
        1   -1    0    0  501    0  0.00000000000E+00  0.00000000000E+00  0.17352512635E+04  0.17352512635E+04  0.50400001928E-02 0. -1.
       -1   -1    0    0    0  501  0.00000000000E+00  0.00000000000E+00 -0.22764685191E+04  0.22764685191E+04  0.50400001928E-02 0.  1.
    10030    2    1    2    0    0  0.00000000000E+00  0.00000000000E+00 -0.54121725560E+03  0.40117197826E+04  0.39750445905E+04 0.  0.
        1    1    3    3  502    0 -0.83612316489E+02 -0.92623928928E+03  0.15021096495E+04  0.17667041743E+04  0.50400001928E-02 0. -1.
       -1    1    3    3    0  502  0.83612316489E+02  0.92623928928E+03 -0.20433269051E+04  0.22450156083E+04  0.50400001928E-02 0.  1.
</event>
<event>
 5   0  0.5515000E-08  0.4027608E+04  0.7818609E-02  0.7999000E-01
       -1   -1    0    0    0  501  0.00000000000E+00  0.00000000000E+00  0.16408388662E+04  0.16408388662E+04  0.50400001928E-02 0.  1.
        1   -1    0    0  501    0  0.00000000000E+00  0.00000000000E+00 -0.24715449347E+04  0.24715449347E+04  0.50400001928E-02 0. -1.
    10030    2    1    2    0    0  0.00000000000E+00  0.00000000000E+00 -0.83070606850E+03  0.41123838009E+04  0.40276082175E+04 0.  0.
        5    1    3    3  502    0 -0.59524312974E+03 -0.10603279665E+04 -0.20543746479E+04  0.23872760762E+04  0.46999998093E+01 0. -1.
       -5    1    3    3    0  502  0.59524312974E+03  0.10603279665E+04  0.12236685794E+04  0.17251077248E+04  0.46999998093E+01 0.  1.
</event>
<event>
 5   0  0.1821433E-07  0.3980669E+04  0.7818609E-02  0.8008458E-01
       -2   -1    0    0    0  501  0.00000000000E+00  0.00000000000E+00  0.12355823717E+04  0.12355823717E+04  0.25500000920E-02 0. -1.
        2   -1    0    0  501    0  0.00000000000E+00  0.00000000000E+00 -0.32061247149E+04  0.32061247149E+04  0.25500000920E-02 0.  1.
    10030    2    1    2    0    0  0.00000000000E+00  0.00000000000E+00 -0.19705423432E+04  0.44417070865E+04  0.39806688780E+04 0.  0.
        5    1    3    3  502    0  0.10174988537E+04 -0.57106992290E+03 -0.27844702738E+04  0.30190597162E+04  0.46999998093E+01 0.  1.
       -5    1    3    3    0  502 -0.10174988537E+04  0.57106992290E+03  0.81392793059E+03  0.14226473704E+04  0.46999998093E+01 0. -1.
</event>
<event>
 5   0  0.1821433E-07  0.3941512E+04  0.7818609E-02  0.8016451E-01
       -2   -1    0    0    0  501  0.00000000000E+00  0.00000000000E+00  0.19994399780E+04  0.19994399780E+04  0.25500000920E-02 0.  1.
        2   -1    0    0  501    0  0.00000000000E+00  0.00000000000E+00 -0.19424832166E+04  0.19424832166E+04  0.25500000920E-02 0. -1.
    10030    2    1    2    0    0  0.00000000000E+00  0.00000000000E+00  0.56956761319E+02  0.39419231946E+04  0.39415116896E+04 0.  0.
        5    1    3    3  502    0 -0.13707515456E+04  0.56031743275E+03  0.13289760474E+04  0.19897524594E+04  0.46999998093E+01 0.  1.
       -5    1    3    3    0  502  0.13707515456E+04 -0.56031743275E+03 -0.12720192861E+04  0.19521707352E+04  0.46999998093E+01 0. -1.
</event>
<event>
 5   0  0.1773903E-07  0.4053812E+04  0.7818609E-02  0.7993778E-01
       -2   -1    0    0    0  501  0.00000000000E+00  0.00000000000E+00  0.25679342990E+04  0.25679342990E+04  0.25500000920E-02 0. -1.
        2   -1    0    0  501    0  0.00000000000E+00  0.00000000000E+00 -0.15998649256E+04  0.15998649256E+04  0.25500000920E-02 0.  1.
    10030    2    1    2    0    0  0.00000000000E+00  0.00000000000E+00  0.96806937342E+03  0.41677992246E+04  0.40538120412E+04 0.  0.
        3    1    3    3  502    0  0.97769602221E+03 -0.17735859121E+04  0.56913599283E+03  0.21036663918E+04  0.10100000352E+00 0.  1.
       -3    1    3    3    0  502 -0.97769602221E+03  0.17735859121E+04  0.39893338059E+03  0.20641328329E+04  0.10100000352E+00 0. -1.
</event>
<event>
 5   0  0.1821433E-07  0.3934086E+04  0.7818609E-02  0.8017977E-01
        2   -1    0    0  501    0  0.00000000000E+00  0.00000000000E+00  0.24208502317E+04  0.24208502317E+04  0.25500000920E-02 0.  1.
       -2   -1    0    0    0  501  0.00000000000E+00  0.00000000000E+00 -0.15983053810E+04  0.15983053810E+04  0.25500000920E-02 0. -1.
    10030    2    1    2    0    0  0.00000000000E+00  0.00000000000E+00  0.82254485063E+03  0.40191556127E+04  0.39340858923E+04 0.  0.
        5    1    3    3  502    0 -0.97507319666E+03  0.16373801977E+04 -0.86557411484E+02  0.19076938764E+04  0.46999998093E+01 0. -1.
       -5    1    3    3    0  502  0.97507319666E+03 -0.16373801977E+04  0.90910226211E+03  0.21114617363E+04  0.46999998093E+01 0.  1.
</event>
<event>
 5   0  0.5515000E-08  0.4050111E+04  0.7818609E-02  0.7994513E-01
       -1   -1    0    0    0  501  0.00000000000E+00  0.00000000000E+00  0.14351801340E+04  0.14351801340E+04  0.50400001928E-02 0.  1.
        1   -1    0    0  501    0  0.00000000000E+00  0.00000000000E+00 -0.28573766096E+04  0.28573766097E+04  0.50400001928E-02 0. -1.
    10030    2    1    2    0    0  0.00000000000E+00  0.00000000000E+00 -0.14221964756E+04  0.42925567437E+04  0.40501111815E+04 0.  0.
        2    1    3    3  502    0  0.19746510945E+04 -0.40142769965E+03 -0.49791321791E+03  0.20756465778E+04  0.25500000920E-02 0. -1.
       -2    1    3    3    0  502 -0.19746510945E+04  0.40142769965E+03 -0.92428325772E+03  0.22169101659E+04  0.25500000920E-02 0.  1.
</event>
<event>
 5   0  0.1773903E-07  0.4013577E+04  0.7818609E-02  0.8001813E-01
       -2   -1    0    0    0  501  0.00000000000E+00  0.00000000000E+00  0.15209179755E+04  0.15209179755E+04  0.25500000920E-02 0. -1.
        2   -1    0    0  501    0  0.00000000000E+00  0.00000000000E+00 -0.26478739959E+04  0.26478739959E+04  0.25500000920E-02 0.  1.
    10030    2    1    2    0    0  0.00000000000E+00  0.00000000000E+00 -0.11269560204E+04  0.41687919715E+04  0.40135765384E+04 0.  0.
        3    1    3    3  502    0 -0.12337713717E+04 -0.92539939905E+03 -0.18971284903E+04  0.24449237952E+04  0.10100000352E+00 0.  1.
       -3    1    3    3    0  502  0.12337713717E+04  0.92539939905E+03  0.77017246996E+03  0.17238681762E+04  0.10100000352E+00 0. -1.
</event>
<event>
 5   0  0.1776653E-07  0.4011806E+04  0.7818609E-02  0.8002169E-01
        2   -1    0    0  501    0  0.00000000000E+00  0.00000000000E+00  0.23066547967E+04  0.23066547967E+04  0.25500000920E-02 0.  1.
       -2   -1    0    0    0  501  0.00000000000E+00  0.00000000000E+00 -0.17443649277E+04  0.17443649277E+04  0.25500000920E-02 0. -1.
    10030    2    1    2    0    0  0.00000000000E+00  0.00000000000E+00  0.56228986902E+03  0.40510197244E+04  0.40118064399E+04 0.  0.
        4    1    3    3  502    0 -0.18234972522E+04  0.14170516970E+03  0.11128605166E+04  0.21409536955E+04  0.12699999809E+01 0. -1.
       -4    1    3    3    0  502  0.18234972522E+04 -0.14170516970E+03 -0.55057064760E+03  0.19100660289E+04  0.12699999809E+01 0.  1.
</event>
<event>
 5   0  0.1773903E-07  0.3989071E+04  0.7818609E-02  0.8006755E-01
       -2   -1    0    0    0  501  0.00000000000E+00  0.00000000000E+00  0.13712798944E+04  0.13712798944E+04  0.25500000920E-02 0. -1.
        2   -1    0    0  501    0  0.00000000000E+00  0.00000000000E+00 -0.29010647512E+04  0.29010647512E+04  0.25500000920E-02 0.  1.
    10030    2    1    2    0    0  0.00000000000E+00  0.00000000000E+00 -0.15297848568E+04  0.42723446456E+04  0.39890709523E+04 0.  0.
        3    1    3    3  502    0 -0.32295853759E+03  0.19622905936E+04 -0.60146152709E+03  0.20776531399E+04  0.10100000352E+00 0.  1.
       -3    1    3    3    0  502  0.32295853759E+03 -0.19622905936E+04 -0.92832332969E+03  0.21946915058E+04  0.10100000352E+00 0. -1.
</event>
<event>
 5   0  0.5515000E-08  0.3965377E+04  0.7818609E-02  0.8011568E-01
        1   -1    0    0  501    0  0.00000000000E+00  0.00000000000E+00  0.14196030076E+04  0.14196030076E+04  0.50400001928E-02 0. -1.
       -1   -1    0    0    0  501  0.00000000000E+00  0.00000000000E+00 -0.27691223079E+04  0.27691223079E+04  0.50400001928E-02 0.  1.
    10030    2    1    2    0    0  0.00000000000E+00  0.00000000000E+00 -0.13495193002E+04  0.41887253155E+04  0.39653773373E+04 0.  0.
        2    1    3    3  502    0  0.36633468877E+03 -0.73371665868E+03  0.12320489329E+04  0.14800289904E+04  0.25500000920E-02 0. -1.
       -2    1    3    3    0  502 -0.36633468877E+03  0.73371665868E+03 -0.25815682331E+04  0.27086963251E+04  0.25500000920E-02 0.  1.
</event>
<event>
 5   0  0.1785559E-07  0.3990197E+04  0.7818609E-02  0.8006527E-01
       -2   -1    0    0    0  501  0.00000000000E+00  0.00000000000E+00  0.18861572805E+04  0.18861572805E+04  0.25500000920E-02 0.  1.
        2   -1    0    0  501    0  0.00000000000E+00  0.00000000000E+00 -0.21103315173E+04  0.21103315173E+04  0.25500000920E-02 0. -1.
    10030    2    1    2    0    0  0.00000000000E+00  0.00000000000E+00 -0.22417423682E+03  0.39964887978E+04  0.39901965644E+04 0.  0.
        2    1    3    3  502    0 -0.13380044678E+04 -0.21254987388E+03  0.13547987101E+04  0.19159626692E+04  0.25500000920E-02 0.  1.
       -2    1    3    3    0  502  0.13380044678E+04  0.21254987388E+03 -0.15789729470E+04  0.20805261286E+04  0.25500000920E-02 0. -1.
</event>
<event>
 5   0  0.5515000E-08  0.4003934E+04  0.7818609E-02  0.8003753E-01
       -1   -1    0    0    0  501  0.00000000000E+00  0.00000000000E+00  0.29404956864E+04  0.29404956864E+04  0.50400001928E-02 0. -1.
        1   -1    0    0  501    0  0.00000000000E+00  0.00000000000E+00 -0.13629921862E+04  0.13629921862E+04  0.50400001928E-02 0.  1.
    10030    2    1    2    0    0  0.00000000000E+00  0.00000000000E+00  0.15775035001E+04  0.43034878726E+04  0.40039343871E+04 0.  0.
        4    1    3    3  502    0  0.67323936942E+03  0.81845188737E+03 -0.10367749779E+04  0.14825716537E+04  0.12699999809E+01 0.  1.
       -4    1    3    3    0  502 -0.67323936942E+03 -0.81845188737E+03  0.26142784781E+04  0.28209162189E+04  0.12699999809E+01 0. -1.
</event>
<event>
 5   0  0.5515000E-08  0.4032078E+04  0.7818609E-02  0.7998106E-01
       -1   -1    0    0    0  501  0.00000000000E+00  0.00000000000E+00  0.27997729840E+04  0.27997729840E+04  0.50400001928E-02 0.  1.
        1   -1    0    0  501    0  0.00000000000E+00  0.00000000000E+00 -0.14516941881E+04  0.14516941881E+04  0.50400001928E-02 0. -1.
    10030    2    1    2    0    0  0.00000000000E+00  0.00000000000E+00  0.13480787959E+04  0.42514671722E+04  0.40320784561E+04 0.  0.
        4    1    3    3  502    0  0.14324003833E+04  0.14125386479E+04  0.81303084826E+03  0.21698057662E+04  0.12699999809E+01 0.  1.
       -4    1    3    3    0  502 -0.14324003833E+04 -0.14125386479E+04  0.53504794763E+03  0.20816614060E+04  0.12699999809E+01 0. -1.
</event>
<event>
 5   0  0.1776653E-07  0.3992545E+04  0.7818609E-02  0.8006052E-01
        2   -1    0    0  501    0  0.00000000000E+00  0.00000000000E+00  0.20247348799E+04  0.20247348800E+04  0.25500000920E-02 0. -1.
       -2   -1    0    0    0  501  0.00000000000E+00  0.00000000000E+00 -0.19682099642E+04  0.19682099642E+04  0.25500000920E-02 0.  1.
    10030    2    1    2    0    0  0.00000000000E+00  0.00000000000E+00  0.56524915778E+02  0.39929448441E+04  0.39925447351E+04 0.  0.
        4    1    3    3  502    0 -0.17139714992E+03  0.18492234550E+04  0.76052254650E+03  0.20068384405E+04  0.12699999809E+01 0.  1.
       -4    1    3    3    0  502  0.17139714992E+03 -0.18492234550E+04 -0.70399763072E+03  0.19861064036E+04  0.12699999809E+01 0. -1.
</event>
<event>
 5   0  0.5515000E-08  0.3878269E+04  0.7818609E-02  0.8029564E-01
       -1   -1    0    0    0  501  0.00000000000E+00  0.00000000000E+00  0.18024262197E+04  0.18024262197E+04  0.50400001928E-02 0. -1.
        1   -1    0    0  501    0  0.00000000000E+00  0.00000000000E+00 -0.20862121244E+04  0.20862121244E+04  0.50400001928E-02 0.  1.
    10030    2    1    2    0    0  0.00000000000E+00  0.00000000000E+00 -0.28378590469E+03  0.38886383442E+04  0.38782694249E+04 0.  0.
        5    1    3    3  502    0  0.22521659058E+03  0.95251987845E+03  0.15365612947E+04  0.18218285687E+04  0.46999998093E+01 0. -1.
       -5    1    3    3    0  502 -0.22521659058E+03 -0.95251987845E+03 -0.18203471994E+04  0.20668097754E+04  0.46999998093E+01 0.  1.
</event>
<event>
 5   0  0.5515000E-08  0.3991735E+04  0.7818609E-02  0.8006216E-01
        1   -1    0    0  501    0  0.00000000000E+00  0.00000000000E+00  0.24609977047E+04  0.24609977047E+04  0.50400001928E-02 0.  1.
       -1   -1    0    0    0  501  0.00000000000E+00  0.00000000000E+00 -0.16186469253E+04  0.16186469253E+04  0.50400001928E-02 0. -1.
    10030    2    1    2    0    0  0.00000000000E+00  0.00000000000E+00  0.84235077936E+03  0.40796446300E+04  0.39917346445E+04 0.  0.
        2    1    3    3  502    0 -0.12677719603E+04  0.24914129779E+03 -0.11335662460E+04  0.17188046904E+04  0.25500000920E-02 0. -1.
       -2    1    3    3    0  502  0.12677719603E+04 -0.24914129779E+03  0.19759170254E+04  0.23608399397E+04  0.25500000920E-02 0.  1.
</event>
<event>
 5   0  0.1773903E-07  0.4016863E+04  0.7818609E-02  0.8001153E-01
       -2   -1    0    0    0  501  0.00000000000E+00  0.00000000000E+00  0.16702131861E+04  0.16702131861E+04  0.25500000920E-02 0.  1.
        2   -1    0    0  501    0  0.00000000000E+00  0.00000000000E+00 -0.24151390511E+04  0.24151390511E+04  0.25500000920E-02 0. -1.
    10030    2    1    2    0    0  0.00000000000E+00  0.00000000000E+00 -0.74492586494E+03  0.40853522372E+04  0.40168629996E+04 0.  0.
        3    1    3    3  502    0 -0.18347514101E+04  0.80590878755E+03 -0.50889701042E+03  0.20675535998E+04  0.10100000352E+00 0. -1.
       -3    1    3    3    0  502  0.18347514101E+04 -0.80590878755E+03 -0.23602885452E+03  0.20177986374E+04  0.10100000352E+00 0.  1.
</event>
<event>
 5   0  0.1773903E-07  0.3563945E+04  0.7818609E-02  0.8098801E-01
       -2   -1    0    0    0  501  0.00000000000E+00  0.00000000000E+00  0.13744847281E+04  0.13744847281E+04  0.25500000920E-02 0.  1.
        2   -1    0    0  501    0  0.00000000000E+00  0.00000000000E+00 -0.23102659661E+04  0.23102659661E+04  0.25500000920E-02 0. -1.
    10030    2    1    2    0    0  0.00000000000E+00  0.00000000000E+00 -0.93578123803E+03  0.36847506942E+04  0.35639446058E+04 0.  0.
        3    1    3    3  502    0 -0.10133593925E+04 -0.51844568201E+03  0.94961992379E+03  0.14823836188E+04  0.10100000352E+00 0.  1.
       -3    1    3    3    0  502  0.10133593925E+04  0.51844568201E+03 -0.18854011618E+04  0.22023670754E+04  0.10100000352E+00 0. -1.
</event>
<event>
 5   0  0.1776653E-07  0.4063533E+04  0.7818609E-02  0.7991851E-01
       -2   -1    0    0    0  501  0.00000000000E+00  0.00000000000E+00  0.15989201810E+04  0.15989201811E+04  0.25500000920E-02 0.  1.
        2   -1    0    0  501    0  0.00000000000E+00  0.00000000000E+00 -0.25817899679E+04  0.25817899679E+04  0.25500000920E-02 0. -1.
    10030    2    1    2    0    0  0.00000000000E+00  0.00000000000E+00 -0.98286978686E+03  0.41807101490E+04  0.40635334786E+04 0.  0.
        4    1    3    3  502    0 -0.91200036644E+03  0.77402386222E+03  0.11982438851E+04  0.16931177244E+04  0.12699999809E+01 0.  1.
       -4    1    3    3    0  502  0.91200036644E+03 -0.77402386222E+03 -0.21811136720E+04  0.24875924245E+04  0.12699999809E+01 0. -1.
</event>
<event>
 5   0  0.5515000E-08  0.3790518E+04  0.7818609E-02  0.8048193E-01
       -1   -1    0    0    0  501  0.00000000000E+00  0.00000000000E+00  0.16887171480E+04  0.16887171480E+04  0.50400001928E-02 0. -1.
        1   -1    0    0  501    0  0.00000000000E+00  0.00000000000E+00 -0.21270624826E+04  0.21270624826E+04  0.50400001928E-02 0.  1.
    10030    2    1    2    0    0  0.00000000000E+00  0.00000000000E+00 -0.43834533458E+03  0.38157796305E+04  0.37905181119E+04 0.  0.
        1    1    3    3  502    0 -0.59854418570E+03 -0.97704786483E+03  0.13005669445E+04  0.17333066807E+04  0.50400001928E-02 0. -1.
       -1    1    3    3    0  502  0.59854418570E+03  0.97704786483E+03 -0.17389122790E+04  0.20824729498E+04  0.50400001928E-02 0.  1.
</event>
<event>
 5   0  0.1776653E-07  0.3949934E+04  0.7818609E-02  0.8014723E-01
        2   -1    0    0  501    0  0.00000000000E+00  0.00000000000E+00  0.13839615872E+04  0.13839615872E+04  0.25500000920E-02 0.  1.
       -2   -1    0    0    0  501  0.00000000000E+00  0.00000000000E+00 -0.28183540295E+04  0.28183540295E+04  0.25500000920E-02 0. -1.
    10030    2    1    2    0    0  0.00000000000E+00  0.00000000000E+00 -0.14343924424E+04  0.42023156167E+04  0.39499335265E+04 0.  0.
        4    1    3    3  502    0 -0.96341772760E+02  0.17051055982E+04 -0.17724523078E+04  0.24613523995E+04  0.12699999809E+01 0. -1.
       -4    1    3    3    0  502  0.96341772760E+02 -0.17051055982E+04  0.33805986544E+03  0.17409632172E+04  0.12699999809E+01 0.  1.
</event>
<event>
 5   0  0.5515000E-08  0.3898267E+04  0.7818609E-02  0.8025390E-01
       -1   -1    0    0    0  501  0.00000000000E+00  0.00000000000E+00  0.16887270315E+04  0.16887270315E+04  0.50400001928E-02 0. -1.
        1   -1    0    0  501    0  0.00000000000E+00  0.00000000000E+00 -0.22496949448E+04  0.22496949448E+04  0.50400001928E-02 0.  1.
    10030    2    1    2    0    0  0.00000000000E+00  0.00000000000E+00 -0.56096791333E+03  0.39384219762E+04  0.38982666229E+04 0.  0.
        3    1    3    3  502    0 -0.15975085954E+04  0.75756767793E+03 -0.11094098659E+04  0.20872787930E+04  0.10100000352E+00 0.  1.
       -3    1    3    3    0  502  0.15975085954E+04 -0.75756767793E+03  0.54844195258E+03  0.18511431832E+04  0.10100000352E+00 0. -1.
</event>
<event>
 5   0  0.1773903E-07  0.3906388E+04  0.7818609E-02  0.8023702E-01
       -2   -1    0    0    0  501  0.00000000000E+00  0.00000000000E+00  0.36110473549E+04  0.36110473549E+04  0.25500000920E-02 0. -1.
        2   -1    0    0  501    0  0.00000000000E+00  0.00000000000E+00 -0.10564710937E+04  0.10564710937E+04  0.25500000920E-02 0.  1.
    10030    2    1    2    0    0  0.00000000000E+00  0.00000000000E+00  0.25545762612E+04  0.46675184486E+04  0.39063881775E+04 0.  0.
        3    1    3    3  502    0  0.16434827547E+04 -0.86596957600E+03  0.19981934001E+04  0.27283173837E+04  0.10100000352E+00 0. -1.
       -3    1    3    3    0  502 -0.16434827547E+04  0.86596957600E+03  0.55638286106E+03  0.19392010649E+04  0.10100000352E+00 0.  1.
</event>
<event>
 5   0  0.1773903E-07  0.3988553E+04  0.7818609E-02  0.8006860E-01
        2   -1    0    0  501    0  0.00000000000E+00  0.00000000000E+00  0.13501483476E+04  0.13501483476E+04  0.25500000920E-02 0.  1.
       -2   -1    0    0    0  501  0.00000000000E+00  0.00000000000E+00 -0.29457050238E+04  0.29457050238E+04  0.25500000920E-02 0. -1.
    10030    2    1    2    0    0  0.00000000000E+00  0.00000000000E+00 -0.15955566762E+04  0.42958533715E+04  0.39885530061E+04 0.  0.
        3    1    3    3  502    0  0.86161179338E+03  0.73246134258E+03  0.97141918132E+03  0.14908151250E+04  0.10100000352E+00 0.  1.
       -3    1    3    3    0  502 -0.86161179338E+03 -0.73246134258E+03 -0.25669758575E+04  0.28050382465E+04  0.10100000352E+00 0. -1.
</event>
<event>
 5   0  0.5515000E-08  0.3960277E+04  0.7818609E-02  0.8012608E-01
       -1   -1    0    0    0  501  0.00000000000E+00  0.00000000000E+00  0.17753151391E+04  0.17753151391E+04  0.50400001928E-02 0.  1.
        1   -1    0    0  501    0  0.00000000000E+00  0.00000000000E+00 -0.22085926005E+04  0.22085926005E+04  0.50400001928E-02 0. -1.
    10030    2    1    2    0    0  0.00000000000E+00  0.00000000000E+00 -0.43327746139E+03  0.39839077396E+04  0.39602766973E+04 0.  0.
        1    1    3    3  502    0  0.30029368546E+03  0.19100394087E+04 -0.64641280031E+03  0.20386947659E+04  0.50400001928E-02 0. -1.
       -1    1    3    3    0  502 -0.30029368546E+03 -0.19100394087E+04  0.21313533892E+03  0.19452129737E+04  0.50400001928E-02 0.  1.
</event>
<event>
 5   0  0.5515000E-08  0.3983792E+04  0.7818609E-02  0.8007824E-01
       -1   -1    0    0    0  501  0.00000000000E+00  0.00000000000E+00  0.17313585148E+04  0.17313585148E+04  0.50400001928E-02 0. -1.
        1   -1    0    0  501    0  0.00000000000E+00  0.00000000000E+00 -0.22916400834E+04  0.22916400834E+04  0.50400001928E-02 0.  1.
    10030    2    1    2    0    0  0.00000000000E+00  0.00000000000E+00 -0.56028156862E+03  0.40229985981E+04  0.39837924500E+04 0.  0.
        1    1    3    3  502    0 -0.14289651205E+04  0.13186191926E+04 -0.71677626674E+03  0.20723093657E+04  0.50400001928E-02 0.  1.
       -1    1    3    3    0  502  0.14289651205E+04 -0.13186191926E+04  0.15649469812E+03  0.19506892324E+04  0.50400001928E-02 0. -1.
</event>
<event>
 5   0  0.1819906E-07  0.4023214E+04  0.7818609E-02  0.7999880E-01
        2   -1    0    0  501    0  0.00000000000E+00  0.00000000000E+00  0.25638313742E+04  0.25638313742E+04  0.25500000920E-02 0.  1.
       -2   -1    0    0    0  501  0.00000000000E+00  0.00000000000E+00 -0.15783264377E+04  0.15783264377E+04  0.25500000920E-02 0. -1.
    10030    2    1    2    0    0  0.00000000000E+00  0.00000000000E+00  0.98550493650E+03  0.41421578120E+04  0.40232140583E+04 0.  0.
        1    1    3    3  502    0 -0.14691832475E+04 -0.24627359695E+03 -0.89903148548E+03  0.17399447437E+04  0.50400001928E-02 0. -1.
       -1    1    3    3    0  502  0.14691832475E+04  0.24627359695E+03  0.18845364220E+04  0.24022130682E+04  0.50400001928E-02 0.  1.
</event>
<event>
 5   0  0.5515000E-08  0.4005636E+04  0.7818609E-02  0.8003411E-01
        1   -1    0    0  501    0  0.00000000000E+00  0.00000000000E+00  0.37635179821E+04  0.37635179821E+04  0.50400001928E-02 0. -1.
       -1   -1    0    0    0  501  0.00000000000E+00  0.00000000000E+00 -0.10658326132E+04  0.10658326132E+04  0.50400001928E-02 0.  1.
    10030    2    1    2    0    0  0.00000000000E+00  0.00000000000E+00  0.26976853689E+04  0.48293505953E+04  0.40056361322E+04 0.  0.
        4    1    3    3  502    0  0.90639734953E+03  0.42808082696E+03 -0.74163541304E+03  0.12469298490E+04  0.12699999809E+01 0.  1.
       -4    1    3    3    0  502 -0.90639734953E+03 -0.42808082696E+03  0.34393207819E+04  0.35824207463E+04  0.12699999809E+01 0. -1.
</event>
<event>
 5   0  0.1821433E-07  0.3893361E+04  0.7818609E-02  0.8026411E-01
       -2   -1    0    0    0  501  0.00000000000E+00  0.00000000000E+00  0.14212420834E+04  0.14212420834E+04  0.25500000920E-02 0. -1.
        2   -1    0    0  501    0  0.00000000000E+00  0.00000000000E+00 -0.26663751345E+04  0.26663751345E+04  0.25500000920E-02 0.  1.
    10030    2    1    2    0    0  0.00000000000E+00  0.00000000000E+00 -0.12451330511E+04  0.40876172179E+04  0.38933607853E+04 0.  0.
        5    1    3    3  502    0 -0.10407567443E+04  0.73969509488E+03 -0.21653107131E+04  0.25137454144E+04  0.46999998093E+01 0.  1.
       -5    1    3    3    0  502  0.10407567443E+04 -0.73969509488E+03  0.92017766192E+03  0.15738718035E+04  0.46999998093E+01 0. -1.
</event>
<event>
 5   0  0.5515000E-08  0.4014614E+04  0.7818609E-02  0.8001605E-01
       -1   -1    0    0    0  501  0.00000000000E+00  0.00000000000E+00  0.16622865031E+04  0.16622865031E+04  0.50400001928E-02 0. -1.
        1   -1    0    0  501    0  0.00000000000E+00  0.00000000000E+00 -0.24239388521E+04  0.24239388521E+04  0.50400001928E-02 0.  1.
    10030    2    1    2    0    0  0.00000000000E+00  0.00000000000E+00 -0.76165234898E+03  0.40862253552E+04  0.40146137240E+04 0.  0.
        2    1    3    3  502    0 -0.27344158400E+03 -0.12688234382E+04 -0.19393473571E+04  0.23336133760E+04  0.25500000920E-02 0.  1.
       -2    1    3    3    0  502  0.27344158400E+03  0.12688234382E+04  0.11776950081E+04  0.17526119791E+04  0.25500000920E-02 0. -1.
</event>
<event>
 5   0  0.5515000E-08  0.3780818E+04  0.7818609E-02  0.8050284E-01
       -1   -1    0    0    0  501  0.00000000000E+00  0.00000000000E+00  0.25817791271E+04  0.25817791271E+04  0.50400001928E-02 0.  1.
        1   -1    0    0  501    0  0.00000000000E+00  0.00000000000E+00 -0.13841797566E+04  0.13841797566E+04  0.50400001928E-02 0. -1.
    10030    2    1    2    0    0  0.00000000000E+00  0.00000000000E+00  0.11975993705E+04  0.39659588838E+04  0.37808181146E+04 0.  0.
        5    1    3    3  502    0  0.10163863297E+04 -0.14421773415E+04 -0.11319235453E+03  0.17679794271E+04  0.46999998093E+01 0.  1.
       -5    1    3    3    0  502 -0.10163863297E+04  0.14421773415E+04  0.13107917250E+04  0.21979794567E+04  0.46999998093E+01 0. -1.
</event>
<event>
 5   0  0.5515000E-08  0.4015818E+04  0.7818609E-02  0.8001363E-01
        1   -1    0    0  501    0  0.00000000000E+00  0.00000000000E+00  0.26232257131E+04  0.26232257131E+04  0.50400001928E-02 0.  1.
       -1   -1    0    0    0  501  0.00000000000E+00  0.00000000000E+00 -0.15369242397E+04  0.15369242397E+04  0.50400001928E-02 0. -1.
    10030    2    1    2    0    0  0.00000000000E+00  0.00000000000E+00  0.10863014734E+04  0.41601499528E+04  0.40158183149E+04 0.  0.
        3    1    3    3  502    0 -0.18336267049E+04  0.47297902878E+03  0.12348327476E+04  0.22606875014E+04  0.10100000352E+00 0.  1.
       -3    1    3    3    0  502  0.18336267049E+04 -0.47297902878E+03 -0.14853127419E+03  0.18994624513E+04  0.10100000352E+00 0. -1.
</event>
<event>
 5   0  0.1821433E-07  0.3858732E+04  0.7818609E-02  0.8033667E-01
       -2   -1    0    0    0  501  0.00000000000E+00  0.00000000000E+00  0.22465755779E+04  0.22465755779E+04  0.25500000920E-02 0.  1.
        2   -1    0    0  501    0  0.00000000000E+00  0.00000000000E+00 -0.16569452997E+04  0.16569452997E+04  0.25500000920E-02 0. -1.
    10030    2    1    2    0    0  0.00000000000E+00  0.00000000000E+00  0.58963027813E+03  0.39035208776E+04  0.38587318353E+04 0.  0.
        5    1    3    3  502    0 -0.61295035484E+03 -0.10456543611E+04 -0.12237179745E+04  0.17223846700E+04  0.46999998093E+01 0. -1.
       -5    1    3    3    0  502  0.61295035484E+03  0.10456543611E+04  0.18133482527E+04  0.21811362075E+04  0.46999998093E+01 0.  1.
</event>
<event>
 5   0  0.5515000E-08  0.4007874E+04  0.7818609E-02  0.8002960E-01
       -1   -1    0    0    0  501  0.00000000000E+00  0.00000000000E+00  0.14620749639E+04  0.14620749640E+04  0.50400001928E-02 0.  1.
        1   -1    0    0  501    0  0.00000000000E+00  0.00000000000E+00 -0.27466198414E+04  0.27466198414E+04  0.50400001928E-02 0. -1.
    10030    2    1    2    0    0  0.00000000000E+00  0.00000000000E+00 -0.12845448774E+04  0.42086948053E+04  0.40078743022E+04 0.  0.
        2    1    3    3  502    0  0.10159435019E+04  0.25333903966E+03 -0.24365238023E+04  0.26519747562E+04  0.25500000920E-02 0. -1.
       -2    1    3    3    0  502 -0.10159435019E+04 -0.25333903966E+03  0.11519789249E+04  0.15567200492E+04  0.25500000920E-02 0.  1.
</event>
<event>
 5   0  0.5515000E-08  0.3371106E+04  0.7818609E-02  0.8145034E-01
        1   -1    0    0  501    0  0.00000000000E+00  0.00000000000E+00  0.21230385439E+04  0.21230385439E+04  0.50400001928E-02 0.  1.
       -1   -1    0    0    0  501  0.00000000000E+00  0.00000000000E+00 -0.13382184187E+04  0.13382184187E+04  0.50400001928E-02 0. -1.
    10030    2    1    2    0    0  0.00000000000E+00  0.00000000000E+00  0.78482012516E+03  0.34612569626E+04  0.33711062179E+04 0.  0.
        3    1    3    3  502    0 -0.21849020728E+02 -0.13763437730E+04  0.13911984055E+04  0.19570979983E+04  0.10100000352E+00 0.  1.
       -3    1    3    3    0  502  0.21849020728E+02  0.13763437730E+04 -0.60637828036E+03  0.15041589644E+04  0.10100000352E+00 0. -1.
</event>
<event>
 5   0  0.1773903E-07  0.3703663E+04  0.7818609E-02  0.8067150E-01
       -2   -1    0    0    0  501  0.00000000000E+00  0.00000000000E+00  0.14686981202E+04  0.14686981202E+04  0.25500000920E-02 0.  1.
        2   -1    0    0  501    0  0.00000000000E+00  0.00000000000E+00 -0.23349119006E+04  0.23349119006E+04  0.25500000920E-02 0. -1.
    10030    2    1    2    0    0  0.00000000000E+00  0.00000000000E+00 -0.86621378034E+03  0.38036100208E+04  0.37036634401E+04 0.  0.
        3    1    3    3  502    0 -0.69425081782E+03  0.69047823857E+03  0.11811033173E+04  0.15341934208E+04  0.10100000352E+00 0.  1.
       -3    1    3    3    0  502  0.69425081782E+03 -0.69047823857E+03 -0.20473170977E+04  0.22694166000E+04  0.10100000352E+00 0. -1.
</event>
<event>
 5   0  0.1821433E-07  0.3826956E+04  0.7818609E-02  0.8040395E-01
        2   -1    0    0  501    0  0.00000000000E+00  0.00000000000E+00  0.17900292839E+04  0.17900292839E+04  0.25500000920E-02 0. -1.
       -2   -1    0    0    0  501  0.00000000000E+00  0.00000000000E+00 -0.20454402433E+04  0.20454402433E+04  0.25500000920E-02 0.  1.
    10030    2    1    2    0    0  0.00000000000E+00  0.00000000000E+00 -0.25541095941E+03  0.38354695273E+04  0.38269559361E+04 0.  0.
        5    1    3    3  502    0  0.17706123684E+04 -0.72542738240E+03 -0.13564761320E+03  0.19182636449E+04  0.46999998093E+01 0. -1.
       -5    1    3    3    0  502 -0.17706123684E+04  0.72542738240E+03 -0.11976334621E+03  0.19172058824E+04  0.46999998093E+01 0.  1.
</event>
<event>
 5   0  0.1819906E-07  0.4008433E+04  0.7818609E-02  0.8002848E-01
        2   -1    0    0  501    0  0.00000000000E+00  0.00000000000E+00  0.21597736350E+04  0.21597736350E+04  0.25500000920E-02 0. -1.
       -2   -1    0    0    0  501  0.00000000000E+00  0.00000000000E+00 -0.18598631826E+04  0.18598631826E+04  0.25500000920E-02 0.  1.
    10030    2    1    2    0    0  0.00000000000E+00  0.00000000000E+00  0.29991045236E+03  0.40196368176E+04  0.40084328441E+04 0.  0.
        1    1    3    3  502    0 -0.43889478330E+03  0.11930603897E+04 -0.14038471421E+04  0.18938871463E+04  0.50400001928E-02 0.  1.
       -1    1    3    3    0  502  0.43889478330E+03 -0.11930603897E+04  0.17037575945E+04  0.21257496713E+04  0.50400001928E-02 0. -1.
</event>
<event>
 5   0  0.5515000E-08  0.3980871E+04  0.7818609E-02  0.8008417E-01
       -1   -1    0    0    0  501  0.00000000000E+00  0.00000000000E+00  0.18065574450E+04  0.18065574450E+04  0.50400001928E-02 0. -1.
        1   -1    0    0  501    0  0.00000000000E+00  0.00000000000E+00 -0.21930290654E+04  0.21930290654E+04  0.50400001928E-02 0.  1.
    10030    2    1    2    0    0  0.00000000000E+00  0.00000000000E+00 -0.38647162041E+03  0.39995865105E+04  0.39808707516E+04 0.  0.
        4    1    3    3  502    0 -0.11006782707E+04  0.66882619564E+03  0.13314661258E+04  0.18524645185E+04  0.12699999809E+01 0. -1.
       -4    1    3    3    0  502  0.11006782707E+04 -0.66882619564E+03 -0.17179377462E+04  0.21471219919E+04  0.12699999809E+01 0.  1.
</event>
<event>
 5   0  0.5515000E-08  0.4036139E+04  0.7818609E-02  0.7997296E-01
       -1   -1    0    0    0  501  0.00000000000E+00  0.00000000000E+00  0.12528249412E+04  0.12528249412E+04  0.50400001928E-02 0. -1.
        1   -1    0    0  501    0  0.00000000000E+00  0.00000000000E+00 -0.32507374966E+04  0.32507374966E+04  0.50400001928E-02 0.  1.
    10030    2    1    2    0    0  0.00000000000E+00  0.00000000000E+00 -0.19979125554E+04  0.45035624378E+04  0.40361392509E+04 0.  0.
        5    1    3    3  502    0  0.99624825944E+02 -0.17974051990E+04 -0.20167264478E+04  0.27032939556E+04  0.46999998093E+01 0.  1.
       -5    1    3    3    0  502 -0.99624825944E+02  0.17974051990E+04  0.18813892403E+02  0.18002684822E+04  0.46999998093E+01 0. -1.
</event>
<event>
 5   0  0.5515000E-08  0.3244791E+04  0.7818609E-02  0.8177087E-01
        1   -1    0    0  501    0  0.00000000000E+00  0.00000000000E+00  0.13068235135E+04  0.13068235135E+04  0.50400001928E-02 0.  1.
       -1   -1    0    0    0  501  0.00000000000E+00  0.00000000000E+00 -0.20141723662E+04  0.20141723662E+04  0.50400001928E-02 0. -1.
    10030    2    1    2    0    0  0.00000000000E+00  0.00000000000E+00 -0.70734885271E+03  0.33209958797E+04  0.32447914006E+04 0.  0.
        3    1    3    3  502    0 -0.12300102456E+04 -0.31118362743E+03  0.68121401076E+03  0.14400739540E+04  0.10100000352E+00 0. -1.
       -3    1    3    3    0  502  0.12300102456E+04  0.31118362743E+03 -0.13885628635E+04  0.18809219256E+04  0.10100000352E+00 0.  1.
</event>
<event>
 5   0  0.1785559E-07  0.4062355E+04  0.7818609E-02  0.7992084E-01
       -2   -1    0    0    0  501  0.00000000000E+00  0.00000000000E+00  0.18526299312E+04  0.18526299312E+04  0.25500000920E-02 0.  1.
        2   -1    0    0  501    0  0.00000000000E+00  0.00000000000E+00 -0.22269327951E+04  0.22269327951E+04  0.25500000920E-02 0. -1.
    10030    2    1    2    0    0  0.00000000000E+00  0.00000000000E+00 -0.37430286385E+03  0.40795627263E+04  0.40623551548E+04 0.  0.
        2    1    3    3  502    0  0.20252168765E+04  0.95613145054E+02 -0.64006232139E+02  0.20284827010E+04  0.25500000920E-02 0. -1.
       -2    1    3    3    0  502 -0.20252168765E+04 -0.95613145054E+02 -0.31029663171E+03  0.20510800253E+04  0.25500000920E-02 0.  1.
</event>
<event>
 5   0  0.5515000E-08  0.4008657E+04  0.7818609E-02  0.8002803E-01
       -1   -1    0    0    0  501  0.00000000000E+00  0.00000000000E+00  0.24452927218E+04  0.24452927218E+04  0.50400001928E-02 0. -1.
        1   -1    0    0  501    0  0.00000000000E+00  0.00000000000E+00 -0.16428838889E+04  0.16428838889E+04  0.50400001928E-02 0.  1.
    10030    2    1    2    0    0  0.00000000000E+00  0.00000000000E+00  0.80240883287E+03  0.40881766107E+04  0.40086566409E+04 0.  0.
        3    1    3    3  502    0  0.94232386337E+03 -0.13251990442E+04  0.15962886474E+04  0.22786540382E+04  0.10100000352E+00 0. -1.
       -3    1    3    3    0  502 -0.94232386337E+03  0.13251990442E+04 -0.79387981448E+03  0.18095225724E+04  0.10100000352E+00 0.  1.
</event>
<event>
 5   0  0.5515000E-08  0.3974040E+04  0.7818609E-02  0.8009804E-01
       -1   -1    0    0    0  501  0.00000000000E+00  0.00000000000E+00  0.20283639485E+04  0.20283639485E+04  0.50400001928E-02 0. -1.
        1   -1    0    0  501    0  0.00000000000E+00  0.00000000000E+00 -0.19465187018E+04  0.19465187018E+04  0.50400001928E-02 0.  1.
    10030    2    1    2    0    0  0.00000000000E+00  0.00000000000E+00  0.81845246722E+02  0.39748826503E+04  0.39740399393E+04 0.  0.
        2    1    3    3  502    0  0.59690998322E+03  0.17839594757E+04 -0.59908447354E+03  0.19742631905E+04  0.25500000920E-02 0.  1.
       -2    1    3    3    0  502 -0.59690998322E+03 -0.17839594757E+04  0.68092972026E+03  0.20006194598E+04  0.25500000920E-02 0. -1.
</event>
<event>
 5   0  0.5515000E-08  0.4003525E+04  0.7818609E-02  0.8003836E-01
        1   -1    0    0  501    0  0.00000000000E+00  0.00000000000E+00  0.27924741376E+04  0.27924741376E+04  0.50400001928E-02 0. -1.
       -1   -1    0    0    0  501  0.00000000000E+00  0.00000000000E+00 -0.14349469034E+04  0.14349469034E+04  0.50400001928E-02 0.  1.
    10030    2    1    2    0    0  0.00000000000E+00  0.00000000000E+00  0.13575272342E+04  0.42274210409E+04  0.40035245055E+04 0.  0.
        1    1    3    3  502    0  0.12663272471E+04  0.13975891127E+04  0.13872664500E+04  0.23412279316E+04  0.50400001928E-02 0.  1.
       -1    1    3    3    0  502 -0.12663272471E+04 -0.13975891127E+04 -0.29739215743E+02  0.18861931093E+04  0.50400001928E-02 0. -1.
</event>
<event>
 5   0  0.1773903E-07  0.3991395E+04  0.7818609E-02  0.8006285E-01
       -2   -1    0    0    0  501  0.00000000000E+00  0.00000000000E+00  0.12767410045E+04  0.12767410045E+04  0.25500000920E-02 0. -1.
        2   -1    0    0  501    0  0.00000000000E+00  0.00000000000E+00 -0.31195112880E+04  0.31195112880E+04  0.25500000920E-02 0.  1.
    10030    2    1    2    0    0  0.00000000000E+00  0.00000000000E+00 -0.18427702835E+04  0.43962522924E+04  0.39913947313E+04 0.  0.
        3    1    3    3  502    0 -0.62687681731E+03 -0.18761493968E+04 -0.63018822842E+03  0.20760655858E+04  0.10100000352E+00 0.  1.
       -3    1    3    3    0  502  0.62687681731E+03  0.18761493968E+04 -0.12125820551E+04  0.23201867066E+04  0.10100000352E+00 0. -1.
</event>
<event>
 5   0  0.1773903E-07  0.3973228E+04  0.7818609E-02  0.8009969E-01
        2   -1    0    0  501    0  0.00000000000E+00  0.00000000000E+00  0.16169827791E+04  0.16169827791E+04  0.25500000920E-02 0. -1.
       -2   -1    0    0    0  501  0.00000000000E+00  0.00000000000E+00 -0.24407409837E+04  0.24407409837E+04  0.25500000920E-02 0.  1.
    10030    2    1    2    0    0  0.00000000000E+00  0.00000000000E+00 -0.82375820465E+03  0.40577237628E+04  0.39732284802E+04 0.  0.
        3    1    3    3  502    0 -0.89616191233E+03 -0.16378777945E+04 -0.11052024593E+04  0.21696134054E+04  0.10100000352E+00 0.  1.
       -3    1    3    3    0  502  0.89616191233E+03  0.16378777945E+04  0.28144425464E+03  0.18881103574E+04  0.10100000352E+00 0. -1.
</event>
<event>
 5   0  0.5515000E-08  0.3535483E+04  0.7818609E-02  0.8105432E-01
       -1   -1    0    0    0  501  0.00000000000E+00  0.00000000000E+00  0.17007095313E+04  0.17007095313E+04  0.50400001928E-02 0. -1.
        1   -1    0    0  501    0  0.00000000000E+00  0.00000000000E+00 -0.18374156623E+04  0.18374156623E+04  0.50400001928E-02 0.  1.
    10030    2    1    2    0    0  0.00000000000E+00  0.00000000000E+00 -0.13670613095E+03  0.35381251936E+04  0.35354831805E+04 0.  0.
        2    1    3    3  502    0  0.39912367817E+03  0.56443424870E+03 -0.16965367896E+04  0.18319723824E+04  0.25500000920E-02 0.  1.
       -2    1    3    3    0  502 -0.39912367817E+03 -0.56443424870E+03  0.15598306586E+04  0.17061528112E+04  0.25500000920E-02 0. -1.
</event>
<event>
 5   0  0.5515000E-08  0.4043198E+04  0.7818609E-02  0.7995888E-01
        3   -1    0    0  501    0  0.00000000000E+00  0.00000000000E+00  0.16330537418E+04  0.16330537450E+04  0.10100000352E+00 0. -1.
       -3   -1    0    0    0  501  0.00000000000E+00  0.00000000000E+00 -0.25025892547E+04  0.25025892567E+04  0.10100000352E+00 0.  1.
    10030    2    1    2    0    0  0.00000000000E+00  0.00000000000E+00 -0.86953551285E+03  0.41356430017E+04  0.40431981190E+04 0.  0.
        1    1    3    3  502    0  0.74931206339E+03  0.15516628183E+04 -0.15161712614E+04  0.22951909210E+04  0.50400001928E-02 0.  1.
       -1    1    3    3    0  502 -0.74931206339E+03 -0.15516628183E+04  0.64663574857E+03  0.18404520807E+04  0.50400001928E-02 0. -1.
</event>
<event>
 5   0  0.1821433E-07  0.3994265E+04  0.7818609E-02  0.8005704E-01
        2   -1    0    0  501    0  0.00000000000E+00  0.00000000000E+00  0.15757957542E+04  0.15757957542E+04  0.25500000920E-02 0. -1.
       -2   -1    0    0    0  501  0.00000000000E+00  0.00000000000E+00 -0.25311267748E+04  0.25311267748E+04  0.25500000920E-02 0.  1.
    10030    2    1    2    0    0  0.00000000000E+00  0.00000000000E+00 -0.95533102059E+03  0.41069225290E+04  0.39942653017E+04 0.  0.
        5    1    3    3  502    0  0.35212281638E+03  0.15835292344E+04  0.72007669528E+03  0.17748486840E+04  0.46999998093E+01 0. -1.
       -5    1    3    3    0  502 -0.35212281638E+03 -0.15835292344E+04 -0.16754077159E+04  0.23320738450E+04  0.46999998093E+01 0.  1.
</event>
<event>
 5   0  0.1819906E-07  0.4012381E+04  0.7818609E-02  0.8002054E-01
       -2   -1    0    0    0  501  0.00000000000E+00  0.00000000000E+00  0.26671297868E+04  0.26671297868E+04  0.25500000920E-02 0. -1.
        2   -1    0    0  501    0  0.00000000000E+00  0.00000000000E+00 -0.15090382552E+04  0.15090382552E+04  0.25500000920E-02 0.  1.
    10030    2    1    2    0    0  0.00000000000E+00  0.00000000000E+00  0.11580915317E+04  0.41761680420E+04  0.40123812779E+04 0.  0.
        1    1    3    3  502    0 -0.10828591773E+04 -0.99931317135E+03  0.19960874218E+04  0.24810432902E+04  0.50400001928E-02 0. -1.
       -1    1    3    3    0  502  0.10828591773E+04  0.99931317135E+03 -0.83799589014E+03  0.16951247518E+04  0.50400001928E-02 0.  1.
</event>
<event>
 5   0  0.5515000E-08  0.3990383E+04  0.7818609E-02  0.8006489E-01
        1   -1    0    0  501    0  0.00000000000E+00  0.00000000000E+00  0.22675103089E+04  0.22675103089E+04  0.50400001928E-02 0. -1.
       -1   -1    0    0    0  501  0.00000000000E+00  0.00000000000E+00 -0.17555774597E+04  0.17555774597E+04  0.50400001928E-02 0.  1.
    10030    2    1    2    0    0  0.00000000000E+00  0.00000000000E+00  0.51193284922E+03  0.40230877685E+04  0.39903834341E+04 0.  0.
        4    1    3    3  502    0  0.14780967335E+04  0.66743954769E+03  0.14276195787E+04  0.21606352718E+04  0.12699999809E+01 0. -1.
       -4    1    3    3    0  502 -0.14780967335E+04 -0.66743954769E+03 -0.91568672947E+03  0.18624524968E+04  0.12699999809E+01 0.  1.
</event>
<event>
 5   0  0.1776653E-07  0.3997130E+04  0.7818609E-02  0.8005126E-01
       -2   -1    0    0    0  501  0.00000000000E+00  0.00000000000E+00  0.18501989692E+04  0.18501989692E+04  0.25500000920E-02 0. -1.
        2   -1    0    0  501    0  0.00000000000E+00  0.00000000000E+00 -0.21588280536E+04  0.21588280536E+04  0.25500000920E-02 0.  1.
    10030    2    1    2    0    0  0.00000000000E+00  0.00000000000E+00 -0.30862908438E+03  0.40090270228E+04  0.39971296899E+04 0.  0.
        4    1    3    3  502    0 -0.17369838795E+03  0.52675062406E+03  0.17714583866E+04  0.18562606978E+04  0.12699999809E+01 0. -1.
       -4    1    3    3    0  502  0.17369838795E+03 -0.52675062406E+03 -0.20800874710E+04  0.21527663249E+04  0.12699999809E+01 0.  1.
</event>
<event>
 5   0  0.1773903E-07  0.4008796E+04  0.7818609E-02  0.8002775E-01
        2   -1    0    0  501    0  0.00000000000E+00  0.00000000000E+00  0.15697620023E+04  0.15697620023E+04  0.25500000920E-02 0.  1.
       -2   -1    0    0    0  501  0.00000000000E+00  0.00000000000E+00 -0.25593755253E+04  0.25593755253E+04  0.25500000920E-02 0. -1.
    10030    2    1    2    0    0  0.00000000000E+00  0.00000000000E+00 -0.98961352303E+03  0.41291375276E+04  0.40087955543E+04 0.  0.
        3    1    3    3  502    0 -0.21673997386E+03  0.59772175560E+03  0.14631415926E+04  0.15953152803E+04  0.10100000352E+00 0.  1.
       -3    1    3    3    0  502  0.21673997386E+03 -0.59772175560E+03 -0.24527551156E+04  0.25338222473E+04  0.10100000352E+00 0. -1.
</event>
<event>
 5   0  0.1821433E-07  0.3996431E+04  0.7818609E-02  0.8005267E-01
        2   -1    0    0  501    0  0.00000000000E+00  0.00000000000E+00  0.21504662926E+04  0.21504662926E+04  0.25500000920E-02 0.  1.
       -2   -1    0    0    0  501  0.00000000000E+00  0.00000000000E+00 -0.18567438064E+04  0.18567438064E+04  0.25500000920E-02 0. -1.
    10030    2    1    2    0    0  0.00000000000E+00  0.00000000000E+00  0.29372248613E+03  0.40072100990E+04  0.39964308925E+04 0.  0.
        5    1    3    3  502    0 -0.11238537701E+04 -0.16521376525E+04  0.16228976332E+03  0.20047359369E+04  0.46999998093E+01 0. -1.
       -5    1    3    3    0  502  0.11238537701E+04  0.16521376525E+04  0.13143272281E+03  0.20024741621E+04  0.46999998093E+01 0.  1.
</event>
<event>
 5   0  0.1821433E-07  0.3584944E+04  0.7818609E-02  0.8093949E-01
       -2   -1    0    0    0  501  0.00000000000E+00  0.00000000000E+00  0.10830134842E+04  0.10830134842E+04  0.25500000920E-02 0. -1.
        2   -1    0    0  501    0  0.00000000000E+00  0.00000000000E+00 -0.29666817354E+04  0.29666817354E+04  0.25500000920E-02 0.  1.
    10030    2    1    2    0    0  0.00000000000E+00  0.00000000000E+00 -0.18836682511E+04  0.40496952196E+04  0.35849442522E+04 0.  0.
        5    1    3    3  502    0  0.10634712438E+04 -0.14410770608E+04 -0.85990563887E+03  0.19867395348E+04  0.46999998093E+01 0. -1.
       -5    1    3    3    0  502 -0.10634712438E+04  0.14410770608E+04 -0.10237626123E+04  0.20629556848E+04  0.46999998093E+01 0.  1.
</event>
<event>
 5   0  0.1821433E-07  0.3974781E+04  0.7818609E-02  0.8009653E-01
       -2   -1    0    0    0  501  0.00000000000E+00  0.00000000000E+00  0.22142138043E+04  0.22142138043E+04  0.25500000920E-02 0. -1.
        2   -1    0    0  501    0  0.00000000000E+00  0.00000000000E+00 -0.17838030471E+04  0.17838030471E+04  0.25500000920E-02 0.  1.
    10030    2    1    2    0    0  0.00000000000E+00  0.00000000000E+00  0.43041075729E+03  0.39980168514E+04  0.39747811668E+04 0.  0.
        5    1    3    3  502    0  0.14768993113E+04  0.38577625971E+03  0.14952975045E+04  0.21368181053E+04  0.46999998093E+01 0. -1.
       -5    1    3    3    0  502 -0.14768993113E+04 -0.38577625971E+03 -0.10648867472E+04  0.18611987461E+04  0.46999998093E+01 0.  1.
</event>
<event>
 5   0  0.5515000E-08  0.4037384E+04  0.7818609E-02  0.7997047E-01
        1   -1    0    0  501    0  0.00000000000E+00  0.00000000000E+00  0.22614513133E+04  0.22614513133E+04  0.50400001928E-02 0. -1.
       -1   -1    0    0    0  501  0.00000000000E+00  0.00000000000E+00 -0.18019919227E+04  0.18019919227E+04  0.50400001928E-02 0.  1.
    10030    2    1    2    0    0  0.00000000000E+00  0.00000000000E+00  0.45945939059E+03  0.40634432361E+04  0.40373838065E+04 0.  0.
        5    1    3    3  502    0 -0.25423910688E+03 -0.17944318230E+04  0.11245531445E+04  0.21329005967E+04  0.46999998093E+01 0. -1.
       -5    1    3    3    0  502  0.25423910688E+03  0.17944318230E+04 -0.66509375393E+03  0.19305426393E+04  0.46999998093E+01 0.  1.
</event>
<event>
 5   0  0.1819906E-07  0.3927141E+04  0.7818609E-02  0.8019408E-01
       -2   -1    0    0    0  501  0.00000000000E+00  0.00000000000E+00  0.24499665711E+04  0.24499665711E+04  0.25500000920E-02 0.  1.
        2   -1    0    0  501    0  0.00000000000E+00  0.00000000000E+00 -0.15737396861E+04  0.15737396861E+04  0.25500000920E-02 0. -1.
    10030    2    1    2    0    0  0.00000000000E+00  0.00000000000E+00  0.87622688501E+03  0.40237062572E+04  0.39271412618E+04 0.  0.
        1    1    3    3  502    0 -0.10441077921E+04  0.23494600340E+03  0.21248774863E+04  0.23791731836E+04  0.50400001928E-02 0.  1.
       -1    1    3    3    0  502  0.10441077921E+04 -0.23494600340E+03 -0.12486506013E+04  0.16445330736E+04  0.50400001928E-02 0. -1.
</event>
<event>
 5   0  0.5515000E-08  0.4008830E+04  0.7818609E-02  0.8002768E-01
       -1   -1    0    0    0  501  0.00000000000E+00  0.00000000000E+00  0.20920680241E+04  0.20920680241E+04  0.50400001928E-02 0. -1.
        1   -1    0    0  501    0  0.00000000000E+00  0.00000000000E+00 -0.19204343436E+04  0.19204343436E+04  0.50400001928E-02 0.  1.
    10030    2    1    2    0    0  0.00000000000E+00  0.00000000000E+00  0.17163368049E+03  0.40125023677E+04  0.40088298955E+04 0.  0.
        2    1    3    3  502    0  0.73463399727E+03 -0.15746344629E+04 -0.91435754258E+03  0.19634690009E+04  0.25500000920E-02 0.  1.
       -2    1    3    3    0  502 -0.73463399727E+03  0.15746344629E+04  0.10859912231E+04  0.20490333668E+04  0.25500000920E-02 0. -1.
</event>
<event>
 5   0  0.5515000E-08  0.3991669E+04  0.7818609E-02  0.8006229E-01
       -1   -1    0    0    0  501  0.00000000000E+00  0.00000000000E+00  0.33140485692E+04  0.33140485692E+04  0.50400001928E-02 0. -1.
        1   -1    0    0  501    0  0.00000000000E+00  0.00000000000E+00 -0.12019605494E+04  0.12019605495E+04  0.50400001928E-02 0.  1.
    10030    2    1    2    0    0  0.00000000000E+00  0.00000000000E+00  0.21120880197E+04  0.45160091186E+04  0.39916691441E+04 0.  0.
        4    1    3    3  502    0  0.12365759427E+04 -0.13736257028E+04  0.19082404807E+04  0.26565675182E+04  0.12699999809E+01 0. -1.
       -4    1    3    3    0  502 -0.12365759427E+04  0.13736257028E+04  0.20384753901E+03  0.18594416005E+04  0.12699999809E+01 0.  1.
</event>
<event>
 5   0  0.5515000E-08  0.3933390E+04  0.7818609E-02  0.8018120E-01
        1   -1    0    0  501    0  0.00000000000E+00  0.00000000000E+00  0.18881688774E+04  0.18881688774E+04  0.50400001928E-02 0. -1.
       -1   -1    0    0    0  501  0.00000000000E+00  0.00000000000E+00 -0.20484868197E+04  0.20484868197E+04  0.50400001928E-02 0.  1.
    10030    2    1    2    0    0  0.00000000000E+00  0.00000000000E+00 -0.16031794230E+03  0.39366556970E+04  0.39333899164E+04 0.  0.
        3    1    3    3  502    0  0.15724597279E+03  0.97819217606E+03 -0.17804817750E+04  0.20375724750E+04  0.10100000352E+00 0.  1.
       -3    1    3    3    0  502 -0.15724597279E+03 -0.97819217606E+03  0.16201638327E+04  0.18990832221E+04  0.10100000352E+00 0. -1.
</event>
<event>
 5   0  0.1819906E-07  0.4024483E+04  0.7818609E-02  0.7999626E-01
        2   -1    0    0  501    0  0.00000000000E+00  0.00000000000E+00  0.16990119554E+04  0.16990119554E+04  0.25500000920E-02 0. -1.
       -2   -1    0    0    0  501  0.00000000000E+00  0.00000000000E+00 -0.23832181821E+04  0.23832181821E+04  0.25500000920E-02 0.  1.
    10030    2    1    2    0    0  0.00000000000E+00  0.00000000000E+00 -0.68420622673E+03  0.40822301375E+04  0.40244831636E+04 0.  0.
        1    1    3    3  502    0 -0.43159186088E+03  0.60675707341E+03  0.15541300147E+04  0.17232950366E+04  0.50400001928E-02 0. -1.
       -1    1    3    3    0  502  0.43159186088E+03 -0.60675707341E+03 -0.22383362414E+04  0.23589351009E+04  0.50400001928E-02 0.  1.
</event>
<event>
 5   0  0.5515000E-08  0.4036134E+04  0.7818609E-02  0.7997297E-01
        1   -1    0    0  501    0  0.00000000000E+00  0.00000000000E+00  0.12545388881E+04  0.12545388881E+04  0.50400001928E-02 0.  1.
       -1   -1    0    0    0  501  0.00000000000E+00  0.00000000000E+00 -0.32462880312E+04  0.32462880312E+04  0.50400001928E-02 0. -1.
    10030    2    1    2    0    0  0.00000000000E+00  0.00000000000E+00 -0.19917491432E+04  0.45008269193E+04  0.40361340795E+04 0.  0.
        4    1    3    3  502    0  0.14588150250E+04  0.13571454522E+03  0.55172505907E+03  0.15655548118E+04  0.12699999809E+01 0.  1.
       -4    1    3    3    0  502 -0.14588150250E+04 -0.13571454522E+03 -0.25434742022E+04  0.29352721075E+04  0.12699999809E+01 0. -1.
</event>
<event>
 5   0  0.5515000E-08  0.3266569E+04  0.7818609E-02  0.8171454E-01
       -1   -1    0    0    0  501  0.00000000000E+00  0.00000000000E+00  0.19280661306E+04  0.19280661306E+04  0.50400001928E-02 0. -1.
        1   -1    0    0  501    0  0.00000000000E+00  0.00000000000E+00 -0.13835723454E+04  0.13835723454E+04  0.50400001928E-02 0.  1.
    10030    2    1    2    0    0  0.00000000000E+00  0.00000000000E+00  0.54449378520E+03  0.33116384759E+04  0.32665694410E+04 0.  0.
        4    1    3    3  502    0  0.10884124850E+04 -0.11264141065E+04  0.74141360200E+03  0.17329588048E+04  0.12699999809E+01 0.  1.
       -4    1    3    3    0  502 -0.10884124850E+04  0.11264141065E+04 -0.19691981680E+03  0.15786796711E+04  0.12699999809E+01 0. -1.
</event>
<event>
 5   0  0.5515000E-08  0.3989167E+04  0.7818609E-02  0.8006736E-01
        1   -1    0    0  501    0  0.00000000000E+00  0.00000000000E+00  0.21198313093E+04  0.21198313093E+04  0.50400001928E-02 0. -1.
       -1   -1    0    0    0  501  0.00000000000E+00  0.00000000000E+00 -0.18767353920E+04  0.18767353920E+04  0.50400001928E-02 0.  1.
    10030    2    1    2    0    0  0.00000000000E+00  0.00000000000E+00  0.24309591732E+03  0.39965667013E+04  0.39891665512E+04 0.  0.
        5    1    3    3  502    0 -0.29492083639E+03  0.19703830191E+04  0.21634278097E+03  0.20040493583E+04  0.46999998093E+01 0. -1.
       -5    1    3    3    0  502  0.29492083639E+03 -0.19703830191E+04  0.26753136351E+02  0.19925173430E+04  0.46999998093E+01 0.  1.
</event>
<event>
 5   0  0.1785559E-07  0.3930600E+04  0.7818609E-02  0.8018695E-01
       -2   -1    0    0    0  501  0.00000000000E+00  0.00000000000E+00  0.16498403443E+04  0.16498403443E+04  0.25500000920E-02 0.  1.
        2   -1    0    0  501    0  0.00000000000E+00  0.00000000000E+00 -0.23410774202E+04  0.23410774202E+04  0.25500000920E-02 0. -1.
    10030    2    1    2    0    0  0.00000000000E+00  0.00000000000E+00 -0.69123707593E+03  0.39909177645E+04  0.39305999425E+04 0.  0.
        2    1    3    3  502    0  0.13011051159E+04 -0.12507600543E+03  0.11445151617E+04  0.17373639472E+04  0.25500000920E-02 0.  1.
       -2    1    3    3    0  502 -0.13011051159E+04  0.12507600543E+03 -0.18357522376E+04  0.22535538173E+04  0.25500000920E-02 0. -1.
</event>
<event>
 5   0  0.1776653E-07  0.3963862E+04  0.7818609E-02  0.8011877E-01
        2   -1    0    0  501    0  0.00000000000E+00  0.00000000000E+00  0.13236547780E+04  0.13236547780E+04  0.25500000920E-02 0.  1.
       -2   -1    0    0    0  501  0.00000000000E+00  0.00000000000E+00 -0.29675785539E+04  0.29675785539E+04  0.25500000920E-02 0. -1.
    10030    2    1    2    0    0  0.00000000000E+00  0.00000000000E+00 -0.16439237759E+04  0.42912333320E+04  0.39638615173E+04 0.  0.
        4    1    3    3  502    0 -0.10826957343E+04  0.16155220781E+04 -0.12354858217E+04  0.23040330871E+04  0.12699999809E+01 0.  1.
       -4    1    3    3    0  502  0.10826957343E+04 -0.16155220781E+04 -0.40843795422E+03  0.19872002449E+04  0.12699999809E+01 0. -1.
</event>
<event>
 5   0  0.1821433E-07  0.3989922E+04  0.7818609E-02  0.8006583E-01
       -2   -1    0    0    0  501  0.00000000000E+00  0.00000000000E+00  0.22569424164E+04  0.22569424164E+04  0.25500000920E-02 0.  1.
        2   -1    0    0  501    0  0.00000000000E+00  0.00000000000E+00 -0.17633894719E+04  0.17633894719E+04  0.25500000920E-02 0. -1.
    10030    2    1    2    0    0  0.00000000000E+00  0.00000000000E+00  0.49355294448E+03  0.40203318883E+04  0.39899215510E+04 0.  0.
        5    1    3    3  502    0 -0.12981881512E+04 -0.99435232658E+03 -0.90465679320E+03  0.18688111271E+04  0.46999998093E+01 0. -1.
       -5    1    3    3    0  502  0.12981881512E+04  0.99435232658E+03  0.13982097377E+04  0.21515207612E+04  0.46999998093E+01 0.  1.
</event>
<event>
 5   0  0.1773903E-07  0.4023963E+04  0.7818609E-02  0.7999730E-01
       -2   -1    0    0    0  501  0.00000000000E+00  0.00000000000E+00  0.23839376695E+04  0.23839376695E+04  0.25500000920E-02 0. -1.
        2   -1    0    0  501    0  0.00000000000E+00  0.00000000000E+00 -0.16980603912E+04  0.16980603912E+04  0.25500000920E-02 0.  1.
    10030    2    1    2    0    0  0.00000000000E+00  0.00000000000E+00  0.68587727834E+03  0.40819980607E+04  0.40239632859E+04 0.  0.
        3    1    3    3  502    0 -0.41331129986E+02  0.19304767576E+04 -0.23056565420E+03  0.19446360341E+04  0.10100000352E+00 0.  1.
       -3    1    3    3    0  502  0.41331129986E+02 -0.19304767576E+04  0.91644293254E+03  0.21373620266E+04  0.10100000352E+00 0. -1.
</event>
<event>
 5   0  0.1821433E-07  0.3996776E+04  0.7818609E-02  0.8005197E-01
       -2   -1    0    0    0  501  0.00000000000E+00  0.00000000000E+00  0.29672765006E+04  0.29672765006E+04  0.25500000920E-02 0.  1.
        2   -1    0    0  501    0  0.00000000000E+00  0.00000000000E+00 -0.13458653152E+04  0.13458653152E+04  0.25500000920E-02 0. -1.
    10030    2    1    2    0    0  0.00000000000E+00  0.00000000000E+00  0.16214111855E+04  0.43131418158E+04  0.39967759621E+04 0.  0.
        5    1    3    3  502    0  0.45000864150E+03  0.17684914153E+04 -0.68301160795E+02  0.18261316497E+04  0.46999998093E+01 0. -1.
       -5    1    3    3    0  502 -0.45000864150E+03 -0.17684914153E+04  0.16897123463E+04  0.24870101661E+04  0.46999998093E+01 0.  1.
</event>
<event>
 5   0  0.1785559E-07  0.3760711E+04  0.7818609E-02  0.8054639E-01
       -2   -1    0    0    0  501  0.00000000000E+00  0.00000000000E+00  0.27374483336E+04  0.27374483336E+04  0.25500000920E-02 0. -1.
        2   -1    0    0  501    0  0.00000000000E+00  0.00000000000E+00 -0.12916180690E+04  0.12916180690E+04  0.25500000920E-02 0.  1.
    10030    2    1    2    0    0  0.00000000000E+00  0.00000000000E+00  0.14458302646E+04  0.40290664026E+04  0.37607114915E+04 0.  0.
        2    1    3    3  502    0 -0.10015936936E+04  0.86588823365E+03 -0.70757194428E+03  0.15012029898E+04  0.25500000920E-02 0.  1.
       -2    1    3    3    0  502  0.10015936936E+04 -0.86588823365E+03  0.21534022089E+04  0.25278634128E+04  0.25500000920E-02 0. -1.
</event>
<event>
 5   0  0.5515000E-08  0.3999350E+04  0.7818609E-02  0.8004678E-01
       -1   -1    0    0    0  501  0.00000000000E+00  0.00000000000E+00  0.23493150091E+04  0.23493150091E+04  0.50400001928E-02 0.  1.
        1   -1    0    0  501    0  0.00000000000E+00  0.00000000000E+00 -0.17020704057E+04  0.17020704057E+04  0.50400001928E-02 0. -1.
    10030    2    1    2    0    0  0.00000000000E+00  0.00000000000E+00  0.64724460342E+03  0.40513854149E+04  0.39993497225E+04 0.  0.
        1    1    3    3  502    0  0.22446963237E+03  0.17043085734E+04  0.13585037988E+04  0.21910241671E+04  0.50400001928E-02 0.  1.
       -1    1    3    3    0  502 -0.22446963237E+03 -0.17043085734E+04 -0.71125919542E+03  0.18603612478E+04  0.50400001928E-02 0. -1.
</event>
<event>
 5   0  0.5515000E-08  0.3953116E+04  0.7818609E-02  0.8014072E-01
       -1   -1    0    0    0  501  0.00000000000E+00  0.00000000000E+00  0.22410703535E+04  0.22410703535E+04  0.50400001928E-02 0. -1.
        1   -1    0    0  501    0  0.00000000000E+00  0.00000000000E+00 -0.17432663063E+04  0.17432663063E+04  0.50400001928E-02 0.  1.
    10030    2    1    2    0    0  0.00000000000E+00  0.00000000000E+00  0.49780404721E+03  0.39843366598E+04  0.39531164604E+04 0.  0.
        4    1    3    3  502    0 -0.16172232372E+04 -0.10037873736E+04  0.78581991062E+03  0.20592509888E+04  0.12699999809E+01 0. -1.
       -4    1    3    3    0  502  0.16172232372E+04  0.10037873736E+04 -0.28801586340E+03  0.19250856710E+04  0.12699999809E+01 0.  1.
</event>
<event>
 5   0  0.1776653E-07  0.3991682E+04  0.7818609E-02  0.8006227E-01
        2   -1    0    0  501    0  0.00000000000E+00  0.00000000000E+00  0.16077449729E+04  0.16077449729E+04  0.25500000920E-02 0. -1.
       -2   -1    0    0    0  501  0.00000000000E+00  0.00000000000E+00 -0.24776205699E+04  0.24776205699E+04  0.25500000920E-02 0.  1.
    10030    2    1    2    0    0  0.00000000000E+00  0.00000000000E+00 -0.86987559701E+03  0.40853655428E+04  0.39916823601E+04 0.  0.
        4    1    3    3  502    0 -0.12390998350E+04 -0.11325435127E+04  0.66991514622E+03  0.18074321910E+04  0.12699999809E+01 0. -1.
       -4    1    3    3    0  502  0.12390998350E+04  0.11325435127E+04 -0.15397907432E+04  0.22779333517E+04  0.12699999809E+01 0.  1.
</event>
<event>
 5   0  0.1776653E-07  0.3986566E+04  0.7818609E-02  0.8007262E-01
       -2   -1    0    0    0  501  0.00000000000E+00  0.00000000000E+00  0.24931185914E+04  0.24931185914E+04  0.25500000920E-02 0. -1.
        2   -1    0    0  501    0  0.00000000000E+00  0.00000000000E+00 -0.15936574642E+04  0.15936574642E+04  0.25500000920E-02 0.  1.
    10030    2    1    2    0    0  0.00000000000E+00  0.00000000000E+00  0.89946112717E+03  0.40867760556E+04  0.39865659670E+04 0.  0.
        4    1    3    3  502    0  0.10217058204E+04  0.10317253631E+04 -0.95018596531E+03  0.17352795134E+04  0.12699999809E+01 0.  1.
       -4    1    3    3    0  502 -0.10217058204E+04 -0.10317253631E+04  0.18496470925E+04  0.23514965422E+04  0.12699999809E+01 0. -1.
</event>
<event>
 5   0  0.5515000E-08  0.4020642E+04  0.7818609E-02  0.8000395E-01
        1   -1    0    0  501    0  0.00000000000E+00  0.00000000000E+00  0.23898296593E+04  0.23898296593E+04  0.50400001928E-02 0.  1.
       -1   -1    0    0    0  501  0.00000000000E+00  0.00000000000E+00 -0.16910788476E+04  0.16910788477E+04  0.50400001928E-02 0. -1.
    10030    2    1    2    0    0  0.00000000000E+00  0.00000000000E+00  0.69875081161E+03  0.40809085069E+04  0.40206419320E+04 0.  0.
        2    1    3    3  502    0  0.10064278397E+03 -0.80488964007E+03  0.22163527026E+04  0.23601261842E+04  0.25500000920E-02 0.  1.
       -2    1    3    3    0  502 -0.10064278397E+03  0.80488964007E+03 -0.15176018910E+04  0.17207823228E+04  0.25500000920E-02 0. -1.
</event>
<event>
 5   0  0.5515000E-08  0.4011863E+04  0.7818609E-02  0.8002158E-01
        1   -1    0    0  501    0  0.00000000000E+00  0.00000000000E+00  0.26433792363E+04  0.26433792363E+04  0.50400001928E-02 0. -1.
       -1   -1    0    0    0  501  0.00000000000E+00  0.00000000000E+00 -0.15222038315E+04  0.15222038316E+04  0.50400001928E-02 0.  1.
    10030    2    1    2    0    0  0.00000000000E+00  0.00000000000E+00  0.11211754048E+04  0.41655830679E+04  0.40118634083E+04 0.  0.
        2    1    3    3  502    0 -0.10999877801E+04  0.10299470533E+04  0.19353270578E+04  0.24528055099E+04  0.25500000920E-02 0. -1.
       -2    1    3    3    0  502  0.10999877801E+04 -0.10299470533E+04 -0.81415165304E+03  0.17127775579E+04  0.25500000920E-02 0.  1.
</event>
<event>
 5   0  0.1785559E-07  0.3920956E+04  0.7818609E-02  0.8020685E-01
       -2   -1    0    0    0  501  0.00000000000E+00  0.00000000000E+00  0.30628648048E+04  0.30628648049E+04  0.25500000920E-02 0.  1.
        2   -1    0    0  501    0  0.00000000000E+00  0.00000000000E+00 -0.12548624409E+04  0.12548624409E+04  0.25500000920E-02 0. -1.
    10030    2    1    2    0    0  0.00000000000E+00  0.00000000000E+00  0.18080023640E+04  0.43177272457E+04  0.39209560085E+04 0.  0.
        2    1    3    3  502    0 -0.63239008642E+03 -0.18422820729E+04  0.65886884282E+03  0.20562170629E+04  0.25500000920E-02 0. -1.
       -2    1    3    3    0  502  0.63239008642E+03  0.18422820729E+04  0.11491335212E+04  0.22615101828E+04  0.25500000920E-02 0.  1.
</event>
<event>
 5   0  0.1773903E-07  0.3967355E+04  0.7818609E-02  0.8011165E-01
       -2   -1    0    0    0  501  0.00000000000E+00  0.00000000000E+00  0.17614102826E+04  0.17614102826E+04  0.25500000920E-02 0. -1.
        2   -1    0    0  501    0  0.00000000000E+00  0.00000000000E+00 -0.22339916274E+04  0.22339916274E+04  0.25500000920E-02 0.  1.
    10030    2    1    2    0    0  0.00000000000E+00  0.00000000000E+00 -0.47258134481E+03  0.39954019100E+04  0.39673546974E+04 0.  0.
        3    1    3    3  502    0  0.82613566610E+03  0.84761680832E+03  0.13668239813E+04  0.18080824645E+04  0.10100000352E+00 0. -1.
       -3    1    3    3    0  502 -0.82613566610E+03 -0.84761680832E+03 -0.18394053261E+04  0.21873194455E+04  0.10100000352E+00 0.  1.
</event>
<event>
 5   0  0.1785559E-07  0.3991780E+04  0.7818609E-02  0.8006207E-01
        2   -1    0    0  501    0  0.00000000000E+00  0.00000000000E+00  0.16432768808E+04  0.16432768808E+04  0.25500000920E-02 0.  1.
       -2   -1    0    0    0  501  0.00000000000E+00  0.00000000000E+00 -0.24241666460E+04  0.24241666460E+04  0.25500000920E-02 0. -1.
    10030    2    1    2    0    0  0.00000000000E+00  0.00000000000E+00 -0.78088976520E+03  0.40674435268E+04  0.39917800564E+04 0.  0.
        2    1    3    3  502    0 -0.52640582281E+03  0.30098719914E+03  0.15471454976E+04  0.16617327027E+04  0.25500000920E-02 0.  1.
       -2    1    3    3    0  502  0.52640582281E+03 -0.30098719914E+03 -0.23280352628E+04  0.24057108241E+04  0.25500000920E-02 0. -1.
</event>
<event>
 5   0  0.1819906E-07  0.4041196E+04  0.7818609E-02  0.7996287E-01
       -2   -1    0    0    0  501  0.00000000000E+00  0.00000000000E+00  0.21808508606E+04  0.21808508606E+04  0.25500000920E-02 0. -1.
        2   -1    0    0  501    0  0.00000000000E+00  0.00000000000E+00 -0.18721209791E+04  0.18721209791E+04  0.25500000920E-02 0.  1.
    10030    2    1    2    0    0  0.00000000000E+00  0.00000000000E+00  0.30872988156E+03  0.40529718397E+04  0.40411961835E+04 0.  0.
        1    1    3    3  502    0 -0.11874209741E+03  0.20131696089E+04  0.28041221788E+02  0.20168633742E+04  0.50400001928E-02 0. -1.
       -1    1    3    3    0  502  0.11874209741E+03 -0.20131696089E+04  0.28068865977E+03  0.20361084656E+04  0.50400001928E-02 0.  1.
</event>
<event>
 5   0  0.5515000E-08  0.3997004E+04  0.7818609E-02  0.8005151E-01
        1   -1    0    0  501    0  0.00000000000E+00  0.00000000000E+00  0.24908200297E+04  0.24908200297E+04  0.50400001928E-02 0. -1.
       -1   -1    0    0    0  501  0.00000000000E+00  0.00000000000E+00 -0.16034924564E+04  0.16034924564E+04  0.50400001928E-02 0.  1.
    10030    2    1    2    0    0  0.00000000000E+00  0.00000000000E+00  0.88732757334E+03  0.40943124861E+04  0.39970044422E+04 0.  0.
        5    1    3    3  502    0 -0.12215942396E+03  0.19714213962E+04  0.13201393657E+03  0.19796148655E+04  0.46999998093E+01 0.  1.
       -5    1    3    3    0  502  0.12215942396E+03 -0.19714213962E+04  0.75531363676E+03  0.21146976205E+04  0.46999998093E+01 0. -1.
</event>
<event>
 5   0  0.1821433E-07  0.4032299E+04  0.7818609E-02  0.7998062E-01
        2   -1    0    0  501    0  0.00000000000E+00  0.00000000000E+00  0.23696003433E+04  0.23696003433E+04  0.25500000920E-02 0. -1.
       -2   -1    0    0    0  501  0.00000000000E+00  0.00000000000E+00 -0.17154195971E+04  0.17154195971E+04  0.25500000920E-02 0.  1.
    10030    2    1    2    0    0  0.00000000000E+00  0.00000000000E+00  0.65418074621E+03  0.40850199405E+04  0.40322990297E+04 0.  0.
        5    1    3    3  502    0 -0.24374845106E+03 -0.19700845743E+04  0.68410431894E+03  0.20996826776E+04  0.46999998093E+01 0. -1.
       -5    1    3    3    0  502  0.24374845106E+03  0.19700845743E+04 -0.29923572732E+02  0.19853372629E+04  0.46999998093E+01 0.  1.
</event>
<event>
 5   0  0.1776653E-07  0.4012320E+04  0.7818609E-02  0.8002066E-01
        2   -1    0    0  501    0  0.00000000000E+00  0.00000000000E+00  0.22245214704E+04  0.22245214704E+04  0.25500000920E-02 0.  1.
       -2   -1    0    0    0  501  0.00000000000E+00  0.00000000000E+00 -0.18092335106E+04  0.18092335106E+04  0.25500000920E-02 0. -1.
    10030    2    1    2    0    0  0.00000000000E+00  0.00000000000E+00  0.41528795982E+03  0.40337549810E+04  0.40123204206E+04 0.  0.
        4    1    3    3  502    0  0.10506282491E+04  0.14219985417E+04  0.11607474003E+04  0.21150025320E+04  0.12699999809E+01 0.  1.
       -4    1    3    3    0  502 -0.10506282491E+04 -0.14219985417E+04 -0.74545944048E+03  0.19187524490E+04  0.12699999809E+01 0. -1.
</event>
<event>
 5   0  0.1785559E-07  0.3991170E+04  0.7818609E-02  0.8006330E-01
       -2   -1    0    0    0  501  0.00000000000E+00  0.00000000000E+00  0.21236467790E+04  0.21236467790E+04  0.25500000920E-02 0.  1.
        2   -1    0    0  501    0  0.00000000000E+00  0.00000000000E+00 -0.18752453883E+04  0.18752453883E+04  0.25500000920E-02 0. -1.
    10030    2    1    2    0    0  0.00000000000E+00  0.00000000000E+00  0.24840139075E+03  0.39988921673E+04  0.39911696675E+04 0.  0.
        2    1    3    3  502    0  0.18313445015E+04 -0.68701895513E+03  0.52061899533E+03  0.20240706179E+04  0.25500000920E-02 0. -1.
       -2    1    3    3    0  502 -0.18313445015E+04  0.68701895513E+03 -0.27221760458E+03  0.19748215494E+04  0.25500000920E-02 0.  1.
</event>
<event>
 5   0  0.5515000E-08  0.3623661E+04  0.7818609E-02  0.8085093E-01
        1   -1    0    0  501    0  0.00000000000E+00  0.00000000000E+00  0.19692273266E+04  0.19692273266E+04  0.50400001928E-02 0.  1.
       -1   -1    0    0    0  501  0.00000000000E+00  0.00000000000E+00 -0.16670143579E+04  0.16670143579E+04  0.50400001928E-02 0. -1.
    10030    2    1    2    0    0  0.00000000000E+00  0.00000000000E+00  0.30221296870E+03  0.36362416845E+04  0.36236612576E+04 0.  0.
        5    1    3    3  502    0  0.12492956354E+03 -0.17933241553E+04 -0.75707467429E+02  0.17992700277E+04  0.46999998093E+01 0.  1.
       -5    1    3    3    0  502 -0.12492956354E+03  0.17933241553E+04  0.37792043613E+03  0.18369716568E+04  0.46999998093E+01 0. -1.
</event>
<event>
 5   0  0.5515000E-08  0.3971518E+04  0.7818609E-02  0.8010317E-01
       -3   -1    0    0    0  501  0.00000000000E+00  0.00000000000E+00  0.18812385130E+04  0.18812385157E+04  0.10100000352E+00 0. -1.
        3   -1    0    0  501    0  0.00000000000E+00  0.00000000000E+00 -0.20960869063E+04  0.20960869087E+04  0.10100000352E+00 0.  1.
    10030    2    1    2    0    0  0.00000000000E+00  0.00000000000E+00 -0.21484839334E+03  0.39773254244E+04  0.39715183116E+04 0.  0.
        4    1    3    3  502    0 -0.14650444823E+04 -0.93177330719E+02 -0.14466156174E+04  0.20610035680E+04  0.12699999809E+01 0.  1.
       -4    1    3    3    0  502  0.14650444823E+04  0.93177330719E+02  0.12317672241E+04  0.19163218564E+04  0.12699999809E+01 0. -1.
</event>
<event>
 5   0  0.1819906E-07  0.3957214E+04  0.7818609E-02  0.8013234E-01
       -2   -1    0    0    0  501  0.00000000000E+00  0.00000000000E+00  0.17423304962E+04  0.17423304962E+04  0.25500000920E-02 0.  1.
        2   -1    0    0  501    0  0.00000000000E+00  0.00000000000E+00 -0.22469251331E+04  0.22469251331E+04  0.25500000920E-02 0. -1.
    10030    2    1    2    0    0  0.00000000000E+00  0.00000000000E+00 -0.50459463685E+03  0.39892556293E+04  0.39572142637E+04 0.  0.
        1    1    3    3  502    0  0.15763913029E+03  0.18718782936E+04  0.37410961337E+03  0.19153945923E+04  0.50400001928E-02 0.  1.
       -1    1    3    3    0  502 -0.15763913029E+03 -0.18718782936E+04 -0.87870425022E+03  0.20738610370E+04  0.50400001928E-02 0. -1.
</event>
<event>
 5   0  0.1821433E-07  0.4101791E+04  0.7818609E-02  0.7984321E-01
       -2   -1    0    0    0  501  0.00000000000E+00  0.00000000000E+00  0.16445987402E+04  0.16445987402E+04  0.25500000920E-02 0. -1.
        2   -1    0    0  501    0  0.00000000000E+00  0.00000000000E+00 -0.25575675495E+04  0.25575675495E+04  0.25500000920E-02 0.  1.
    10030    2    1    2    0    0  0.00000000000E+00  0.00000000000E+00 -0.91296880928E+03  0.42021662897E+04  0.41017910088E+04 0.  0.
        5    1    3    3  502    0 -0.13287461613E+04 -0.15454954135E+04 -0.22280651215E+03  0.20503139433E+04  0.46999998093E+01 0. -1.
       -5    1    3    3    0  502  0.13287461613E+04  0.15454954135E+04 -0.69016229713E+03  0.21518523464E+04  0.46999998093E+01 0.  1.
</event>
<event>
 5   0  0.1821433E-07  0.4010719E+04  0.7818609E-02  0.8002388E-01
       -2   -1    0    0    0  501  0.00000000000E+00  0.00000000000E+00  0.21499382669E+04  0.21499382669E+04  0.25500000920E-02 0. -1.
        2   -1    0    0  501    0  0.00000000000E+00  0.00000000000E+00 -0.18705037916E+04  0.18705037916E+04  0.25500000920E-02 0.  1.
    10030    2    1    2    0    0  0.00000000000E+00  0.00000000000E+00  0.27943447526E+03  0.40204420584E+04  0.40107194765E+04 0.  0.
        5    1    3    3  502    0 -0.18449870888E+04  0.76294928220E+03 -0.48825460407E+02  0.19971166668E+04  0.46999998093E+01 0. -1.
       -5    1    3    3    0  502  0.18449870888E+04 -0.76294928220E+03  0.32825993567E+03  0.20233253917E+04  0.46999998093E+01 0.  1.
</event>
<event>
 5   0  0.5515000E-08  0.4005980E+04  0.7818609E-02  0.8003341E-01
       -1   -1    0    0    0  501  0.00000000000E+00  0.00000000000E+00  0.21048878870E+04  0.21048878870E+04  0.50400001928E-02 0.  1.
        1   -1    0    0  501    0  0.00000000000E+00  0.00000000000E+00 -0.19060254006E+04  0.19060254006E+04  0.50400001928E-02 0. -1.
    10030    2    1    2    0    0  0.00000000000E+00  0.00000000000E+00  0.19886248636E+03  0.40109132876E+04  0.40059804183E+04 0.  0.
        4    1    3    3  502    0 -0.13412846185E+04  0.14436206674E+04 -0.26001375758E+03  0.19876352347E+04  0.12699999809E+01 0. -1.
       -4    1    3    3    0  502  0.13412846185E+04 -0.14436206674E+04  0.45887624394E+03  0.20232780529E+04  0.12699999809E+01 0.  1.
</event>
<event>
 5   0  0.5515000E-08  0.4083602E+04  0.7818609E-02  0.7987891E-01
       -1   -1    0    0    0  501  0.00000000000E+00  0.00000000000E+00  0.26895466409E+04  0.26895466409E+04  0.50400001928E-02 0.  1.
        1   -1    0    0  501    0  0.00000000000E+00  0.00000000000E+00 -0.15500569496E+04  0.15500569496E+04  0.50400001928E-02 0. -1.
    10030    2    1    2    0    0  0.00000000000E+00  0.00000000000E+00  0.11394896914E+04  0.42396035905E+04  0.40836015780E+04 0.  0.
        4    1    3    3  502    0 -0.44424094313E+03 -0.14810807577E+03 -0.14935528818E+04  0.15652437003E+04  0.12699999809E+01 0. -1.
       -4    1    3    3    0  502  0.44424094313E+03  0.14810807577E+03  0.26330425731E+04  0.26743598902E+04  0.12699999809E+01 0.  1.
</event>
<event>
 5   0  0.5515000E-08  0.3294793E+04  0.7818609E-02  0.8164222E-01
        1   -1    0    0  501    0  0.00000000000E+00  0.00000000000E+00  0.20351285936E+04  0.20351285936E+04  0.50400001928E-02 0. -1.
       -1   -1    0    0    0  501  0.00000000000E+00  0.00000000000E+00 -0.13335350735E+04  0.13335350735E+04  0.50400001928E-02 0.  1.
    10030    2    1    2    0    0  0.00000000000E+00  0.00000000000E+00  0.70159352011E+03  0.33686636671E+04  0.32947930792E+04 0.  0.
        2    1    3    3  502    0 -0.11967742999E+04  0.70563348925E+02  0.15060266040E+04  0.19249322178E+04  0.25500000920E-02 0. -1.
       -2    1    3    3    0  502  0.11967742999E+04 -0.70563348925E+02 -0.80443308388E+03  0.14437314493E+04  0.25500000920E-02 0.  1.
</event>
<event>
 5   0  0.1819906E-07  0.3951381E+04  0.7818609E-02  0.8014427E-01
       -2   -1    0    0    0  501  0.00000000000E+00  0.00000000000E+00  0.12268729276E+04  0.12268729276E+04  0.25500000920E-02 0.  1.
        2   -1    0    0  501    0  0.00000000000E+00  0.00000000000E+00 -0.31815466599E+04  0.31815466599E+04  0.25500000920E-02 0. -1.
    10030    2    1    2    0    0  0.00000000000E+00  0.00000000000E+00 -0.19546737324E+04  0.44084195875E+04  0.39513812597E+04 0.  0.
        1    1    3    3  502    0  0.15477589588E+04  0.25552323061E+03 -0.23172987130E+04  0.27983429457E+04  0.50400001928E-02 0. -1.
       -1    1    3    3    0  502 -0.15477589588E+04 -0.25552323061E+03  0.36262498067E+03  0.16100766419E+04  0.50400001928E-02 0.  1.
</event>
<event>
 5   0  0.1821433E-07  0.3968199E+04  0.7818609E-02  0.8010993E-01
       -2   -1    0    0    0  501  0.00000000000E+00  0.00000000000E+00  0.12724183685E+04  0.12724183685E+04  0.25500000920E-02 0.  1.
        2   -1    0    0  501    0  0.00000000000E+00  0.00000000000E+00 -0.30938333041E+04  0.30938333041E+04  0.25500000920E-02 0. -1.
    10030    2    1    2    0    0  0.00000000000E+00  0.00000000000E+00 -0.18214149356E+04  0.43662516726E+04  0.39681987477E+04 0.  0.
        5    1    3    3  502    0  0.88655190848E+03  0.14588249889E+04 -0.20233189176E+04  0.26472601245E+04  0.46999998093E+01 0. -1.
       -5    1    3    3    0  502 -0.88655190848E+03 -0.14588249889E+04  0.20190398196E+03  0.17189915481E+04  0.46999998093E+01 0.  1.
</event>
<event>
 5   0  0.1773903E-07  0.4054866E+04  0.7818609E-02  0.7993569E-01
        2   -1    0    0  501    0  0.00000000000E+00  0.00000000000E+00  0.30372882807E+04  0.30372882807E+04  0.25500000920E-02 0. -1.
       -2   -1    0    0    0  501  0.00000000000E+00  0.00000000000E+00 -0.13533401813E+04  0.13533401813E+04  0.25500000920E-02 0.  1.
    10030    2    1    2    0    0  0.00000000000E+00  0.00000000000E+00  0.16839480994E+04  0.43906284620E+04  0.40548658535E+04 0.  0.
        3    1    3    3  502    0  0.48062986328E+03  0.39917284229E+03  0.29304518017E+04  0.29963130337E+04  0.10100000352E+00 0. -1.
       -3    1    3    3    0  502 -0.48062986328E+03 -0.39917284229E+03 -0.12465037023E+04  0.13943154283E+04  0.10100000352E+00 0.  1.
</event>
<event>
 5   0  0.5515000E-08  0.4001795E+04  0.7818609E-02  0.8004184E-01
       -1   -1    0    0    0  501  0.00000000000E+00  0.00000000000E+00  0.16815474402E+04  0.16815474402E+04  0.50400001928E-02 0.  1.
        1   -1    0    0  501    0  0.00000000000E+00  0.00000000000E+00 -0.23808971011E+04  0.23808971011E+04  0.50400001928E-02 0. -1.
    10030    2    1    2    0    0  0.00000000000E+00  0.00000000000E+00 -0.69934966085E+03  0.40624445413E+04  0.40017953100E+04 0.  0.
        1    1    3    3  502    0  0.10729597376E+04  0.28176227429E+02 -0.20639220158E+04  0.23263298532E+04  0.50400001928E-02 0. -1.
       -1    1    3    3    0  502 -0.10729597376E+04 -0.28176227429E+02  0.13645723550E+04  0.17361146881E+04  0.50400001928E-02 0.  1.
</event>
<event>
 5   0  0.1819906E-07  0.4010730E+04  0.7818609E-02  0.8002386E-01
        2   -1    0    0  501    0  0.00000000000E+00  0.00000000000E+00  0.20318929485E+04  0.20318929485E+04  0.25500000920E-02 0. -1.
       -2   -1    0    0    0  501  0.00000000000E+00  0.00000000000E+00 -0.19791831782E+04  0.19791831782E+04  0.25500000920E-02 0.  1.
    10030    2    1    2    0    0  0.00000000000E+00  0.00000000000E+00  0.52709770275E+02  0.40110761268E+04  0.40107297808E+04 0.  0.
        1    1    3    3  502    0 -0.40170345908E+03 -0.81132928021E+03  0.18158856871E+04  0.20290543853E+04  0.50400001928E-02 0. -1.
       -1    1    3    3    0  502  0.40170345908E+03  0.81132928021E+03 -0.17631759168E+04  0.19820217414E+04  0.50400001928E-02 0.  1.
</event>
<event>
 5   0  0.5515000E-08  0.3993868E+04  0.7818609E-02  0.8005785E-01
       -1   -1    0    0    0  501  0.00000000000E+00  0.00000000000E+00  0.20381853272E+04  0.20381853272E+04  0.50400001928E-02 0. -1.
        1   -1    0    0  501    0  0.00000000000E+00  0.00000000000E+00 -0.19565178612E+04  0.19565178612E+04  0.50400001928E-02 0.  1.
    10030    2    1    2    0    0  0.00000000000E+00  0.00000000000E+00  0.81667466056E+02  0.39947031884E+04  0.39938682988E+04 0.  0.
        4    1    3    3  502    0 -0.58055109070E+03 -0.92049297846E+03  0.17155186809E+04  0.20315887502E+04  0.12699999809E+01 0. -1.
       -4    1    3    3    0  502  0.58055109070E+03  0.92049297846E+03 -0.16338512149E+04  0.19631144382E+04  0.12699999809E+01 0.  1.
</event>
<event>
 5   0  0.1773903E-07  0.3950682E+04  0.7818609E-02  0.8014570E-01
        2   -1    0    0  501    0  0.00000000000E+00  0.00000000000E+00  0.20840279194E+04  0.20840279194E+04  0.25500000920E-02 0.  1.
       -2   -1    0    0    0  501  0.00000000000E+00  0.00000000000E+00 -0.18723219020E+04  0.18723219020E+04  0.25500000920E-02 0. -1.
    10030    2    1    2    0    0  0.00000000000E+00  0.00000000000E+00  0.21170601740E+03  0.39563498215E+04  0.39506815200E+04 0.  0.
        3    1    3    3  502    0 -0.12709975383E+04  0.46821859011E+03  0.15457294536E+04  0.20552233320E+04  0.10100000352E+00 0.  1.
       -3    1    3    3    0  502  0.12709975383E+04 -0.46821859011E+03 -0.13340234362E+04  0.19011264895E+04  0.10100000352E+00 0. -1.
</event>
<event>
 5   0  0.1776653E-07  0.4003100E+04  0.7818609E-02  0.8003922E-01
       -2   -1    0    0    0  501  0.00000000000E+00  0.00000000000E+00  0.21895113354E+04  0.21895113354E+04  0.25500000920E-02 0. -1.
        2   -1    0    0  501    0  0.00000000000E+00  0.00000000000E+00 -0.18297242835E+04  0.18297242835E+04  0.25500000920E-02 0.  1.
    10030    2    1    2    0    0  0.00000000000E+00  0.00000000000E+00  0.35978705186E+03  0.40192356189E+04  0.40030998286E+04 0.  0.
        4    1    3    3  502    0 -0.11372960023E+04 -0.84681146179E+03 -0.12384820942E+04  0.18826500894E+04  0.12699999809E+01 0.  1.
       -4    1    3    3    0  502  0.11372960023E+04  0.84681146179E+03  0.15982691460E+04  0.21365855295E+04  0.12699999809E+01 0. -1.
</event>
<event>
 5   0  0.5515000E-08  0.3991718E+04  0.7818609E-02  0.8006219E-01
        1   -1    0    0  501    0  0.00000000000E+00  0.00000000000E+00  0.18256509722E+04  0.18256509722E+04  0.50400001928E-02 0. -1.
       -1   -1    0    0    0  501  0.00000000000E+00  0.00000000000E+00 -0.21819362617E+04  0.21819362617E+04  0.50400001928E-02 0.  1.
    10030    2    1    2    0    0  0.00000000000E+00  0.00000000000E+00 -0.35628528944E+03  0.40075872339E+04  0.39917184557E+04 0.  0.
        3    1    3    3  502    0 -0.43914348767E+03  0.76509384149E+03  0.16192926073E+04  0.18439967862E+04  0.10100000352E+00 0. -1.
       -3    1    3    3    0  502  0.43914348767E+03 -0.76509384149E+03 -0.19755778968E+04  0.21635904477E+04  0.10100000352E+00 0.  1.
</event>
<event>
 5   0  0.1819906E-07  0.4029698E+04  0.7818609E-02  0.7998582E-01
        2   -1    0    0  501    0  0.00000000000E+00  0.00000000000E+00  0.30410440960E+04  0.30410440960E+04  0.25500000920E-02 0. -1.
       -2   -1    0    0    0  501  0.00000000000E+00  0.00000000000E+00 -0.13349414339E+04  0.13349414339E+04  0.25500000920E-02 0.  1.
    10030    2    1    2    0    0  0.00000000000E+00  0.00000000000E+00  0.17061026620E+04  0.43759855299E+04  0.40296976393E+04 0.  0.
        1    1    3    3  502    0  0.31304304029E+03 -0.35495584966E+03  0.29798263607E+04  0.30171766173E+04  0.50400001928E-02 0. -1.
       -1    1    3    3    0  502 -0.31304304029E+03  0.35495584966E+03 -0.12737236987E+04  0.13588089125E+04  0.50400001928E-02 0.  1.
</event>
<event>
 5   0  0.5515000E-08  0.4003009E+04  0.7818609E-02  0.8003940E-01
       -1   -1    0    0    0  501  0.00000000000E+00  0.00000000000E+00  0.19923449501E+04  0.19923449501E+04  0.50400001928E-02 0.  1.
        1   -1    0    0  501    0  0.00000000000E+00  0.00000000000E+00 -0.20107061342E+04  0.20107061342E+04  0.50400001928E-02 0. -1.
    10030    2    1    2    0    0  0.00000000000E+00  0.00000000000E+00 -0.18361184052E+02  0.40030510843E+04  0.40030089746E+04 0.  0.
        5    1    3    3  502    0 -0.12406871805E+04  0.14617432757E+04 -0.58364293334E+03  0.20041604845E+04  0.46999998093E+01 0. -1.
       -5    1    3    3    0  502  0.12406871805E+04 -0.14617432757E+04  0.56528174929E+03  0.19988905998E+04  0.46999998093E+01 0.  1.
</event>
<event>
 5   0  0.5515000E-08  0.3980176E+04  0.7818609E-02  0.8008558E-01
       -1   -1    0    0    0  501  0.00000000000E+00  0.00000000000E+00  0.21314577026E+04  0.21314577027E+04  0.50400001928E-02 0. -1.
        1   -1    0    0  501    0  0.00000000000E+00  0.00000000000E+00 -0.18580946230E+04  0.18580946230E+04  0.50400001928E-02 0.  1.
    10030    2    1    2    0    0  0.00000000000E+00  0.00000000000E+00  0.27336307966E+03  0.39895523256E+04  0.39801759240E+04 0.  0.
        5    1    3    3  502    0 -0.68154171207E+02  0.13723825228E+04  0.15796384717E+04  0.20936471936E+04  0.46999998093E+01 0. -1.
       -5    1    3    3    0  502  0.68154171207E+02 -0.13723825228E+04 -0.13062753920E+04  0.18959051321E+04  0.46999998093E+01 0.  1.
</event>
<event>
 5   0  0.5515000E-08  0.4026396E+04  0.7818609E-02  0.7999243E-01
        1   -1    0    0  501    0  0.00000000000E+00  0.00000000000E+00  0.23481373932E+04  0.23481373932E+04  0.50400001928E-02 0. -1.
       -1   -1    0    0    0  501  0.00000000000E+00  0.00000000000E+00 -0.17260340989E+04  0.17260340990E+04  0.50400001928E-02 0.  1.
    10030    2    1    2    0    0  0.00000000000E+00  0.00000000000E+00  0.62210329421E+03  0.40741714921E+04  0.40263955144E+04 0.  0.
        1    1    3    3  502    0  0.15318569607E+04 -0.11634174872E+04  0.91210260519E+03  0.21288628796E+04  0.50400001928E-02 0. -1.
       -1    1    3    3    0  502 -0.15318569607E+04  0.11634174872E+04 -0.28999931098E+03  0.19453086125E+04  0.50400001928E-02 0.  1.
</event>
<event>
 5   0  0.5515000E-08  0.3775727E+04  0.7818609E-02  0.8051384E-01
       -1   -1    0    0    0  501  0.00000000000E+00  0.00000000000E+00  0.27805447027E+04  0.27805447027E+04  0.50400001928E-02 0.  1.
        1   -1    0    0  501    0  0.00000000000E+00  0.00000000000E+00 -0.12817732177E+04  0.12817732178E+04  0.50400001928E-02 0. -1.
    10030    2    1    2    0    0  0.00000000000E+00  0.00000000000E+00  0.14987714850E+04  0.40623179205E+04  0.37757265424E+04 0.  0.
        3    1    3    3  502    0 -0.40081185342E+03 -0.13841029034E+04 -0.56288009316E+03  0.15470051708E+04  0.10100000352E+00 0. -1.
       -3    1    3    3    0  502  0.40081185342E+03  0.13841029034E+04  0.20616515782E+04  0.25153127497E+04  0.10100000352E+00 0.  1.
</event>
<event>
 5   0  0.5515000E-08  0.4270056E+04  0.7818609E-02  0.7952178E-01
       -1   -1    0    0    0  501  0.00000000000E+00  0.00000000000E+00  0.17961122146E+04  0.17961122146E+04  0.50400001928E-02 0.  1.
        1   -1    0    0  501    0  0.00000000000E+00  0.00000000000E+00 -0.25378949576E+04  0.25378949576E+04  0.50400001928E-02 0. -1.
    10030    2    1    2    0    0  0.00000000000E+00  0.00000000000E+00 -0.74178274300E+03  0.43340071723E+04  0.42700557996E+04 0.  0.
        5    1    3    3  502    0 -0.14525500824E+04  0.15011186152E+04 -0.81916557990E+03  0.22437275182E+04  0.46999998093E+01 0. -1.
       -5    1    3    3    0  502  0.14525500824E+04 -0.15011186152E+04  0.77382836896E+02  0.20902796541E+04  0.46999998093E+01 0.  1.
</event>
<event>
 5   0  0.5515000E-08  0.3765923E+04  0.7818609E-02  0.8053508E-01
       -1   -1    0    0    0  501  0.00000000000E+00  0.00000000000E+00  0.27947392184E+04  0.27947392184E+04  0.50400001928E-02 0. -1.
        1   -1    0    0  501    0  0.00000000000E+00  0.00000000000E+00 -0.12686489925E+04  0.12686489926E+04  0.50400001928E-02 0.  1.
    10030    2    1    2    0    0  0.00000000000E+00  0.00000000000E+00  0.15260902259E+04  0.40633882110E+04  0.37659225132E+04 0.  0.
        4    1    3    3  502    0  0.10878366857E+04 -0.38123028273E+03  0.23695490317E+04  0.26350501722E+04  0.12699999809E+01 0. -1.
       -4    1    3    3    0  502 -0.10878366857E+04  0.38123028273E+03 -0.84345880581E+03  0.14283380389E+04  0.12699999809E+01 0.  1.
</event>
<event>
 5   0  0.5515000E-08  0.3996611E+04  0.7818609E-02  0.8005231E-01
       -1   -1    0    0    0  501  0.00000000000E+00  0.00000000000E+00  0.15220177708E+04  0.15220177708E+04  0.50400001928E-02 0. -1.
        1   -1    0    0  501    0  0.00000000000E+00  0.00000000000E+00 -0.26236384943E+04  0.26236384943E+04  0.50400001928E-02 0.  1.
    10030    2    1    2    0    0  0.00000000000E+00  0.00000000000E+00 -0.11016207235E+04  0.41456562650E+04  0.39966107703E+04 0.  0.
        3    1    3    3  502    0 -0.13328283008E+03 -0.19221418539E+03  0.15077690315E+04  0.15258040727E+04  0.10100000352E+00 0. -1.
       -3    1    3    3    0  502  0.13328283008E+03  0.19221418539E+03 -0.26093897550E+04  0.26198521923E+04  0.10100000352E+00 0.  1.
</event>
<event>
 5   0  0.5515000E-08  0.4024642E+04  0.7818609E-02  0.7999594E-01
       -1   -1    0    0    0  501  0.00000000000E+00  0.00000000000E+00  0.21558398034E+04  0.21558398034E+04  0.50400001928E-02 0.  1.
        1   -1    0    0  501    0  0.00000000000E+00  0.00000000000E+00 -0.18783562465E+04  0.18783562465E+04  0.50400001928E-02 0. -1.
    10030    2    1    2    0    0  0.00000000000E+00  0.00000000000E+00  0.27748355690E+03  0.40341960499E+04  0.40246416791E+04 0.  0.
        3    1    3    3  502    0  0.18411173444E+04 -0.48391822953E+03  0.79262868149E+03  0.20620742387E+04  0.10100000352E+00 0. -1.
       -3    1    3    3    0  502 -0.18411173444E+04  0.48391822953E+03 -0.51514512459E+03  0.19721218113E+04  0.10100000352E+00 0.  1.
</event>
<event>
 5   0  0.5515000E-08  0.3346828E+04  0.7818609E-02  0.8151081E-01
       -1   -1    0    0    0  501  0.00000000000E+00  0.00000000000E+00  0.28703574041E+04  0.28703574041E+04  0.50400001928E-02 0.  1.
        1   -1    0    0  501    0  0.00000000000E+00  0.00000000000E+00 -0.97559755872E+03  0.97559755873E+03  0.50400001928E-02 0. -1.
    10030    2    1    2    0    0  0.00000000000E+00  0.00000000000E+00  0.18947598454E+04  0.38459549628E+04  0.33468275582E+04 0.  0.
        5    1    3    3  502    0  0.15070964259E+04 -0.70022065740E+03  0.72148515882E+03  0.18116874814E+04  0.46999998093E+01 0. -1.
       -5    1    3    3    0  502 -0.15070964259E+04  0.70022065740E+03  0.11732746865E+04  0.20342674814E+04  0.46999998093E+01 0.  1.
</event>
<event>
 5   0  0.1773903E-07  0.3590980E+04  0.7818609E-02  0.8092561E-01
       -2   -1    0    0    0  501  0.00000000000E+00  0.00000000000E+00  0.13960808602E+04  0.13960808602E+04  0.25500000920E-02 0. -1.
        2   -1    0    0  501    0  0.00000000000E+00  0.00000000000E+00 -0.23091677483E+04  0.23091677483E+04  0.25500000920E-02 0.  1.
    10030    2    1    2    0    0  0.00000000000E+00  0.00000000000E+00 -0.91308688813E+03  0.37052486086E+04  0.35909803099E+04 0.  0.
        3    1    3    3  502    0 -0.11479671064E+04  0.11675765614E+04 -0.12166820590E+04  0.20399457706E+04  0.10100000352E+00 0.  1.
       -3    1    3    3    0  502  0.11479671064E+04 -0.11675765614E+04  0.30359517084E+03  0.16653028380E+04  0.10100000352E+00 0. -1.
</event>
<event>
 5   0  0.1785559E-07  0.3917441E+04  0.7818609E-02  0.8021412E-01
       -2   -1    0    0    0  501  0.00000000000E+00  0.00000000000E+00  0.20573847319E+04  0.20573847319E+04  0.25500000920E-02 0.  1.
        2   -1    0    0  501    0  0.00000000000E+00  0.00000000000E+00 -0.18647874979E+04  0.18647874979E+04  0.25500000920E-02 0. -1.
    10030    2    1    2    0    0  0.00000000000E+00  0.00000000000E+00  0.19259723399E+03  0.39221722299E+04  0.39174406576E+04 0.  0.
        2    1    3    3  502    0 -0.16717970934E+04 -0.65012930534E+03 -0.69142462535E+03  0.19224051727E+04  0.25500000920E-02 0. -1.
       -2    1    3    3    0  502  0.16717970934E+04  0.65012930534E+03  0.88402185933E+03  0.19997670572E+04  0.25500000920E-02 0.  1.
</event>
<event>
 5   0  0.5515000E-08  0.3987693E+04  0.7818609E-02  0.8007034E-01
       -3   -1    0    0    0  501  0.00000000000E+00  0.00000000000E+00  0.22113655612E+04  0.22113655635E+04  0.10100000352E+00 0. -1.
        3   -1    0    0  501    0  0.00000000000E+00  0.00000000000E+00 -0.17977233580E+04  0.17977233608E+04  0.10100000352E+00 0.  1.
    10030    2    1    2    0    0  0.00000000000E+00  0.00000000000E+00  0.41364220323E+03  0.40090889243E+04  0.39876928330E+04 0.  0.
        1    1    3    3  502    0 -0.58591850374E+03 -0.10476808415E+04 -0.13937283691E+04  0.18394059926E+04  0.50400001928E-02 0.  1.
       -1    1    3    3    0  502  0.58591850374E+03  0.10476808415E+04  0.18073705723E+04  0.21696829317E+04  0.50400001928E-02 0. -1.
</event>
<event>
 5   0  0.1773903E-07  0.4065756E+04  0.7818609E-02  0.7991411E-01
       -2   -1    0    0    0  501  0.00000000000E+00  0.00000000000E+00  0.14853249743E+04  0.14853249743E+04  0.25500000920E-02 0. -1.
        2   -1    0    0  501    0  0.00000000000E+00  0.00000000000E+00 -0.27822825200E+04  0.27822825200E+04  0.25500000920E-02 0.  1.
    10030    2    1    2    0    0  0.00000000000E+00  0.00000000000E+00 -0.12969575457E+04  0.42676074944E+04  0.40657563688E+04 0.  0.
        3    1    3    3  502    0  0.68077131533E+03  0.13407706080E+04  0.78745865469E+03  0.16974117209E+04  0.10100000352E+00 0. -1.
       -3    1    3    3    0  502 -0.68077131533E+03 -0.13407706080E+04 -0.20844162004E+04  0.25701957735E+04  0.10100000352E+00 0.  1.
</event>
<event>
 5   0  0.1819906E-07  0.3901451E+04  0.7818609E-02  0.8024727E-01
       -2   -1    0    0    0  501  0.00000000000E+00  0.00000000000E+00  0.15264422218E+04  0.15264422218E+04  0.25500000920E-02 0. -1.
        2   -1    0    0  501    0  0.00000000000E+00  0.00000000000E+00 -0.24929411354E+04  0.24929411354E+04  0.25500000920E-02 0.  1.
    10030    2    1    2    0    0  0.00000000000E+00  0.00000000000E+00 -0.96649891363E+03  0.40193833572E+04  0.39014513226E+04 0.  0.
        1    1    3    3  502    0 -0.14466861738E+04 -0.13017057034E+04 -0.34506069022E+03  0.19764628768E+04  0.50400001928E-02 0.  1.
       -1    1    3    3    0  502  0.14466861738E+04  0.13017057034E+04 -0.62143822340E+03  0.20429204804E+04  0.50400001928E-02 0. -1.
</event>
<event>
 5   0  0.1776653E-07  0.3211179E+04  0.7818609E-02  0.8185871E-01
       -2   -1    0    0    0  501  0.00000000000E+00  0.00000000000E+00  0.98557441589E+03  0.98557441590E+03  0.25500000920E-02 0. -1.
        2   -1    0    0  501    0  0.00000000000E+00  0.00000000000E+00 -0.26156504184E+04  0.26156504184E+04  0.25500000920E-02 0.  1.
    10030    2    1    2    0    0  0.00000000000E+00  0.00000000000E+00 -0.16300760026E+04  0.36012248343E+04  0.32111793057E+04 0.  0.
        4    1    3    3  502    0  0.39470561190E+03  0.10168666974E+04  0.50624855000E+03  0.12025388175E+04  0.12699999809E+01 0. -1.
       -4    1    3    3    0  502 -0.39470561190E+03 -0.10168666974E+04 -0.21363245526E+04  0.23986860168E+04  0.12699999809E+01 0.  1.
</event>
<event>
 5   0  0.1785559E-07  0.3995607E+04  0.7818609E-02  0.8005433E-01
       -2   -1    0    0    0  501  0.00000000000E+00  0.00000000000E+00  0.23440013316E+04  0.23440013316E+04  0.25500000920E-02 0.  1.
        2   -1    0    0  501    0  0.00000000000E+00  0.00000000000E+00 -0.17027370461E+04  0.17027370461E+04  0.25500000920E-02 0. -1.
    10030    2    1    2    0    0  0.00000000000E+00  0.00000000000E+00  0.64126428548E+03  0.40467383778E+04  0.39956065390E+04 0.  0.
        2    1    3    3  502    0  0.22868525174E+01 -0.13851622328E+04  0.17786864208E+04  0.22544189993E+04  0.25500000920E-02 0.  1.
       -2    1    3    3    0  502 -0.22868525174E+01  0.13851622328E+04 -0.11374221353E+04  0.17923193785E+04  0.25500000920E-02 0. -1.
</event>
<event>
 5   0  0.5515000E-08  0.3561542E+04  0.7818609E-02  0.8099358E-01
       -1   -1    0    0    0  501  0.00000000000E+00  0.00000000000E+00  0.12615596578E+04  0.12615596578E+04  0.50400001928E-02 0.  1.
        1   -1    0    0  501    0  0.00000000000E+00  0.00000000000E+00 -0.25136707546E+04  0.25136707547E+04  0.50400001928E-02 0. -1.
    10030    2    1    2    0    0  0.00000000000E+00  0.00000000000E+00 -0.12521110969E+04  0.37752304124E+04  0.35615421474E+04 0.  0.
        5    1    3    3  502    0  0.12572432751E+03  0.63374880645E+01 -0.25089418848E+04  0.25121023549E+04  0.46999998093E+01 0. -1.
       -5    1    3    3    0  502 -0.12572432751E+03 -0.63374880645E+01  0.12568307879E+04  0.12631280575E+04  0.46999998093E+01 0.  1.
</event>
<event>
 5   0  0.1785559E-07  0.4017133E+04  0.7818609E-02  0.8001099E-01
       -2   -1    0    0    0  501  0.00000000000E+00  0.00000000000E+00  0.27388916510E+04  0.27388916510E+04  0.25500000920E-02 0. -1.
        2   -1    0    0  501    0  0.00000000000E+00  0.00000000000E+00 -0.14729821303E+04  0.14729821303E+04  0.25500000920E-02 0.  1.
    10030    2    1    2    0    0  0.00000000000E+00  0.00000000000E+00  0.12659095207E+04  0.42118737813E+04  0.40171325389E+04 0.  0.
        2    1    3    3  502    0  0.16794323155E+04 -0.10963578380E+04  0.74706578000E+03  0.21402337936E+04  0.25500000920E-02 0. -1.
       -2    1    3    3    0  502 -0.16794323155E+04  0.10963578380E+04  0.51884374074E+03  0.20716399878E+04  0.25500000920E-02 0.  1.
</event>
<event>
 5   0  0.5515000E-08  0.3964518E+04  0.7818609E-02  0.8011743E-01
        1   -1    0    0  501    0  0.00000000000E+00  0.00000000000E+00  0.13450986766E+04  0.13450986767E+04  0.50400001928E-02 0.  1.
       -1   -1    0    0    0  501  0.00000000000E+00  0.00000000000E+00 -0.29212363545E+04  0.29212363545E+04  0.50400001928E-02 0. -1.
    10030    2    1    2    0    0  0.00000000000E+00  0.00000000000E+00 -0.15761376779E+04  0.42663350312E+04  0.39645182076E+04 0.  0.
        5    1    3    3  502    0 -0.11796378220E+04  0.47754029205E+03 -0.24235516679E+04  0.27373737229E+04  0.46999998093E+01 0. -1.
       -5    1    3    3    0  502  0.11796378220E+04 -0.47754029205E+03  0.84741399003E+03  0.15289613083E+04  0.46999998093E+01 0.  1.
</event>
<event>
 5   0  0.5515000E-08  0.4008237E+04  0.7818609E-02  0.8002887E-01
        1   -1    0    0  501    0  0.00000000000E+00  0.00000000000E+00  0.24508483262E+04  0.24508483262E+04  0.50400001928E-02 0.  1.
       -1   -1    0    0    0  501  0.00000000000E+00  0.00000000000E+00 -0.16388163375E+04  0.16388163375E+04  0.50400001928E-02 0. -1.
    10030    2    1    2    0    0  0.00000000000E+00  0.00000000000E+00  0.81203198876E+03  0.40896646637E+04  0.40082366585E+04 0.  0.
        4    1    3    3  502    0 -0.96920943378E+03  0.14021156414E+04  0.14815624736E+04  0.22583897304E+04  0.12699999809E+01 0.  1.
       -4    1    3    3    0  502  0.96920943378E+03 -0.14021156414E+04 -0.66953048481E+03  0.18312749333E+04  0.12699999809E+01 0. -1.
</event>
<event>
 5   0  0.5515000E-08  0.4044255E+04  0.7818609E-02  0.7995678E-01
       -1   -1    0    0    0  501  0.00000000000E+00  0.00000000000E+00  0.15207392526E+04  0.15207392526E+04  0.50400001928E-02 0.  1.
        1   -1    0    0  501    0  0.00000000000E+00  0.00000000000E+00 -0.26888240841E+04  0.26888240841E+04  0.50400001928E-02 0. -1.
    10030    2    1    2    0    0  0.00000000000E+00  0.00000000000E+00 -0.11680848315E+04  0.42095633367E+04  0.40442553470E+04 0.  0.
        2    1    3    3  502    0 -0.15653131975E+04 -0.12360857302E+04 -0.23743426137E+03  0.20086035864E+04  0.25500000920E-02 0. -1.
       -2    1    3    3    0  502  0.15653131975E+04  0.12360857302E+04 -0.93065057017E+03  0.22009597503E+04  0.25500000920E-02 0.  1.
</event>
<event>
 5   0  0.5515000E-08  0.3990211E+04  0.7818609E-02  0.8006524E-01
       -1   -1    0    0    0  501  0.00000000000E+00  0.00000000000E+00  0.26921016121E+04  0.26921016121E+04  0.50400001928E-02 0.  1.
        1   -1    0    0  501    0  0.00000000000E+00  0.00000000000E+00 -0.14785645425E+04  0.14785645425E+04  0.50400001928E-02 0. -1.
    10030    2    1    2    0    0  0.00000000000E+00  0.00000000000E+00  0.12135370696E+04  0.41706661545E+04  0.39902110161E+04 0.  0.
        4    1    3    3  502    0 -0.11694124404E+04 -0.14309178943E+04  0.13927001142E+04  0.23140152758E+04  0.12699999809E+01 0.  1.
       -4    1    3    3    0  502  0.11694124404E+04  0.14309178943E+04 -0.17916304455E+03  0.18566508787E+04  0.12699999809E+01 0. -1.
</event>
<event>
 5   0  0.1819906E-07  0.3451435E+04  0.7818609E-02  0.8125397E-01
       -2   -1    0    0    0  501  0.00000000000E+00  0.00000000000E+00  0.13357581423E+04  0.13357581423E+04  0.25500000920E-02 0.  1.
        2   -1    0    0  501    0  0.00000000000E+00  0.00000000000E+00 -0.22295215397E+04  0.22295215397E+04  0.25500000920E-02 0. -1.
    10030    2    1    2    0    0  0.00000000000E+00  0.00000000000E+00 -0.89376339738E+03  0.35652796820E+04  0.34514353826E+04 0.  0.
        1    1    3    3  502    0 -0.70057507584E+03 -0.38359521344E+03 -0.20270952497E+04  0.21787762336E+04  0.50400001928E-02 0. -1.
       -1    1    3    3    0  502  0.70057507584E+03  0.38359521344E+03  0.11333318524E+04  0.13865034483E+04  0.50400001928E-02 0.  1.
</event>
<event>
 5   0  0.1776653E-07  0.4004238E+04  0.7818609E-02  0.8003692E-01
       -2   -1    0    0    0  501  0.00000000000E+00  0.00000000000E+00  0.19719791079E+04  0.19719791079E+04  0.25500000920E-02 0.  1.
        2   -1    0    0  501    0  0.00000000000E+00  0.00000000000E+00 -0.20327196589E+04  0.20327196589E+04  0.25500000920E-02 0. -1.
    10030    2    1    2    0    0  0.00000000000E+00  0.00000000000E+00 -0.60740550996E+02  0.40046987667E+04  0.40042381045E+04 0.  0.
        4    1    3    3  502    0 -0.10521608759E+04 -0.62339741100E+03 -0.16157378812E+04  0.20263951625E+04  0.12699999809E+01 0. -1.
       -4    1    3    3    0  502  0.10521608759E+04  0.62339741100E+03  0.15549973302E+04  0.19783036043E+04  0.12699999809E+01 0.  1.
</event>
<event>
 5   0  0.5515000E-08  0.3991461E+04  0.7818609E-02  0.8006271E-01
       -1   -1    0    0    0  501  0.00000000000E+00  0.00000000000E+00  0.14010977761E+04  0.14010977762E+04  0.50400001928E-02 0. -1.
        1   -1    0    0  501    0  0.00000000000E+00  0.00000000000E+00 -0.28427284823E+04  0.28427284823E+04  0.50400001928E-02 0.  1.
    10030    2    1    2    0    0  0.00000000000E+00  0.00000000000E+00 -0.14416307061E+04  0.42438262584E+04  0.39914611634E+04 0.  0.
        5    1    3    3  502    0 -0.16777736143E+04 -0.18318985201E+03  0.41162573693E+03  0.17372221101E+04  0.46999998093E+01 0. -1.
       -5    1    3    3    0  502  0.16777736143E+04  0.18318985201E+03 -0.18532564431E+04  0.25066041483E+04  0.46999998093E+01 0.  1.
</event>
<event>
 5   0  0.1773903E-07  0.3857579E+04  0.7818609E-02  0.8033910E-01
        2   -1    0    0  501    0  0.00000000000E+00  0.00000000000E+00  0.27807557534E+04  0.27807557534E+04  0.25500000920E-02 0. -1.
       -2   -1    0    0    0  501  0.00000000000E+00  0.00000000000E+00 -0.13378484669E+04  0.13378484669E+04  0.25500000920E-02 0.  1.
    10030    2    1    2    0    0  0.00000000000E+00  0.00000000000E+00  0.14429072865E+04  0.41186042203E+04  0.38575794594E+04 0.  0.
        3    1    3    3  502    0 -0.49254684324E+03  0.14624768525E+04  0.19568070776E+04  0.24920944778E+04  0.10100000352E+00 0. -1.
       -3    1    3    3    0  502  0.49254684324E+03 -0.14624768525E+04 -0.51389979112E+03  0.16265097425E+04  0.10100000352E+00 0.  1.
</event>
<event>
 5   0  0.5515000E-08  0.4004498E+04  0.7818609E-02  0.8003640E-01
       -1   -1    0    0    0  501  0.00000000000E+00  0.00000000000E+00  0.23844753942E+04  0.23844753942E+04  0.50400001928E-02 0.  1.
        1   -1    0    0  501    0  0.00000000000E+00  0.00000000000E+00 -0.16812929566E+04  0.16812929566E+04  0.50400001928E-02 0. -1.
    10030    2    1    2    0    0  0.00000000000E+00  0.00000000000E+00  0.70318243760E+03  0.40657683507E+04  0.40044983133E+04 0.  0.
        3    1    3    3  502    0 -0.49105696101E+03 -0.14581590572E+04  0.16524587332E+04  0.22578717081E+04  0.10100000352E+00 0.  1.
       -3    1    3    3    0  502  0.49105696101E+03  0.14581590572E+04 -0.94927629555E+03  0.18078966427E+04  0.10100000352E+00 0. -1.
</event>
<event>
 5   0  0.5515000E-08  0.3976303E+04  0.7818609E-02  0.8009344E-01
        1   -1    0    0  501    0  0.00000000000E+00  0.00000000000E+00  0.21732403782E+04  0.21732403782E+04  0.50400001928E-02 0. -1.
       -1   -1    0    0    0  501  0.00000000000E+00  0.00000000000E+00 -0.18188262280E+04  0.18188262280E+04  0.50400001928E-02 0.  1.
    10030    2    1    2    0    0  0.00000000000E+00  0.00000000000E+00  0.35441415017E+03  0.39920666062E+04  0.39763031070E+04 0.  0.
        2    1    3    3  502    0 -0.11686428433E+04 -0.57016819109E+03  0.16871403482E+04  0.21300846030E+04  0.25500000920E-02 0. -1.
       -2    1    3    3    0  502  0.11686428433E+04  0.57016819109E+03 -0.13327261981E+04  0.18619820032E+04  0.25500000920E-02 0.  1.
</event>
<event>
 5   0  0.1785559E-07  0.4019372E+04  0.7818609E-02  0.8000650E-01
       -2   -1    0    0    0  501  0.00000000000E+00  0.00000000000E+00  0.14940200332E+04  0.14940200332E+04  0.25500000920E-02 0. -1.
        2   -1    0    0  501    0  0.00000000000E+00  0.00000000000E+00 -0.27033360187E+04  0.27033360187E+04  0.25500000920E-02 0.  1.
    10030    2    1    2    0    0  0.00000000000E+00  0.00000000000E+00 -0.12093159855E+04  0.41973560519E+04  0.40193721741E+04 0.  0.
        2    1    3    3  502    0 -0.17307523995E+04 -0.79817093388E+03  0.60949594682E+02  0.19069073290E+04  0.25500000920E-02 0. -1.
       -2    1    3    3    0  502  0.17307523995E+04  0.79817093388E+03 -0.12702655802E+04  0.22904487229E+04  0.25500000920E-02 0.  1.
</event>
<event>
 5   0  0.5515000E-08  0.3974404E+04  0.7818609E-02  0.8009730E-01
        1   -1    0    0  501    0  0.00000000000E+00  0.00000000000E+00  0.24683085897E+04  0.24683085897E+04  0.50400001928E-02 0.  1.
       -1   -1    0    0    0  501  0.00000000000E+00  0.00000000000E+00 -0.15998699539E+04  0.15998699539E+04  0.50400001928E-02 0. -1.
    10030    2    1    2    0    0  0.00000000000E+00  0.00000000000E+00  0.86843863573E+03  0.40681785436E+04  0.39744044835E+04 0.  0.
        1    1    3    3  502    0 -0.18457201091E+04  0.13864479475E+03  0.11745178209E+04  0.21921216234E+04  0.50400001928E-02 0.  1.
       -1    1    3    3    0  502  0.18457201091E+04 -0.13864479475E+03 -0.30607918513E+03  0.18760569202E+04  0.50400001928E-02 0. -1.
</event>
<event>
 5   0  0.1776653E-07  0.4000345E+04  0.7818609E-02  0.8004477E-01
       -2   -1    0    0    0  501  0.00000000000E+00  0.00000000000E+00  0.26274786613E+04  0.26274786613E+04  0.25500000920E-02 0.  1.
        2   -1    0    0  501    0  0.00000000000E+00  0.00000000000E+00 -0.15226343510E+04  0.15226343510E+04  0.25500000920E-02 0. -1.
    10030    2    1    2    0    0  0.00000000000E+00  0.00000000000E+00  0.11048443103E+04  0.41501130123E+04  0.40003446183E+04 0.  0.
        4    1    3    3  502    0 -0.28509928889E+03 -0.61834575618E+03  0.25035395347E+04  0.25944835505E+04  0.12699999809E+01 0.  1.
       -4    1    3    3    0  502  0.28509928889E+03  0.61834575618E+03 -0.13986952245E+04  0.15556294619E+04  0.12699999809E+01 0. -1.
</event>
<event>
 5   0  0.5515000E-08  0.4032269E+04  0.7818609E-02  0.7998068E-01
        1   -1    0    0  501    0  0.00000000000E+00  0.00000000000E+00  0.15887912336E+04  0.15887912336E+04  0.50400001928E-02 0. -1.
       -1   -1    0    0    0  501  0.00000000000E+00  0.00000000000E+00 -0.25584215125E+04  0.25584215125E+04  0.50400001928E-02 0.  1.
    10030    2    1    2    0    0  0.00000000000E+00  0.00000000000E+00 -0.96963027895E+03  0.41472127461E+04  0.40322686770E+04 0.  0.
        1    1    3    3  502    0  0.11124678516E+04 -0.15450814812E+04  0.19736910596E+03  0.19141097326E+04  0.50400001928E-02 0. -1.
       -1    1    3    3    0  502 -0.11124678516E+04  0.15450814812E+04 -0.11669993849E+04  0.22331030135E+04  0.50400001928E-02 0.  1.
</event>
<event>
 5   0  0.1776653E-07  0.3947687E+04  0.7818609E-02  0.8015184E-01
       -2   -1    0    0    0  501  0.00000000000E+00  0.00000000000E+00  0.15900072530E+04  0.15900072530E+04  0.25500000920E-02 0.  1.
        2   -1    0    0  501    0  0.00000000000E+00  0.00000000000E+00 -0.24503399288E+04  0.24503399288E+04  0.25500000920E-02 0. -1.
    10030    2    1    2    0    0  0.00000000000E+00  0.00000000000E+00 -0.86033267584E+03  0.40403471818E+04  0.39476870489E+04 0.  0.
        4    1    3    3  502    0 -0.10395628636E+04  0.14053757461E+04 -0.13683528803E+04  0.22199466555E+04  0.12699999809E+01 0. -1.
       -4    1    3    3    0  502  0.10395628636E+04 -0.14053757461E+04  0.50802020444E+03  0.18204005263E+04  0.12699999809E+01 0.  1.
</event>
<event>
 5   0  0.1821433E-07  0.4010217E+04  0.7818609E-02  0.8002489E-01
       -2   -1    0    0    0  501  0.00000000000E+00  0.00000000000E+00  0.13865408552E+04  0.13865408552E+04  0.25500000920E-02 0. -1.
        2   -1    0    0  501    0  0.00000000000E+00  0.00000000000E+00 -0.28996336155E+04  0.28996336155E+04  0.25500000920E-02 0.  1.
    10030    2    1    2    0    0  0.00000000000E+00  0.00000000000E+00 -0.15130927603E+04  0.42861744708E+04  0.40102171877E+04 0.  0.
        5    1    3    3  502    0 -0.57485797189E+03  0.17590539753E+04  0.68385083129E+02  0.18518723459E+04  0.46999998093E+01 0. -1.
       -5    1    3    3    0  502  0.57485797189E+03 -0.17590539753E+04 -0.15814778434E+04  0.24343021249E+04  0.46999998093E+01 0.  1.
</event>
<event>
 5   0  0.5515000E-08  0.4025985E+04  0.7818609E-02  0.7999325E-01
       -1   -1    0    0    0  501  0.00000000000E+00  0.00000000000E+00  0.33369403139E+04  0.33369403139E+04  0.50400001928E-02 0. -1.
        1   -1    0    0  501    0  0.00000000000E+00  0.00000000000E+00 -0.12143279071E+04  0.12143279071E+04  0.50400001928E-02 0.  1.
    10030    2    1    2    0    0  0.00000000000E+00  0.00000000000E+00  0.21226124069E+04  0.45512682210E+04  0.40259854682E+04 0.  0.
        4    1    3    3  502    0 -0.44631004117E+03 -0.32322944824E+03 -0.11273983601E+04  0.12548699551E+04  0.12699999809E+01 0.  1.
       -4    1    3    3    0  502  0.44631004117E+03  0.32322944824E+03  0.32500107670E+04  0.32963982659E+04  0.12699999809E+01 0. -1.
</event>
<event>
 5   0  0.1821433E-07  0.4051905E+04  0.7818609E-02  0.7994157E-01
       -2   -1    0    0    0  501  0.00000000000E+00  0.00000000000E+00  0.27260083283E+04  0.27260083283E+04  0.25500000920E-02 0. -1.
        2   -1    0    0  501    0  0.00000000000E+00  0.00000000000E+00 -0.15056752152E+04  0.15056752152E+04  0.25500000920E-02 0.  1.
    10030    2    1    2    0    0  0.00000000000E+00  0.00000000000E+00  0.12203331131E+04  0.42316835435E+04  0.40519048243E+04 0.  0.
        5    1    3    3  502    0  0.54141025316E+03 -0.12832931767E+04 -0.92633217112E+03  0.16727461914E+04  0.46999998093E+01 0.  1.
       -5    1    3    3    0  502 -0.54141025316E+03  0.12832931767E+04  0.21466652842E+04  0.25589373521E+04  0.46999998093E+01 0. -1.
</event>
<event>
 5   0  0.5515000E-08  0.3842698E+04  0.7818609E-02  0.8037054E-01
        1   -1    0    0  501    0  0.00000000000E+00  0.00000000000E+00  0.20351158454E+04  0.20351158454E+04  0.50400001928E-02 0. -1.
       -1   -1    0    0    0  501  0.00000000000E+00  0.00000000000E+00 -0.18139417759E+04  0.18139417759E+04  0.50400001928E-02 0.  1.
    10030    2    1    2    0    0  0.00000000000E+00  0.00000000000E+00  0.22117406945E+03  0.38490576213E+04  0.38426978288E+04 0.  0.
        2    1    3    3  502    0  0.11265299401E+03  0.14759417345E+04 -0.11163839395E+04  0.18540247574E+04  0.25500000920E-02 0.  1.
       -2    1    3    3    0  502 -0.11265299401E+03 -0.14759417345E+04  0.13375580090E+04  0.19950328639E+04  0.25500000920E-02 0. -1.
</event>
<event>
 5   0  0.1785559E-07  0.3847969E+04  0.7818609E-02  0.8035938E-01
        2   -1    0    0  501    0  0.00000000000E+00  0.00000000000E+00  0.20622123131E+04  0.20622123131E+04  0.25500000920E-02 0.  1.
       -2   -1    0    0    0  501  0.00000000000E+00  0.00000000000E+00 -0.17950221853E+04  0.17950221854E+04  0.25500000920E-02 0. -1.
    10030    2    1    2    0    0  0.00000000000E+00  0.00000000000E+00  0.26719012772E+03  0.38572344984E+04  0.38479692581E+04 0.  0.
        2    1    3    3  502    0 -0.56831924117E+03 -0.43413648378E+03 -0.16568342877E+04  0.18045944429E+04  0.25500000920E-02 0. -1.
       -2    1    3    3    0  502  0.56831924117E+03  0.43413648378E+03  0.19240244154E+04  0.20526400555E+04  0.25500000920E-02 0.  1.
</event>
<event>
 5   0  0.5515000E-08  0.3957426E+04  0.7818609E-02  0.8013190E-01
        1   -1    0    0  501    0  0.00000000000E+00  0.00000000000E+00  0.30240940629E+04  0.30240940629E+04  0.50400001928E-02 0.  1.
       -1   -1    0    0    0  501  0.00000000000E+00  0.00000000000E+00 -0.12947037267E+04  0.12947037267E+04  0.50400001928E-02 0. -1.
    10030    2    1    2    0    0  0.00000000000E+00  0.00000000000E+00  0.17293903362E+04  0.43187977896E+04  0.39574263622E+04 0.  0.
        5    1    3    3  502    0  0.94942715415E+02 -0.16876226277E+04 -0.25792749690E+03  0.17098634262E+04  0.46999998093E+01 0. -1.
       -5    1    3    3    0  502 -0.94942715415E+02  0.16876226277E+04  0.19873178331E+04  0.26089343634E+04  0.46999998093E+01 0.  1.
</event>
</LesHouchesEvents>
