<LesHouchesEvents version="3.0">
<header>
<!--
#*********************************************************************
#                                                                    *
#                        MadGraph5_aMC@NLO                           *
#                                                                    *
#                           Going Beyond                             *
#                                                                    *
#                   http://madgraph.hep.uiuc.edu                     *
#                   http://madgraph.phys.ucl.ac.be                   *
#                   http://amcatnlo.cern.ch                          *
#                                                                    *
#                     The MadGraph5_aMC@NLO team                     *
#                                                                    *
#....................................................................*
#                                                                    *
# This file contains all the information necessary to reproduce      *
# the events generated:                                              *
#                                                                    *
# 1. software version                                                *
# 2. proc_card          : code generation info including model       *
# 3. param_card         : model primary parameters in the LH format  *
# 4. run_card           : running parameters (collider and cuts)     *
# 5. pythia_card        : present only if pythia has been run        *
# 6. pgs_card           : present only if pgs has been run           *
# 7. delphes_cards      : present only if delphes has been run       *
#                                                                    *
#                                                                    *
#*********************************************************************
-->
<MGVersion>
#5.2.2.3
</MGVersion>
<MG5ProcCard>
#************************************************************
#*                     MadGraph5_aMC@NLO                    *
#*                                                          *
#*                *                       *                 *
#*                  *        * *        *                   *
#*                    * * * * 5 * * * *                     *
#*                  *        * *        *                   *
#*                *                       *                 *
#*                                                          *
#*                                                          *
#*         VERSION 2.2.3                 2015-02-10         *
#*                                                          *
#*    The MadGraph5_aMC@NLO Development Team - Find us at   *
#*    https://server06.fynu.ucl.ac.be/projects/madgraph     *
#*                                                          *
#************************************************************
#*                                                          *
#*               Command File for MadGraph5_aMC@NLO         *
#*                                                          *
#*     run as ./bin/mg5_aMC  filename                       *
#*                                                          *
#************************************************************
set group_subprocesses Auto
set ignore_six_quark_processes False
set loop_optimized_output True
set gauge unitary
set complex_mass_scheme False
import model sm
define p = g u c d s u~ c~ d~ s~
define j = g u c d s u~ c~ d~ s~
define l+ = e+ mu+
define l- = e- mu-
define vl = ve vm vt
define vl~ = ve~ vm~ vt~
import model Zprime_UFO
generate p p > zph, zph > j j
add process p p > zph, zph > b b~
output Dijet_signal
</MG5ProcCard>
<MGProcCard>
#*********************************************************************
#                        MadGraph/MadEvent                           *
#                   http://madgraph.hep.uiuc.edu                     *
#                                                                    *
#                          proc_card.dat                             *
#*********************************************************************
#                                                                    *
#            This Files is generated by MADGRAPH 5                   *
#                                                                    *
# WARNING: This Files is generated for MADEVENT (compatibility issue)*
#          This files is NOT a valid MG4 proc_card.dat               *
#          Running this in MG4 will NEVER reproduce the result of MG5*
#                                                                    *
#*********************************************************************
#*********************************************************************
# Process(es) requested : mg2 input                                  *
#*********************************************************************
# Begin PROCESS # This is TAG. Do not modify this line
p p > zph , zph > j j           #Process
# Be carefull the coupling are here in MG5 convention
          
end_coup           # End the couplings input

done               # this tells MG there are no more procs
# End PROCESS  # This is TAG. Do not modify this line
#*********************************************************************
# Model information                                                  *
#*********************************************************************
# Begin MODEL  # This is TAG. Do not modify this line
Zprime_UFO
# End   MODEL  # This is TAG. Do not modify this line
#*********************************************************************
# Start multiparticle definitions                                    *
#*********************************************************************
# Begin MULTIPARTICLES # This is TAG. Do not modify this line

# End  MULTIPARTICLES # This is TAG. Do not modify this line
</MGProcCard>
<MGRunCard>
#*********************************************************************
#                       MadGraph5_aMC@NLO                            *
#                                                                    *
#                     run_card.dat MadEvent                          *
#                                                                    *
#  This file is used to set the parameters of the run.               *
#                                                                    *
#  Some notation/conventions:                                        *
#                                                                    *
#   Lines starting with a '# ' are info or comments                  *
#                                                                    *
#   mind the format:   value    = variable     ! comment             *
#*********************************************************************
#
#*******************                                                 
# Running parameters
#*******************                                                 
#                                                                    
#*********************************************************************
# Tag name for the run (one word)                                    *
#*********************************************************************
  tag_1     = run_tag ! name of the run 
#*********************************************************************
# Run to generate the grid pack                                      *
#*********************************************************************
  .false.     = gridpack  !True = setting up the grid pack
#*********************************************************************
# Number of events and rnd seed                                      *
# Warning: Do not generate more than 1M events in a single run       *
# If you want to run Pythia, avoid more than 50k events in a run.    *
#*********************************************************************
  2000 = nevents ! Number of unweighted events requested 
 1227 = iseed   ! rnd seed (0=assigned automatically=default))
#*********************************************************************
# Collider type and energy                                           *
# lpp: 0=No PDF, 1=proton, -1=antiproton, 2=photon from proton,      *
#                                         3=photon from electron     *
#*********************************************************************
        1     = lpp1    ! beam 1 type 
        1     = lpp2    ! beam 2 type
     4000     = ebeam1  ! beam 1 total energy in GeV
     4000     = ebeam2  ! beam 2 total energy in GeV
#*********************************************************************
# Beam polarization from -100 (left-handed) to 100 (right-handed)    *
#*********************************************************************
        0     = polbeam1 ! beam polarization for beam 1
        0     = polbeam2 ! beam polarization for beam 2
#*********************************************************************
# PDF CHOICE: this automatically fixes also alpha_s and its evol.    *
#*********************************************************************
 'nn23lo1'    = pdlabel     ! PDF set                                     
 230000    = lhaid     ! if pdlabel=lhapdf, this is the lhapdf number
#*********************************************************************
# Renormalization and factorization scales                           *
#*********************************************************************
 F        = fixed_ren_scale  ! if .true. use fixed ren scale
 F        = fixed_fac_scale  ! if .true. use fixed fac scale
 91.1880  = scale            ! fixed ren scale
 91.1880  = dsqrt_q2fact1    ! fixed fact scale for pdf1
 91.1880  = dsqrt_q2fact2    ! fixed fact scale for pdf2
 1        = scalefact        ! scale factor for event-by-event scales
#*********************************************************************
# Matching - Warning! ickkw > 1 is still beta
#*********************************************************************
 0        = ickkw            ! 0 no matching, 1 MLM, 2 CKKW matching
 1        = highestmult      ! for ickkw=2, highest mult group
 1        = ktscheme         ! for ickkw=1, 1 Durham kT, 2 Pythia pTE
 1        = alpsfact         ! scale factor for QCD emission vx
 F        = chcluster        ! cluster only according to channel diag
 T        = pdfwgt           ! for ickkw=1, perform pdf reweighting
 5        = asrwgtflavor     ! highest quark flavor for a_s reweight
 T        = clusinfo         ! include clustering tag in output
 3.0      = lhe_version       ! Change the way clustering information pass to shower.        
#*********************************************************************
#**********************************************************
#
#**********************************************************
# Automatic ptj and mjj cuts if xqcut > 0
# (turn off for VBF and single top processes)
#**********************************************************
   T  = auto_ptj_mjj  ! Automatic setting of ptj and mjj
#**********************************************************
#                                                                    
#**********************************
# BW cutoff (M+/-bwcutoff*Gamma)
#**********************************
  15  = bwcutoff      ! (M+/-bwcutoff*Gamma)
#**********************************************************
# Apply pt/E/eta/dr/mij cuts on decay products or not
# (note that etmiss/ptll/ptheavy/ht/sorted cuts always apply)
#**********************************************************
   T  = cut_decays    ! Cut decay products 
#*************************************************************
# Number of helicities to sum per event (0 = all helicities)
# 0 gives more stable result, but longer run time (needed for
# long decay chains e.g.).
# Use >=2 if most helicities contribute, e.g. pure QCD.
#*************************************************************
   0  = nhel          ! Number of helicities used per event
#*******************                                                 
# Standard Cuts
#*******************                                                 
#                                                                    
#*********************************************************************
# Minimum and maximum pt's (for max, -1 means no cut)                *
#*********************************************************************
 20  = ptj       ! minimum pt for the jets 
  0  = ptb       ! minimum pt for the b 
 10  = pta       ! minimum pt for the photons 
 10  = ptl       ! minimum pt for the charged leptons 
  0  = misset    ! minimum missing Et (sum of neutrino's momenta)
  0  = ptheavy   ! minimum pt for one heavy final state
 1.0 = ptonium   ! minimum pt for the quarkonium states
 -1  = ptjmax    ! maximum pt for the jets
 -1  = ptbmax    ! maximum pt for the b
 -1  = ptamax    ! maximum pt for the photons
 -1  = ptlmax    ! maximum pt for the charged leptons
 -1  = missetmax ! maximum missing Et (sum of neutrino's momenta)
#*********************************************************************
# Minimum and maximum E's (in the center of mass frame)              *
#*********************************************************************
  0  = ej     ! minimum E for the jets 
  0  = eb     ! minimum E for the b 
  0  = ea     ! minimum E for the photons 
  0  = el     ! minimum E for the charged leptons 
 -1   = ejmax ! maximum E for the jets
 -1   = ebmax ! maximum E for the b
 -1   = eamax ! maximum E for the photons
 -1   = elmax ! maximum E for the charged leptons
#*********************************************************************
# Maximum and minimum absolute rapidity (for max, -1 means no cut)   *
#*********************************************************************
   5  = etaj    ! max rap for the jets 
  -1  = etab    ! max rap for the b
 2.5  = etaa    ! max rap for the photons 
 2.5  = etal    ! max rap for the charged leptons 
 0.6  = etaonium ! max rap for the quarkonium states
   0  = etajmin ! min rap for the jets
   0  = etabmin ! min rap for the b
   0  = etaamin ! min rap for the photons
   0  = etalmin ! main rap for the charged leptons
#*********************************************************************
# Minimum and maximum DeltaR distance                                *
#*********************************************************************
 0.4 = drjj    ! min distance between jets 
 0   = drbb    ! min distance between b's 
 0.4 = drll    ! min distance between leptons 
 0.4 = draa    ! min distance between gammas 
 0   = drbj    ! min distance between b and jet 
 0.4 = draj    ! min distance between gamma and jet 
 0.4 = drjl    ! min distance between jet and lepton 
 0   = drab    ! min distance between gamma and b 
 0   = drbl    ! min distance between b and lepton 
 0.4 = dral    ! min distance between gamma and lepton 
 -1  = drjjmax ! max distance between jets
 -1  = drbbmax ! max distance between b's
 -1  = drllmax ! max distance between leptons
 -1  = draamax ! max distance between gammas
 -1  = drbjmax ! max distance between b and jet
 -1  = drajmax ! max distance between gamma and jet
 -1  = drjlmax ! max distance between jet and lepton
 -1  = drabmax ! max distance between gamma and b
 -1  = drblmax ! max distance between b and lepton
 -1  = dralmax ! maxdistance between gamma and lepton
#*********************************************************************
# Minimum and maximum invariant mass for pairs                       *
# WARNING: for four lepton final state mmll cut require to have      *
#          different lepton masses for each flavor!                  *           
#*********************************************************************
 0   = mmjj    ! min invariant mass of a jet pair 
 0   = mmbb    ! min invariant mass of a b pair 
 0   = mmaa    ! min invariant mass of gamma gamma pair
 0   = mmll    ! min invariant mass of l+l- (same flavour) lepton pair
 -1  = mmjjmax ! max invariant mass of a jet pair
 -1  = mmbbmax ! max invariant mass of a b pair
 -1  = mmaamax ! max invariant mass of gamma gamma pair
 -1  = mmllmax ! max invariant mass of l+l- (same flavour) lepton pair
#*********************************************************************
# Minimum and maximum invariant mass for all letpons                 *
#*********************************************************************
 0   = mmnl    ! min invariant mass for all letpons (l+- and vl) 
 -1  = mmnlmax ! max invariant mass for all letpons (l+- and vl) 
#*********************************************************************
# Minimum and maximum pt for 4-momenta sum of leptons                *
#*********************************************************************
 0   = ptllmin  ! Minimum pt for 4-momenta sum of leptons(l and vl)
 -1  = ptllmax  ! Maximum pt for 4-momenta sum of leptons(l and vl)
#*********************************************************************
# Inclusive cuts                                                     *
#*********************************************************************
 0  = xptj ! minimum pt for at least one jet  
 0  = xptb ! minimum pt for at least one b 
 0  = xpta ! minimum pt for at least one photon 
 0  = xptl ! minimum pt for at least one charged lepton 
#*********************************************************************
# Control the pt's of the jets sorted by pt                          *
#*********************************************************************
 0   = ptj1min ! minimum pt for the leading jet in pt
 0   = ptj2min ! minimum pt for the second jet in pt
 0   = ptj3min ! minimum pt for the third jet in pt
 0   = ptj4min ! minimum pt for the fourth jet in pt
 -1  = ptj1max ! maximum pt for the leading jet in pt 
 -1  = ptj2max ! maximum pt for the second jet in pt
 -1  = ptj3max ! maximum pt for the third jet in pt
 -1  = ptj4max ! maximum pt for the fourth jet in pt
 0   = cutuse  ! reject event if fails any (0) / all (1) jet pt cuts
#*********************************************************************
# Control the pt's of leptons sorted by pt                           *
#*********************************************************************
 0   = ptl1min ! minimum pt for the leading lepton in pt
 0   = ptl2min ! minimum pt for the second lepton in pt
 0   = ptl3min ! minimum pt for the third lepton in pt
 0   = ptl4min ! minimum pt for the fourth lepton in pt
 -1  = ptl1max ! maximum pt for the leading lepton in pt 
 -1  = ptl2max ! maximum pt for the second lepton in pt
 -1  = ptl3max ! maximum pt for the third lepton in pt
 -1  = ptl4max ! maximum pt for the fourth lepton in pt
#*********************************************************************
# Control the Ht(k)=Sum of k leading jets                            *
#*********************************************************************
 0   = htjmin ! minimum jet HT=Sum(jet pt)
 -1  = htjmax ! maximum jet HT=Sum(jet pt)
 0   = ihtmin  !inclusive Ht for all partons (including b)
 -1  = ihtmax  !inclusive Ht for all partons (including b)
 0   = ht2min ! minimum Ht for the two leading jets
 0   = ht3min ! minimum Ht for the three leading jets
 0   = ht4min ! minimum Ht for the four leading jets
 -1  = ht2max ! maximum Ht for the two leading jets
 -1  = ht3max ! maximum Ht for the three leading jets
 -1  = ht4max ! maximum Ht for the four leading jets
#***********************************************************************
# Photon-isolation cuts, according to hep-ph/9801442                   *
# When ptgmin=0, all the other parameters are ignored                  *
# When ptgmin>0, pta and draj are not going to be used                 *
#***********************************************************************
   0 = ptgmin ! Min photon transverse momentum
 0.4 = R0gamma ! Radius of isolation code
 1.0 = xn ! n parameter of eq.(3.4) in hep-ph/9801442
 1.0 = epsgamma ! epsilon_gamma parameter of eq.(3.4) in hep-ph/9801442
 .true. = isoEM ! isolate photons from EM energy (photons and leptons)
#*********************************************************************
# WBF cuts                                                           *
#*********************************************************************
 0   = xetamin ! minimum rapidity for two jets in the WBF case  
 0   = deltaeta ! minimum rapidity for two jets in the WBF case 
#*********************************************************************
# KT DURHAM CUT                                                      *
#*********************************************************************
 -1    =  ktdurham        
 0.4  =  dparameter 
#*********************************************************************
# maximal pdg code for quark to be considered as a light jet         *
# (otherwise b cuts are applied)                                     *
#*********************************************************************
 4 = maxjetflavor    ! Maximum jet pdg code
#*********************************************************************
# Jet measure cuts                                                   *
#*********************************************************************
 0   = xqcut   ! minimum kt jet measure between partons
#*********************************************************************
#
#*********************************************************************
# Store info for systematics studies                                 *
# WARNING: If use_syst is T, matched Pythia output is                *
#          meaningful ONLY if plotted taking matchscale              *
#          reweighting into account!                                 *
#*********************************************************************
   F  = use_syst      ! Enable systematics studies
#
#**************************************
# Parameter of the systematics study
#  will be used by SysCalc (if installed)
#**************************************                                  
#
0.5 1 2 = sys_scalefact  # factorization/renormalization scale factor
0.5 1 2 = sys_alpsfact  # \alpha_s emission scale factors
30 50 = sys_matchscale # variation of merging scale
# PDF sets and number of members (0 or none for all members).
CT10nlo.LHgrid = sys_pdf # matching scales
# MSTW2008nlo68cl.LHgrid 1  = sys_pdf
</MGRunCard>
<slha>
######################################################################
## PARAM_CARD AUTOMATICALY GENERATED BY MG5 FOLLOWING UFO MODEL   ####
######################################################################
##                                                                  ##
##  Width set on Auto will be computed following the information    ##
##        present in the decay.py files of the model.               ##
##        See  arXiv:1402.1178 for more details.                    ##
##                                                                  ##
######################################################################

###################################
## INFORMATION FOR CKMBLOCK
###################################
Block ckmblock 
    1 2.277360e-01 # cabi 

###################################
## INFORMATION FOR FRBLOCK
###################################
Block frblock 
    1 6.000000e-01 # gz 

###################################
## INFORMATION FOR MASS
###################################
Block mass 
    1 5.040000e-03 # MD 
    2 2.550000e-03 # MU 
    3 1.010000e-01 # MS 
    4 1.270000e+00 # MC 
    5 4.700000e+00 # MB 
    6 1.720000e+02 # MT 
   11 5.110000e-04 # Me 
   13 1.056600e-01 # MM 
   15 1.777000e+00 # MTA 
   23 9.118760e+01 # MZ 
   25 1.200000e+02 # MH 
  10030 1.400000e+03 # MZph 
  10031 3.000000e+02 # MZpl 
## Dependent parameters, given by model restrictions.
## Those values should be edited following the 
## analytical expression. MG5 ignores those values 
## but they are important for interfacing the output of MG5
## to external program such as Pythia.
  12 0.000000 # ve : 0.0 
  14 0.000000 # vm : 0.0 
  16 0.000000 # vt : 0.0 
  21 0.000000 # g : 0.0 
  22 0.000000 # a : 0.0 
  24 79.824360 # w+ : cmath.sqrt(MZ__exp__2/2. + cmath.sqrt(MZ__exp__4/4. - (aEW*cmath.pi*MZ__exp__2)/(Gf*sqrt__2))) 

###################################
## INFORMATION FOR SMINPUTS
###################################
Block sminputs 
    1 1.279000e+02 # aEWM1 
    2 1.166370e-05 # Gf 
    3 1.184000e-01 # aS 

###################################
## INFORMATION FOR YUKAWA
###################################
Block yukawa 
    1 5.040000e-03 # ymdo 
    2 2.550000e-03 # ymup 
    3 1.010000e-01 # yms 
    4 1.270000e+00 # ymc 
    5 4.700000e+00 # ymb 
    6 1.720000e+02 # ymt 
   11 5.110000e-04 # yme 
   13 1.056600e-01 # ymm 
   15 1.777000e+00 # ymtau 

###################################
## INFORMATION FOR DECAY
###################################
DECAY   6 1.508336e+00 # WT 
DECAY  23 2.495200e+00 # WZ 
DECAY  24 2.085000e+00 # WW 
DECAY  25 5.753088e-03 # WH 
## Dependent parameters, given by model restrictions.
## Those values should be edited following the 
## analytical expression. MG5 ignores those values 
## but they are important for interfacing the output of MG5
## to external program such as Pythia.
DECAY  1 0.000000 # d : 0.0 
DECAY  2 0.000000 # u : 0.0 
DECAY  3 0.000000 # s : 0.0 
DECAY  4 0.000000 # c : 0.0 
DECAY  5 0.000000 # b : 0.0 
DECAY  11 0.000000 # e- : 0.0 
DECAY  12 0.000000 # ve : 0.0 
DECAY  13 0.000000 # mu- : 0.0 
DECAY  14 0.000000 # vm : 0.0 
DECAY  15 0.000000 # ta- : 0.0 
DECAY  16 0.000000 # vt : 0.0 
DECAY  21 0.000000 # g : 0.0 
DECAY  22 0.000000 # a : 0.0 
DECAY  10030 0.308725 # zph : (gz__exp__2*MZph*(5 + cmath.sqrt(1 - (4*MT__exp__2)/MZph__exp__2)))/(144.*cmath.pi) 
DECAY  10031 0.132629 # zpl : (5*gz__exp__2*MZpl)/(144.*cmath.pi) 
#===========================================================
# QUANTUM NUMBERS OF NEW STATE(S) (NON SM PDG CODE)
#===========================================================

Block QNUMBERS 10030  # zph 
        1 0  # 3 times electric charge
        2 3  # number of spin states (2S+1)
        3 1  # colour rep (1: singlet, 3: triplet, 8: octet)
        4 0  # Particle/Antiparticle distinction (0=own anti)
Block QNUMBERS 10031  # zpl 
        1 0  # 3 times electric charge
        2 3  # number of spin states (2S+1)
        3 1  # colour rep (1: singlet, 3: triplet, 8: octet)
        4 0  # Particle/Antiparticle distinction (0=own anti)
</slha>
## END BANNER##
<MGGenerationInfo>
#  Number of Events        :         3942
#  Integrated weight (pb)  :  0.11981E+00
#  Max wgt                 :  0.43103E-04
#  Average wgt             :  0.30393E-04
</MGGenerationInfo>
</header>
<init>
     2212     2212  0.40000000000E+04  0.40000000000E+04 0 0  247000  247000 2   1
  0.11988107362E+00  0.26208538197E-03  0.43103480000E-04   0
</init>
<event>
 5   0  0.4310348E-04  0.1395147E+04  0.7818609E-02  0.8957339E-01
        2   -1    0    0  501    0  0.00000000000E+00  0.00000000000E+00  0.11624018163E+04  0.11624018163E+04  0.25500000920E-02 0.  1.
       -2   -1    0    0    0  501  0.00000000000E+00  0.00000000000E+00 -0.41862350107E+03  0.41862350107E+03  0.25500000920E-02 0. -1.
    10030    2    1    2    0    0  0.00000000000E+00  0.00000000000E+00  0.74377831519E+03  0.15810253173E+04  0.13951468998E+04 0.  0.
        1    1    3    3  502    0 -0.48128476572E+03 -0.33577592188E+03 -0.55488463526E+02  0.58945692382E+03  0.50400001928E-02 0. -1.
       -1    1    3    3    0  502  0.48128476572E+03  0.33577592188E+03  0.79926677872E+03  0.99156839351E+03  0.50400001928E-02 0.  1.
</event>
<event>
 5   0  0.4310348E-04  0.1397519E+04  0.7818609E-02  0.8955617E-01
        2   -1    0    0  501    0  0.00000000000E+00  0.00000000000E+00  0.11025539487E+04  0.11025539487E+04  0.25500000920E-02 0.  1.
       -2   -1    0    0    0  501  0.00000000000E+00  0.00000000000E+00 -0.44284872085E+03  0.44284872086E+03  0.25500000920E-02 0. -1.
    10030    2    1    2    0    0  0.00000000000E+00  0.00000000000E+00  0.65970522788E+03  0.15454026696E+04  0.13975186666E+04 0.  0.
        1    1    3    3  502    0 -0.15657582189E+03  0.60183327795E+03  0.68223484768E+03  0.92312711468E+03  0.50400001928E-02 0.  1.
       -1    1    3    3    0  502  0.15657582189E+03 -0.60183327795E+03 -0.22529619796E+02  0.62227555491E+03  0.50400001928E-02 0. -1.
</event>
<event>
 5   0  0.3917598E-04  0.1388725E+04  0.7818609E-02  0.8962020E-01
       -2   -1    0    0    0  501  0.00000000000E+00  0.00000000000E+00  0.71729890735E+03  0.71729890736E+03  0.25500000920E-02 0.  1.
        2   -1    0    0  501    0  0.00000000000E+00  0.00000000000E+00 -0.67215994004E+03  0.67215994005E+03  0.25500000920E-02 0. -1.
    10030    2    1    2    0    0  0.00000000000E+00  0.00000000000E+00  0.45138967309E+02  0.13894588474E+04  0.13887254452E+04 0.  0.
        3    1    3    3  502    0  0.30038915345E+03  0.61500887088E+03 -0.94411147247E+02  0.69092910613E+03  0.10100000352E+00 0. -1.
       -3    1    3    3    0  502 -0.30038915345E+03 -0.61500887088E+03  0.13955011456E+03  0.69852974128E+03  0.10100000352E+00 0.  1.
</event>
<event>
 5   0  0.4310348E-04  0.1400049E+04  0.7818609E-02  0.8953783E-01
       -2   -1    0    0    0  501  0.00000000000E+00  0.00000000000E+00  0.26139674622E+03  0.26139674623E+03  0.25500000920E-02 0.  1.
        2   -1    0    0  501    0  0.00000000000E+00  0.00000000000E+00 -0.18746760422E+04  0.18746760422E+04  0.25500000920E-02 0. -1.
    10030    2    1    2    0    0  0.00000000000E+00  0.00000000000E+00 -0.16132792960E+04  0.21360727885E+04  0.14000488815E+04 0.  0.
        1    1    3    3  502    0  0.58553528821E+03  0.23712785612E+03 -0.12667705695E+04  0.14155524963E+04  0.50400001928E-02 0. -1.
       -1    1    3    3    0  502 -0.58553528821E+03 -0.23712785612E+03 -0.34650872648E+03  0.72052029218E+03  0.50400001928E-02 0.  1.
</event>
<event>
 5   0  0.3917598E-04  0.1390391E+04  0.7818609E-02  0.8960804E-01
        2   -1    0    0  501    0  0.00000000000E+00  0.00000000000E+00  0.75996164398E+03  0.75996164398E+03  0.25500000920E-02 0. -1.
       -2   -1    0    0    0  501  0.00000000000E+00  0.00000000000E+00 -0.63594870547E+03  0.63594870547E+03  0.25500000920E-02 0.  1.
    10030    2    1    2    0    0  0.00000000000E+00  0.00000000000E+00  0.12401293851E+03  0.13959103495E+04  0.13903907705E+04 0.  0.
        3    1    3    3  502    0 -0.40293233637E+03  0.51214970800E+03  0.30513475537E+03  0.71955473748E+03  0.10100000352E+00 0. -1.
       -3    1    3    3    0  502  0.40293233637E+03 -0.51214970800E+03 -0.18112181686E+03  0.67635561197E+03  0.10100000352E+00 0.  1.
</event>
<event>
 5   0  0.2223112E-04  0.1439927E+04  0.7818609E-02  0.8925414E-01
       -1   -1    0    0    0  501  0.00000000000E+00  0.00000000000E+00  0.67981956032E+03  0.67981956034E+03  0.50400001928E-02 0. -1.
        1   -1    0    0  501    0  0.00000000000E+00  0.00000000000E+00 -0.76247843567E+03  0.76247843569E+03  0.50400001928E-02 0.  1.
    10030    2    1    2    0    0  0.00000000000E+00  0.00000000000E+00 -0.82658875352E+02  0.14422979960E+04  0.14399274356E+04 0.  0.
        1    1    3    3  502    0 -0.51718253151E+02  0.41788736549E+03 -0.62627984039E+03  0.75467282080E+03  0.50400001928E-02 0.  1.
       -1    1    3    3    0  502  0.51718253151E+02 -0.41788736549E+03  0.54362096504E+03  0.68762517522E+03  0.50400001928E-02 0. -1.
</event>
<event>
 5   0  0.2215876E-04  0.1399744E+04  0.7818609E-02  0.8954004E-01
       -1   -1    0    0    0  501  0.00000000000E+00  0.00000000000E+00  0.53648050788E+03  0.53648050791E+03  0.50400001928E-02 0. -1.
        1   -1    0    0  501    0  0.00000000000E+00  0.00000000000E+00 -0.91302575827E+03  0.91302575829E+03  0.50400001928E-02 0.  1.
    10030    2    1    2    0    0  0.00000000000E+00  0.00000000000E+00 -0.37654525039E+03  0.14495062662E+04  0.13997435801E+04 0.  0.
        3    1    3    3  502    0 -0.62407247032E+03 -0.11932813844E+03  0.11561335303E+03  0.64581120340E+03  0.10100000352E+00 0. -1.
       -3    1    3    3    0  502  0.62407247032E+03  0.11932813844E+03 -0.49215860343E+03  0.80369506280E+03  0.10100000352E+00 0.  1.
</event>
<event>
 5   0  0.4310348E-04  0.1402703E+04  0.7818609E-02  0.8951864E-01
       -2   -1    0    0    0  501  0.00000000000E+00  0.00000000000E+00  0.73210063637E+03  0.73210063638E+03  0.25500000920E-02 0.  1.
        2   -1    0    0  501    0  0.00000000000E+00  0.00000000000E+00 -0.67189415518E+03  0.67189415519E+03  0.25500000920E-02 0. -1.
    10030    2    1    2    0    0  0.00000000000E+00  0.00000000000E+00  0.60206481191E+02  0.14039947916E+04  0.14027033023E+04 0.  0.
        1    1    3    3  502    0 -0.59394504411E+03 -0.20183706094E+03 -0.28384974437E+03  0.68853437968E+03  0.50400001928E-02 0. -1.
       -1    1    3    3    0  502  0.59394504411E+03  0.20183706094E+03  0.34405622556E+03  0.71546041188E+03  0.50400001928E-02 0.  1.
</event>
<event>
 5   0  0.2155352E-04  0.1398607E+04  0.7818609E-02  0.8954827E-01
        1   -1    0    0  501    0  0.00000000000E+00  0.00000000000E+00  0.45871173868E+03  0.45871173871E+03  0.50400001928E-02 0. -1.
       -1   -1    0    0    0  501  0.00000000000E+00  0.00000000000E+00 -0.10660846715E+04  0.10660846716E+04  0.50400001928E-02 0.  1.
    10030    2    1    2    0    0  0.00000000000E+00  0.00000000000E+00 -0.60737293286E+03  0.15247964103E+04  0.13986072405E+04 0.  0.
        2    1    3    3  502    0 -0.42830447768E+03 -0.23905164237E+03 -0.84709017873E+03  0.97885248338E+03  0.25500000920E-02 0.  1.
       -2    1    3    3    0  502  0.42830447768E+03  0.23905164237E+03  0.23971724586E+03  0.54594392688E+03  0.25500000920E-02 0. -1.
</event>
<event>
 5   0  0.3917598E-04  0.1391285E+04  0.7818609E-02  0.8960151E-01
        2   -1    0    0  501    0  0.00000000000E+00  0.00000000000E+00  0.17636859307E+04  0.17636859307E+04  0.25500000920E-02 0. -1.
       -2   -1    0    0    0  501  0.00000000000E+00  0.00000000000E+00 -0.27437920012E+03  0.27437920013E+03  0.25500000920E-02 0.  1.
    10030    2    1    2    0    0  0.00000000000E+00  0.00000000000E+00  0.14893067305E+04  0.20380651308E+04  0.13912853552E+04 0.  0.
        3    1    3    3  502    0  0.58886083481E+03 -0.32528528351E+03  0.10040285472E+04  0.12085697879E+04  0.10100000352E+00 0. -1.
       -3    1    3    3    0  502 -0.58886083481E+03  0.32528528351E+03  0.48527818337E+03  0.82949534290E+03  0.10100000352E+00 0.  1.
</event>
<event>
 5   0  0.2155352E-04  0.1398732E+04  0.7818609E-02  0.8954737E-01
       -1   -1    0    0    0  501  0.00000000000E+00  0.00000000000E+00  0.57922257095E+03  0.57922257097E+03  0.50400001928E-02 0.  1.
        1   -1    0    0  501    0  0.00000000000E+00  0.00000000000E+00 -0.84442932078E+03  0.84442932080E+03  0.50400001928E-02 0. -1.
    10030    2    1    2    0    0  0.00000000000E+00  0.00000000000E+00 -0.26520674984E+03  0.14236518918E+04  0.13987316000E+04 0.  0.
        2    1    3    3  502    0 -0.61783317573E+03 -0.29303001748E+03  0.16735286402E+02  0.68400620903E+03  0.25500000920E-02 0.  1.
       -2    1    3    3    0  502  0.61783317573E+03  0.29303001748E+03 -0.28194203624E+03  0.73964568273E+03  0.25500000920E-02 0. -1.
</event>
<event>
 5   0  0.3975164E-04  0.1400432E+04  0.7818609E-02  0.8953506E-01
        2   -1    0    0  501    0  0.00000000000E+00  0.00000000000E+00  0.84523555015E+03  0.84523555015E+03  0.25500000920E-02 0.  1.
       -2   -1    0    0    0  501  0.00000000000E+00  0.00000000000E+00 -0.58007778126E+03  0.58007778126E+03  0.25500000920E-02 0. -1.
    10030    2    1    2    0    0  0.00000000000E+00  0.00000000000E+00  0.26515776889E+03  0.14253133314E+04  0.14004318799E+04 0.  0.
        5    1    3    3  502    0 -0.58441416085E+03  0.18744532012E+02  0.52463588958E+03  0.78559288153E+03  0.46999998093E+01 0. -1.
       -5    1    3    3    0  502  0.58441416085E+03 -0.18744532012E+02 -0.25947812069E+03  0.63972044988E+03  0.46999998093E+01 0.  1.
</event>
<event>
 5   0  0.2217251E-04  0.1412487E+04  0.7818609E-02  0.8944829E-01
        1   -1    0    0  501    0  0.00000000000E+00  0.00000000000E+00  0.83375167650E+03  0.83375167652E+03  0.50400001928E-02 0.  1.
       -1   -1    0    0    0  501  0.00000000000E+00  0.00000000000E+00 -0.59823554778E+03  0.59823554780E+03  0.50400001928E-02 0. -1.
    10030    2    1    2    0    0  0.00000000000E+00  0.00000000000E+00  0.23551612872E+03  0.14319872243E+04  0.14124870136E+04 0.  0.
        5    1    3    3  502    0 -0.69015883850E+03 -0.68693462597E+02  0.25271149388E+03  0.73818913789E+03  0.46999998093E+01 0.  1.
       -5    1    3    3    0  502  0.69015883850E+03  0.68693462597E+02 -0.17195365153E+02  0.69379808643E+03  0.46999998093E+01 0. -1.
</event>
<event>
 5   0  0.2223112E-04  0.1396798E+04  0.7818609E-02  0.8956140E-01
        1   -1    0    0  501    0  0.00000000000E+00  0.00000000000E+00  0.11553298683E+04  0.11553298683E+04  0.50400001928E-02 0.  1.
       -1   -1    0    0    0  501  0.00000000000E+00  0.00000000000E+00 -0.42218350352E+03  0.42218350355E+03  0.50400001928E-02 0. -1.
    10030    2    1    2    0    0  0.00000000000E+00  0.00000000000E+00  0.73314636479E+03  0.15775133719E+04  0.13967980692E+04 0.  0.
        1    1    3    3  502    0 -0.40729670780E+03 -0.15773302216E+03  0.98204899768E+03  0.10747979105E+04  0.50400001928E-02 0.  1.
       -1    1    3    3    0  502  0.40729670780E+03  0.15773302216E+03 -0.24890263289E+03  0.50271546142E+03  0.50400001928E-02 0. -1.
</event>
<event>
 5   0  0.2215876E-04  0.1390895E+04  0.7818609E-02  0.8960436E-01
       -1   -1    0    0    0  501  0.00000000000E+00  0.00000000000E+00  0.33300653328E+03  0.33300653332E+03  0.50400001928E-02 0. -1.
        1   -1    0    0  501    0  0.00000000000E+00  0.00000000000E+00 -0.14523654030E+04  0.14523654030E+04  0.50400001928E-02 0.  1.
    10030    2    1    2    0    0  0.00000000000E+00  0.00000000000E+00 -0.11193588697E+04  0.17853719363E+04  0.13908949176E+04 0.  0.
        3    1    3    3  502    0  0.10330027421E+03 -0.28603461690E+03 -0.13624876899E+04  0.13960155673E+04  0.10100000352E+00 0.  1.
       -3    1    3    3    0  502 -0.10330027421E+03  0.28603461690E+03  0.24312882019E+03  0.38935636906E+03  0.10100000352E+00 0. -1.
</event>
<event>
 5   0  0.2215876E-04  0.1401203E+04  0.7818609E-02  0.8952948E-01
       -1   -1    0    0    0  501  0.00000000000E+00  0.00000000000E+00  0.64895341215E+03  0.64895341217E+03  0.50400001928E-02 0.  1.
        1   -1    0    0  501    0  0.00000000000E+00  0.00000000000E+00 -0.75635992437E+03  0.75635992438E+03  0.50400001928E-02 0. -1.
    10030    2    1    2    0    0  0.00000000000E+00  0.00000000000E+00 -0.10740651221E+03  0.14053133366E+04  0.14012028458E+04 0.  0.
        3    1    3    3  502    0 -0.16488702089E+03 -0.41123638191E+03 -0.59801003978E+03  0.74425742142E+03  0.10100000352E+00 0. -1.
       -3    1    3    3    0  502  0.16488702089E+03  0.41123638191E+03  0.49060352757E+03  0.66105591513E+03  0.10100000352E+00 0.  1.
</event>
<event>
 5   0  0.4310348E-04  0.1400186E+04  0.7818609E-02  0.8953684E-01
       -2   -1    0    0    0  501  0.00000000000E+00  0.00000000000E+00  0.11942957230E+04  0.11942957230E+04  0.25500000920E-02 0. -1.
        2   -1    0    0  501    0  0.00000000000E+00  0.00000000000E+00 -0.41039265214E+03  0.41039265214E+03  0.25500000920E-02 0.  1.
    10030    2    1    2    0    0  0.00000000000E+00  0.00000000000E+00  0.78390307088E+03  0.16046883752E+04  0.14001859722E+04 0.  0.
        1    1    3    3  502    0  0.43049022393E+03 -0.36345491533E+03 -0.84328436138E+02  0.56967762247E+03  0.50400001928E-02 0.  1.
       -1    1    3    3    0  502 -0.43049022393E+03  0.36345491533E+03  0.86823150702E+03  0.10350107527E+04  0.50400001928E-02 0. -1.
</event>
<event>
 5   0  0.2143942E-04  0.1402850E+04  0.7818609E-02  0.8951758E-01
       -1   -1    0    0    0  501  0.00000000000E+00  0.00000000000E+00  0.85969215807E+03  0.85969215808E+03  0.50400001928E-02 0.  1.
        1   -1    0    0  501    0  0.00000000000E+00  0.00000000000E+00 -0.57229413202E+03  0.57229413204E+03  0.50400001928E-02 0. -1.
    10030    2    1    2    0    0  0.00000000000E+00  0.00000000000E+00  0.28739802605E+03  0.14319862901E+04  0.14028496390E+04 0.  0.
        4    1    3    3  502    0 -0.28593544398E+03 -0.46179831147E+03 -0.30934150434E+03  0.62506842650E+03  0.12699999809E+01 0. -1.
       -4    1    3    3    0  502  0.28593544398E+03  0.46179831147E+03  0.59673953039E+03  0.80691786362E+03  0.12699999809E+01 0.  1.
</event>
<event>
 5   0  0.2223112E-04  0.1398366E+04  0.7818609E-02  0.8955002E-01
        1   -1    0    0  501    0  0.00000000000E+00  0.00000000000E+00  0.11082624759E+04  0.11082624760E+04  0.50400001928E-02 0.  1.
       -1   -1    0    0    0  501  0.00000000000E+00  0.00000000000E+00 -0.44110190548E+03  0.44110190551E+03  0.50400001928E-02 0. -1.
    10030    2    1    2    0    0  0.00000000000E+00  0.00000000000E+00  0.66716057046E+03  0.15493643815E+04  0.13983657461E+04 0.  0.
        1    1    3    3  502    0 -0.22812800847E+03  0.36927235414E+03  0.94090437312E+03  0.10361976159E+04  0.50400001928E-02 0.  1.
       -1    1    3    3    0  502  0.22812800847E+03 -0.36927235414E+03 -0.27374380266E+03  0.51316676558E+03  0.50400001928E-02 0. -1.
</event>
<event>
 5   0  0.3932568E-04  0.1370410E+04  0.7818609E-02  0.8975520E-01
        2   -1    0    0  501    0  0.00000000000E+00  0.00000000000E+00  0.43181437162E+03  0.43181437163E+03  0.25500000920E-02 0. -1.
       -2   -1    0    0    0  501  0.00000000000E+00  0.00000000000E+00 -0.10872865799E+04  0.10872865799E+04  0.25500000920E-02 0.  1.
    10030    2    1    2    0    0  0.00000000000E+00  0.00000000000E+00 -0.65547220825E+03  0.15191009515E+04  0.13704101156E+04 0.  0.
        2    1    3    3  502    0  0.63665777601E+03 -0.23150061400E+03 -0.21371497363E+03  0.71035184802E+03  0.25500000920E-02 0. -1.
       -2    1    3    3    0  502 -0.63665777601E+03  0.23150061400E+03 -0.44175723462E+03  0.80874910348E+03  0.25500000920E-02 0.  1.
</event>
<event>
 5   0  0.2215876E-04  0.1402549E+04  0.7818609E-02  0.8951976E-01
       -1   -1    0    0    0  501  0.00000000000E+00  0.00000000000E+00  0.34003419253E+03  0.34003419257E+03  0.50400001928E-02 0.  1.
        1   -1    0    0  501    0  0.00000000000E+00  0.00000000000E+00 -0.14462832424E+04  0.14462832424E+04  0.50400001928E-02 0. -1.
    10030    2    1    2    0    0  0.00000000000E+00  0.00000000000E+00 -0.11062490499E+04  0.17863174350E+04  0.14025487579E+04 0.  0.
        3    1    3    3  502    0 -0.38920496787E+02  0.69199962664E+03 -0.41709440833E+03  0.80891658656E+03  0.10100000352E+00 0. -1.
       -3    1    3    3    0  502  0.38920496787E+02 -0.69199962664E+03 -0.68915464152E+03  0.97740084841E+03  0.10100000352E+00 0.  1.
</event>
<event>
 5   0  0.3917598E-04  0.1393013E+04  0.7818609E-02  0.8958891E-01
        2   -1    0    0  501    0  0.00000000000E+00  0.00000000000E+00  0.66113684171E+03  0.66113684171E+03  0.25500000920E-02 0. -1.
       -2   -1    0    0    0  501  0.00000000000E+00  0.00000000000E+00 -0.73376874718E+03  0.73376874718E+03  0.25500000920E-02 0.  1.
    10030    2    1    2    0    0  0.00000000000E+00  0.00000000000E+00 -0.72631905472E+02  0.13949055889E+04  0.13930133554E+04 0.  0.
        3    1    3    3  502    0  0.30634482007E+03  0.38487841268E+03  0.45744918129E+03  0.67174273720E+03  0.10100000352E+00 0. -1.
       -3    1    3    3    0  502 -0.30634482007E+03 -0.38487841268E+03 -0.53008108676E+03  0.72316285169E+03  0.10100000352E+00 0.  1.
</event>
<event>
 5   0  0.2223112E-04  0.1402876E+04  0.7818609E-02  0.8951739E-01
       -1   -1    0    0    0  501  0.00000000000E+00  0.00000000000E+00  0.38413294979E+03  0.38413294982E+03  0.50400001928E-02 0.  1.
        1   -1    0    0  501    0  0.00000000000E+00  0.00000000000E+00 -0.12808466595E+04  0.12808466595E+04  0.50400001928E-02 0. -1.
    10030    2    1    2    0    0  0.00000000000E+00  0.00000000000E+00 -0.89671370975E+03  0.16649796094E+04  0.14028761964E+04 0.  0.
        1    1    3    3  502    0 -0.22368688400E+03 -0.10309887800E+03  0.33112242846E+03  0.41268300591E+03  0.50400001928E-02 0.  1.
       -1    1    3    3    0  502  0.22368688400E+03  0.10309887800E+03 -0.12278361382E+04  0.12522966035E+04  0.50400001928E-02 0. -1.
</event>
<event>
 5   0  0.3932568E-04  0.1398481E+04  0.7818609E-02  0.8954919E-01
       -2   -1    0    0    0  501  0.00000000000E+00  0.00000000000E+00  0.27457507894E+03  0.27457507895E+03  0.25500000920E-02 0. -1.
        2   -1    0    0  501    0  0.00000000000E+00  0.00000000000E+00 -0.17807046141E+04  0.17807046141E+04  0.25500000920E-02 0.  1.
    10030    2    1    2    0    0  0.00000000000E+00  0.00000000000E+00 -0.15061295351E+04  0.20552796930E+04  0.13984807614E+04 0.  0.
        2    1    3    3  502    0 -0.66493358257E+02  0.55296893266E+03 -0.13172857534E+03  0.57231846445E+03  0.25500000920E-02 0. -1.
       -2    1    3    3    0  502  0.66493358257E+02 -0.55296893266E+03 -0.13744009598E+04  0.14829612286E+04  0.25500000920E-02 0.  1.
</event>
<event>
 5   0  0.2155352E-04  0.1386237E+04  0.7818609E-02  0.8963841E-01
       -1   -1    0    0    0  501  0.00000000000E+00  0.00000000000E+00  0.81366037981E+03  0.81366037983E+03  0.50400001928E-02 0. -1.
        1   -1    0    0  501    0  0.00000000000E+00  0.00000000000E+00 -0.59043478187E+03  0.59043478189E+03  0.50400001928E-02 0.  1.
    10030    2    1    2    0    0  0.00000000000E+00  0.00000000000E+00  0.22322559794E+03  0.14040951617E+04  0.13862371931E+04 0.  0.
        2    1    3    3  502    0  0.29129085754E+02 -0.28540194680E+03 -0.52747551179E+03  0.60044416095E+03  0.25500000920E-02 0.  1.
       -2    1    3    3    0  502 -0.29129085754E+02  0.28540194680E+03  0.75070110973E+03  0.80365100077E+03  0.25500000920E-02 0. -1.
</event>
<event>
 5   0  0.3917598E-04  0.1400378E+04  0.7818609E-02  0.8953545E-01
        2   -1    0    0  501    0  0.00000000000E+00  0.00000000000E+00  0.64802308104E+03  0.64802308104E+03  0.25500000920E-02 0.  1.
       -2   -1    0    0    0  501  0.00000000000E+00  0.00000000000E+00 -0.75655423617E+03  0.75655423617E+03  0.25500000920E-02 0. -1.
    10030    2    1    2    0    0  0.00000000000E+00  0.00000000000E+00 -0.10853115513E+03  0.14045773172E+04  0.14003779591E+04 0.  0.
        3    1    3    3  502    0  0.32558228133E+02  0.18350161520E+03 -0.73122041152E+03  0.75459670117E+03  0.10100000352E+00 0. -1.
       -3    1    3    3    0  502 -0.32558228133E+02 -0.18350161520E+03  0.62268925639E+03  0.64998061604E+03  0.10100000352E+00 0.  1.
</event>
<event>
 5   0  0.3975164E-04  0.1399928E+04  0.7818609E-02  0.8953870E-01
        2   -1    0    0  501    0  0.00000000000E+00  0.00000000000E+00  0.79361772968E+03  0.79361772968E+03  0.25500000920E-02 0. -1.
       -2   -1    0    0    0  501  0.00000000000E+00  0.00000000000E+00 -0.61736251189E+03  0.61736251189E+03  0.25500000920E-02 0.  1.
    10030    2    1    2    0    0  0.00000000000E+00  0.00000000000E+00  0.17625521779E+03  0.14109802416E+04  0.13999283340E+04 0.  0.
        5    1    3    3  502    0 -0.48631707799E+03 -0.31665991532E+03  0.48256088618E+03  0.75476148628E+03  0.46999998093E+01 0. -1.
       -5    1    3    3    0  502  0.48631707799E+03  0.31665991532E+03 -0.30630566839E+03  0.65621875529E+03  0.46999998093E+01 0.  1.
</event>
<event>
 5   0  0.2155352E-04  0.1401272E+04  0.7818609E-02  0.8952899E-01
        1   -1    0    0  501    0  0.00000000000E+00  0.00000000000E+00  0.57387577158E+03  0.57387577160E+03  0.50400001928E-02 0. -1.
       -1   -1    0    0    0  501  0.00000000000E+00  0.00000000000E+00 -0.85539523089E+03  0.85539523091E+03  0.50400001928E-02 0.  1.
    10030    2    1    2    0    0  0.00000000000E+00  0.00000000000E+00 -0.28151945932E+03  0.14292710025E+04  0.14012717055E+04 0.  0.
        2    1    3    3  502    0  0.35739534880E+03  0.49658801801E+03 -0.48898964214E+03  0.78322536035E+03  0.25500000920E-02 0.  1.
       -2    1    3    3    0  502 -0.35739534880E+03 -0.49658801801E+03  0.20747018282E+03  0.64604564215E+03  0.25500000920E-02 0. -1.
</event>
<event>
 5   0  0.3917598E-04  0.1397124E+04  0.7818609E-02  0.8955903E-01
       -2   -1    0    0    0  501  0.00000000000E+00  0.00000000000E+00  0.42470391798E+03  0.42470391799E+03  0.25500000920E-02 0. -1.
        2   -1    0    0  501    0  0.00000000000E+00  0.00000000000E+00 -0.11490089411E+04  0.11490089411E+04  0.25500000920E-02 0.  1.
    10030    2    1    2    0    0  0.00000000000E+00  0.00000000000E+00 -0.72430502310E+03  0.15737128591E+04  0.13971236153E+04 0.  0.
        3    1    3    3  502    0 -0.20858836580E+03  0.50164123424E+03  0.13248177345E+03  0.55919984329E+03  0.10100000352E+00 0. -1.
       -3    1    3    3    0  502  0.20858836580E+03 -0.50164123424E+03 -0.85678679655E+03  0.10145130158E+04  0.10100000352E+00 0.  1.
</event>
<event>
 5   0  0.4310348E-04  0.1394113E+04  0.7818609E-02  0.8958091E-01
        2   -1    0    0  501    0  0.00000000000E+00  0.00000000000E+00  0.15132839006E+04  0.15132839006E+04  0.25500000920E-02 0.  1.
       -2   -1    0    0    0  501  0.00000000000E+00  0.00000000000E+00 -0.32108184358E+03  0.32108184359E+03  0.25500000920E-02 0. -1.
    10030    2    1    2    0    0  0.00000000000E+00  0.00000000000E+00  0.11922020570E+04  0.18343657442E+04  0.13941133163E+04 0.  0.
        1    1    3    3  502    0 -0.18806452273E+03 -0.54881139652E+03  0.87642848123E+02  0.58672266235E+03  0.50400001928E-02 0. -1.
       -1    1    3    3    0  502  0.18806452273E+03  0.54881139652E+03  0.11045592089E+04  0.12476430818E+04  0.50400001928E-02 0.  1.
</event>
<event>
 5   0  0.2217251E-04  0.1399003E+04  0.7818609E-02  0.8954540E-01
        1   -1    0    0  501    0  0.00000000000E+00  0.00000000000E+00  0.17420402879E+04  0.17420402879E+04  0.50400001928E-02 0. -1.
       -1   -1    0    0    0  501  0.00000000000E+00  0.00000000000E+00 -0.28087898364E+03  0.28087898368E+03  0.50400001928E-02 0.  1.
    10030    2    1    2    0    0  0.00000000000E+00  0.00000000000E+00  0.14611613043E+04  0.20229192716E+04  0.13990032246E+04 0.  0.
        5    1    3    3  502    0 -0.40567131841E+03 -0.27298900521E+03  0.73226496546E+01  0.48904798000E+03  0.46999998093E+01 0.  1.
       -5    1    3    3    0  502  0.40567131841E+03  0.27298900521E+03  0.14538386546E+04  0.15338712916E+04  0.46999998093E+01 0. -1.
</event>
<event>
 5   0  0.3917598E-04  0.1389646E+04  0.7818609E-02  0.8961348E-01
        2   -1    0    0  501    0  0.00000000000E+00  0.00000000000E+00  0.14924521056E+04  0.14924521056E+04  0.25500000920E-02 0. -1.
       -2   -1    0    0    0  501  0.00000000000E+00  0.00000000000E+00 -0.32348023584E+03  0.32348023585E+03  0.25500000920E-02 0.  1.
    10030    2    1    2    0    0  0.00000000000E+00  0.00000000000E+00  0.11689718698E+04  0.18159323415E+04  0.13896456514E+04 0.  0.
        3    1    3    3  502    0 -0.41218909808E+03  0.43805926853E+03  0.12996099502E+03  0.61537439477E+03  0.10100000352E+00 0.  1.
       -3    1    3    3    0  502  0.41218909808E+03 -0.43805926853E+03  0.10390108748E+04  0.12005579467E+04  0.10100000352E+00 0. -1.
</event>
<event>
 5   0  0.2143942E-04  0.1398687E+04  0.7818609E-02  0.8954770E-01
        1   -1    0    0  501    0  0.00000000000E+00  0.00000000000E+00  0.17399693571E+04  0.17399693571E+04  0.50400001928E-02 0. -1.
       -1   -1    0    0    0  501  0.00000000000E+00  0.00000000000E+00 -0.28108606234E+03  0.28108606239E+03  0.50400001928E-02 0.  1.
    10030    2    1    2    0    0  0.00000000000E+00  0.00000000000E+00  0.14588832948E+04  0.20210554195E+04  0.13986867201E+04 0.  0.
        4    1    3    3  502    0  0.29404160359E+03 -0.38892067136E+03  0.49962536138E+01  0.48759237966E+03  0.12699999809E+01 0.  1.
       -4    1    3    3    0  502 -0.29404160359E+03  0.38892067136E+03  0.14538870412E+04  0.15334630399E+04  0.12699999809E+01 0. -1.
</event>
<event>
 5   0  0.2223112E-04  0.1390091E+04  0.7818609E-02  0.8961023E-01
        1   -1    0    0  501    0  0.00000000000E+00  0.00000000000E+00  0.70850262564E+03  0.70850262565E+03  0.50400001928E-02 0. -1.
       -1   -1    0    0    0  501  0.00000000000E+00  0.00000000000E+00 -0.68184384416E+03  0.68184384417E+03  0.50400001928E-02 0.  1.
    10030    2    1    2    0    0  0.00000000000E+00  0.00000000000E+00  0.26658781479E+02  0.13903464698E+04  0.13900908659E+04 0.  0.
        1    1    3    3  502    0 -0.67557353940E+02 -0.62327622943E+03  0.31346938973E+03  0.70092817932E+03  0.50400001928E-02 0. -1.
       -1    1    3    3    0  502  0.67557353940E+02  0.62327622943E+03 -0.28681060825E+03  0.68941829050E+03  0.50400001928E-02 0.  1.
</event>
<event>
 5   0  0.2215876E-04  0.1398582E+04  0.7818609E-02  0.8954846E-01
        1   -1    0    0  501    0  0.00000000000E+00  0.00000000000E+00  0.16340018909E+04  0.16340018909E+04  0.50400001928E-02 0.  1.
       -1   -1    0    0    0  501  0.00000000000E+00  0.00000000000E+00 -0.29927005214E+03  0.29927005218E+03  0.50400001928E-02 0. -1.
    10030    2    1    2    0    0  0.00000000000E+00  0.00000000000E+00  0.13347318387E+04  0.19332719431E+04  0.13985818977E+04 0.  0.
        3    1    3    3  502    0  0.67161058608E+03  0.19421706111E+03  0.64654967360E+03  0.95226442588E+03  0.10100000352E+00 0.  1.
       -3    1    3    3    0  502 -0.67161058608E+03 -0.19421706111E+03  0.68818216515E+03  0.98100751719E+03  0.10100000352E+00 0. -1.
</event>
<event>
 5   0  0.4208622E-04  0.1407953E+04  0.7818609E-02  0.8948082E-01
        2   -1    0    0  501    0  0.00000000000E+00  0.00000000000E+00  0.87147536841E+03  0.87147536842E+03  0.25500000920E-02 0.  1.
       -2   -1    0    0    0  501  0.00000000000E+00  0.00000000000E+00 -0.56867116154E+03  0.56867116154E+03  0.25500000920E-02 0. -1.
    10030    2    1    2    0    0  0.00000000000E+00  0.00000000000E+00  0.30280420687E+03  0.14401465300E+04  0.14079529964E+04 0.  0.
        4    1    3    3  502    0 -0.32367639473E+03 -0.30419594314E+03  0.71003999119E+03  0.83753207838E+03  0.12699999809E+01 0.  1.
       -4    1    3    3    0  502  0.32367639473E+03  0.30419594314E+03 -0.40723578431E+03  0.60261445158E+03  0.12699999809E+01 0. -1.
</event>
<event>
 5   0  0.4208622E-04  0.1399000E+04  0.7818609E-02  0.8954543E-01
       -2   -1    0    0    0  501  0.00000000000E+00  0.00000000000E+00  0.55670277168E+03  0.55670277168E+03  0.25500000920E-02 0. -1.
        2   -1    0    0  501    0  0.00000000000E+00  0.00000000000E+00 -0.87892506885E+03  0.87892506885E+03  0.25500000920E-02 0.  1.
    10030    2    1    2    0    0  0.00000000000E+00  0.00000000000E+00 -0.32222229717E+03  0.14356278405E+04  0.13989996740E+04 0.  0.
        4    1    3    3  502    0 -0.14674633677E+03  0.26938371021E+03 -0.80621660399E+03  0.86260587532E+03  0.12699999809E+01 0.  1.
       -4    1    3    3    0  502  0.14674633677E+03 -0.26938371021E+03  0.48399430682E+03  0.57302196521E+03  0.12699999809E+01 0. -1.
</event>
<event>
 5   0  0.2155352E-04  0.1410962E+04  0.7818609E-02  0.8945922E-01
       -1   -1    0    0    0  501  0.00000000000E+00  0.00000000000E+00  0.72490141909E+03  0.72490141911E+03  0.50400001928E-02 0. -1.
        1   -1    0    0  501    0  0.00000000000E+00  0.00000000000E+00 -0.68658075143E+03  0.68658075145E+03  0.50400001928E-02 0.  1.
    10030    2    1    2    0    0  0.00000000000E+00  0.00000000000E+00  0.38320667659E+02  0.14114821706E+04  0.14109618862E+04 0.  0.
        2    1    3    3  502    0 -0.23418762548E+03  0.51093500575E+03 -0.40738279514E+03  0.69416076366E+03  0.25500000920E-02 0.  1.
       -2    1    3    3    0  502  0.23418762548E+03 -0.51093500575E+03  0.44570346280E+03  0.71732140689E+03  0.25500000920E-02 0. -1.
</event>
<event>
 5   0  0.2217251E-04  0.1398642E+04  0.7818609E-02  0.8954802E-01
       -1   -1    0    0    0  501  0.00000000000E+00  0.00000000000E+00  0.90121157383E+03  0.90121157384E+03  0.50400001928E-02 0.  1.
        1   -1    0    0  501    0  0.00000000000E+00  0.00000000000E+00 -0.54265849112E+03  0.54265849114E+03  0.50400001928E-02 0. -1.
    10030    2    1    2    0    0  0.00000000000E+00  0.00000000000E+00  0.35855308271E+03  0.14438700650E+04  0.13986423601E+04 0.  0.
        5    1    3    3  502    0  0.24946602999E+03 -0.28500354128E+03  0.78613583738E+03  0.87263506890E+03  0.46999998093E+01 0.  1.
       -5    1    3    3    0  502 -0.24946602999E+03  0.28500354128E+03 -0.42758275467E+03  0.57123499608E+03  0.46999998093E+01 0. -1.
</event>
<event>
 5   0  0.2217251E-04  0.1398888E+04  0.7818609E-02  0.8954624E-01
       -1   -1    0    0    0  501  0.00000000000E+00  0.00000000000E+00  0.45593864702E+03  0.45593864704E+03  0.50400001928E-02 0. -1.
        1   -1    0    0  501    0  0.00000000000E+00  0.00000000000E+00 -0.10729990184E+04  0.10729990185E+04  0.50400001928E-02 0.  1.
    10030    2    1    2    0    0  0.00000000000E+00  0.00000000000E+00 -0.61706037143E+03  0.15289376655E+04  0.13988877307E+04 0.  0.
        5    1    3    3  502    0  0.27497160170E+03 -0.62468936675E+03 -0.14150483688E+03  0.69705946341E+03  0.46999998093E+01 0.  1.
       -5    1    3    3    0  502 -0.27497160170E+03  0.62468936675E+03 -0.47555553455E+03  0.83187820209E+03  0.46999998093E+01 0. -1.
</event>
<event>
 5   0  0.3932568E-04  0.1401712E+04  0.7818609E-02  0.8952580E-01
       -2   -1    0    0    0  501  0.00000000000E+00  0.00000000000E+00  0.95923585393E+03  0.95923585393E+03  0.25500000920E-02 0.  1.
        2   -1    0    0  501    0  0.00000000000E+00  0.00000000000E+00 -0.51207317771E+03  0.51207317772E+03  0.25500000920E-02 0. -1.
    10030    2    1    2    0    0  0.00000000000E+00  0.00000000000E+00  0.44716267622E+03  0.14713090317E+04  0.14017117420E+04 0.  0.
        2    1    3    3  502    0 -0.35343065850E+03  0.42241319792E+03  0.67852125030E+03  0.87392060696E+03  0.25500000920E-02 0.  1.
       -2    1    3    3    0  502  0.35343065850E+03 -0.42241319792E+03 -0.23135857409E+03  0.59738842469E+03  0.25500000920E-02 0. -1.
</event>
<event>
 5   0  0.3975164E-04  0.1399404E+04  0.7818609E-02  0.8954250E-01
       -2   -1    0    0    0  501  0.00000000000E+00  0.00000000000E+00  0.88453771424E+03  0.88453771424E+03  0.25500000920E-02 0.  1.
        2   -1    0    0  501    0  0.00000000000E+00  0.00000000000E+00 -0.55349050652E+03  0.55349050653E+03  0.25500000920E-02 0. -1.
    10030    2    1    2    0    0  0.00000000000E+00  0.00000000000E+00  0.33104720771E+03  0.14380282208E+04  0.13994044841E+04 0.  0.
        5    1    3    3  502    0  0.73386478126E+02 -0.69032644270E+03  0.25525472014E+03  0.73967103148E+03  0.46999998093E+01 0.  1.
       -5    1    3    3    0  502 -0.73386478126E+02  0.69032644270E+03  0.75792487572E+02  0.69835718929E+03  0.46999998093E+01 0. -1.
</event>
<event>
 5   0  0.4310348E-04  0.1401093E+04  0.7818609E-02  0.8953028E-01
       -2   -1    0    0    0  501  0.00000000000E+00  0.00000000000E+00  0.36932800910E+03  0.36932800911E+03  0.25500000920E-02 0.  1.
        2   -1    0    0  501    0  0.00000000000E+00  0.00000000000E+00 -0.13288060591E+04  0.13288060591E+04  0.25500000920E-02 0. -1.
    10030    2    1    2    0    0  0.00000000000E+00  0.00000000000E+00 -0.95947804996E+03  0.16981340682E+04  0.14010928539E+04 0.  0.
        1    1    3    3  502    0  0.23772456772E+02  0.10075737188E+03 -0.13194840564E+04  0.13235389502E+04  0.50400001928E-02 0. -1.
       -1    1    3    3    0  502 -0.23772456772E+02 -0.10075737188E+03  0.36000600643E+03  0.37459511794E+03  0.50400001928E-02 0.  1.
</event>
<event>
 5   0  0.3932568E-04  0.1400819E+04  0.7818609E-02  0.8953226E-01
        2   -1    0    0  501    0  0.00000000000E+00  0.00000000000E+00  0.12884643763E+04  0.12884643763E+04  0.25500000920E-02 0.  1.
       -2   -1    0    0    0  501  0.00000000000E+00  0.00000000000E+00 -0.38074292619E+03  0.38074292620E+03  0.25500000920E-02 0. -1.
    10030    2    1    2    0    0  0.00000000000E+00  0.00000000000E+00  0.90772145015E+03  0.16692073025E+04  0.14008193273E+04 0.  0.
        2    1    3    3  502    0 -0.65048077690E+03  0.20377514523E+03  0.64571893158E+03  0.93893689326E+03  0.25500000920E-02 0.  1.
       -2    1    3    3    0  502  0.65048077690E+03 -0.20377514523E+03  0.26200251857E+03  0.73027040928E+03  0.25500000920E-02 0. -1.
</event>
<event>
 5   0  0.3917598E-04  0.1395685E+04  0.7818609E-02  0.8956948E-01
        2   -1    0    0  501    0  0.00000000000E+00  0.00000000000E+00  0.50957056875E+03  0.50957056876E+03  0.25500000920E-02 0. -1.
       -2   -1    0    0    0  501  0.00000000000E+00  0.00000000000E+00 -0.95567501843E+03  0.95567501843E+03  0.25500000920E-02 0.  1.
    10030    2    1    2    0    0  0.00000000000E+00  0.00000000000E+00 -0.44610444967E+03  0.14652455872E+04  0.13956845814E+04 0.  0.
        3    1    3    3  502    0  0.51512185899E+03 -0.10572354498E+03 -0.70467126472E+03  0.87925513879E+03  0.10100000352E+00 0.  1.
       -3    1    3    3    0  502 -0.51512185899E+03  0.10572354498E+03  0.25856681504E+03  0.58599044840E+03  0.10100000352E+00 0. -1.
</event>
<event>
 5   0  0.2215876E-04  0.1399737E+04  0.7818609E-02  0.8954009E-01
        1   -1    0    0  501    0  0.00000000000E+00  0.00000000000E+00  0.86776320808E+03  0.86776320809E+03  0.50400001928E-02 0. -1.
       -1   -1    0    0    0  501  0.00000000000E+00  0.00000000000E+00 -0.56445806800E+03  0.56445806802E+03  0.50400001928E-02 0.  1.
    10030    2    1    2    0    0  0.00000000000E+00  0.00000000000E+00  0.30330514008E+03  0.14322212761E+04  0.13997370381E+04 0.  0.
        3    1    3    3  502    0 -0.26217939439E+03  0.52913450340E+03 -0.23269029766E+03  0.63471737203E+03  0.10100000352E+00 0.  1.
       -3    1    3    3    0  502  0.26217939439E+03 -0.52913450340E+03  0.53599543775E+03  0.79750390408E+03  0.10100000352E+00 0. -1.
</event>
<event>
 5   0  0.3975164E-04  0.1398327E+04  0.7818609E-02  0.8955030E-01
       -2   -1    0    0    0  501  0.00000000000E+00  0.00000000000E+00  0.35025131932E+03  0.35025131933E+03  0.25500000920E-02 0. -1.
        2   -1    0    0  501    0  0.00000000000E+00  0.00000000000E+00 -0.13956542547E+04  0.13956542547E+04  0.25500000920E-02 0.  1.
    10030    2    1    2    0    0  0.00000000000E+00  0.00000000000E+00 -0.10454029353E+04  0.17459055740E+04  0.13983272064E+04 0.  0.
        5    1    3    3  502    0 -0.31837605021E+03 -0.42280178200E+02  0.25267461739E+03  0.40867771543E+03  0.46999998093E+01 0. -1.
       -5    1    3    3    0  502  0.31837605021E+03  0.42280178200E+02 -0.12980775527E+04  0.13372278586E+04  0.46999998093E+01 0.  1.
</event>
<event>
 5   0  0.2217251E-04  0.1414661E+04  0.7818609E-02  0.8943274E-01
        1   -1    0    0  501    0  0.00000000000E+00  0.00000000000E+00  0.69917985587E+03  0.69917985588E+03  0.50400001928E-02 0.  1.
       -1   -1    0    0    0  501  0.00000000000E+00  0.00000000000E+00 -0.71557589627E+03  0.71557589629E+03  0.50400001928E-02 0. -1.
    10030    2    1    2    0    0  0.00000000000E+00  0.00000000000E+00 -0.16396040404E+02  0.14147557522E+04  0.14146607396E+04 0.  0.
        5    1    3    3  502    0  0.18349983990E+03 -0.63845664728E+03  0.23470732178E+03  0.70456277122E+03  0.46999998093E+01 0.  1.
       -5    1    3    3    0  502 -0.18349983990E+03  0.63845664728E+03 -0.25110336219E+03  0.71019298095E+03  0.46999998093E+01 0. -1.
</event>
<event>
 5   0  0.2215876E-04  0.1400633E+04  0.7818609E-02  0.8953361E-01
       -1   -1    0    0    0  501  0.00000000000E+00  0.00000000000E+00  0.37676115751E+03  0.37676115754E+03  0.50400001928E-02 0. -1.
        1   -1    0    0  501    0  0.00000000000E+00  0.00000000000E+00 -0.13017347267E+04  0.13017347267E+04  0.50400001928E-02 0.  1.
    10030    2    1    2    0    0  0.00000000000E+00  0.00000000000E+00 -0.92497356916E+03  0.16784958842E+04  0.14006328319E+04 0.  0.
        3    1    3    3  502    0  0.48087086349E+03 -0.39963027143E+02  0.14575562459E+03  0.50406204299E+03  0.10100000352E+00 0. -1.
       -3    1    3    3    0  502 -0.48087086349E+03  0.39963027143E+02 -0.10707291937E+04  0.11744338412E+04  0.10100000352E+00 0.  1.
</event>
<event>
 5   0  0.3917598E-04  0.1394503E+04  0.7818609E-02  0.8957807E-01
        2   -1    0    0  501    0  0.00000000000E+00  0.00000000000E+00  0.61585581696E+03  0.61585581696E+03  0.25500000920E-02 0. -1.
       -2   -1    0    0    0  501  0.00000000000E+00  0.00000000000E+00 -0.78940546356E+03  0.78940546357E+03  0.25500000920E-02 0.  1.
    10030    2    1    2    0    0  0.00000000000E+00  0.00000000000E+00 -0.17354964660E+03  0.14052612805E+04  0.13945034194E+04 0.  0.
        3    1    3    3  502    0 -0.38784383993E+03 -0.16392291210E+03 -0.64681967536E+03  0.77179613106E+03  0.10100000352E+00 0.  1.
       -3    1    3    3    0  502  0.38784383993E+03  0.16392291210E+03  0.47327002876E+03  0.63346514948E+03  0.10100000352E+00 0. -1.
</event>
<event>
 5   0  0.2223112E-04  0.1405782E+04  0.7818609E-02  0.8949644E-01
       -1   -1    0    0    0  501  0.00000000000E+00  0.00000000000E+00  0.67970300890E+03  0.67970300891E+03  0.50400001928E-02 0. -1.
        1   -1    0    0  501    0  0.00000000000E+00  0.00000000000E+00 -0.72687037692E+03  0.72687037694E+03  0.50400001928E-02 0.  1.
    10030    2    1    2    0    0  0.00000000000E+00  0.00000000000E+00 -0.47167368028E+02  0.14065733859E+04  0.14057823193E+04 0.  0.
        1    1    3    3  502    0  0.39671823834E+03  0.24429391727E+02 -0.60362865303E+03  0.72273764714E+03  0.50400001928E-02 0.  1.
       -1    1    3    3    0  502 -0.39671823834E+03 -0.24429391727E+02  0.55646128500E+03  0.68383573871E+03  0.50400001928E-02 0. -1.
</event>
<event>
 5   0  0.2215876E-04  0.1467020E+04  0.7818609E-02  0.8906685E-01
        1   -1    0    0  501    0  0.00000000000E+00  0.00000000000E+00  0.84152793880E+03  0.84152793881E+03  0.50400001928E-02 0. -1.
       -1   -1    0    0    0  501  0.00000000000E+00  0.00000000000E+00 -0.63935702726E+03  0.63935702728E+03  0.50400001928E-02 0.  1.
    10030    2    1    2    0    0  0.00000000000E+00  0.00000000000E+00  0.20217091154E+03  0.14808849661E+04  0.14670198381E+04 0.  0.
        3    1    3    3  502    0 -0.12048117774E+03  0.69193549457E+03 -0.11244711901E+03  0.71129094442E+03  0.10100000352E+00 0. -1.
       -3    1    3    3    0  502  0.12048117774E+03 -0.69193549457E+03  0.31461803055E+03  0.76959402167E+03  0.10100000352E+00 0.  1.
</event>
<event>
 5   0  0.2143942E-04  0.1397257E+04  0.7818609E-02  0.8955807E-01
        1   -1    0    0  501    0  0.00000000000E+00  0.00000000000E+00  0.16776412571E+04  0.16776412571E+04  0.50400001928E-02 0.  1.
       -1   -1    0    0    0  501  0.00000000000E+00  0.00000000000E+00 -0.29093326339E+03  0.29093326343E+03  0.50400001928E-02 0. -1.
    10030    2    1    2    0    0  0.00000000000E+00  0.00000000000E+00  0.13867079937E+04  0.19685745205E+04  0.13972568064E+04 0.  0.
        4    1    3    3  502    0 -0.55161664981E+02  0.46550005507E+03  0.14231877341E+04  0.14983984951E+04  0.12699999809E+01 0.  1.
       -4    1    3    3    0  502  0.55161664981E+02 -0.46550005507E+03 -0.36479740430E+02  0.47017602546E+03  0.12699999809E+01 0. -1.
</event>
<event>
 5   0  0.2217251E-04  0.1395198E+04  0.7818609E-02  0.8957302E-01
       -1   -1    0    0    0  501  0.00000000000E+00  0.00000000000E+00  0.48832718180E+03  0.48832718183E+03  0.50400001928E-02 0.  1.
        1   -1    0    0  501    0  0.00000000000E+00  0.00000000000E+00 -0.99655437642E+03  0.99655437643E+03  0.50400001928E-02 0. -1.
    10030    2    1    2    0    0  0.00000000000E+00  0.00000000000E+00 -0.50822719462E+03  0.14848815583E+04  0.13951983231E+04 0.  0.
        5    1    3    3  502    0  0.64083970450E+03 -0.14128721519E+02 -0.54702723818E+03  0.84269569652E+03  0.46999998093E+01 0. -1.
       -5    1    3    3    0  502 -0.64083970450E+03  0.14128721519E+02  0.38800043563E+02  0.64218586173E+03  0.46999998093E+01 0.  1.
</event>
<event>
 5   0  0.4208622E-04  0.1408992E+04  0.7818609E-02  0.8947335E-01
       -2   -1    0    0    0  501  0.00000000000E+00  0.00000000000E+00  0.44964416060E+03  0.44964416061E+03  0.25500000920E-02 0. -1.
        2   -1    0    0  501    0  0.00000000000E+00  0.00000000000E+00 -0.11037948225E+04  0.11037948225E+04  0.25500000920E-02 0.  1.
    10030    2    1    2    0    0  0.00000000000E+00  0.00000000000E+00 -0.65415066191E+03  0.15534389831E+04  0.14089924009E+04 0.  0.
        4    1    3    3  502    0  0.11313939129E+03 -0.23922456890E+03  0.39276346911E+03  0.47359652848E+03  0.12699999809E+01 0. -1.
       -4    1    3    3    0  502 -0.11313939129E+03  0.23922456890E+03 -0.10469141310E+04  0.10798424546E+04  0.12699999809E+01 0.  1.
</event>
<event>
 5   0  0.3917598E-04  0.1449011E+04  0.7818609E-02  0.8919087E-01
       -2   -1    0    0    0  501  0.00000000000E+00  0.00000000000E+00  0.92325322988E+03  0.92325322989E+03  0.25500000920E-02 0. -1.
        2   -1    0    0  501    0  0.00000000000E+00  0.00000000000E+00 -0.56854179799E+03  0.56854179799E+03  0.25500000920E-02 0.  1.
    10030    2    1    2    0    0  0.00000000000E+00  0.00000000000E+00  0.35471143189E+03  0.14917950279E+04  0.14490107678E+04 0.  0.
        3    1    3    3  502    0 -0.34324449845E+03  0.16671327735E+03 -0.45670052806E+03  0.59513484614E+03  0.10100000352E+00 0.  1.
       -3    1    3    3    0  502  0.34324449845E+03 -0.16671327735E+03  0.81141195996E+03  0.89666018174E+03  0.10100000352E+00 0. -1.
</event>
<event>
 5   0  0.2143942E-04  0.1398174E+04  0.7818609E-02  0.8955141E-01
       -1   -1    0    0    0  501  0.00000000000E+00  0.00000000000E+00  0.80106389035E+03  0.80106389037E+03  0.50400001928E-02 0. -1.
        1   -1    0    0  501    0  0.00000000000E+00  0.00000000000E+00 -0.61009196538E+03  0.61009196540E+03  0.50400001928E-02 0.  1.
    10030    2    1    2    0    0  0.00000000000E+00  0.00000000000E+00  0.19097192497E+03  0.14111558558E+04  0.13981740139E+04 0.  0.
        4    1    3    3  502    0 -0.22371702873E+03 -0.57889455886E+03 -0.22929809471E+03  0.66162485470E+03  0.12699999809E+01 0.  1.
       -4    1    3    3    0  502  0.22371702873E+03  0.57889455886E+03  0.42027001968E+03  0.74953100107E+03  0.12699999809E+01 0. -1.
</event>
<event>
 5   0  0.3932568E-04  0.1385210E+04  0.7818609E-02  0.8964594E-01
        2   -1    0    0  501    0  0.00000000000E+00  0.00000000000E+00  0.82888763270E+03  0.82888763271E+03  0.25500000920E-02 0.  1.
       -2   -1    0    0    0  501  0.00000000000E+00  0.00000000000E+00 -0.57872956540E+03  0.57872956541E+03  0.25500000920E-02 0. -1.
    10030    2    1    2    0    0  0.00000000000E+00  0.00000000000E+00  0.25015806730E+03  0.14076171981E+04  0.13852101349E+04 0.  0.
        2    1    3    3  502    0 -0.75692828339E+02 -0.57287167960E+03 -0.26292245191E+03  0.63485398422E+03  0.25500000920E-02 0. -1.
       -2    1    3    3    0  502  0.75692828339E+02  0.57287167960E+03  0.51308051921E+03  0.77276321390E+03  0.25500000920E-02 0.  1.
</event>
<event>
 5   0  0.2217251E-04  0.1403765E+04  0.7818609E-02  0.8951098E-01
       -1   -1    0    0    0  501  0.00000000000E+00  0.00000000000E+00  0.22217369035E+03  0.22217369040E+03  0.50400001928E-02 0.  1.
        1   -1    0    0  501    0  0.00000000000E+00  0.00000000000E+00 -0.22173591560E+04  0.22173591560E+04  0.50400001928E-02 0. -1.
    10030    2    1    2    0    0  0.00000000000E+00  0.00000000000E+00 -0.19951854656E+04  0.24395328464E+04  0.14037647475E+04 0.  0.
        5    1    3    3  502    0  0.13113879084E+03 -0.52625704535E+03 -0.17718101972E+04  0.18529644695E+04  0.46999998093E+01 0. -1.
       -5    1    3    3    0  502 -0.13113879084E+03  0.52625704535E+03 -0.22337526844E+03  0.58656837692E+03  0.46999998093E+01 0.  1.
</event>
<event>
 5   0  0.3932568E-04  0.1395920E+04  0.7818609E-02  0.8956777E-01
       -2   -1    0    0    0  501  0.00000000000E+00  0.00000000000E+00  0.42556875018E+03  0.42556875019E+03  0.25500000920E-02 0. -1.
        2   -1    0    0  501    0  0.00000000000E+00  0.00000000000E+00 -0.11446996667E+04  0.11446996667E+04  0.25500000920E-02 0.  1.
    10030    2    1    2    0    0  0.00000000000E+00  0.00000000000E+00 -0.71913091656E+03  0.15702684169E+04  0.13959203509E+04 0.  0.
        2    1    3    3  502    0 -0.14581511933E+03  0.26582045952E+03  0.34762423563E+03  0.46126475578E+03  0.25500000920E-02 0. -1.
       -2    1    3    3    0  502  0.14581511933E+03 -0.26582045952E+03 -0.10667551522E+04  0.11090036612E+04  0.25500000920E-02 0.  1.
</event>
<event>
 5   0  0.2143942E-04  0.1392429E+04  0.7818609E-02  0.8959317E-01
        1   -1    0    0  501    0  0.00000000000E+00  0.00000000000E+00  0.43563065102E+03  0.43563065105E+03  0.50400001928E-02 0. -1.
       -1   -1    0    0    0  501  0.00000000000E+00  0.00000000000E+00 -0.11126740769E+04  0.11126740769E+04  0.50400001928E-02 0.  1.
    10030    2    1    2    0    0  0.00000000000E+00  0.00000000000E+00 -0.67704342584E+03  0.15483047279E+04  0.13924294345E+04 0.  0.
        4    1    3    3  502    0  0.25583674727E+03  0.49457951672E+03  0.12617542909E+03  0.57094937728E+03  0.12699999809E+01 0. -1.
       -4    1    3    3    0  502 -0.25583674727E+03 -0.49457951672E+03 -0.80321885493E+03  0.97735535064E+03  0.12699999809E+01 0.  1.
</event>
<event>
 5   0  0.2143942E-04  0.1401804E+04  0.7818609E-02  0.8952514E-01
       -1   -1    0    0    0  501  0.00000000000E+00  0.00000000000E+00  0.66968343311E+03  0.66968343313E+03  0.50400001928E-02 0.  1.
        1   -1    0    0  501    0  0.00000000000E+00  0.00000000000E+00 -0.73357574225E+03  0.73357574226E+03  0.50400001928E-02 0. -1.
    10030    2    1    2    0    0  0.00000000000E+00  0.00000000000E+00 -0.63892309136E+02  0.14032591754E+04  0.14018038687E+04 0.  0.
        4    1    3    3  502    0 -0.51010160106E+02 -0.27710114521E+03 -0.67438717232E+03  0.73088080574E+03  0.12699999809E+01 0. -1.
       -4    1    3    3    0  502  0.51010160106E+02  0.27710114521E+03  0.61049486318E+03  0.67237836966E+03  0.12699999809E+01 0.  1.
</event>
<event>
 5   0  0.2155352E-04  0.1404561E+04  0.7818609E-02  0.8950523E-01
       -1   -1    0    0    0  501  0.00000000000E+00  0.00000000000E+00  0.41179145457E+03  0.41179145460E+03  0.50400001928E-02 0. -1.
        1   -1    0    0  501    0  0.00000000000E+00  0.00000000000E+00 -0.11976891658E+04  0.11976891658E+04  0.50400001928E-02 0.  1.
    10030    2    1    2    0    0  0.00000000000E+00  0.00000000000E+00 -0.78589771126E+03  0.16094806204E+04  0.14045613746E+04 0.  0.
        2    1    3    3  502    0 -0.10835959532E+03  0.50259355126E+02  0.40006580152E+03  0.41751700592E+03  0.25500000920E-02 0. -1.
       -2    1    3    3    0  502  0.10835959532E+03 -0.50259355126E+02 -0.11859635128E+04  0.11919636145E+04  0.25500000920E-02 0.  1.
</event>
<event>
 5   0  0.3932568E-04  0.1398276E+04  0.7818609E-02  0.8955067E-01
       -2   -1    0    0    0  501  0.00000000000E+00  0.00000000000E+00  0.15888970918E+03  0.15888970920E+03  0.25500000920E-02 0. -1.
        2   -1    0    0  501    0  0.00000000000E+00  0.00000000000E+00 -0.30763107359E+04  0.30763107359E+04  0.25500000920E-02 0.  1.
    10030    2    1    2    0    0  0.00000000000E+00  0.00000000000E+00 -0.29174210267E+04  0.32352004451E+04  0.13982762505E+04 0.  0.
        2    1    3    3  502    0  0.54579553662E+03  0.24252753558E+03 -0.22995819711E+04  0.23758765993E+04  0.25500000920E-02 0.  1.
       -2    1    3    3    0  502 -0.54579553662E+03 -0.24252753558E+03 -0.61783905564E+03  0.85932384582E+03  0.25500000920E-02 0. -1.
</event>
<event>
 5   0  0.1497625E-04  0.1398801E+04  0.7818609E-02  0.8954687E-01
        3   -1    0    0  501    0  0.00000000000E+00  0.00000000000E+00  0.11748378302E+04  0.11748378345E+04  0.10100000352E+00 0.  1.
       -3   -1    0    0    0  501  0.00000000000E+00  0.00000000000E+00 -0.41636451067E+03  0.41636452292E+03  0.10100000352E+00 0. -1.
    10030    2    1    2    0    0  0.00000000000E+00  0.00000000000E+00  0.75847331949E+03  0.15912023574E+04  0.13988006169E+04 0.  0.
        4    1    3    3  502    0 -0.39617225580E+03 -0.57560698323E+03  0.34542788678E+03  0.77948565944E+03  0.12699999809E+01 0. -1.
       -4    1    3    3    0  502  0.39617225580E+03  0.57560698323E+03  0.41304543271E+03  0.81171669798E+03  0.12699999809E+01 0.  1.
</event>
<event>
 5   0  0.3975164E-04  0.1411754E+04  0.7818609E-02  0.8945354E-01
       -2   -1    0    0    0  501  0.00000000000E+00  0.00000000000E+00  0.53159798017E+03  0.53159798018E+03  0.25500000920E-02 0.  1.
        2   -1    0    0  501    0  0.00000000000E+00  0.00000000000E+00 -0.93729114094E+03  0.93729114095E+03  0.25500000920E-02 0. -1.
    10030    2    1    2    0    0  0.00000000000E+00  0.00000000000E+00 -0.40569316077E+03  0.14688891211E+04  0.14117536292E+04 0.  0.
        5    1    3    3  502    0  0.18543326384E+03 -0.60057256937E+03  0.13134897739E+03  0.64214293602E+03  0.46999998093E+01 0.  1.
       -5    1    3    3    0  502 -0.18543326384E+03  0.60057256937E+03 -0.53704213816E+03  0.82674618510E+03  0.46999998093E+01 0. -1.
</event>
<event>
 5   0  0.3975164E-04  0.1403394E+04  0.7818609E-02  0.8951365E-01
       -2   -1    0    0    0  501  0.00000000000E+00  0.00000000000E+00  0.46899308913E+03  0.46899308914E+03  0.25500000920E-02 0. -1.
        2   -1    0    0  501    0  0.00000000000E+00  0.00000000000E+00 -0.10498636831E+04  0.10498636831E+04  0.25500000920E-02 0.  1.
    10030    2    1    2    0    0  0.00000000000E+00  0.00000000000E+00 -0.58087059399E+03  0.15188567723E+04  0.14033941883E+04 0.  0.
        5    1    3    3  502    0  0.43537653738E+02 -0.67796099418E+03 -0.10040427268E+03  0.68675304505E+03  0.46999998093E+01 0. -1.
       -5    1    3    3    0  502 -0.43537653738E+02  0.67796099418E+03 -0.48046632131E+03  0.83210372720E+03  0.46999998093E+01 0.  1.
</event>
<event>
 5   0  0.4208622E-04  0.1397248E+04  0.7818609E-02  0.8955813E-01
       -2   -1    0    0    0  501  0.00000000000E+00  0.00000000000E+00  0.43798180419E+03  0.43798180420E+03  0.25500000920E-02 0.  1.
        2   -1    0    0  501    0  0.00000000000E+00  0.00000000000E+00 -0.11143731178E+04  0.11143731178E+04  0.25500000920E-02 0. -1.
    10030    2    1    2    0    0  0.00000000000E+00  0.00000000000E+00 -0.67639131363E+03  0.15523549220E+04  0.13972475066E+04 0.  0.
        4    1    3    3  502    0  0.65843553525E+03 -0.11797347732E+03 -0.56210865311E+03  0.87374072026E+03  0.12699999809E+01 0.  1.
       -4    1    3    3    0  502 -0.65843553525E+03  0.11797347732E+03 -0.11428266052E+03  0.67861420176E+03  0.12699999809E+01 0. -1.
</event>
<event>
 5   0  0.2143942E-04  0.1416457E+04  0.7818609E-02  0.8941991E-01
        1   -1    0    0  501    0  0.00000000000E+00  0.00000000000E+00  0.10804526203E+04  0.10804526204E+04  0.50400001928E-02 0. -1.
       -1   -1    0    0    0  501  0.00000000000E+00  0.00000000000E+00 -0.46423852276E+03  0.46423852279E+03  0.50400001928E-02 0.  1.
    10030    2    1    2    0    0  0.00000000000E+00  0.00000000000E+00  0.61621409758E+03  0.15446911431E+04  0.14164571697E+04 0.  0.
        4    1    3    3  502    0 -0.86237463418E+02 -0.25561516850E+03 -0.40601215635E+03  0.48746640753E+03  0.12699999809E+01 0.  1.
       -4    1    3    3    0  502  0.86237463418E+02  0.25561516850E+03  0.10222262539E+04  0.10572247356E+04  0.12699999809E+01 0. -1.
</event>
<event>
 5   0  0.2155352E-04  0.1405667E+04  0.7818609E-02  0.8949726E-01
       -1   -1    0    0    0  501  0.00000000000E+00  0.00000000000E+00  0.87901986238E+03  0.87901986240E+03  0.50400001928E-02 0.  1.
        1   -1    0    0  501    0  0.00000000000E+00  0.00000000000E+00 -0.56196135520E+03  0.56196135522E+03  0.50400001928E-02 0. -1.
    10030    2    1    2    0    0  0.00000000000E+00  0.00000000000E+00  0.31705850718E+03  0.14409812176E+04  0.14056673762E+04 0.  0.
        2    1    3    3  502    0  0.34529961158E+03 -0.57685411395E+03 -0.51515070692E+02  0.67427464216E+03  0.25500000920E-02 0. -1.
       -2    1    3    3    0  502 -0.34529961158E+03  0.57685411395E+03  0.36857357787E+03  0.76670657546E+03  0.25500000920E-02 0.  1.
</event>
<event>
 5   0  0.3932568E-04  0.1403033E+04  0.7818609E-02  0.8951626E-01
       -2   -1    0    0    0  501  0.00000000000E+00  0.00000000000E+00  0.49181489193E+03  0.49181489193E+03  0.25500000920E-02 0. -1.
        2   -1    0    0  501    0  0.00000000000E+00  0.00000000000E+00 -0.10006309111E+04  0.10006309111E+04  0.25500000920E-02 0.  1.
    10030    2    1    2    0    0  0.00000000000E+00  0.00000000000E+00 -0.50881601921E+03  0.14924458031E+04  0.14030326916E+04 0.  0.
        2    1    3    3  502    0 -0.66758061332E+03 -0.46812736126E+00 -0.25123100792E+02  0.66805333965E+03  0.25500000920E-02 0. -1.
       -2    1    3    3    0  502  0.66758061332E+03  0.46812736126E+00 -0.48369291842E+03  0.82439246343E+03  0.25500000920E-02 0.  1.
</event>
<event>
 5   0  0.2155352E-04  0.1402524E+04  0.7818609E-02  0.8951994E-01
       -1   -1    0    0    0  501  0.00000000000E+00  0.00000000000E+00  0.20295069022E+03  0.20295069028E+03  0.50400001928E-02 0.  1.
        1   -1    0    0  501    0  0.00000000000E+00  0.00000000000E+00 -0.24230928389E+04  0.24230928389E+04  0.50400001928E-02 0. -1.
    10030    2    1    2    0    0  0.00000000000E+00  0.00000000000E+00 -0.22201421486E+04  0.26260435292E+04  0.14025239594E+04 0.  0.
        2    1    3    3  502    0  0.24313253420E+03 -0.65233164219E+03 -0.95209849270E+03  0.11794666339E+04  0.25500000920E-02 0. -1.
       -2    1    3    3    0  502 -0.24313253420E+03  0.65233164219E+03 -0.12680436559E+04  0.14465768953E+04  0.25500000920E-02 0.  1.
</event>
<event>
 5   0  0.3917598E-04  0.1398584E+04  0.7818609E-02  0.8954844E-01
        2   -1    0    0  501    0  0.00000000000E+00  0.00000000000E+00  0.16100915976E+04  0.16100915976E+04  0.25500000920E-02 0.  1.
       -2   -1    0    0    0  501  0.00000000000E+00  0.00000000000E+00 -0.30371511309E+03  0.30371511310E+03  0.25500000920E-02 0. -1.
    10030    2    1    2    0    0  0.00000000000E+00  0.00000000000E+00  0.13063764845E+04  0.19138067107E+04  0.13985837861E+04 0.  0.
        3    1    3    3  502    0 -0.62689471630E+03  0.14371153514E+03  0.27754326876E+03  0.70048573639E+03  0.10100000352E+00 0.  1.
       -3    1    3    3    0  502  0.62689471630E+03 -0.14371153514E+03  0.10288332158E+04  0.12133209743E+04  0.10100000352E+00 0. -1.
</event>
<event>
 5   0  0.3975164E-04  0.1396448E+04  0.7818609E-02  0.8956394E-01
       -2   -1    0    0    0  501  0.00000000000E+00  0.00000000000E+00  0.53940631371E+03  0.53940631371E+03  0.25500000920E-02 0. -1.
        2   -1    0    0  501    0  0.00000000000E+00  0.00000000000E+00 -0.90380181647E+03  0.90380181647E+03  0.25500000920E-02 0.  1.
    10030    2    1    2    0    0  0.00000000000E+00  0.00000000000E+00 -0.36439550276E+03  0.14432081302E+04  0.13964475016E+04 0.  0.
        5    1    3    3  502    0  0.24700560082E+03  0.36760783891E+02  0.49165629364E+03  0.55146271237E+03  0.46999998093E+01 0. -1.
       -5    1    3    3    0  502 -0.24700560082E+03 -0.36760783891E+02 -0.85605179640E+03  0.89174541781E+03  0.46999998093E+01 0.  1.
</event>
<event>
 5   0  0.2217251E-04  0.1402782E+04  0.7818609E-02  0.8951807E-01
        1   -1    0    0  501    0  0.00000000000E+00  0.00000000000E+00  0.11168234997E+04  0.11168234998E+04  0.50400001928E-02 0. -1.
       -1   -1    0    0    0  501  0.00000000000E+00  0.00000000000E+00 -0.44048997919E+03  0.44048997922E+03  0.50400001928E-02 0.  1.
    10030    2    1    2    0    0  0.00000000000E+00  0.00000000000E+00  0.67633352055E+03  0.15573134790E+04  0.14027823212E+04 0.  0.
        5    1    3    3  502    0  0.34940311945E+02 -0.39655193108E+03  0.97923344867E+03  0.10570688229E+04  0.46999998093E+01 0. -1.
       -5    1    3    3    0  502 -0.34940311945E+02  0.39655193108E+03 -0.30289992812E+03  0.50024465604E+03  0.46999998093E+01 0.  1.
</event>
<event>
 5   0  0.2215876E-04  0.1401603E+04  0.7818609E-02  0.8952659E-01
       -1   -1    0    0    0  501  0.00000000000E+00  0.00000000000E+00  0.44531167858E+03  0.44531167860E+03  0.50400001928E-02 0.  1.
        1   -1    0    0  501    0  0.00000000000E+00  0.00000000000E+00 -0.11028735771E+04  0.11028735772E+04  0.50400001928E-02 0. -1.
    10030    2    1    2    0    0  0.00000000000E+00  0.00000000000E+00 -0.65756189856E+03  0.15481852558E+04  0.14016026312E+04 0.  0.
        3    1    3    3  502    0 -0.34189867138E+03  0.17444397905E+03 -0.97644398153E+03  0.10491750391E+04  0.10100000352E+00 0. -1.
       -3    1    3    3    0  502  0.34189867138E+03 -0.17444397905E+03  0.31888208297E+03  0.49901021669E+03  0.10100000352E+00 0.  1.
</event>
<event>
 5   0  0.3917598E-04  0.1402749E+04  0.7818609E-02  0.8951831E-01
        2   -1    0    0  501    0  0.00000000000E+00  0.00000000000E+00  0.11684473539E+04  0.11684473539E+04  0.25500000920E-02 0. -1.
       -2   -1    0    0    0  501  0.00000000000E+00  0.00000000000E+00 -0.42100847118E+03  0.42100847119E+03  0.25500000920E-02 0.  1.
    10030    2    1    2    0    0  0.00000000000E+00  0.00000000000E+00  0.74743888277E+03  0.15894558251E+04  0.14027490640E+04 0.  0.
        3    1    3    3  502    0 -0.29557622170E+03 -0.23316182854E+02  0.10939448575E+04  0.11334126825E+04  0.10100000352E+00 0. -1.
       -3    1    3    3    0  502  0.29557622170E+03  0.23316182854E+02 -0.34650597478E+03  0.45604314267E+03  0.10100000352E+00 0.  1.
</event>
<event>
 5   0  0.4310348E-04  0.1358466E+04  0.7818609E-02  0.8984444E-01
        2   -1    0    0  501    0  0.00000000000E+00  0.00000000000E+00  0.12670245705E+04  0.12670245705E+04  0.25500000920E-02 0.  1.
       -2   -1    0    0    0  501  0.00000000000E+00  0.00000000000E+00 -0.36412672911E+03  0.36412672912E+03  0.25500000920E-02 0. -1.
    10030    2    1    2    0    0  0.00000000000E+00  0.00000000000E+00  0.90289784143E+03  0.16311512997E+04  0.13584660652E+04 0.  0.
        1    1    3    3  502    0 -0.56965874043E+03  0.10984569447E+03  0.87559803216E+03  0.10503566400E+04  0.50400001928E-02 0.  1.
       -1    1    3    3    0  502  0.56965874043E+03 -0.10984569447E+03  0.27299809270E+02  0.58079465971E+03  0.50400001928E-02 0. -1.
</event>
<event>
 5   0  0.4310348E-04  0.1401887E+04  0.7818609E-02  0.8952454E-01
        2   -1    0    0  501    0  0.00000000000E+00  0.00000000000E+00  0.97637738846E+03  0.97637738847E+03  0.25500000920E-02 0. -1.
       -2   -1    0    0    0  501  0.00000000000E+00  0.00000000000E+00 -0.50320894403E+03  0.50320894404E+03  0.25500000920E-02 0.  1.
    10030    2    1    2    0    0  0.00000000000E+00  0.00000000000E+00  0.47316844443E+03  0.14795863325E+04  0.14018870634E+04 0.  0.
        1    1    3    3  502    0  0.62033512582E+03  0.11396721022E+03  0.55934002194E+03  0.84300975884E+03  0.50400001928E-02 0.  1.
       -1    1    3    3    0  502 -0.62033512582E+03 -0.11396721022E+03 -0.86171577506E+02  0.63657657366E+03  0.50400001928E-02 0. -1.
</event>
<event>
 5   0  0.3932568E-04  0.1405098E+04  0.7818609E-02  0.8950137E-01
       -2   -1    0    0    0  501  0.00000000000E+00  0.00000000000E+00  0.95005301035E+03  0.95005301035E+03  0.25500000920E-02 0.  1.
        2   -1    0    0  501    0  0.00000000000E+00  0.00000000000E+00 -0.51952349993E+03  0.51952349994E+03  0.25500000920E-02 0. -1.
    10030    2    1    2    0    0  0.00000000000E+00  0.00000000000E+00  0.43052951041E+03  0.14695765103E+04  0.14050976693E+04 0.  0.
        2    1    3    3  502    0  0.20910022406E+03 -0.20074238700E+03 -0.45406713228E+03  0.53869970324E+03  0.25500000920E-02 0. -1.
       -2    1    3    3    0  502 -0.20910022406E+03  0.20074238700E+03  0.88459664270E+03  0.93087680706E+03  0.25500000920E-02 0.  1.
</event>
<event>
 5   0  0.2223112E-04  0.1401651E+04  0.7818609E-02  0.8952624E-01
       -1   -1    0    0    0  501  0.00000000000E+00  0.00000000000E+00  0.74402945373E+03  0.74402945375E+03  0.50400001928E-02 0. -1.
        1   -1    0    0  501    0  0.00000000000E+00  0.00000000000E+00 -0.66013015035E+03  0.66013015037E+03  0.50400001928E-02 0.  1.
    10030    2    1    2    0    0  0.00000000000E+00  0.00000000000E+00  0.83899303382E+02  0.14041596041E+04  0.14016508484E+04 0.  0.
        1    1    3    3  502    0  0.55314849583E+03  0.30486704241E+03 -0.26230285599E+03  0.68390054852E+03  0.50400001928E-02 0.  1.
       -1    1    3    3    0  502 -0.55314849583E+03 -0.30486704241E+03  0.34620215938E+03  0.72025905559E+03  0.50400001928E-02 0. -1.
</event>
<event>
 5   0  0.4310348E-04  0.1391797E+04  0.7818609E-02  0.8959778E-01
        2   -1    0    0  501    0  0.00000000000E+00  0.00000000000E+00  0.66901062561E+03  0.66901062561E+03  0.25500000920E-02 0. -1.
       -2   -1    0    0    0  501  0.00000000000E+00  0.00000000000E+00 -0.72386686931E+03  0.72386686932E+03  0.25500000920E-02 0.  1.
    10030    2    1    2    0    0  0.00000000000E+00  0.00000000000E+00 -0.54856243703E+02  0.13928774949E+04  0.13917968632E+04 0.  0.
        1    1    3    3  502    0  0.35618012739E+03  0.35633336160E+03  0.45298300844E+03  0.67751852646E+03  0.50400001928E-02 0. -1.
       -1    1    3    3    0  502 -0.35618012739E+03 -0.35633336160E+03 -0.50783925214E+03  0.71535896847E+03  0.50400001928E-02 0.  1.
</event>
<event>
 5   0  0.4208622E-04  0.1408993E+04  0.7818609E-02  0.8947334E-01
        2   -1    0    0  501    0  0.00000000000E+00  0.00000000000E+00  0.96787494702E+03  0.96787494702E+03  0.25500000920E-02 0. -1.
       -2   -1    0    0    0  501  0.00000000000E+00  0.00000000000E+00 -0.51278899993E+03  0.51278899994E+03  0.25500000920E-02 0.  1.
    10030    2    1    2    0    0  0.00000000000E+00  0.00000000000E+00  0.45508594709E+03  0.14806639470E+04  0.14089934367E+04 0.  0.
        4    1    3    3  502    0 -0.68799860585E+03 -0.52950358970E+01  0.68365686948E+02  0.69140841701E+03  0.12699999809E+01 0.  1.
       -4    1    3    3    0  502  0.68799860585E+03  0.52950358970E+01  0.38672026014E+03  0.78925552995E+03  0.12699999809E+01 0. -1.
</event>
<event>
 5   0  0.3917598E-04  0.1402656E+04  0.7818609E-02  0.8951899E-01
       -2   -1    0    0    0  501  0.00000000000E+00  0.00000000000E+00  0.61787305353E+03  0.61787305354E+03  0.25500000920E-02 0. -1.
        2   -1    0    0  501    0  0.00000000000E+00  0.00000000000E+00 -0.79605449403E+03  0.79605449404E+03  0.25500000920E-02 0.  1.
    10030    2    1    2    0    0  0.00000000000E+00  0.00000000000E+00 -0.17818144050E+03  0.14139275476E+04  0.14026555115E+04 0.  0.
        3    1    3    3  502    0  0.70026966821E+03 -0.51050248620E+01 -0.12756736233E+03  0.71181255371E+03  0.10100000352E+00 0. -1.
       -3    1    3    3    0  502 -0.70026966821E+03  0.51050248620E+01 -0.50614078177E+02  0.70211499386E+03  0.10100000352E+00 0.  1.
</event>
<event>
 5   0  0.2217251E-04  0.1404759E+04  0.7818609E-02  0.8950381E-01
       -1   -1    0    0    0  501  0.00000000000E+00  0.00000000000E+00  0.49449575275E+03  0.49449575277E+03  0.50400001928E-02 0.  1.
        1   -1    0    0  501    0  0.00000000000E+00  0.00000000000E+00 -0.99765717824E+03  0.99765717825E+03  0.50400001928E-02 0. -1.
    10030    2    1    2    0    0  0.00000000000E+00  0.00000000000E+00 -0.50316142549E+03  0.14921529310E+04  0.14047593920E+04 0.  0.
        5    1    3    3  502    0 -0.18529341091E+03 -0.54417885547E+03  0.17707284909E+03  0.60153234223E+03  0.46999998093E+01 0.  1.
       -5    1    3    3    0  502  0.18529341091E+03  0.54417885547E+03 -0.68023427458E+03  0.89062058879E+03  0.46999998093E+01 0. -1.
</event>
<event>
 5   0  0.2155352E-04  0.1403103E+04  0.7818609E-02  0.8951575E-01
        1   -1    0    0  501    0  0.00000000000E+00  0.00000000000E+00  0.81702529142E+03  0.81702529144E+03  0.50400001928E-02 0.  1.
       -1   -1    0    0    0  501  0.00000000000E+00  0.00000000000E+00 -0.60239836823E+03  0.60239836825E+03  0.50400001928E-02 0. -1.
    10030    2    1    2    0    0  0.00000000000E+00  0.00000000000E+00  0.21462692319E+03  0.14194236597E+04  0.14031032783E+04 0.  0.
        2    1    3    3  502    0 -0.51217167971E+03 -0.39336313981E+03  0.38458232070E+03  0.75163684759E+03  0.25500000920E-02 0.  1.
       -2    1    3    3    0  502  0.51217167971E+03  0.39336313981E+03 -0.16995539750E+03  0.66778681209E+03  0.25500000920E-02 0. -1.
</event>
<event>
 5   0  0.4310348E-04  0.1400993E+04  0.7818609E-02  0.8953100E-01
       -2   -1    0    0    0  501  0.00000000000E+00  0.00000000000E+00  0.18930768610E+03  0.18930768612E+03  0.25500000920E-02 0.  1.
        2   -1    0    0  501    0  0.00000000000E+00  0.00000000000E+00 -0.25920528131E+04  0.25920528131E+04  0.25500000920E-02 0. -1.
    10030    2    1    2    0    0  0.00000000000E+00  0.00000000000E+00 -0.24027451270E+04  0.27813604992E+04  0.14009932481E+04 0.  0.
        1    1    3    3  502    0 -0.44329992448E+03  0.22713042935E+03 -0.21791947662E+04  0.22353954648E+04  0.50400001928E-02 0. -1.
       -1    1    3    3    0  502  0.44329992448E+03 -0.22713042935E+03 -0.22355036082E+03  0.54596503444E+03  0.50400001928E-02 0.  1.
</event>
<event>
 5   0  0.4208622E-04  0.1399234E+04  0.7818609E-02  0.8954373E-01
        2   -1    0    0  501    0  0.00000000000E+00  0.00000000000E+00  0.19697173933E+04  0.19697173933E+04  0.25500000920E-02 0.  1.
       -2   -1    0    0    0  501  0.00000000000E+00  0.00000000000E+00 -0.24849459822E+03  0.24849459823E+03  0.25500000920E-02 0. -1.
    10030    2    1    2    0    0  0.00000000000E+00  0.00000000000E+00  0.17212227950E+04  0.22182119915E+04  0.13992342653E+04 0.  0.
        4    1    3    3  502    0 -0.20715080768E+03 -0.35754583268E+03 -0.34365555618E+02  0.41464814470E+03  0.12699999809E+01 0. -1.
       -4    1    3    3    0  502  0.20715080768E+03  0.35754583268E+03  0.17555883507E+04  0.18035638468E+04  0.12699999809E+01 0.  1.
</event>
<event>
 5   0  0.3917598E-04  0.1400535E+04  0.7818609E-02  0.8953432E-01
        2   -1    0    0  501    0  0.00000000000E+00  0.00000000000E+00  0.92890255995E+03  0.92890255996E+03  0.25500000920E-02 0.  1.
       -2   -1    0    0    0  501  0.00000000000E+00  0.00000000000E+00 -0.52790728630E+03  0.52790728630E+03  0.25500000920E-02 0. -1.
    10030    2    1    2    0    0  0.00000000000E+00  0.00000000000E+00  0.40099527366E+03  0.14568098463E+04  0.14005347974E+04 0.  0.
        3    1    3    3  502    0  0.67915286565E+03 -0.13049257091E+02  0.23497069039E+02  0.67968450069E+03  0.10100000352E+00 0. -1.
       -3    1    3    3    0  502 -0.67915286565E+03  0.13049257091E+02  0.37749820462E+03  0.77712534557E+03  0.10100000352E+00 0.  1.
</event>
<event>
 5   0  0.2223112E-04  0.1404132E+04  0.7818609E-02  0.8950833E-01
       -1   -1    0    0    0  501  0.00000000000E+00  0.00000000000E+00  0.21169732187E+03  0.21169732193E+03  0.50400001928E-02 0. -1.
        1   -1    0    0  501    0  0.00000000000E+00  0.00000000000E+00 -0.23283098185E+04  0.23283098185E+04  0.50400001928E-02 0.  1.
    10030    2    1    2    0    0  0.00000000000E+00  0.00000000000E+00 -0.21166124966E+04  0.25400071404E+04  0.14041324056E+04 0.  0.
        1    1    3    3  502    0 -0.19641063948E+03  0.28353965444E+03  0.47856863614E+02  0.34822715914E+03  0.50400001928E-02 0. -1.
       -1    1    3    3    0  502  0.19641063948E+03 -0.28353965444E+03 -0.21644693602E+04  0.21917799813E+04  0.50400001928E-02 0.  1.
</event>
<event>
 5   0  0.3932568E-04  0.1398859E+04  0.7818609E-02  0.8954645E-01
        2   -1    0    0  501    0  0.00000000000E+00  0.00000000000E+00  0.82655064209E+03  0.82655064210E+03  0.25500000920E-02 0. -1.
       -2   -1    0    0    0  501  0.00000000000E+00  0.00000000000E+00 -0.59185890603E+03  0.59185890603E+03  0.25500000920E-02 0.  1.
    10030    2    1    2    0    0  0.00000000000E+00  0.00000000000E+00  0.23469173607E+03  0.14184095481E+04  0.13988586188E+04 0.  0.
        2    1    3    3  502    0 -0.64079468550E+02 -0.59194769584E+03 -0.25478912226E+03  0.64763087460E+03  0.25500000920E-02 0.  1.
       -2    1    3    3    0  502  0.64079468550E+02  0.59194769584E+03  0.48948085833E+03  0.77077867353E+03  0.25500000920E-02 0. -1.
</event>
<event>
 5   0  0.2223112E-04  0.1401624E+04  0.7818609E-02  0.8952644E-01
        1   -1    0    0  501    0  0.00000000000E+00  0.00000000000E+00  0.50375546096E+03  0.50375546098E+03  0.50400001928E-02 0.  1.
       -1   -1    0    0    0  501  0.00000000000E+00  0.00000000000E+00 -0.97495212557E+03  0.97495212559E+03  0.50400001928E-02 0. -1.
    10030    2    1    2    0    0  0.00000000000E+00  0.00000000000E+00 -0.47119666461E+03  0.14787075866E+04  0.14016239973E+04 0.  0.
        1    1    3    3  502    0 -0.25082376004E+03  0.28798118548E+03  0.38433340208E+03  0.54180982436E+03  0.50400001928E-02 0.  1.
       -1    1    3    3    0  502  0.25082376004E+03 -0.28798118548E+03 -0.85553006670E+03  0.93689776221E+03  0.50400001928E-02 0. -1.
</event>
<event>
 5   0  0.2155352E-04  0.1399335E+04  0.7818609E-02  0.8954300E-01
        1   -1    0    0  501    0  0.00000000000E+00  0.00000000000E+00  0.12586965947E+04  0.12586965947E+04  0.50400001928E-02 0.  1.
       -1   -1    0    0    0  501  0.00000000000E+00  0.00000000000E+00 -0.38892166379E+03  0.38892166383E+03  0.50400001928E-02 0. -1.
    10030    2    1    2    0    0  0.00000000000E+00  0.00000000000E+00  0.86977493092E+03  0.16476182585E+04  0.13993346617E+04 0.  0.
        2    1    3    3  502    0 -0.55213754467E+03  0.42404338590E+03  0.51701867642E+03  0.86716605857E+03  0.25500000920E-02 0.  1.
       -2    1    3    3    0  502  0.55213754467E+03 -0.42404338590E+03  0.35275625450E+03  0.78045219998E+03  0.25500000920E-02 0. -1.
</event>
<event>
 5   0  0.3975164E-04  0.1400357E+04  0.7818609E-02  0.8953560E-01
       -2   -1    0    0    0  501  0.00000000000E+00  0.00000000000E+00  0.24816230947E+03  0.24816230948E+03  0.25500000920E-02 0. -1.
        2   -1    0    0  501    0  0.00000000000E+00  0.00000000000E+00 -0.19755220667E+04  0.19755220667E+04  0.25500000920E-02 0.  1.
    10030    2    1    2    0    0  0.00000000000E+00  0.00000000000E+00 -0.17273597572E+04  0.22236843762E+04  0.14003572665E+04 0.  0.
        5    1    3    3  502    0 -0.88993366167E+02  0.34765703383E+03  0.90991894675E+02  0.37025241024E+03  0.46999998093E+01 0. -1.
       -5    1    3    3    0  502  0.88993366167E+02 -0.34765703383E+03 -0.18183516519E+04  0.18534319660E+04  0.46999998093E+01 0.  1.
</event>
<event>
 5   0  0.2223112E-04  0.1411284E+04  0.7818609E-02  0.8945691E-01
       -1   -1    0    0    0  501  0.00000000000E+00  0.00000000000E+00  0.22094240354E+03  0.22094240359E+03  0.50400001928E-02 0.  1.
        1   -1    0    0  501    0  0.00000000000E+00  0.00000000000E+00 -0.22536663759E+04  0.22536663759E+04  0.50400001928E-02 0. -1.
    10030    2    1    2    0    0  0.00000000000E+00  0.00000000000E+00 -0.20327239724E+04  0.24746087795E+04  0.14112837644E+04 0.  0.
        1    1    3    3  502    0 -0.37289685688E+03  0.42489652212E+03 -0.27587364768E+03  0.62904323372E+03  0.50400001928E-02 0.  1.
       -1    1    3    3    0  502  0.37289685688E+03 -0.42489652212E+03 -0.17568503247E+04  0.18455655458E+04  0.50400001928E-02 0. -1.
</event>
<event>
 5   0  0.4208622E-04  0.1401108E+04  0.7818609E-02  0.8953017E-01
        2   -1    0    0  501    0  0.00000000000E+00  0.00000000000E+00  0.14508132246E+04  0.14508132246E+04  0.25500000920E-02 0. -1.
       -2   -1    0    0    0  501  0.00000000000E+00  0.00000000000E+00 -0.33827632535E+03  0.33827632536E+03  0.25500000920E-02 0.  1.
    10030    2    1    2    0    0  0.00000000000E+00  0.00000000000E+00  0.11125368993E+04  0.17890895500E+04  0.14011077994E+04 0.  0.
        4    1    3    3  502    0 -0.20610544028E+03  0.40129661147E+03 -0.12810772055E+03  0.46896868110E+03  0.12699999809E+01 0.  1.
       -4    1    3    3    0  502  0.20610544028E+03 -0.40129661147E+03  0.12406446198E+04  0.13201208689E+04  0.12699999809E+01 0. -1.
</event>
<event>
 5   0  0.1497625E-04  0.1399917E+04  0.7818609E-02  0.8953878E-01
       -3   -1    0    0    0  501  0.00000000000E+00  0.00000000000E+00  0.54460591190E+03  0.54460592126E+03  0.10100000352E+00 0. -1.
        3   -1    0    0  501    0  0.00000000000E+00  0.00000000000E+00 -0.89962701399E+03  0.89962701966E+03  0.10100000352E+00 0.  1.
    10030    2    1    2    0    0  0.00000000000E+00  0.00000000000E+00 -0.35502110209E+03  0.14442329409E+04  0.13999174278E+04 0.  0.
        4    1    3    3  502    0  0.11618904959E+03 -0.11945868316E+03  0.52384114326E+03  0.54971031325E+03  0.12699999809E+01 0. -1.
       -4    1    3    3    0  502 -0.11618904959E+03  0.11945868316E+03 -0.87886224535E+03  0.89452262768E+03  0.12699999809E+01 0.  1.
</event>
<event>
 5   0  0.3917598E-04  0.1398650E+04  0.7818609E-02  0.8954796E-01
        2   -1    0    0  501    0  0.00000000000E+00  0.00000000000E+00  0.74980442155E+03  0.74980442155E+03  0.25500000920E-02 0. -1.
       -2   -1    0    0    0  501  0.00000000000E+00  0.00000000000E+00 -0.65224390517E+03  0.65224390517E+03  0.25500000920E-02 0.  1.
    10030    2    1    2    0    0  0.00000000000E+00  0.00000000000E+00  0.97560516378E+02  0.14020483267E+04  0.13986498690E+04 0.  0.
        3    1    3    3  502    0 -0.46519895640E+02  0.45931882761E+02 -0.64917406290E+03  0.65245751792E+03  0.10100000352E+00 0.  1.
       -3    1    3    3    0  502  0.46519895640E+02 -0.45931882761E+02  0.74673457928E+03  0.74959080880E+03  0.10100000352E+00 0. -1.
</event>
<event>
 5   0  0.3975164E-04  0.1398090E+04  0.7818609E-02  0.8955203E-01
       -2   -1    0    0    0  501  0.00000000000E+00  0.00000000000E+00  0.43253192381E+03  0.43253192382E+03  0.25500000920E-02 0. -1.
        2   -1    0    0  501    0  0.00000000000E+00  0.00000000000E+00 -0.11297746036E+04  0.11297746036E+04  0.25500000920E-02 0.  1.
    10030    2    1    2    0    0  0.00000000000E+00  0.00000000000E+00 -0.69724267983E+03  0.15623065275E+04  0.13980895290E+04 0.  0.
        5    1    3    3  502    0  0.87858199424E+02  0.67954320884E+03 -0.50323271642E+03  0.85015486399E+03  0.46999998093E+01 0.  1.
       -5    1    3    3    0  502 -0.87858199424E+02 -0.67954320884E+03 -0.19400996341E+03  0.71215166348E+03  0.46999998093E+01 0. -1.
</event>
<event>
 5   0  0.2215876E-04  0.1403038E+04  0.7818609E-02  0.8951622E-01
        1   -1    0    0  501    0  0.00000000000E+00  0.00000000000E+00  0.83734715608E+03  0.83734715610E+03  0.50400001928E-02 0. -1.
       -1   -1    0    0    0  501  0.00000000000E+00  0.00000000000E+00 -0.58772425820E+03  0.58772425822E+03  0.50400001928E-02 0.  1.
    10030    2    1    2    0    0  0.00000000000E+00  0.00000000000E+00  0.24962289788E+03  0.14250714143E+04  0.14030384687E+04 0.  0.
        3    1    3    3  502    0  0.17577994278E+03  0.37877733672E+03 -0.44774135681E+03  0.61224438903E+03  0.10100000352E+00 0.  1.
       -3    1    3    3    0  502 -0.17577994278E+03 -0.37877733672E+03  0.69736425470E+03  0.81282702528E+03  0.10100000352E+00 0. -1.
</event>
<event>
 5   0  0.3932568E-04  0.1396489E+04  0.7818609E-02  0.8956364E-01
        2   -1    0    0  501    0  0.00000000000E+00  0.00000000000E+00  0.16241322280E+04  0.16241322280E+04  0.25500000920E-02 0.  1.
       -2   -1    0    0    0  501  0.00000000000E+00  0.00000000000E+00 -0.30018825220E+03  0.30018825221E+03  0.25500000920E-02 0. -1.
    10030    2    1    2    0    0  0.00000000000E+00  0.00000000000E+00  0.13239439758E+04  0.19243204802E+04  0.13964890474E+04 0.  0.
        2    1    3    3  502    0  0.51725505238E+01  0.30929811279E+03 -0.20061249811E+03  0.36869696535E+03  0.25500000920E-02 0. -1.
       -2    1    3    3    0  502 -0.51725505238E+01 -0.30929811279E+03  0.15245564739E+04  0.15556235148E+04  0.25500000920E-02 0.  1.
</event>
<event>
 5   0  0.4208622E-04  0.1398275E+04  0.7818609E-02  0.8955068E-01
        2   -1    0    0  501    0  0.00000000000E+00  0.00000000000E+00  0.70082346935E+03  0.70082346936E+03  0.25500000920E-02 0. -1.
       -2   -1    0    0    0  501  0.00000000000E+00  0.00000000000E+00 -0.69745509262E+03  0.69745509263E+03  0.25500000920E-02 0.  1.
    10030    2    1    2    0    0  0.00000000000E+00  0.00000000000E+00  0.33683767306E+01  0.13982785620E+04  0.13982745049E+04 0.  0.
        4    1    3    3  502    0  0.55256208872E+03 -0.93177084221E+02  0.41975770846E+03  0.70014639728E+03  0.12699999809E+01 0. -1.
       -4    1    3    3    0  502 -0.55256208872E+03  0.93177084221E+02 -0.41638933173E+03  0.69813216470E+03  0.12699999809E+01 0.  1.
</event>
<event>
 5   0  0.4208622E-04  0.1383488E+04  0.7818609E-02  0.8965859E-01
       -2   -1    0    0    0  501  0.00000000000E+00  0.00000000000E+00  0.36237623026E+03  0.36237623027E+03  0.25500000920E-02 0. -1.
        2   -1    0    0  501    0  0.00000000000E+00  0.00000000000E+00 -0.13204768692E+04  0.13204768692E+04  0.25500000920E-02 0.  1.
    10030    2    1    2    0    0  0.00000000000E+00  0.00000000000E+00 -0.95810063897E+03  0.16828530995E+04  0.13834875208E+04 0.  0.
        4    1    3    3  502    0 -0.28251178624E+03 -0.52140038384E+03 -0.91225502651E+03  0.10880634705E+04  0.12699999809E+01 0.  1.
       -4    1    3    3    0  502  0.28251178624E+03  0.52140038384E+03 -0.45845612455E+02  0.59478962896E+03  0.12699999809E+01 0. -1.
</event>
<event>
 5   0  0.2143942E-04  0.1394620E+04  0.7818609E-02  0.8957722E-01
       -1   -1    0    0    0  501  0.00000000000E+00  0.00000000000E+00  0.63909145078E+03  0.63909145080E+03  0.50400001928E-02 0.  1.
        1   -1    0    0  501    0  0.00000000000E+00  0.00000000000E+00 -0.76083228854E+03  0.76083228856E+03  0.50400001928E-02 0. -1.
    10030    2    1    2    0    0  0.00000000000E+00  0.00000000000E+00 -0.12174083777E+03  0.13999237394E+04  0.13946202510E+04 0.  0.
        4    1    3    3  502    0 -0.65927411439E+03 -0.22171144894E+03 -0.11271245637E+02  0.69564860265E+03  0.12699999809E+01 0. -1.
       -4    1    3    3    0  502  0.65927411439E+03  0.22171144894E+03 -0.11046959213E+03  0.70427513670E+03  0.12699999809E+01 0.  1.
</event>
<event>
 5   0  0.2217251E-04  0.1406430E+04  0.7818609E-02  0.8949177E-01
        1   -1    0    0  501    0  0.00000000000E+00  0.00000000000E+00  0.11983311400E+04  0.11983311400E+04  0.50400001928E-02 0.  1.
       -1   -1    0    0    0  501  0.00000000000E+00  0.00000000000E+00 -0.41266686699E+03  0.41266686703E+03  0.50400001928E-02 0. -1.
    10030    2    1    2    0    0  0.00000000000E+00  0.00000000000E+00  0.78566427301E+03  0.16109980070E+04  0.14064303142E+04 0.  0.
        5    1    3    3  502    0 -0.47993611717E+03  0.36922034035E+03  0.80236457295E+03  0.10052230271E+04  0.46999998093E+01 0.  1.
       -5    1    3    3    0  502  0.47993611717E+03 -0.36922034035E+03 -0.16700299945E+02  0.60577497993E+03  0.46999998093E+01 0. -1.
</event>
<event>
 5   0  0.2223112E-04  0.1444510E+04  0.7818609E-02  0.8922216E-01
       -1   -1    0    0    0  501  0.00000000000E+00  0.00000000000E+00  0.84461498656E+03  0.84461498657E+03  0.50400001928E-02 0.  1.
        1   -1    0    0  501    0  0.00000000000E+00  0.00000000000E+00 -0.61762106212E+03  0.61762106214E+03  0.50400001928E-02 0. -1.
    10030    2    1    2    0    0  0.00000000000E+00  0.00000000000E+00  0.22699392444E+03  0.14622360487E+04  0.14445096124E+04 0.  0.
        1    1    3    3  502    0 -0.53030454088E+03  0.35366861518E+03  0.45729338202E+03  0.78448813420E+03  0.50400001928E-02 0.  1.
       -1    1    3    3    0  502  0.53030454088E+03 -0.35366861518E+03 -0.23029945758E+03  0.67774791451E+03  0.50400001928E-02 0. -1.
</event>
<event>
 5   0  0.2143942E-04  0.1388319E+04  0.7818609E-02  0.8962318E-01
       -1   -1    0    0    0  501  0.00000000000E+00  0.00000000000E+00  0.35781741769E+03  0.35781741773E+03  0.50400001928E-02 0. -1.
        1   -1    0    0  501    0  0.00000000000E+00  0.00000000000E+00 -0.13466562757E+04  0.13466562757E+04  0.50400001928E-02 0.  1.
    10030    2    1    2    0    0  0.00000000000E+00  0.00000000000E+00 -0.98883885799E+03  0.17044736934E+04  0.13883185097E+04 0.  0.
        4    1    3    3  502    0  0.62920710845E+03 -0.13696126667E+03 -0.17616736189E+03  0.66760506753E+03  0.12699999809E+01 0. -1.
       -4    1    3    3    0  502 -0.62920710845E+03  0.13696126667E+03 -0.81267149610E+03  0.10368686259E+04  0.12699999809E+01 0.  1.
</event>
<event>
 5   0  0.2223112E-04  0.1395652E+04  0.7818609E-02  0.8956972E-01
       -1   -1    0    0    0  501  0.00000000000E+00  0.00000000000E+00  0.37089962726E+03  0.37089962730E+03  0.50400001928E-02 0.  1.
        1   -1    0    0  501    0  0.00000000000E+00  0.00000000000E+00 -0.13129188032E+04  0.13129188032E+04  0.50400001928E-02 0. -1.
    10030    2    1    2    0    0  0.00000000000E+00  0.00000000000E+00 -0.94201917596E+03  0.16838184305E+04  0.13956519549E+04 0.  0.
        1    1    3    3  502    0 -0.18925354086E+03  0.27672486020E+03 -0.12093951603E+04  0.12550020736E+04  0.50400001928E-02 0. -1.
       -1    1    3    3    0  502  0.18925354086E+03 -0.27672486020E+03  0.26737598431E+03  0.42881635695E+03  0.50400001928E-02 0.  1.
</event>
<event>
 5   0  0.3932568E-04  0.1379774E+04  0.7818609E-02  0.8968590E-01
       -2   -1    0    0    0  501  0.00000000000E+00  0.00000000000E+00  0.32672585936E+03  0.32672585937E+03  0.25500000920E-02 0. -1.
        2   -1    0    0  501    0  0.00000000000E+00  0.00000000000E+00 -0.14567085108E+04  0.14567085108E+04  0.25500000920E-02 0.  1.
    10030    2    1    2    0    0  0.00000000000E+00  0.00000000000E+00 -0.11299826515E+04  0.17834343702E+04  0.13797743874E+04 0.  0.
        2    1    3    3  502    0  0.64065054981E+03  0.23845685932E+03 -0.68520269434E+03  0.96788301621E+03  0.25500000920E-02 0.  1.
       -2    1    3    3    0  502 -0.64065054981E+03 -0.23845685932E+03 -0.44477995713E+03  0.81555135399E+03  0.25500000920E-02 0. -1.
</event>
<event>
 5   0  0.2143942E-04  0.1402374E+04  0.7818609E-02  0.8952102E-01
        1   -1    0    0  501    0  0.00000000000E+00  0.00000000000E+00  0.72625388931E+03  0.72625388933E+03  0.50400001928E-02 0.  1.
       -1   -1    0    0    0  501  0.00000000000E+00  0.00000000000E+00 -0.67698499531E+03  0.67698499533E+03  0.50400001928E-02 0. -1.
    10030    2    1    2    0    0  0.00000000000E+00  0.00000000000E+00  0.49268894007E+02  0.14032388847E+04  0.14023736818E+04 0.  0.
        4    1    3    3  502    0 -0.46624897558E+03 -0.11816890827E+03  0.53515444935E+03  0.71954422774E+03  0.12699999809E+01 0.  1.
       -4    1    3    3    0  502  0.46624897558E+03  0.11816890827E+03 -0.48588555534E+03  0.68369465692E+03  0.12699999809E+01 0. -1.
</event>
<event>
 5   0  0.3932568E-04  0.1397175E+04  0.7818609E-02  0.8955866E-01
        2   -1    0    0  501    0  0.00000000000E+00  0.00000000000E+00  0.11979417413E+04  0.11979417413E+04  0.25500000920E-02 0. -1.
       -2   -1    0    0    0  501  0.00000000000E+00  0.00000000000E+00 -0.40738588481E+03  0.40738588482E+03  0.25500000920E-02 0.  1.
    10030    2    1    2    0    0  0.00000000000E+00  0.00000000000E+00  0.79055585652E+03  0.16053276261E+04  0.13971750874E+04 0.  0.
        2    1    3    3  502    0  0.43302393856E+03  0.52311159061E+03  0.20693933846E+03  0.70991503535E+03  0.25500000920E-02 0.  1.
       -2    1    3    3    0  502 -0.43302393856E+03 -0.52311159061E+03  0.58361651806E+03  0.89541259080E+03  0.25500000920E-02 0. -1.
</event>
<event>
 5   0  0.2223112E-04  0.1402237E+04  0.7818609E-02  0.8952201E-01
       -1   -1    0    0    0  501  0.00000000000E+00  0.00000000000E+00  0.23629702755E+03  0.23629702760E+03  0.50400001928E-02 0.  1.
        1   -1    0    0  501    0  0.00000000000E+00  0.00000000000E+00 -0.20802926314E+04  0.20802926314E+04  0.50400001928E-02 0. -1.
    10030    2    1    2    0    0  0.00000000000E+00  0.00000000000E+00 -0.18439956038E+04  0.23165896590E+04  0.14022367351E+04 0.  0.
        1    1    3    3  502    0  0.33490716332E+03  0.61490611936E+03 -0.98144059357E+03  0.12056110411E+04  0.50400001928E-02 0. -1.
       -1    1    3    3    0  502 -0.33490716332E+03 -0.61490611936E+03 -0.86255501023E+03  0.11109786179E+04  0.50400001928E-02 0.  1.
</event>
<event>
 5   0  0.2215876E-04  0.1400847E+04  0.7818609E-02  0.8953206E-01
        1   -1    0    0  501    0  0.00000000000E+00  0.00000000000E+00  0.85401048467E+03  0.85401048469E+03  0.50400001928E-02 0.  1.
       -1   -1    0    0    0  501  0.00000000000E+00  0.00000000000E+00 -0.57445766825E+03  0.57445766827E+03  0.50400001928E-02 0. -1.
    10030    2    1    2    0    0  0.00000000000E+00  0.00000000000E+00  0.27955281642E+03  0.14284681530E+04  0.14008467035E+04 0.  0.
        3    1    3    3  502    0  0.53469960344E+03 -0.33547167534E+03  0.44932069337E+03  0.77481223956E+03  0.10100000352E+00 0.  1.
       -3    1    3    3    0  502 -0.53469960344E+03  0.33547167534E+03 -0.16976787695E+03  0.65365591340E+03  0.10100000352E+00 0. -1.
</event>
<event>
 5   0  0.3932568E-04  0.1412815E+04  0.7818609E-02  0.8944594E-01
       -2   -1    0    0    0  501  0.00000000000E+00  0.00000000000E+00  0.30098672422E+03  0.30098672423E+03  0.25500000920E-02 0.  1.
        2   -1    0    0  501    0  0.00000000000E+00  0.00000000000E+00 -0.16579194325E+04  0.16579194325E+04  0.25500000920E-02 0. -1.
    10030    2    1    2    0    0  0.00000000000E+00  0.00000000000E+00 -0.13569327083E+04  0.19589061568E+04  0.14128152590E+04 0.  0.
        2    1    3    3  502    0  0.21551836332E+01 -0.57572870463E+03 -0.12460006550E+04  0.13725836290E+04  0.25500000920E-02 0. -1.
       -2    1    3    3    0  502 -0.21551836332E+01  0.57572870463E+03 -0.11093205327E+03  0.58632252780E+03  0.25500000920E-02 0.  1.
</event>
<event>
 5   0  0.3917598E-04  0.1401204E+04  0.7818609E-02  0.8952947E-01
        2   -1    0    0  501    0  0.00000000000E+00  0.00000000000E+00  0.54968922295E+03  0.54968922295E+03  0.25500000920E-02 0.  1.
       -2   -1    0    0    0  501  0.00000000000E+00  0.00000000000E+00 -0.89294723712E+03  0.89294723713E+03  0.25500000920E-02 0. -1.
    10030    2    1    2    0    0  0.00000000000E+00  0.00000000000E+00 -0.34325801418E+03  0.14426364601E+04  0.14012044432E+04 0.  0.
        3    1    3    3  502    0 -0.10094644272E+03 -0.29586656044E+03  0.47390020504E+03  0.56772230925E+03  0.10100000352E+00 0.  1.
       -3    1    3    3    0  502  0.10094644272E+03  0.29586656044E+03 -0.81715821922E+03  0.87491415083E+03  0.10100000352E+00 0. -1.
</event>
<event>
 5   0  0.3975164E-04  0.1400681E+04  0.7818609E-02  0.8953326E-01
       -2   -1    0    0    0  501  0.00000000000E+00  0.00000000000E+00  0.24710366763E+03  0.24710366764E+03  0.25500000920E-02 0.  1.
        2   -1    0    0  501    0  0.00000000000E+00  0.00000000000E+00 -0.19849021727E+04  0.19849021727E+04  0.25500000920E-02 0. -1.
    10030    2    1    2    0    0  0.00000000000E+00  0.00000000000E+00 -0.17377985051E+04  0.22320058403E+04  0.14006807013E+04 0.  0.
        5    1    3    3  502    0 -0.61739157404E+01 -0.46545499538E+03 -0.35126764820E+02  0.46684306739E+03  0.46999998093E+01 0.  1.
       -5    1    3    3    0  502  0.61739157404E+01  0.46545499538E+03 -0.17026717403E+04  0.17651627730E+04  0.46999998093E+01 0. -1.
</event>
<event>
 5   0  0.2143942E-04  0.1395503E+04  0.7818609E-02  0.8957080E-01
       -1   -1    0    0    0  501  0.00000000000E+00  0.00000000000E+00  0.19236989230E+04  0.19236989230E+04  0.50400001928E-02 0.  1.
        1   -1    0    0  501    0  0.00000000000E+00  0.00000000000E+00 -0.25308378544E+03  0.25308378549E+03  0.50400001928E-02 0. -1.
    10030    2    1    2    0    0  0.00000000000E+00  0.00000000000E+00  0.16706151376E+04  0.21767827085E+04  0.13955027847E+04 0.  0.
        4    1    3    3  502    0 -0.39480404984E+03 -0.11200094597E+03  0.17155429520E+04  0.17639454875E+04  0.12699999809E+01 0.  1.
       -4    1    3    3    0  502  0.39480404984E+03  0.11200094597E+03 -0.44927814433E+02  0.41283722104E+03  0.12699999809E+01 0. -1.
</event>
<event>
 5   0  0.2223112E-04  0.1367702E+04  0.7818609E-02  0.8977535E-01
        1   -1    0    0  501    0  0.00000000000E+00  0.00000000000E+00  0.19969461355E+04  0.19969461355E+04  0.50400001928E-02 0. -1.
       -1   -1    0    0    0  501  0.00000000000E+00  0.00000000000E+00 -0.23418360109E+03  0.23418360114E+03  0.50400001928E-02 0.  1.
    10030    2    1    2    0    0  0.00000000000E+00  0.00000000000E+00  0.17627625344E+04  0.22311297366E+04  0.13677017763E+04 0.  0.
        1    1    3    3  502    0 -0.86125668277E+02 -0.52076902417E+03  0.17212462758E+03  0.55519806800E+03  0.50400001928E-02 0.  1.
       -1    1    3    3    0  502  0.86125668277E+02  0.52076902417E+03  0.15906379068E+04  0.16759316686E+04  0.50400001928E-02 0. -1.
</event>
<event>
 5   0  0.2215876E-04  0.1398487E+04  0.7818609E-02  0.8954914E-01
       -1   -1    0    0    0  501  0.00000000000E+00  0.00000000000E+00  0.42979628938E+03  0.42979628941E+03  0.50400001928E-02 0. -1.
        1   -1    0    0  501    0  0.00000000000E+00  0.00000000000E+00 -0.11376127640E+04  0.11376127640E+04  0.50400001928E-02 0.  1.
    10030    2    1    2    0    0  0.00000000000E+00  0.00000000000E+00 -0.70781647464E+03  0.15674090535E+04  0.13984873897E+04 0.  0.
        3    1    3    3  502    0  0.36773007764E+03 -0.59085611331E+03 -0.27784821754E+03  0.74935705697E+03  0.10100000352E+00 0.  1.
       -3    1    3    3    0  502 -0.36773007764E+03  0.59085611331E+03 -0.42996825710E+03  0.81805199648E+03  0.10100000352E+00 0. -1.
</event>
<event>
 5   0  0.3917598E-04  0.1392513E+04  0.7818609E-02  0.8959256E-01
       -2   -1    0    0    0  501  0.00000000000E+00  0.00000000000E+00  0.42247824437E+03  0.42247824438E+03  0.25500000920E-02 0. -1.
        2   -1    0    0  501    0  0.00000000000E+00  0.00000000000E+00 -0.11474515283E+04  0.11474515283E+04  0.25500000920E-02 0.  1.
    10030    2    1    2    0    0  0.00000000000E+00  0.00000000000E+00 -0.72497328396E+03  0.15699297727E+04  0.13925132778E+04 0.  0.
        3    1    3    3  502    0  0.46281947392E+03 -0.18090213677E+03 -0.91231694094E+03  0.10388694141E+04  0.10100000352E+00 0.  1.
       -3    1    3    3    0  502 -0.46281947392E+03  0.18090213677E+03  0.18734365698E+03  0.53106035866E+03  0.10100000352E+00 0. -1.
</event>
<event>
 5   0  0.3932568E-04  0.1403436E+04  0.7818609E-02  0.8951335E-01
        2   -1    0    0  501    0  0.00000000000E+00  0.00000000000E+00  0.16664019264E+04  0.16664019264E+04  0.25500000920E-02 0. -1.
       -2   -1    0    0    0  501  0.00000000000E+00  0.00000000000E+00 -0.29549168076E+03  0.29549168077E+03  0.25500000920E-02 0.  1.
    10030    2    1    2    0    0  0.00000000000E+00  0.00000000000E+00  0.13709102456E+04  0.19618936072E+04  0.14034356502E+04 0.  0.
        2    1    3    3  502    0 -0.53918467721E+03  0.17586491954E+03  0.12631189271E+04  0.13846003070E+04  0.25500000920E-02 0. -1.
       -2    1    3    3    0  502  0.53918467721E+03 -0.17586491954E+03  0.10779131850E+03  0.57729330016E+03  0.25500000920E-02 0.  1.
</event>
<event>
 5   0  0.2155352E-04  0.1400074E+04  0.7818609E-02  0.8953765E-01
       -1   -1    0    0    0  501  0.00000000000E+00  0.00000000000E+00  0.92133879901E+03  0.92133879903E+03  0.50400001928E-02 0. -1.
        1   -1    0    0  501    0  0.00000000000E+00  0.00000000000E+00 -0.53189065188E+03  0.53189065190E+03  0.50400001928E-02 0.  1.
    10030    2    1    2    0    0  0.00000000000E+00  0.00000000000E+00  0.38944814714E+03  0.14532294509E+04  0.14000735615E+04 0.  0.
        2    1    3    3  502    0  0.52643698705E+03  0.44749841814E+03  0.31151610287E+03  0.75791359529E+03  0.25500000920E-02 0. -1.
       -2    1    3    3    0  502 -0.52643698705E+03 -0.44749841814E+03  0.77932044268E+02  0.69531585564E+03  0.25500000920E-02 0.  1.
</event>
<event>
 5   0  0.2155352E-04  0.1401339E+04  0.7818609E-02  0.8952850E-01
        1   -1    0    0  501    0  0.00000000000E+00  0.00000000000E+00  0.95602397161E+03  0.95602397162E+03  0.50400001928E-02 0. -1.
       -1   -1    0    0    0  501  0.00000000000E+00  0.00000000000E+00 -0.51352059666E+03  0.51352059668E+03  0.50400001928E-02 0.  1.
    10030    2    1    2    0    0  0.00000000000E+00  0.00000000000E+00  0.44250337495E+03  0.14695445683E+04  0.14013393598E+04 0.  0.
        2    1    3    3  502    0  0.60780616377E+03  0.30271596898E+03  0.40002215071E+02  0.68019516892E+03  0.25500000920E-02 0.  1.
       -2    1    3    3    0  502 -0.60780616377E+03 -0.30271596898E+03  0.40250115988E+03  0.78934939938E+03  0.25500000920E-02 0. -1.
</event>
<event>
 5   0  0.4310348E-04  0.1396050E+04  0.7818609E-02  0.8956682E-01
       -2   -1    0    0    0  501  0.00000000000E+00  0.00000000000E+00  0.63794502078E+03  0.63794502078E+03  0.25500000920E-02 0. -1.
        2   -1    0    0  501    0  0.00000000000E+00  0.00000000000E+00 -0.76376361987E+03  0.76376361988E+03  0.25500000920E-02 0.  1.
    10030    2    1    2    0    0  0.00000000000E+00  0.00000000000E+00 -0.12581859910E+03  0.14017086407E+04  0.13960504265E+04 0.  0.
        1    1    3    3  502    0 -0.10180968844E+03  0.23556529461E+03  0.58886185908E+03  0.64235076850E+03  0.50400001928E-02 0. -1.
       -1    1    3    3    0  502  0.10180968844E+03 -0.23556529461E+03 -0.71468045818E+03  0.75935787216E+03  0.50400001928E-02 0.  1.
</event>
<event>
 5   0  0.2215876E-04  0.1400019E+04  0.7818609E-02  0.8953805E-01
       -1   -1    0    0    0  501  0.00000000000E+00  0.00000000000E+00  0.89842708737E+03  0.89842708738E+03  0.50400001928E-02 0. -1.
        1   -1    0    0  501    0  0.00000000000E+00  0.00000000000E+00 -0.54541231130E+03  0.54541231132E+03  0.50400001928E-02 0.  1.
    10030    2    1    2    0    0  0.00000000000E+00  0.00000000000E+00  0.35301477607E+03  0.14438393987E+04  0.14000188488E+04 0.  0.
        3    1    3    3  502    0  0.15344564762E+03 -0.34647182540E+03  0.78350858923E+03  0.87032982953E+03  0.10100000352E+00 0. -1.
       -3    1    3    3    0  502 -0.15344564762E+03  0.34647182540E+03 -0.43049381316E+03  0.57350956918E+03  0.10100000352E+00 0.  1.
</event>
<event>
 5   0  0.4310348E-04  0.1394688E+04  0.7818609E-02  0.8957673E-01
       -2   -1    0    0    0  501  0.00000000000E+00  0.00000000000E+00  0.37308535216E+03  0.37308535217E+03  0.25500000920E-02 0. -1.
        2   -1    0    0  501    0  0.00000000000E+00  0.00000000000E+00 -0.13034243987E+04  0.13034243987E+04  0.25500000920E-02 0.  1.
    10030    2    1    2    0    0  0.00000000000E+00  0.00000000000E+00 -0.93033904655E+03  0.16765097509E+04  0.13946878516E+04 0.  0.
        1    1    3    3  502    0  0.22882887367E+03  0.10448805286E+03 -0.12469835000E+04  0.12721038699E+04  0.50400001928E-02 0.  1.
       -1    1    3    3    0  502 -0.22882887367E+03 -0.10448805286E+03  0.31664445345E+03  0.40440588094E+03  0.50400001928E-02 0. -1.
</event>
<event>
 5   0  0.2155352E-04  0.1394710E+04  0.7818609E-02  0.8957656E-01
       -1   -1    0    0    0  501  0.00000000000E+00  0.00000000000E+00  0.42343169685E+03  0.42343169688E+03  0.50400001928E-02 0. -1.
        1   -1    0    0  501    0  0.00000000000E+00  0.00000000000E+00 -0.11484834834E+04  0.11484834834E+04  0.50400001928E-02 0.  1.
    10030    2    1    2    0    0  0.00000000000E+00  0.00000000000E+00 -0.72505178650E+03  0.15719151802E+04  0.13947104505E+04 0.  0.
        2    1    3    3  502    0  0.33987456954E+03  0.34428877300E+03  0.20353714296E+03  0.52485888656E+03  0.25500000920E-02 0. -1.
       -2    1    3    3    0  502 -0.33987456954E+03 -0.34428877300E+03 -0.92858892946E+03  0.10470562937E+04  0.25500000920E-02 0.  1.
</event>
<event>
 5   0  0.2143942E-04  0.1404928E+04  0.7818609E-02  0.8950259E-01
       -1   -1    0    0    0  501  0.00000000000E+00  0.00000000000E+00  0.15311587213E+04  0.15311587213E+04  0.50400001928E-02 0. -1.
        1   -1    0    0  501    0  0.00000000000E+00  0.00000000000E+00 -0.32227595916E+03  0.32227595920E+03  0.50400001928E-02 0.  1.
    10030    2    1    2    0    0  0.00000000000E+00  0.00000000000E+00  0.12088827621E+04  0.18534346805E+04  0.14049279634E+04 0.  0.
        4    1    3    3  502    0 -0.30841864811E+03  0.25707491673E+03 -0.15597611480E+03  0.43074323744E+03  0.12699999809E+01 0.  1.
       -4    1    3    3    0  502  0.30841864811E+03 -0.25707491673E+03  0.13648588769E+04  0.14226914430E+04  0.12699999809E+01 0. -1.
</event>
<event>
 5   0  0.4208622E-04  0.1418864E+04  0.7818609E-02  0.8940276E-01
       -2   -1    0    0    0  501  0.00000000000E+00  0.00000000000E+00  0.35216557498E+03  0.35216557499E+03  0.25500000920E-02 0. -1.
        2   -1    0    0  501    0  0.00000000000E+00  0.00000000000E+00 -0.14291403189E+04  0.14291403189E+04  0.25500000920E-02 0.  1.
    10030    2    1    2    0    0  0.00000000000E+00  0.00000000000E+00 -0.10769747439E+04  0.17813058938E+04  0.14188643658E+04 0.  0.
        4    1    3    3  502    0 -0.38597846725E+03  0.10575031494E+03 -0.12738929283E+04  0.13352779905E+04  0.12699999809E+01 0.  1.
       -4    1    3    3    0  502  0.38597846725E+03 -0.10575031494E+03  0.19691818442E+03  0.44602790333E+03  0.12699999809E+01 0. -1.
</event>
<event>
 5   0  0.3932568E-04  0.1390251E+04  0.7818609E-02  0.8960905E-01
        2   -1    0    0  501    0  0.00000000000E+00  0.00000000000E+00  0.60162222900E+03  0.60162222901E+03  0.25500000920E-02 0. -1.
       -2   -1    0    0    0  501  0.00000000000E+00  0.00000000000E+00 -0.80316134661E+03  0.80316134661E+03  0.25500000920E-02 0.  1.
    10030    2    1    2    0    0  0.00000000000E+00  0.00000000000E+00 -0.20153911761E+03  0.14047835756E+04  0.13902513724E+04 0.  0.
        2    1    3    3  502    0 -0.37403994897E+01  0.29326900836E+02 -0.80252578246E+03  0.80307016457E+03  0.25500000920E-02 0.  1.
       -2    1    3    3    0  502  0.37403994897E+01 -0.29326900836E+02  0.60098666485E+03  0.60171341105E+03  0.25500000920E-02 0. -1.
</event>
<event>
 5   0  0.2217251E-04  0.1411910E+04  0.7818609E-02  0.8945242E-01
       -1   -1    0    0    0  501  0.00000000000E+00  0.00000000000E+00  0.92679318347E+03  0.92679318348E+03  0.50400001928E-02 0.  1.
        1   -1    0    0  501    0  0.00000000000E+00  0.00000000000E+00 -0.53773889672E+03  0.53773889674E+03  0.50400001928E-02 0. -1.
    10030    2    1    2    0    0  0.00000000000E+00  0.00000000000E+00  0.38905428675E+03  0.14645320802E+04  0.14119103994E+04 0.  0.
        5    1    3    3  502    0  0.49093936579E+03 -0.50067760889E+03  0.27912109440E+03  0.75473850058E+03  0.46999998093E+01 0. -1.
       -5    1    3    3    0  502 -0.49093936579E+03  0.50067760889E+03  0.10993319235E+03  0.70979357964E+03  0.46999998093E+01 0.  1.
</event>
<event>
 5   0  0.3975164E-04  0.1402837E+04  0.7818609E-02  0.8951767E-01
       -2   -1    0    0    0  501  0.00000000000E+00  0.00000000000E+00  0.84251179538E+03  0.84251179538E+03  0.25500000920E-02 0.  1.
        2   -1    0    0  501    0  0.00000000000E+00  0.00000000000E+00 -0.58395394047E+03  0.58395394048E+03  0.25500000920E-02 0. -1.
    10030    2    1    2    0    0  0.00000000000E+00  0.00000000000E+00  0.25855785491E+03  0.14264657359E+04  0.14028372433E+04 0.  0.
        5    1    3    3  502    0  0.56551401950E+03 -0.28864546309E+03 -0.17380809025E+03  0.65829602144E+03  0.46999998093E+01 0. -1.
       -5    1    3    3    0  502 -0.56551401950E+03  0.28864546309E+03  0.43236594516E+03  0.76816971441E+03  0.46999998093E+01 0.  1.
</event>
<event>
 5   0  0.3932568E-04  0.1394363E+04  0.7818609E-02  0.8957909E-01
        2   -1    0    0  501    0  0.00000000000E+00  0.00000000000E+00  0.67620541855E+03  0.67620541855E+03  0.25500000920E-02 0.  1.
       -2   -1    0    0    0  501  0.00000000000E+00  0.00000000000E+00 -0.71880781586E+03  0.71880781587E+03  0.25500000920E-02 0. -1.
    10030    2    1    2    0    0  0.00000000000E+00  0.00000000000E+00 -0.42602397315E+02  0.13950132344E+04  0.13943625640E+04 0.  0.
        2    1    3    3  502    0  0.11561480090E+02 -0.72665734955E+02  0.67230996778E+03  0.67632438197E+03  0.25500000920E-02 0.  1.
       -2    1    3    3    0  502 -0.11561480090E+02  0.72665734955E+02 -0.71491236510E+03  0.71868885245E+03  0.25500000920E-02 0. -1.
</event>
<event>
 5   0  0.1497625E-04  0.1399391E+04  0.7818609E-02  0.8954260E-01
        4   -1    0    0  501    0  0.00000000000E+00  0.00000000000E+00  0.96752222487E+03  0.96752305839E+03  0.12699999809E+01 0.  1.
       -4   -1    0    0    0  501  0.00000000000E+00  0.00000000000E+00 -0.50600579485E+03  0.50600738861E+03  0.12699999809E+01 0. -1.
    10030    2    1    2    0    0  0.00000000000E+00  0.00000000000E+00  0.46151643001E+03  0.14735304470E+04  0.13993907828E+04 0.  0.
        5    1    3    3  502    0 -0.45868816135E+03  0.52813824389E+03  0.21490337370E+03  0.73179941517E+03  0.46999998093E+01 0. -1.
       -5    1    3    3    0  502  0.45868816135E+03 -0.52813824389E+03  0.24661305631E+03  0.74173103182E+03  0.46999998093E+01 0.  1.
</event>
<event>
 5   0  0.2215876E-04  0.1405521E+04  0.7818609E-02  0.8949832E-01
       -1   -1    0    0    0  501  0.00000000000E+00  0.00000000000E+00  0.34164886985E+03  0.34164886988E+03  0.50400001928E-02 0. -1.
        1   -1    0    0  501    0  0.00000000000E+00  0.00000000000E+00 -0.14455555895E+04  0.14455555895E+04  0.50400001928E-02 0.  1.
    10030    2    1    2    0    0  0.00000000000E+00  0.00000000000E+00 -0.11039067196E+04  0.17872044594E+04  0.14055211610E+04 0.  0.
        3    1    3    3  502    0 -0.22925629423E+03 -0.16878340700E+03  0.26504360548E+03  0.38896582103E+03  0.10100000352E+00 0. -1.
       -3    1    3    3    0  502  0.22925629423E+03  0.16878340700E+03 -0.13689503251E+04  0.13982386383E+04  0.10100000352E+00 0.  1.
</event>
<event>
 5   0  0.4310348E-04  0.1396940E+04  0.7818609E-02  0.8956037E-01
       -2   -1    0    0    0  501  0.00000000000E+00  0.00000000000E+00  0.81370101605E+03  0.81370101605E+03  0.25500000920E-02 0.  1.
        2   -1    0    0  501    0  0.00000000000E+00  0.00000000000E+00 -0.59955724006E+03  0.59955724006E+03  0.25500000920E-02 0. -1.
    10030    2    1    2    0    0  0.00000000000E+00  0.00000000000E+00  0.21414377599E+03  0.14132582561E+04  0.13969399922E+04 0.  0.
        1    1    3    3  502    0  0.50668569735E+03 -0.46977120021E+03  0.36774565696E+01  0.69096230010E+03  0.50400001928E-02 0. -1.
       -1    1    3    3    0  502 -0.50668569735E+03  0.46977120021E+03  0.21046631942E+03  0.72229595602E+03  0.50400001928E-02 0.  1.
</event>
<event>
 5   0  0.2215876E-04  0.1399896E+04  0.7818609E-02  0.8953894E-01
       -1   -1    0    0    0  501  0.00000000000E+00  0.00000000000E+00  0.56832222018E+03  0.56832222020E+03  0.50400001928E-02 0. -1.
        1   -1    0    0  501    0  0.00000000000E+00  0.00000000000E+00 -0.86205858651E+03  0.86205858652E+03  0.50400001928E-02 0.  1.
    10030    2    1    2    0    0  0.00000000000E+00  0.00000000000E+00 -0.29373636633E+03  0.14303808067E+04  0.13998957816E+04 0.  0.
        3    1    3    3  502    0  0.11040552791E+03 -0.18371531169E+03 -0.82770146088E+03  0.85500316660E+03  0.10100000352E+00 0.  1.
       -3    1    3    3    0  502 -0.11040552791E+03  0.18371531169E+03  0.53396509456E+03  0.57537764012E+03  0.10100000352E+00 0. -1.
</event>
<event>
 5   0  0.3932568E-04  0.1389061E+04  0.7818609E-02  0.8961775E-01
       -2   -1    0    0    0  501  0.00000000000E+00  0.00000000000E+00  0.48384815454E+03  0.48384815455E+03  0.25500000920E-02 0. -1.
        2   -1    0    0  501    0  0.00000000000E+00  0.00000000000E+00 -0.99695041583E+03  0.99695041584E+03  0.25500000920E-02 0.  1.
    10030    2    1    2    0    0  0.00000000000E+00  0.00000000000E+00 -0.51310226129E+03  0.14807985704E+04  0.13890610050E+04 0.  0.
        2    1    3    3  502    0  0.46449151348E+03 -0.19061461649E+03  0.25502319154E+03  0.56313686289E+03  0.25500000920E-02 0. -1.
       -2    1    3    3    0  502 -0.46449151348E+03  0.19061461649E+03 -0.76812545283E+03  0.91766170750E+03  0.25500000920E-02 0.  1.
</event>
<event>
 5   0  0.3917598E-04  0.1396604E+04  0.7818609E-02  0.8956281E-01
       -2   -1    0    0    0  501  0.00000000000E+00  0.00000000000E+00  0.27448881882E+03  0.27448881883E+03  0.25500000920E-02 0. -1.
        2   -1    0    0  501    0  0.00000000000E+00  0.00000000000E+00 -0.17764859975E+04  0.17764859975E+04  0.25500000920E-02 0.  1.
    10030    2    1    2    0    0  0.00000000000E+00  0.00000000000E+00 -0.15019971787E+04  0.20509748163E+04  0.13966037994E+04 0.  0.
        3    1    3    3  502    0  0.67010938878E+03  0.15350430384E+03 -0.57104723942E+03  0.89370304021E+03  0.10100000352E+00 0. -1.
       -3    1    3    3    0  502 -0.67010938878E+03 -0.15350430384E+03 -0.93094993924E+03  0.11572717761E+04  0.10100000352E+00 0.  1.
</event>
<event>
 5   0  0.4310348E-04  0.1401212E+04  0.7818609E-02  0.8952942E-01
        2   -1    0    0  501    0  0.00000000000E+00  0.00000000000E+00  0.10460470222E+04  0.10460470222E+04  0.25500000920E-02 0. -1.
       -2   -1    0    0    0  501  0.00000000000E+00  0.00000000000E+00 -0.46924138011E+03  0.46924138012E+03  0.25500000920E-02 0.  1.
    10030    2    1    2    0    0  0.00000000000E+00  0.00000000000E+00  0.57680564205E+03  0.15152884023E+04  0.14012116876E+04 0.  0.
        1    1    3    3  502    0 -0.44333109886E+03 -0.53532778113E+03  0.19332299684E+03  0.72145136884E+03  0.50400001928E-02 0.  1.
       -1    1    3    3    0  502  0.44333109886E+03  0.53532778113E+03  0.38348264521E+03  0.79383703345E+03  0.50400001928E-02 0. -1.
</event>
<event>
 5   0  0.3975164E-04  0.1399495E+04  0.7818609E-02  0.8954184E-01
        2   -1    0    0  501    0  0.00000000000E+00  0.00000000000E+00  0.86874794415E+03  0.86874794415E+03  0.25500000920E-02 0. -1.
       -2   -1    0    0    0  501  0.00000000000E+00  0.00000000000E+00 -0.56362338193E+03  0.56362338193E+03  0.25500000920E-02 0.  1.
    10030    2    1    2    0    0  0.00000000000E+00  0.00000000000E+00  0.30512456222E+03  0.14323713261E+04  0.13994951294E+04 0.  0.
        5    1    3    3  502    0 -0.33335253427E+03 -0.56710253428E+03 -0.91568579403E+02  0.66418076698E+03  0.46999998093E+01 0.  1.
       -5    1    3    3    0  502  0.33335253427E+03  0.56710253428E+03  0.39669314162E+03  0.76819055911E+03  0.46999998093E+01 0. -1.
</event>
<event>
 5   0  0.2143942E-04  0.1402192E+04  0.7818609E-02  0.8952233E-01
       -1   -1    0    0    0  501  0.00000000000E+00  0.00000000000E+00  0.37253241135E+03  0.37253241139E+03  0.50400001928E-02 0.  1.
        1   -1    0    0  501    0  0.00000000000E+00  0.00000000000E+00 -0.13194444703E+04  0.13194444703E+04  0.50400001928E-02 0. -1.
    10030    2    1    2    0    0  0.00000000000E+00  0.00000000000E+00 -0.94691205895E+03  0.16919768817E+04  0.14021923266E+04 0.  0.
        4    1    3    3  502    0  0.61325709283E+03  0.84685089471E+02 -0.87051748975E+03  0.10682032293E+04  0.12699999809E+01 0. -1.
       -4    1    3    3    0  502 -0.61325709283E+03 -0.84685089471E+02 -0.76394569193E+02  0.62377365237E+03  0.12699999809E+01 0.  1.
</event>
<event>
 5   0  0.2217251E-04  0.1404000E+04  0.7818609E-02  0.8950928E-01
       -1   -1    0    0    0  501  0.00000000000E+00  0.00000000000E+00  0.60860480905E+03  0.60860480907E+03  0.50400001928E-02 0.  1.
        1   -1    0    0  501    0  0.00000000000E+00  0.00000000000E+00 -0.80972772739E+03  0.80972772741E+03  0.50400001928E-02 0. -1.
    10030    2    1    2    0    0  0.00000000000E+00  0.00000000000E+00 -0.20112291834E+03  0.14183325365E+04  0.14040002691E+04 0.  0.
        5    1    3    3  502    0  0.48006377168E+03 -0.12780719564E+03  0.40047143781E+03  0.63811861486E+03  0.46999998093E+01 0.  1.
       -5    1    3    3    0  502 -0.48006377168E+03  0.12780719564E+03 -0.60159435615E+03  0.78021392162E+03  0.46999998093E+01 0. -1.
</event>
<event>
 5   0  0.4208622E-04  0.1354025E+04  0.7818609E-02  0.8987787E-01
        2   -1    0    0  501    0  0.00000000000E+00  0.00000000000E+00  0.83813655338E+03  0.83813655338E+03  0.25500000920E-02 0. -1.
       -2   -1    0    0    0  501  0.00000000000E+00  0.00000000000E+00 -0.54686299658E+03  0.54686299659E+03  0.25500000920E-02 0.  1.
    10030    2    1    2    0    0  0.00000000000E+00  0.00000000000E+00  0.29127355680E+03  0.13849995500E+04  0.13540249143E+04 0.  0.
        4    1    3    3  502    0  0.44881928537E+02  0.60904158215E+03  0.44455155242E+03  0.75536331123E+03  0.12699999809E+01 0. -1.
       -4    1    3    3    0  502 -0.44881928537E+02 -0.60904158215E+03 -0.15327799562E+03  0.62963623874E+03  0.12699999809E+01 0.  1.
</event>
<event>
 5   0  0.2143942E-04  0.1381248E+04  0.7818609E-02  0.8967505E-01
       -1   -1    0    0    0  501  0.00000000000E+00  0.00000000000E+00  0.76117848039E+03  0.76117848041E+03  0.50400001928E-02 0.  1.
        1   -1    0    0  501    0  0.00000000000E+00  0.00000000000E+00 -0.62660964002E+03  0.62660964004E+03  0.50400001928E-02 0. -1.
    10030    2    1    2    0    0  0.00000000000E+00  0.00000000000E+00  0.13456884037E+03  0.13877881204E+04  0.13812483826E+04 0.  0.
        4    1    3    3  502    0 -0.63484090424E+02  0.68150508590E+02  0.75483825729E+03  0.76056369170E+03  0.12699999809E+01 0.  1.
       -4    1    3    3    0  502  0.63484090424E+02 -0.68150508590E+02 -0.62026941692E+03  0.62722442875E+03  0.12699999809E+01 0. -1.
</event>
<event>
 5   0  0.2223112E-04  0.1409479E+04  0.7818609E-02  0.8946986E-01
       -1   -1    0    0    0  501  0.00000000000E+00  0.00000000000E+00  0.82112920721E+03  0.82112920722E+03  0.50400001928E-02 0. -1.
        1   -1    0    0  501    0  0.00000000000E+00  0.00000000000E+00 -0.60484740707E+03  0.60484740709E+03  0.50400001928E-02 0.  1.
    10030    2    1    2    0    0  0.00000000000E+00  0.00000000000E+00  0.21628180013E+03  0.14259766143E+04  0.14094791547E+04 0.  0.
        1    1    3    3  502    0 -0.38537091727E+03 -0.40966877299E+03  0.53775056067E+03  0.77814838750E+03  0.50400001928E-02 0. -1.
       -1    1    3    3    0  502  0.38537091727E+03  0.40966877299E+03 -0.32146876054E+03  0.64782822682E+03  0.50400001928E-02 0.  1.
</event>
<event>
 5   0  0.4310348E-04  0.1397703E+04  0.7818609E-02  0.8955483E-01
        2   -1    0    0  501    0  0.00000000000E+00  0.00000000000E+00  0.13269379805E+04  0.13269379805E+04  0.25500000920E-02 0. -1.
       -2   -1    0    0    0  501  0.00000000000E+00  0.00000000000E+00 -0.36806069720E+03  0.36806069721E+03  0.25500000920E-02 0.  1.
    10030    2    1    2    0    0  0.00000000000E+00  0.00000000000E+00  0.95887728327E+03  0.16949986777E+04  0.13977034281E+04 0.  0.
        1    1    3    3  502    0  0.47196174779E+03 -0.14832437613E+03  0.10780345095E+04  0.11861308594E+04  0.50400001928E-02 0. -1.
       -1    1    3    3    0  502 -0.47196174779E+03  0.14832437613E+03 -0.11915722621E+03  0.50886781831E+03  0.50400001928E-02 0.  1.
</event>
<event>
 5   0  0.2217251E-04  0.1402199E+04  0.7818609E-02  0.8952228E-01
       -1   -1    0    0    0  501  0.00000000000E+00  0.00000000000E+00  0.37246078865E+03  0.37246078868E+03  0.50400001928E-02 0.  1.
        1   -1    0    0  501    0  0.00000000000E+00  0.00000000000E+00 -0.13197107538E+04  0.13197107538E+04  0.50400001928E-02 0. -1.
    10030    2    1    2    0    0  0.00000000000E+00  0.00000000000E+00 -0.94724996511E+03  0.16921715424E+04  0.14021989990E+04 0.  0.
        5    1    3    3  502    0  0.11003978375E+03 -0.64020148670E+03 -0.79188983026E+03  0.10242452298E+04  0.46999998093E+01 0. -1.
       -5    1    3    3    0  502 -0.11003978375E+03  0.64020148670E+03 -0.15536013484E+03  0.66792631261E+03  0.46999998093E+01 0.  1.
</event>
<event>
 5   0  0.4208622E-04  0.1401613E+04  0.7818609E-02  0.8952652E-01
       -2   -1    0    0    0  501  0.00000000000E+00  0.00000000000E+00  0.62847275582E+03  0.62847275582E+03  0.25500000920E-02 0. -1.
        2   -1    0    0  501    0  0.00000000000E+00  0.00000000000E+00 -0.78146494286E+03  0.78146494286E+03  0.25500000920E-02 0.  1.
    10030    2    1    2    0    0  0.00000000000E+00  0.00000000000E+00 -0.15299218704E+03  0.14099376987E+04  0.14016125374E+04 0.  0.
        4    1    3    3  502    0 -0.98241787641E+02 -0.51912655707E+03 -0.53964801736E+03  0.75522541445E+03  0.12699999809E+01 0.  1.
       -4    1    3    3    0  502  0.98241787641E+02  0.51912655707E+03  0.38665583032E+03  0.65471228423E+03  0.12699999809E+01 0. -1.
</event>
<event>
 5   0  0.4310348E-04  0.1400756E+04  0.7818609E-02  0.8953271E-01
       -2   -1    0    0    0  501  0.00000000000E+00  0.00000000000E+00  0.95343346686E+03  0.95343346686E+03  0.25500000920E-02 0.  1.
        2   -1    0    0  501    0  0.00000000000E+00  0.00000000000E+00 -0.51448726373E+03  0.51448726374E+03  0.25500000920E-02 0. -1.
    10030    2    1    2    0    0  0.00000000000E+00  0.00000000000E+00  0.43894620313E+03  0.14679207306E+04  0.14007560466E+04 0.  0.
        1    1    3    3  502    0  0.54914601126E+03 -0.22659251683E+03 -0.16929173218E+03  0.61770964132E+03  0.50400001928E-02 0. -1.
       -1    1    3    3    0  502 -0.54914601126E+03  0.22659251683E+03  0.60823793530E+03  0.85021108928E+03  0.50400001928E-02 0.  1.
</event>
<event>
 5   0  0.3917598E-04  0.1401206E+04  0.7818609E-02  0.8952946E-01
       -2   -1    0    0    0  501  0.00000000000E+00  0.00000000000E+00  0.39605135894E+03  0.39605135895E+03  0.25500000920E-02 0.  1.
        2   -1    0    0  501    0  0.00000000000E+00  0.00000000000E+00 -0.12393463699E+04  0.12393463699E+04  0.25500000920E-02 0. -1.
    10030    2    1    2    0    0  0.00000000000E+00  0.00000000000E+00 -0.84329501094E+03  0.16353977288E+04  0.14012063574E+04 0.  0.
        3    1    3    3  502    0 -0.35022331524E+03 -0.82194583083E+02  0.28002568338E+03  0.45588015265E+03  0.10100000352E+00 0.  1.
       -3    1    3    3    0  502  0.35022331524E+03  0.82194583083E+02 -0.11233206943E+04  0.11795175762E+04  0.10100000352E+00 0. -1.
</event>
<event>
 5   0  0.3932568E-04  0.1409280E+04  0.7818609E-02  0.8947129E-01
       -2   -1    0    0    0  501  0.00000000000E+00  0.00000000000E+00  0.77117715296E+03  0.77117715296E+03  0.25500000920E-02 0. -1.
        2   -1    0    0  501    0  0.00000000000E+00  0.00000000000E+00 -0.64384351312E+03  0.64384351312E+03  0.25500000920E-02 0.  1.
    10030    2    1    2    0    0  0.00000000000E+00  0.00000000000E+00  0.12733363984E+03  0.14150206661E+04  0.14092798266E+04 0.  0.
        2    1    3    3  502    0 -0.62953174875E+03 -0.31324787404E+03  0.17841511141E+02  0.70338664531E+03  0.25500000920E-02 0.  1.
       -2    1    3    3    0  502  0.62953174875E+03  0.31324787404E+03  0.10949212870E+03  0.71163402078E+03  0.25500000920E-02 0. -1.
</event>
<event>
 5   0  0.4310348E-04  0.1403541E+04  0.7818609E-02  0.8951260E-01
       -2   -1    0    0    0  501  0.00000000000E+00  0.00000000000E+00  0.11154486278E+04  0.11154486278E+04  0.25500000920E-02 0. -1.
        2   -1    0    0  501    0  0.00000000000E+00  0.00000000000E+00 -0.44150994049E+03  0.44150994050E+03  0.25500000920E-02 0.  1.
    10030    2    1    2    0    0  0.00000000000E+00  0.00000000000E+00  0.67393868734E+03  0.15569585683E+04  0.14035407473E+04 0.  0.
        1    1    3    3  502    0 -0.59558466689E+03 -0.34463914759E+03  0.18412453429E+03  0.71231950812E+03  0.50400001928E-02 0.  1.
       -1    1    3    3    0  502  0.59558466689E+03  0.34463914759E+03  0.48981415305E+03  0.84463906021E+03  0.50400001928E-02 0. -1.
</event>
<event>
 5   0  0.3975164E-04  0.1397804E+04  0.7818609E-02  0.8955409E-01
       -2   -1    0    0    0  501  0.00000000000E+00  0.00000000000E+00  0.38455832779E+03  0.38455832779E+03  0.25500000920E-02 0.  1.
        2   -1    0    0  501    0  0.00000000000E+00  0.00000000000E+00 -0.12701955658E+04  0.12701955658E+04  0.25500000920E-02 0. -1.
    10030    2    1    2    0    0  0.00000000000E+00  0.00000000000E+00 -0.88563723797E+03  0.16547538936E+04  0.13978043965E+04 0.  0.
        5    1    3    3  502    0  0.46725586549E+03  0.82010670253E+02 -0.10503732431E+04  0.11525449378E+04  0.46999998093E+01 0. -1.
       -5    1    3    3    0  502 -0.46725586549E+03 -0.82010670253E+02  0.16473600510E+03  0.50220895576E+03  0.46999998093E+01 0.  1.
</event>
<event>
 5   0  0.3932568E-04  0.1401062E+04  0.7818609E-02  0.8953050E-01
       -2   -1    0    0    0  501  0.00000000000E+00  0.00000000000E+00  0.10779350520E+04  0.10779350521E+04  0.25500000920E-02 0.  1.
        2   -1    0    0  501    0  0.00000000000E+00  0.00000000000E+00 -0.45526256114E+03  0.45526256115E+03  0.25500000920E-02 0. -1.
    10030    2    1    2    0    0  0.00000000000E+00  0.00000000000E+00  0.62267249090E+03  0.15331976132E+04  0.14010617011E+04 0.  0.
        2    1    3    3  502    0  0.68769207901E+02  0.44644369859E+03 -0.27460821916E+03  0.52863111335E+03  0.25500000920E-02 0. -1.
       -2    1    3    3    0  502 -0.68769207901E+02 -0.44644369859E+03  0.89728071006E+03  0.10045664999E+04  0.25500000920E-02 0.  1.
</event>
<event>
 5   0  0.2215876E-04  0.1400952E+04  0.7818609E-02  0.8953130E-01
        1   -1    0    0  501    0  0.00000000000E+00  0.00000000000E+00  0.93959510097E+03  0.93959510099E+03  0.50400001928E-02 0. -1.
       -1   -1    0    0    0  501  0.00000000000E+00  0.00000000000E+00 -0.52221066573E+03  0.52221066575E+03  0.50400001928E-02 0.  1.
    10030    2    1    2    0    0  0.00000000000E+00  0.00000000000E+00  0.41738443524E+03  0.14618057667E+04  0.14009519381E+04 0.  0.
        3    1    3    3  502    0  0.61001313313E+03  0.26169504050E+02  0.56692074531E+03  0.83318665808E+03  0.10100000352E+00 0. -1.
       -3    1    3    3    0  502 -0.61001313313E+03 -0.26169504050E+02 -0.14953631007E+03  0.62861910866E+03  0.10100000352E+00 0.  1.
</event>
<event>
 5   0  0.2223112E-04  0.1398604E+04  0.7818609E-02  0.8954830E-01
       -1   -1    0    0    0  501  0.00000000000E+00  0.00000000000E+00  0.49317438364E+03  0.49317438367E+03  0.50400001928E-02 0. -1.
        1   -1    0    0  501    0  0.00000000000E+00  0.00000000000E+00 -0.99158264735E+03  0.99158264736E+03  0.50400001928E-02 0.  1.
    10030    2    1    2    0    0  0.00000000000E+00  0.00000000000E+00 -0.49840826371E+03  0.14847570310E+04  0.13986038195E+04 0.  0.
        1    1    3    3  502    0 -0.19244192577E+03 -0.18412568038E+03  0.43722232244E+03  0.51195656088E+03  0.50400001928E-02 0. -1.
       -1    1    3    3    0  502  0.19244192577E+03  0.18412568038E+03 -0.93563058614E+03  0.97280047015E+03  0.50400001928E-02 0.  1.
</event>
<event>
 5   0  0.3932568E-04  0.1396255E+04  0.7818609E-02  0.8956534E-01
       -2   -1    0    0    0  501  0.00000000000E+00  0.00000000000E+00  0.23445486800E+03  0.23445486801E+03  0.25500000920E-02 0.  1.
        2   -1    0    0  501    0  0.00000000000E+00  0.00000000000E+00 -0.20787870972E+04  0.20787870972E+04  0.25500000920E-02 0. -1.
    10030    2    1    2    0    0  0.00000000000E+00  0.00000000000E+00 -0.18443322292E+04  0.23132419652E+04  0.13962546394E+04 0.  0.
        2    1    3    3  502    0  0.47788055476E+03  0.29833745540E+03 -0.16052742261E+04  0.17012584762E+04  0.25500000920E-02 0. -1.
       -2    1    3    3    0  502 -0.47788055476E+03 -0.29833745540E+03 -0.23905800304E+03  0.61198348894E+03  0.25500000920E-02 0.  1.
</event>
<event>
 5   0  0.3975164E-04  0.1404653E+04  0.7818609E-02  0.8950458E-01
        2   -1    0    0  501    0  0.00000000000E+00  0.00000000000E+00  0.13403868225E+04  0.13403868225E+04  0.25500000920E-02 0. -1.
       -2   -1    0    0    0  501  0.00000000000E+00  0.00000000000E+00 -0.36799988316E+03  0.36799988317E+03  0.25500000920E-02 0.  1.
    10030    2    1    2    0    0  0.00000000000E+00  0.00000000000E+00  0.97238693937E+03  0.17083867057E+04  0.14046525465E+04 0.  0.
        5    1    3    3  502    0  0.36767364837E+01 -0.67309423044E+03  0.72995894865E+03  0.99294084323E+03  0.46999998093E+01 0.  1.
       -5    1    3    3    0  502 -0.36767364837E+01  0.67309423044E+03  0.24242799072E+03  0.71544586247E+03  0.46999998093E+01 0. -1.
</event>
<event>
 5   0  0.3975164E-04  0.1422249E+04  0.7818609E-02  0.8937869E-01
        2   -1    0    0  501    0  0.00000000000E+00  0.00000000000E+00  0.11016489343E+04  0.11016489343E+04  0.25500000920E-02 0.  1.
       -2   -1    0    0    0  501  0.00000000000E+00  0.00000000000E+00 -0.45903769174E+03  0.45903769175E+03  0.25500000920E-02 0. -1.
    10030    2    1    2    0    0  0.00000000000E+00  0.00000000000E+00  0.64261124253E+03  0.15606866260E+04  0.14222494632E+04 0.  0.
        5    1    3    3  502    0  0.55121730078E+03  0.44548619062E+03  0.38508189757E+03  0.80660313447E+03  0.46999998093E+01 0. -1.
       -5    1    3    3    0  502 -0.55121730078E+03 -0.44548619062E+03  0.25752934496E+03  0.75408349155E+03  0.46999998093E+01 0.  1.
</event>
<event>
 5   0  0.2143942E-04  0.1402729E+04  0.7818609E-02  0.8951845E-01
       -1   -1    0    0    0  501  0.00000000000E+00  0.00000000000E+00  0.67630066041E+03  0.67630066042E+03  0.50400001928E-02 0. -1.
        1   -1    0    0  501    0  0.00000000000E+00  0.00000000000E+00 -0.72735727835E+03  0.72735727837E+03  0.50400001928E-02 0.  1.
    10030    2    1    2    0    0  0.00000000000E+00  0.00000000000E+00 -0.51056617943E+02  0.14036579388E+04  0.14027290654E+04 0.  0.
        4    1    3    3  502    0  0.24648839585E+03  0.50468282767E+03 -0.44586516478E+03  0.71711829143E+03  0.12699999809E+01 0.  1.
       -4    1    3    3    0  502 -0.24648839585E+03 -0.50468282767E+03  0.39480854684E+03  0.68653964736E+03  0.12699999809E+01 0. -1.
</event>
<event>
 5   0  0.2217251E-04  0.1400252E+04  0.7818609E-02  0.8953636E-01
       -1   -1    0    0    0  501  0.00000000000E+00  0.00000000000E+00  0.41162646724E+03  0.41162646727E+03  0.50400001928E-02 0.  1.
        1   -1    0    0  501    0  0.00000000000E+00  0.00000000000E+00 -0.11908281909E+04  0.11908281909E+04  0.50400001928E-02 0. -1.
    10030    2    1    2    0    0  0.00000000000E+00  0.00000000000E+00 -0.77920172362E+03  0.16024546581E+04  0.14002519792E+04 0.  0.
        5    1    3    3  502    0 -0.38839389796E+03 -0.57651321928E+03 -0.48491676813E+03  0.84757517306E+03  0.46999998093E+01 0. -1.
       -5    1    3    3    0  502  0.38839389796E+03  0.57651321928E+03 -0.29428495549E+03  0.75487948508E+03  0.46999998093E+01 0.  1.
</event>
<event>
 5   0  0.4310348E-04  0.1400829E+04  0.7818609E-02  0.8953219E-01
       -2   -1    0    0    0  501  0.00000000000E+00  0.00000000000E+00  0.14460590926E+04  0.14460590926E+04  0.25500000920E-02 0.  1.
        2   -1    0    0  501    0  0.00000000000E+00  0.00000000000E+00 -0.33925345525E+03  0.33925345526E+03  0.25500000920E-02 0. -1.
    10030    2    1    2    0    0  0.00000000000E+00  0.00000000000E+00  0.11068056374E+04  0.17853125479E+04  0.14008291026E+04 0.  0.
        1    1    3    3  502    0  0.66789876226E+03  0.20974176069E+03  0.58190595349E+03  0.91032681030E+03  0.50400001928E-02 0.  1.
       -1    1    3    3    0  502 -0.66789876226E+03 -0.20974176069E+03  0.52489968389E+03  0.87498573759E+03  0.50400001928E-02 0. -1.
</event>
<event>
 5   0  0.4208622E-04  0.1387911E+04  0.7818609E-02  0.8962616E-01
       -2   -1    0    0    0  501  0.00000000000E+00  0.00000000000E+00  0.13765908082E+04  0.13765908082E+04  0.25500000920E-02 0. -1.
        2   -1    0    0  501    0  0.00000000000E+00  0.00000000000E+00 -0.34983128811E+03  0.34983128812E+03  0.25500000920E-02 0.  1.
    10030    2    1    2    0    0  0.00000000000E+00  0.00000000000E+00  0.10267595201E+04  0.17264220964E+04  0.13879114318E+04 0.  0.
        4    1    3    3  502    0 -0.16863246805E+03  0.57881507095E+03  0.94087074722E+03  0.11174538789E+04  0.12699999809E+01 0. -1.
       -4    1    3    3    0  502  0.16863246805E+03 -0.57881507095E+03  0.85888772895E+02  0.60896821743E+03  0.12699999809E+01 0.  1.
</event>
<event>
 5   0  0.3932568E-04  0.1394842E+04  0.7818609E-02  0.8957560E-01
        2   -1    0    0  501    0  0.00000000000E+00  0.00000000000E+00  0.12530809560E+04  0.12530809560E+04  0.25500000920E-02 0. -1.
       -2   -1    0    0    0  501  0.00000000000E+00  0.00000000000E+00 -0.38816026894E+03  0.38816026894E+03  0.25500000920E-02 0.  1.
    10030    2    1    2    0    0  0.00000000000E+00  0.00000000000E+00  0.86492068710E+03  0.16412412250E+04  0.13948422719E+04 0.  0.
        2    1    3    3  502    0  0.66566557442E+03  0.20015616236E+03  0.36565920832E+03  0.78541696119E+03  0.25500000920E-02 0.  1.
       -2    1    3    3    0  502 -0.66566557442E+03 -0.20015616236E+03  0.49926147878E+03  0.85582426379E+03  0.25500000920E-02 0. -1.
</event>
<event>
 5   0  0.3932568E-04  0.1370707E+04  0.7818609E-02  0.8975300E-01
       -2   -1    0    0    0  501  0.00000000000E+00  0.00000000000E+00  0.37076388366E+03  0.37076388367E+03  0.25500000920E-02 0. -1.
        2   -1    0    0  501    0  0.00000000000E+00  0.00000000000E+00 -0.12668695026E+04  0.12668695026E+04  0.25500000920E-02 0.  1.
    10030    2    1    2    0    0  0.00000000000E+00  0.00000000000E+00 -0.89610561895E+03  0.16376333863E+04  0.13707070539E+04 0.  0.
        2    1    3    3  502    0 -0.37682805388E+03 -0.13025060705E+03  0.21794685236E+03  0.45438467545E+03  0.25500000920E-02 0. -1.
       -2    1    3    3    0  502  0.37682805388E+03  0.13025060705E+03 -0.11140524713E+04  0.11832487108E+04  0.25500000920E-02 0.  1.
</event>
<event>
 5   0  0.2155352E-04  0.1398673E+04  0.7818609E-02  0.8954779E-01
        1   -1    0    0  501    0  0.00000000000E+00  0.00000000000E+00  0.11863917638E+04  0.11863917638E+04  0.50400001928E-02 0.  1.
       -1   -1    0    0    0  501  0.00000000000E+00  0.00000000000E+00 -0.41223461347E+03  0.41223461350E+03  0.50400001928E-02 0. -1.
    10030    2    1    2    0    0  0.00000000000E+00  0.00000000000E+00  0.77415715031E+03  0.15986263773E+04  0.13986733002E+04 0.  0.
        2    1    3    3  502    0  0.54567247391E+03  0.33481229764E+03  0.65392890091E+02  0.64353240285E+03  0.25500000920E-02 0. -1.
       -2    1    3    3    0  502 -0.54567247391E+03 -0.33481229764E+03  0.70876426022E+03  0.95509397444E+03  0.25500000920E-02 0.  1.
</event>
<event>
 5   0  0.2215876E-04  0.1400874E+04  0.7818609E-02  0.8953186E-01
        1   -1    0    0  501    0  0.00000000000E+00  0.00000000000E+00  0.14410767377E+04  0.14410767378E+04  0.50400001928E-02 0.  1.
       -1   -1    0    0    0  501  0.00000000000E+00  0.00000000000E+00 -0.34044822654E+03  0.34044822657E+03  0.50400001928E-02 0. -1.
    10030    2    1    2    0    0  0.00000000000E+00  0.00000000000E+00  0.11006285112E+04  0.17815249643E+04  0.14008740410E+04 0.  0.
        3    1    3    3  502    0  0.75397924653E+02  0.38452740404E+03  0.12886437098E+04  0.13469034087E+04  0.10100000352E+00 0.  1.
       -3    1    3    3    0  502 -0.75397924653E+02 -0.38452740404E+03 -0.18801519857E+03  0.43462155560E+03  0.10100000352E+00 0. -1.
</event>
<event>
 5   0  0.3975164E-04  0.1351696E+04  0.7818609E-02  0.8989545E-01
       -2   -1    0    0    0  501  0.00000000000E+00  0.00000000000E+00  0.95554173755E+03  0.95554173756E+03  0.25500000920E-02 0.  1.
        2   -1    0    0  501    0  0.00000000000E+00  0.00000000000E+00 -0.47802251710E+03  0.47802251711E+03  0.25500000920E-02 0. -1.
    10030    2    1    2    0    0  0.00000000000E+00  0.00000000000E+00  0.47751922046E+03  0.14335642547E+04  0.13516959223E+04 0.  0.
        5    1    3    3  502    0 -0.39298409204E+03 -0.37154237458E+03 -0.19108831498E+03  0.57360009312E+03  0.46999998093E+01 0. -1.
       -5    1    3    3    0  502  0.39298409204E+03  0.37154237458E+03  0.66860753543E+03  0.85996416155E+03  0.46999998093E+01 0.  1.
</event>
<event>
 5   0  0.4310348E-04  0.1404323E+04  0.7818609E-02  0.8950695E-01
        2   -1    0    0  501    0  0.00000000000E+00  0.00000000000E+00  0.73649369685E+03  0.73649369686E+03  0.25500000920E-02 0.  1.
       -2   -1    0    0    0  501  0.00000000000E+00  0.00000000000E+00 -0.66942993802E+03  0.66942993802E+03  0.25500000920E-02 0. -1.
    10030    2    1    2    0    0  0.00000000000E+00  0.00000000000E+00  0.67063758837E+02  0.14059236349E+04  0.14043232247E+04 0.  0.
        1    1    3    3  502    0 -0.30517554194E+03  0.25288956753E+03  0.61380063574E+03  0.73064113299E+03  0.50400001928E-02 0.  1.
       -1    1    3    3    0  502  0.30517554194E+03 -0.25288956753E+03 -0.54673687690E+03  0.67528250189E+03  0.50400001928E-02 0. -1.
</event>
<event>
 5   0  0.2143942E-04  0.1390551E+04  0.7818609E-02  0.8960686E-01
       -1   -1    0    0    0  501  0.00000000000E+00  0.00000000000E+00  0.62839173475E+03  0.62839173477E+03  0.50400001928E-02 0. -1.
        1   -1    0    0  501    0  0.00000000000E+00  0.00000000000E+00 -0.76927860691E+03  0.76927860693E+03  0.50400001928E-02 0.  1.
    10030    2    1    2    0    0  0.00000000000E+00  0.00000000000E+00 -0.14088687216E+03  0.13976703417E+04  0.13905514278E+04 0.  0.
        4    1    3    3  502    0 -0.17166375812E+03 -0.16481016730E+02  0.60655258264E+03  0.63059314789E+03  0.12699999809E+01 0. -1.
       -4    1    3    3    0  502  0.17166375812E+03  0.16481016730E+02 -0.74743945480E+03  0.76707719380E+03  0.12699999809E+01 0.  1.
</event>
<event>
 5   0  0.2215876E-04  0.1408489E+04  0.7818609E-02  0.8947696E-01
       -1   -1    0    0    0  501  0.00000000000E+00  0.00000000000E+00  0.60335044074E+03  0.60335044076E+03  0.50400001928E-02 0. -1.
        1   -1    0    0  501    0  0.00000000000E+00  0.00000000000E+00 -0.82201073811E+03  0.82201073813E+03  0.50400001928E-02 0.  1.
    10030    2    1    2    0    0  0.00000000000E+00  0.00000000000E+00 -0.21866029737E+03  0.14253611789E+04  0.14084893200E+04 0.  0.
        3    1    3    3  502    0  0.52242017762E+03 -0.45537021816E+03  0.17372062424E+02  0.69324359090E+03  0.10100000352E+00 0.  1.
       -3    1    3    3    0  502 -0.52242017762E+03  0.45537021816E+03 -0.23603235980E+03  0.73211758799E+03  0.10100000352E+00 0. -1.
</event>
<event>
 5   0  0.3975164E-04  0.1405146E+04  0.7818609E-02  0.8950102E-01
        2   -1    0    0  501    0  0.00000000000E+00  0.00000000000E+00  0.17004139194E+04  0.17004139194E+04  0.25500000920E-02 0.  1.
       -2   -1    0    0    0  501  0.00000000000E+00  0.00000000000E+00 -0.29028756704E+03  0.29028756705E+03  0.25500000920E-02 0. -1.
    10030    2    1    2    0    0  0.00000000000E+00  0.00000000000E+00  0.14101263524E+04  0.19907014864E+04  0.14051462837E+04 0.  0.
        5    1    3    3  502    0 -0.26975025156E+03  0.20847079801E+03  0.15753521620E+04  0.16118256097E+04  0.46999998093E+01 0.  1.
       -5    1    3    3    0  502  0.26975025156E+03 -0.20847079801E+03 -0.16522580960E+03  0.37887587676E+03  0.46999998093E+01 0. -1.
</event>
<event>
 5   0  0.1497625E-04  0.1400971E+04  0.7818609E-02  0.8953116E-01
       -4   -1    0    0    0  501  0.00000000000E+00  0.00000000000E+00  0.53959409982E+03  0.53959559437E+03  0.12699999809E+01 0. -1.
        4   -1    0    0  501    0  0.00000000000E+00  0.00000000000E+00 -0.90934646614E+03  0.90934735298E+03  0.12699999809E+01 0.  1.
    10030    2    1    2    0    0  0.00000000000E+00  0.00000000000E+00 -0.36975236632E+03  0.14489429474E+04  0.14009706822E+04 0.  0.
        1    1    3    3  502    0 -0.20308595719E+03  0.99531201805E+02 -0.87054780765E+03  0.89944641395E+03  0.50400001928E-02 0.  1.
       -1    1    3    3    0  502  0.20308595719E+03 -0.99531201805E+02  0.50079544133E+03  0.54949653341E+03  0.50400001928E-02 0. -1.
</event>
<event>
 5   0  0.3932568E-04  0.1414529E+04  0.7818609E-02  0.8943369E-01
       -2   -1    0    0    0  501  0.00000000000E+00  0.00000000000E+00  0.26357573449E+03  0.26357573450E+03  0.25500000920E-02 0.  1.
        2   -1    0    0  501    0  0.00000000000E+00  0.00000000000E+00 -0.18978331979E+04  0.18978331979E+04  0.25500000920E-02 0. -1.
    10030    2    1    2    0    0  0.00000000000E+00  0.00000000000E+00 -0.16342574634E+04  0.21614089324E+04  0.14145285845E+04 0.  0.
        2    1    3    3  502    0  0.60651813274E+03 -0.32991102538E+03 -0.10514536496E+04  0.12578792896E+04  0.25500000920E-02 0.  1.
       -2    1    3    3    0  502 -0.60651813274E+03  0.32991102538E+03 -0.58280381385E+03  0.90352964282E+03  0.25500000920E-02 0. -1.
</event>
<event>
 5   0  0.4208622E-04  0.1397279E+04  0.7818609E-02  0.8955790E-01
        2   -1    0    0  501    0  0.00000000000E+00  0.00000000000E+00  0.22690294890E+04  0.22690294890E+04  0.25500000920E-02 0.  1.
       -2   -1    0    0    0  501  0.00000000000E+00  0.00000000000E+00 -0.21511275976E+03  0.21511275978E+03  0.25500000920E-02 0. -1.
    10030    2    1    2    0    0  0.00000000000E+00  0.00000000000E+00  0.20539167292E+04  0.24841422488E+04  0.13972790636E+04 0.  0.
        4    1    3    3  502    0  0.48236076235E+03 -0.36185801017E+03  0.39969866351E+03  0.72344575408E+03  0.12699999809E+01 0. -1.
       -4    1    3    3    0  502 -0.48236076235E+03  0.36185801017E+03  0.16542180657E+04  0.17606964947E+04  0.12699999809E+01 0.  1.
</event>
<event>
 5   0  0.2223112E-04  0.1398951E+04  0.7818609E-02  0.8954578E-01
       -1   -1    0    0    0  501  0.00000000000E+00  0.00000000000E+00  0.98821770468E+03  0.98821770469E+03  0.50400001928E-02 0. -1.
        1   -1    0    0  501    0  0.00000000000E+00  0.00000000000E+00 -0.49509946061E+03  0.49509946064E+03  0.50400001928E-02 0.  1.
    10030    2    1    2    0    0  0.00000000000E+00  0.00000000000E+00  0.49311824407E+03  0.14833171653E+04  0.13989511108E+04 0.  0.
        1    1    3    3  502    0 -0.63619706141E+02 -0.78721114115E+02  0.98041203215E+03  0.98562276437E+03  0.50400001928E-02 0. -1.
       -1    1    3    3    0  502  0.63619706141E+02  0.78721114115E+02 -0.48729378809E+03  0.49769440097E+03  0.50400001928E-02 0.  1.
</event>
<event>
 5   0  0.2223112E-04  0.1403567E+04  0.7818609E-02  0.8951240E-01
        1   -1    0    0  501    0  0.00000000000E+00  0.00000000000E+00  0.69533518688E+03  0.69533518690E+03  0.50400001928E-02 0. -1.
       -1   -1    0    0    0  501  0.00000000000E+00  0.00000000000E+00 -0.70829194053E+03  0.70829194055E+03  0.50400001928E-02 0.  1.
    10030    2    1    2    0    0  0.00000000000E+00  0.00000000000E+00 -0.12956753653E+02  0.14036271274E+04  0.14035673249E+04 0.  0.
        1    1    3    3  502    0  0.50397103870E+03  0.10877467851E+03  0.46965278935E+03  0.69741844047E+03  0.50400001928E-02 0. -1.
       -1    1    3    3    0  502 -0.50397103870E+03 -0.10877467851E+03 -0.48260954300E+03  0.70620868697E+03  0.50400001928E-02 0.  1.
</event>
<event>
 5   0  0.2217251E-04  0.1392976E+04  0.7818609E-02  0.8958919E-01
        1   -1    0    0  501    0  0.00000000000E+00  0.00000000000E+00  0.12656414847E+04  0.12656414847E+04  0.50400001928E-02 0. -1.
       -1   -1    0    0    0  501  0.00000000000E+00  0.00000000000E+00 -0.38328020769E+03  0.38328020772E+03  0.50400001928E-02 0.  1.
    10030    2    1    2    0    0  0.00000000000E+00  0.00000000000E+00  0.88236127703E+03  0.16489216924E+04  0.13929757086E+04 0.  0.
        5    1    3    3  502    0  0.45601256815E+03  0.49289370612E+03  0.66003364277E+03  0.94157217856E+03  0.46999998093E+01 0. -1.
       -5    1    3    3    0  502 -0.45601256815E+03 -0.49289370612E+03  0.22232763426E+03  0.70734951389E+03  0.46999998093E+01 0.  1.
</event>
<event>
 5   0  0.4310348E-04  0.1404255E+04  0.7818609E-02  0.8950744E-01
       -2   -1    0    0    0  501  0.00000000000E+00  0.00000000000E+00  0.28754530606E+03  0.28754530607E+03  0.25500000920E-02 0.  1.
        2   -1    0    0  501    0  0.00000000000E+00  0.00000000000E+00 -0.17144536614E+04  0.17144536614E+04  0.25500000920E-02 0. -1.
    10030    2    1    2    0    0  0.00000000000E+00  0.00000000000E+00 -0.14269083553E+04  0.20019989674E+04  0.14042551090E+04 0.  0.
        1    1    3    3  502    0  0.63488600198E+03  0.85792212088E+02 -0.30385713428E+03  0.70906254819E+03  0.50400001928E-02 0.  1.
       -1    1    3    3    0  502 -0.63488600198E+03 -0.85792212088E+02 -0.11230512210E+04  0.12929364192E+04  0.50400001928E-02 0. -1.
</event>
<event>
 5   0  0.4208622E-04  0.1399617E+04  0.7818609E-02  0.8954096E-01
       -2   -1    0    0    0  501  0.00000000000E+00  0.00000000000E+00  0.30312496847E+03  0.30312496848E+03  0.25500000920E-02 0.  1.
        2   -1    0    0  501    0  0.00000000000E+00  0.00000000000E+00 -0.16156101333E+04  0.16156101334E+04  0.25500000920E-02 0. -1.
    10030    2    1    2    0    0  0.00000000000E+00  0.00000000000E+00 -0.13124851649E+04  0.19187351018E+04  0.13996167629E+04 0.  0.
        4    1    3    3  502    0  0.12046041867E+03 -0.59864067088E+03 -0.18762562508E+03  0.63881636907E+03  0.12699999809E+01 0.  1.
       -4    1    3    3    0  502 -0.12046041867E+03  0.59864067088E+03 -0.11248595398E+04  0.12799187328E+04  0.12699999809E+01 0. -1.
</event>
<event>
 5   0  0.2143942E-04  0.1400043E+04  0.7818609E-02  0.8953787E-01
        1   -1    0    0  501    0  0.00000000000E+00  0.00000000000E+00  0.62595123481E+03  0.62595123483E+03  0.50400001928E-02 0.  1.
       -1   -1    0    0    0  501  0.00000000000E+00  0.00000000000E+00 -0.78285718221E+03  0.78285718222E+03  0.50400001928E-02 0. -1.
    10030    2    1    2    0    0  0.00000000000E+00  0.00000000000E+00 -0.15690594739E+03  0.14088084171E+04  0.14000434563E+04 0.  0.
        4    1    3    3  502    0 -0.99620190889E+02  0.35674496689E+03  0.51926715876E+03  0.63783316698E+03  0.12699999809E+01 0.  1.
       -4    1    3    3    0  502  0.99620190889E+02 -0.35674496689E+03 -0.67617310616E+03  0.77097525007E+03  0.12699999809E+01 0. -1.
</event>
<event>
 5   0  0.2217251E-04  0.1391932E+04  0.7818609E-02  0.8959680E-01
       -1   -1    0    0    0  501  0.00000000000E+00  0.00000000000E+00  0.29393864279E+03  0.29393864284E+03  0.50400001928E-02 0. -1.
        1   -1    0    0  501    0  0.00000000000E+00  0.00000000000E+00 -0.16478557282E+04  0.16478557282E+04  0.50400001928E-02 0.  1.
    10030    2    1    2    0    0  0.00000000000E+00  0.00000000000E+00 -0.13539170854E+04  0.19417943711E+04  0.13919317172E+04 0.  0.
        5    1    3    3  502    0 -0.54454879914E+03  0.40798385754E+03 -0.88085417651E+03  0.11130635170E+04  0.46999998093E+01 0. -1.
       -5    1    3    3    0  502  0.54454879914E+03 -0.40798385754E+03 -0.47306290894E+03  0.82873085406E+03  0.46999998093E+01 0.  1.
</event>
<event>
 5   0  0.4310348E-04  0.1391729E+04  0.7818609E-02  0.8959827E-01
       -2   -1    0    0    0  501  0.00000000000E+00  0.00000000000E+00  0.73359391162E+03  0.73359391162E+03  0.25500000920E-02 0.  1.
        2   -1    0    0  501    0  0.00000000000E+00  0.00000000000E+00 -0.66007562669E+03  0.66007562670E+03  0.25500000920E-02 0. -1.
    10030    2    1    2    0    0  0.00000000000E+00  0.00000000000E+00  0.73518284924E+02  0.13936695383E+04  0.13917290842E+04 0.  0.
        1    1    3    3  502    0 -0.96195069849E+02 -0.48133432862E+03  0.53069247465E+03  0.72289053809E+03  0.50400001928E-02 0.  1.
       -1    1    3    3    0  502  0.96195069849E+02  0.48133432862E+03 -0.45717418973E+03  0.67077900023E+03  0.50400001928E-02 0. -1.
</event>
<event>
 5   0  0.2215876E-04  0.1392780E+04  0.7818609E-02  0.8959061E-01
        1   -1    0    0  501    0  0.00000000000E+00  0.00000000000E+00  0.12714933908E+04  0.12714933908E+04  0.50400001928E-02 0.  1.
       -1   -1    0    0    0  501  0.00000000000E+00  0.00000000000E+00 -0.38140901131E+03  0.38140901134E+03  0.50400001928E-02 0. -1.
    10030    2    1    2    0    0  0.00000000000E+00  0.00000000000E+00  0.89008437948E+03  0.16529024021E+04  0.13927800072E+04 0.  0.
        3    1    3    3  502    0  0.82975529980E+02  0.61636546531E+03  0.73208275783E+02  0.62621944017E+03  0.10100000352E+00 0. -1.
       -3    1    3    3    0  502 -0.82975529980E+02 -0.61636546531E+03  0.81687610369E+03  0.10266829620E+04  0.10100000352E+00 0.  1.
</event>
<event>
 5   0  0.3932568E-04  0.1392028E+04  0.7818609E-02  0.8959609E-01
       -2   -1    0    0    0  501  0.00000000000E+00  0.00000000000E+00  0.46083697619E+03  0.46083697620E+03  0.25500000920E-02 0. -1.
        2   -1    0    0  501    0  0.00000000000E+00  0.00000000000E+00 -0.10512086461E+04  0.10512086461E+04  0.25500000920E-02 0.  1.
    10030    2    1    2    0    0  0.00000000000E+00  0.00000000000E+00 -0.59037166986E+03  0.15120456223E+04  0.13920284678E+04 0.  0.
        2    1    3    3  502    0 -0.28273718405E+03  0.28951000756E+03 -0.91029520955E+03  0.99618960457E+03  0.25500000920E-02 0.  1.
       -2    1    3    3    0  502  0.28273718405E+03 -0.28951000756E+03  0.31992353969E+03  0.51585601768E+03  0.25500000920E-02 0. -1.
</event>
<event>
 5   0  0.3932568E-04  0.1403997E+04  0.7818609E-02  0.8950930E-01
       -2   -1    0    0    0  501  0.00000000000E+00  0.00000000000E+00  0.32917403853E+03  0.32917403854E+03  0.25500000920E-02 0. -1.
        2   -1    0    0  501    0  0.00000000000E+00  0.00000000000E+00 -0.14970867591E+04  0.14970867591E+04  0.25500000920E-02 0.  1.
    10030    2    1    2    0    0  0.00000000000E+00  0.00000000000E+00 -0.11679127206E+04  0.18262607976E+04  0.14039972857E+04 0.  0.
        2    1    3    3  502    0 -0.54571316916E+03 -0.43776043502E+03 -0.50850080892E+03  0.86487579116E+03  0.25500000920E-02 0.  1.
       -2    1    3    3    0  502  0.54571316916E+03  0.43776043502E+03 -0.65941191163E+03  0.96138500647E+03  0.25500000920E-02 0. -1.
</event>
<event>
 5   0  0.4208622E-04  0.1404949E+04  0.7818609E-02  0.8950244E-01
       -2   -1    0    0    0  501  0.00000000000E+00  0.00000000000E+00  0.52908026763E+03  0.52908026764E+03  0.25500000920E-02 0. -1.
        2   -1    0    0  501    0  0.00000000000E+00  0.00000000000E+00 -0.93269420658E+03  0.93269420658E+03  0.25500000920E-02 0.  1.
    10030    2    1    2    0    0  0.00000000000E+00  0.00000000000E+00 -0.40361393894E+03  0.14617744742E+04  0.14049485406E+04 0.  0.
        4    1    3    3  502    0 -0.35713308209E+03  0.22897403268E+03 -0.78436004879E+03  0.89173731839E+03  0.12699999809E+01 0.  1.
       -4    1    3    3    0  502  0.35713308209E+03 -0.22897403268E+03  0.38074610985E+03  0.57003715583E+03  0.12699999809E+01 0. -1.
</event>
<event>
 5   0  0.3975164E-04  0.1404626E+04  0.7818609E-02  0.8950477E-01
       -2   -1    0    0    0  501  0.00000000000E+00  0.00000000000E+00  0.42847147530E+03  0.42847147531E+03  0.25500000920E-02 0. -1.
        2   -1    0    0  501    0  0.00000000000E+00  0.00000000000E+00 -0.11511700719E+04  0.11511700719E+04  0.25500000920E-02 0.  1.
    10030    2    1    2    0    0  0.00000000000E+00  0.00000000000E+00 -0.72269859660E+03  0.15796415472E+04  0.14046259844E+04 0.  0.
        5    1    3    3  502    0 -0.13965116597E+03 -0.66835369185E+03 -0.17648231492E+03  0.70524265543E+03  0.46999998093E+01 0.  1.
       -5    1    3    3    0  502  0.13965116597E+03  0.66835369185E+03 -0.54621628168E+03  0.87439889178E+03  0.46999998093E+01 0. -1.
</event>
<event>
 5   0  0.4310348E-04  0.1408111E+04  0.7818609E-02  0.8947969E-01
        2   -1    0    0  501    0  0.00000000000E+00  0.00000000000E+00  0.44831064549E+03  0.44831064550E+03  0.25500000920E-02 0. -1.
       -2   -1    0    0    0  501  0.00000000000E+00  0.00000000000E+00 -0.11056928016E+04  0.11056928016E+04  0.25500000920E-02 0.  1.
    10030    2    1    2    0    0  0.00000000000E+00  0.00000000000E+00 -0.65738215610E+03  0.15540034471E+04  0.14081105832E+04 0.  0.
        1    1    3    3  502    0  0.57556063885E+03 -0.23266324195E+03  0.37819466602E+02  0.62195863627E+03  0.50400001928E-02 0. -1.
       -1    1    3    3    0  502 -0.57556063885E+03  0.23266324195E+03 -0.69520162270E+03  0.93204481082E+03  0.50400001928E-02 0.  1.
</event>
<event>
 5   0  0.3975164E-04  0.1412346E+04  0.7818609E-02  0.8944930E-01
        2   -1    0    0  501    0  0.00000000000E+00  0.00000000000E+00  0.76647191039E+03  0.76647191039E+03  0.25500000920E-02 0.  1.
       -2   -1    0    0    0  501  0.00000000000E+00  0.00000000000E+00 -0.65061794570E+03  0.65061794571E+03  0.25500000920E-02 0. -1.
    10030    2    1    2    0    0  0.00000000000E+00  0.00000000000E+00  0.11585396468E+03  0.14170898561E+04  0.14123461046E+04 0.  0.
        5    1    3    3  502    0  0.14503233277E+03 -0.69108748870E+03  0.53221326920E+02  0.70816021791E+03  0.46999998093E+01 0. -1.
       -5    1    3    3    0  502 -0.14503233277E+03  0.69108748870E+03  0.62632637762E+02  0.70892963819E+03  0.46999998093E+01 0.  1.
</event>
<event>
 5   0  0.2143942E-04  0.1397554E+04  0.7818609E-02  0.8955591E-01
       -1   -1    0    0    0  501  0.00000000000E+00  0.00000000000E+00  0.46058694899E+03  0.46058694902E+03  0.50400001928E-02 0.  1.
        1   -1    0    0  501    0  0.00000000000E+00  0.00000000000E+00 -0.10601451962E+04  0.10601451962E+04  0.50400001928E-02 0. -1.
    10030    2    1    2    0    0  0.00000000000E+00  0.00000000000E+00 -0.59955824719E+03  0.15207321452E+04  0.13975536361E+04 0.  0.
        4    1    3    3  502    0 -0.41762521020E+03  0.54708893896E+03 -0.43112564222E+03  0.81215026664E+03  0.12699999809E+01 0. -1.
       -4    1    3    3    0  502  0.41762521020E+03 -0.54708893896E+03 -0.16843260498E+03  0.70858187858E+03  0.12699999809E+01 0.  1.
</event>
<event>
 5   0  0.2217251E-04  0.1401553E+04  0.7818609E-02  0.8952695E-01
        1   -1    0    0  501    0  0.00000000000E+00  0.00000000000E+00  0.22114627933E+04  0.22114627933E+04  0.50400001928E-02 0. -1.
       -1   -1    0    0    0  501  0.00000000000E+00  0.00000000000E+00 -0.22206464781E+03  0.22206464787E+03  0.50400001928E-02 0.  1.
    10030    2    1    2    0    0  0.00000000000E+00  0.00000000000E+00  0.19893981455E+04  0.24335274412E+04  0.14015530049E+04 0.  0.
        5    1    3    3  502    0  0.15420482138E+03  0.63835055628E+03  0.14192789062E+04  0.15638558959E+04  0.46999998093E+01 0.  1.
       -5    1    3    3    0  502 -0.15420482138E+03 -0.63835055628E+03  0.57011923935E+03  0.86967154530E+03  0.46999998093E+01 0. -1.
</event>
<event>
 5   0  0.4208622E-04  0.1390172E+04  0.7818609E-02  0.8960964E-01
       -2   -1    0    0    0  501  0.00000000000E+00  0.00000000000E+00  0.35184175181E+03  0.35184175181E+03  0.25500000920E-02 0.  1.
        2   -1    0    0  501    0  0.00000000000E+00  0.00000000000E+00 -0.13731868002E+04  0.13731868002E+04  0.25500000920E-02 0. -1.
    10030    2    1    2    0    0  0.00000000000E+00  0.00000000000E+00 -0.10213450483E+04  0.17250285520E+04  0.13901718589E+04 0.  0.
        4    1    3    3  502    0 -0.28030232578E+03 -0.20919095158E+03  0.23469185738E+03  0.42120319192E+03  0.12699999809E+01 0.  1.
       -4    1    3    3    0  502  0.28030232578E+03  0.20919095158E+03 -0.12560369057E+04  0.13038253601E+04  0.12699999809E+01 0. -1.
</event>
<event>
 5   0  0.3932568E-04  0.1403609E+04  0.7818609E-02  0.8951211E-01
       -2   -1    0    0    0  501  0.00000000000E+00  0.00000000000E+00  0.10639941077E+04  0.10639941077E+04  0.25500000920E-02 0. -1.
        2   -1    0    0  501    0  0.00000000000E+00  0.00000000000E+00 -0.46290606175E+03  0.46290606176E+03  0.25500000920E-02 0.  1.
    10030    2    1    2    0    0  0.00000000000E+00  0.00000000000E+00  0.60108804591E+03  0.15269001694E+04  0.14036086664E+04 0.  0.
        2    1    3    3  502    0  0.16372816790E+03  0.73107319625E+02  0.10386551550E+04  0.10540190341E+04  0.25500000920E-02 0. -1.
       -2    1    3    3    0  502 -0.16372816790E+03 -0.73107319625E+02 -0.43756710913E+03  0.47288113532E+03  0.25500000920E-02 0.  1.
</event>
<event>
 5   0  0.2217251E-04  0.1399284E+04  0.7818609E-02  0.8954337E-01
       -1   -1    0    0    0  501  0.00000000000E+00  0.00000000000E+00  0.15061855524E+04  0.15061855524E+04  0.50400001928E-02 0.  1.
        1   -1    0    0  501    0  0.00000000000E+00  0.00000000000E+00 -0.32499236709E+03  0.32499236713E+03  0.50400001928E-02 0. -1.
    10030    2    1    2    0    0  0.00000000000E+00  0.00000000000E+00  0.11811931853E+04  0.18311779195E+04  0.13992838282E+04 0.  0.
        5    1    3    3  502    0  0.21494919366E+03  0.81413579201E+02  0.14553438003E+04  0.14733903060E+04  0.46999998093E+01 0.  1.
       -5    1    3    3    0  502 -0.21494919366E+03 -0.81413579201E+02 -0.27415061496E+03  0.35778761356E+03  0.46999998093E+01 0. -1.
</event>
<event>
 5   0  0.2143942E-04  0.1370503E+04  0.7818609E-02  0.8975451E-01
       -1   -1    0    0    0  501  0.00000000000E+00  0.00000000000E+00  0.28585354315E+03  0.28585354319E+03  0.50400001928E-02 0.  1.
        1   -1    0    0  501    0  0.00000000000E+00  0.00000000000E+00 -0.16426919671E+04  0.16426919671E+04  0.50400001928E-02 0. -1.
    10030    2    1    2    0    0  0.00000000000E+00  0.00000000000E+00 -0.13568384239E+04  0.19285455103E+04  0.13705025635E+04 0.  0.
        4    1    3    3  502    0  0.27091964357E+03  0.62581425612E+03 -0.58374226503E+03  0.89766228690E+03  0.12699999809E+01 0. -1.
       -4    1    3    3    0  502 -0.27091964357E+03 -0.62581425612E+03 -0.77309615889E+03  0.10308832234E+04  0.12699999809E+01 0.  1.
</event>
<event>
 5   0  0.3975164E-04  0.1404141E+04  0.7818609E-02  0.8950827E-01
       -2   -1    0    0    0  501  0.00000000000E+00  0.00000000000E+00  0.77839251016E+03  0.77839251017E+03  0.25500000920E-02 0. -1.
        2   -1    0    0  501    0  0.00000000000E+00  0.00000000000E+00 -0.63323150237E+03  0.63323150237E+03  0.25500000920E-02 0.  1.
    10030    2    1    2    0    0  0.00000000000E+00  0.00000000000E+00  0.14516100780E+03  0.14116240125E+04  0.14041405324E+04 0.  0.
        5    1    3    3  502    0 -0.61659196063E+03  0.31795962369E+03 -0.35680938292E+02  0.69467919759E+03  0.46999998093E+01 0.  1.
       -5    1    3    3    0  502  0.61659196063E+03 -0.31795962369E+03  0.18084194609E+03  0.71694481494E+03  0.46999998093E+01 0. -1.
</event>
<event>
 5   0  0.2155352E-04  0.1406450E+04  0.7818609E-02  0.8949163E-01
        1   -1    0    0  501    0  0.00000000000E+00  0.00000000000E+00  0.10027576743E+04  0.10027576743E+04  0.50400001928E-02 0.  1.
       -1   -1    0    0    0  501  0.00000000000E+00  0.00000000000E+00 -0.49316571443E+03  0.49316571446E+03  0.50400001928E-02 0. -1.
    10030    2    1    2    0    0  0.00000000000E+00  0.00000000000E+00  0.50959195987E+03  0.14959233888E+04  0.14064504327E+04 0.  0.
        2    1    3    3  502    0 -0.63636000156E+03  0.25743367194E+03  0.92443561957E+02  0.69265572920E+03  0.25500000920E-02 0. -1.
       -2    1    3    3    0  502  0.63636000156E+03 -0.25743367194E+03  0.41714839791E+03  0.80326765958E+03  0.25500000920E-02 0.  1.
</event>
<event>
 5   0  0.2215876E-04  0.1400463E+04  0.7818609E-02  0.8953484E-01
        1   -1    0    0  501    0  0.00000000000E+00  0.00000000000E+00  0.20568906455E+04  0.20568906455E+04  0.50400001928E-02 0. -1.
       -1   -1    0    0    0  501  0.00000000000E+00  0.00000000000E+00 -0.23838108140E+03  0.23838108145E+03  0.50400001928E-02 0.  1.
    10030    2    1    2    0    0  0.00000000000E+00  0.00000000000E+00  0.18185095641E+04  0.22952717269E+04  0.14004625185E+04 0.  0.
        3    1    3    3  502    0 -0.22665736356E+03 -0.44754769329E+03  0.17099081348E+04  0.17819815762E+04  0.10100000352E+00 0. -1.
       -3    1    3    3    0  502  0.22665736356E+03  0.44754769329E+03  0.10860142930E+03  0.51329015077E+03  0.10100000352E+00 0.  1.
</event>
<event>
 5   0  0.2223112E-04  0.1399259E+04  0.7818609E-02  0.8954355E-01
       -1   -1    0    0    0  501  0.00000000000E+00  0.00000000000E+00  0.63255162745E+03  0.63255162747E+03  0.50400001928E-02 0.  1.
        1   -1    0    0  501    0  0.00000000000E+00  0.00000000000E+00 -0.77382054436E+03  0.77382054438E+03  0.50400001928E-02 0. -1.
    10030    2    1    2    0    0  0.00000000000E+00  0.00000000000E+00 -0.14126891691E+03  0.14063721718E+04  0.13992590106E+04 0.  0.
        1    1    3    3  502    0  0.38948158939E+03 -0.32344320846E+03  0.41469707951E+03  0.65443493592E+03  0.50400001928E-02 0.  1.
       -1    1    3    3    0  502 -0.38948158939E+03  0.32344320846E+03 -0.55596599642E+03  0.75193723593E+03  0.50400001928E-02 0. -1.
</event>
<event>
 5   0  0.4310348E-04  0.1399577E+04  0.7818609E-02  0.8954125E-01
        2   -1    0    0  501    0  0.00000000000E+00  0.00000000000E+00  0.87808001862E+03  0.87808001862E+03  0.25500000920E-02 0. -1.
       -2   -1    0    0    0  501  0.00000000000E+00  0.00000000000E+00 -0.55769842085E+03  0.55769842085E+03  0.25500000920E-02 0.  1.
    10030    2    1    2    0    0  0.00000000000E+00  0.00000000000E+00  0.32038159777E+03  0.14357784395E+04  0.13995768500E+04 0.  0.
        1    1    3    3  502    0 -0.53929960809E+03 -0.12755427875E+03 -0.27816705189E+03  0.62007343928E+03  0.50400001928E-02 0.  1.
       -1    1    3    3    0  502  0.53929960809E+03  0.12755427875E+03  0.59854864966E+03  0.81570500020E+03  0.50400001928E-02 0. -1.
</event>
<event>
 5   0  0.3917598E-04  0.1403528E+04  0.7818609E-02  0.8951269E-01
       -2   -1    0    0    0  501  0.00000000000E+00  0.00000000000E+00  0.79911293475E+03  0.79911293475E+03  0.25500000920E-02 0. -1.
        2   -1    0    0  501    0  0.00000000000E+00  0.00000000000E+00 -0.61627384455E+03  0.61627384455E+03  0.25500000920E-02 0.  1.
    10030    2    1    2    0    0  0.00000000000E+00  0.00000000000E+00  0.18283909020E+03  0.14153867793E+04  0.14035275566E+04 0.  0.
        3    1    3    3  502    0  0.53901084620E+03 -0.19806335872E+03  0.49820191231E+03  0.76024137090E+03  0.10100000352E+00 0. -1.
       -3    1    3    3    0  502 -0.53901084620E+03  0.19806335872E+03 -0.31536282211E+03  0.65514540841E+03  0.10100000352E+00 0.  1.
</event>
<event>
 5   0  0.3975164E-04  0.1397749E+04  0.7818609E-02  0.8955450E-01
        2   -1    0    0  501    0  0.00000000000E+00  0.00000000000E+00  0.28207769011E+03  0.28207769012E+03  0.25500000920E-02 0. -1.
       -2   -1    0    0    0  501  0.00000000000E+00  0.00000000000E+00 -0.17315286602E+04  0.17315286602E+04  0.25500000920E-02 0.  1.
    10030    2    1    2    0    0  0.00000000000E+00  0.00000000000E+00 -0.14494509701E+04  0.20136063503E+04  0.13977490545E+04 0.  0.
        5    1    3    3  502    0 -0.12182028306E+03  0.24871958213E+03  0.19962527405E+03  0.34142927809E+03  0.46999998093E+01 0. -1.
       -5    1    3    3    0  502  0.12182028306E+03 -0.24871958213E+03 -0.16490762441E+04  0.16721770722E+04  0.46999998093E+01 0.  1.
</event>
<event>
 5   0  0.4208622E-04  0.1395131E+04  0.7818609E-02  0.8957351E-01
        2   -1    0    0  501    0  0.00000000000E+00  0.00000000000E+00  0.60768103411E+03  0.60768103412E+03  0.25500000920E-02 0.  1.
       -2   -1    0    0    0  501  0.00000000000E+00  0.00000000000E+00 -0.80074496532E+03  0.80074496532E+03  0.25500000920E-02 0. -1.
    10030    2    1    2    0    0  0.00000000000E+00  0.00000000000E+00 -0.19306393121E+03  0.14084259994E+04  0.13951308592E+04 0.  0.
        4    1    3    3  502    0 -0.28714340110E+03  0.52866890249E+03 -0.45295995851E+03  0.75307136326E+03  0.12699999809E+01 0. -1.
       -4    1    3    3    0  502  0.28714340110E+03 -0.52866890249E+03  0.25989602730E+03  0.65535463618E+03  0.12699999809E+01 0.  1.
</event>
<event>
 5   0  0.4310348E-04  0.1396106E+04  0.7818609E-02  0.8956642E-01
        2   -1    0    0  501    0  0.00000000000E+00  0.00000000000E+00  0.18158975226E+04  0.18158975226E+04  0.25500000920E-02 0. -1.
       -2   -1    0    0    0  501  0.00000000000E+00  0.00000000000E+00 -0.26834009923E+03  0.26834009924E+03  0.25500000920E-02 0.  1.
    10030    2    1    2    0    0  0.00000000000E+00  0.00000000000E+00  0.15475574233E+04  0.20842376218E+04  0.13961061871E+04 0.  0.
        1    1    3    3  502    0  0.30671672970E+03 -0.59633332461E+01 -0.16231113297E+03  0.34706716573E+03  0.50400001928E-02 0.  1.
       -1    1    3    3    0  502 -0.30671672970E+03  0.59633332461E+01  0.17098685563E+04  0.17371704561E+04  0.50400001928E-02 0. -1.
</event>
<event>
 5   0  0.2155352E-04  0.1409555E+04  0.7818609E-02  0.8946931E-01
       -1   -1    0    0    0  501  0.00000000000E+00  0.00000000000E+00  0.15806595382E+03  0.15806595390E+03  0.50400001928E-02 0.  1.
        1   -1    0    0  501    0  0.00000000000E+00  0.00000000000E+00 -0.31424328216E+04  0.31424328216E+04  0.50400001928E-02 0. -1.
    10030    2    1    2    0    0  0.00000000000E+00  0.00000000000E+00 -0.29843668678E+04  0.33004987755E+04  0.14095554496E+04 0.  0.
        2    1    3    3  502    0 -0.69674629895E+03  0.94994849449E+02 -0.13815553454E+04  0.15502175973E+04  0.25500000920E-02 0. -1.
       -2    1    3    3    0  502  0.69674629895E+03 -0.94994849449E+02 -0.16028115224E+04  0.17502811782E+04  0.25500000920E-02 0.  1.
</event>
<event>
 5   0  0.2215876E-04  0.1397915E+04  0.7818609E-02  0.8955329E-01
        1   -1    0    0  501    0  0.00000000000E+00  0.00000000000E+00  0.73578322441E+03  0.73578322443E+03  0.50400001928E-02 0.  1.
       -1   -1    0    0    0  501  0.00000000000E+00  0.00000000000E+00 -0.66397498176E+03  0.66397498178E+03  0.50400001928E-02 0. -1.
    10030    2    1    2    0    0  0.00000000000E+00  0.00000000000E+00  0.71808242644E+02  0.13997582062E+04  0.13979150948E+04 0.  0.
        3    1    3    3  502    0 -0.53493272177E+02 -0.25591954749E+02  0.73325983511E+03  0.73565377339E+03  0.10100000352E+00 0.  1.
       -3    1    3    3    0  502  0.53493272177E+02  0.25591954749E+02 -0.66145159247E+03  0.66410443282E+03  0.10100000352E+00 0. -1.
</event>
<event>
 5   0  0.3975164E-04  0.1400479E+04  0.7818609E-02  0.8953472E-01
        2   -1    0    0  501    0  0.00000000000E+00  0.00000000000E+00  0.65548181755E+03  0.65548181756E+03  0.25500000920E-02 0.  1.
       -2   -1    0    0    0  501  0.00000000000E+00  0.00000000000E+00 -0.74805379868E+03  0.74805379869E+03  0.25500000920E-02 0. -1.
    10030    2    1    2    0    0  0.00000000000E+00  0.00000000000E+00 -0.92571981130E+02  0.14035356162E+04  0.14004794373E+04 0.  0.
        5    1    3    3  502    0  0.56719870061E+03 -0.28513590851E+03  0.24981895941E+03  0.68223782860E+03  0.46999998093E+01 0.  1.
       -5    1    3    3    0  502 -0.56719870061E+03  0.28513590851E+03 -0.34239094054E+03  0.72129778764E+03  0.46999998093E+01 0. -1.
</event>
<event>
 5   0  0.3917598E-04  0.1398901E+04  0.7818609E-02  0.8954614E-01
       -2   -1    0    0    0  501  0.00000000000E+00  0.00000000000E+00  0.36228042053E+03  0.36228042054E+03  0.25500000920E-02 0.  1.
        2   -1    0    0  501    0  0.00000000000E+00  0.00000000000E+00 -0.13504215100E+04  0.13504215100E+04  0.25500000920E-02 0. -1.
    10030    2    1    2    0    0  0.00000000000E+00  0.00000000000E+00 -0.98814108951E+03  0.17127019306E+04  0.13989013869E+04 0.  0.
        3    1    3    3  502    0  0.31324758011E+03 -0.33489500540E+03 -0.11407065092E+04  0.12294267206E+04  0.10100000352E+00 0. -1.
       -3    1    3    3    0  502 -0.31324758011E+03  0.33489500540E+03  0.15256541966E+03  0.48327520996E+03  0.10100000352E+00 0.  1.
</event>
<event>
 5   0  0.2143942E-04  0.1369075E+04  0.7818609E-02  0.8976513E-01
       -1   -1    0    0    0  501  0.00000000000E+00  0.00000000000E+00  0.49938846814E+03  0.49938846817E+03  0.50400001928E-02 0. -1.
        1   -1    0    0  501    0  0.00000000000E+00  0.00000000000E+00 -0.93833054192E+03  0.93833054193E+03  0.50400001928E-02 0.  1.
    10030    2    1    2    0    0  0.00000000000E+00  0.00000000000E+00 -0.43894207378E+03  0.14377190101E+04  0.13690748000E+04 0.  0.
        4    1    3    3  502    0  0.44184168553E+03 -0.46727154773E+03  0.26860051967E+02  0.64365351680E+03  0.12699999809E+01 0. -1.
       -4    1    3    3    0  502 -0.44184168553E+03  0.46727154773E+03 -0.46580212575E+03  0.79406549330E+03  0.12699999809E+01 0.  1.
</event>
<event>
 5   0  0.2223112E-04  0.1398398E+04  0.7818609E-02  0.8954979E-01
       -1   -1    0    0    0  501  0.00000000000E+00  0.00000000000E+00  0.67200306065E+03  0.67200306067E+03  0.50400001928E-02 0.  1.
        1   -1    0    0  501    0  0.00000000000E+00  0.00000000000E+00 -0.72749543860E+03  0.72749543862E+03  0.50400001928E-02 0. -1.
    10030    2    1    2    0    0  0.00000000000E+00  0.00000000000E+00 -0.55492377951E+02  0.13994984993E+04  0.13983978853E+04 0.  0.
        1    1    3    3  502    0  0.29029891309E+03  0.25376781325E+03  0.55598605556E+03  0.67660332248E+03  0.50400001928E-02 0.  1.
       -1    1    3    3    0  502 -0.29029891309E+03 -0.25376781325E+03 -0.61147843351E+03  0.72289517681E+03  0.50400001928E-02 0. -1.
</event>
<event>
 5   0  0.3975164E-04  0.1399557E+04  0.7818609E-02  0.8954139E-01
       -2   -1    0    0    0  501  0.00000000000E+00  0.00000000000E+00  0.71030282941E+03  0.71030282942E+03  0.25500000920E-02 0.  1.
        2   -1    0    0  501    0  0.00000000000E+00  0.00000000000E+00 -0.68941034727E+03  0.68941034727E+03  0.25500000920E-02 0. -1.
    10030    2    1    2    0    0  0.00000000000E+00  0.00000000000E+00  0.20892482144E+02  0.13997131767E+04  0.13995572447E+04 0.  0.
        5    1    3    3  502    0  0.18733746860E+03  0.38452042713E+03  0.56432808219E+03  0.70812397246E+03  0.46999998093E+01 0.  1.
       -5    1    3    3    0  502 -0.18733746860E+03 -0.38452042713E+03 -0.54343560005E+03  0.69158920424E+03  0.46999998093E+01 0. -1.
</event>
<event>
 5   0  0.2143942E-04  0.1399339E+04  0.7818609E-02  0.8954298E-01
        1   -1    0    0  501    0  0.00000000000E+00  0.00000000000E+00  0.14707278950E+04  0.14707278950E+04  0.50400001928E-02 0.  1.
       -1   -1    0    0    0  501  0.00000000000E+00  0.00000000000E+00 -0.33285359766E+03  0.33285359770E+03  0.50400001928E-02 0. -1.
    10030    2    1    2    0    0  0.00000000000E+00  0.00000000000E+00  0.11378742974E+04  0.18035814927E+04  0.13993385167E+04 0.  0.
        4    1    3    3  502    0 -0.21230198091E+02 -0.61487225876E+02  0.14668205505E+04  0.14682627628E+04  0.12699999809E+01 0.  1.
       -4    1    3    3    0  502  0.21230198091E+02  0.61487225876E+02 -0.32894625318E+03  0.33531872993E+03  0.12699999809E+01 0. -1.
</event>
<event>
 5   0  0.2223112E-04  0.1393726E+04  0.7818609E-02  0.8958373E-01
       -1   -1    0    0    0  501  0.00000000000E+00  0.00000000000E+00  0.41597108997E+03  0.41597109001E+03  0.50400001928E-02 0.  1.
        1   -1    0    0  501    0  0.00000000000E+00  0.00000000000E+00 -0.11674321600E+04  0.11674321600E+04  0.50400001928E-02 0. -1.
    10030    2    1    2    0    0  0.00000000000E+00  0.00000000000E+00 -0.75146107006E+03  0.15834032501E+04  0.13937259818E+04 0.  0.
        1    1    3    3  502    0 -0.56920082628E+03  0.30500677095E+03 -0.78170889924E+02  0.65048397291E+03  0.50400001928E-02 0.  1.
       -1    1    3    3    0  502  0.56920082628E+03 -0.30500677095E+03 -0.67329018014E+03  0.93291927714E+03  0.50400001928E-02 0. -1.
</event>
<event>
 5   0  0.4208622E-04  0.1397591E+04  0.7818609E-02  0.8955564E-01
       -2   -1    0    0    0  501  0.00000000000E+00  0.00000000000E+00  0.21085517724E+03  0.21085517726E+03  0.25500000920E-02 0. -1.
        2   -1    0    0  501    0  0.00000000000E+00  0.00000000000E+00 -0.23158786478E+04  0.23158786478E+04  0.25500000920E-02 0.  1.
    10030    2    1    2    0    0  0.00000000000E+00  0.00000000000E+00 -0.21050234705E+04  0.25267338250E+04  0.13975907881E+04 0.  0.
        4    1    3    3  502    0 -0.43318233763E+03  0.18213628673E+02 -0.20433031451E+04  0.20887958324E+04  0.12699999809E+01 0.  1.
       -4    1    3    3    0  502  0.43318233763E+03 -0.18213628673E+02 -0.61720325446E+02  0.43793799262E+03  0.12699999809E+01 0. -1.
</event>
<event>
 5   0  0.2215876E-04  0.1399933E+04  0.7818609E-02  0.8953867E-01
        1   -1    0    0  501    0  0.00000000000E+00  0.00000000000E+00  0.46595519409E+03  0.46595519412E+03  0.50400001928E-02 0. -1.
       -1   -1    0    0    0  501  0.00000000000E+00  0.00000000000E+00 -0.10515025856E+04  0.10515025856E+04  0.50400001928E-02 0.  1.
    10030    2    1    2    0    0  0.00000000000E+00  0.00000000000E+00 -0.58554739151E+03  0.15174577797E+04  0.13999329861E+04 0.  0.
        3    1    3    3  502    0 -0.12961338278E+03 -0.44761448061E+03  0.27337088820E+03  0.54026845639E+03  0.10100000352E+00 0. -1.
       -3    1    3    3    0  502  0.12961338278E+03  0.44761448061E+03 -0.85891827971E+03  0.97718932335E+03  0.10100000352E+00 0.  1.
</event>
<event>
 5   0  0.2223112E-04  0.1394078E+04  0.7818609E-02  0.8958116E-01
       -1   -1    0    0    0  501  0.00000000000E+00  0.00000000000E+00  0.82659713817E+03  0.82659713818E+03  0.50400001928E-02 0. -1.
        1   -1    0    0  501    0  0.00000000000E+00  0.00000000000E+00 -0.58778733322E+03  0.58778733325E+03  0.50400001928E-02 0.  1.
    10030    2    1    2    0    0  0.00000000000E+00  0.00000000000E+00  0.23880980494E+03  0.14143844714E+04  0.13940779426E+04 0.  0.
        1    1    3    3  502    0  0.41487123132E+03  0.51521474546E+03 -0.10356656438E+03  0.66954492441E+03  0.50400001928E-02 0. -1.
       -1    1    3    3    0  502 -0.41487123132E+03 -0.51521474546E+03  0.34237636932E+03  0.74483954702E+03  0.50400001928E-02 0.  1.
</event>
<event>
 5   0  0.2223112E-04  0.1398540E+04  0.7818609E-02  0.8954876E-01
        1   -1    0    0  501    0  0.00000000000E+00  0.00000000000E+00  0.11323348775E+04  0.11323348775E+04  0.50400001928E-02 0. -1.
       -1   -1    0    0    0  501  0.00000000000E+00  0.00000000000E+00 -0.43183209428E+03  0.43183209431E+03  0.50400001928E-02 0.  1.
    10030    2    1    2    0    0  0.00000000000E+00  0.00000000000E+00  0.70050278325E+03  0.15641669719E+04  0.13985400125E+04 0.  0.
        1    1    3    3  502    0  0.96670359101E+02 -0.90860543180E+02  0.11181303240E+04  0.11259734536E+04  0.50400001928E-02 0. -1.
       -1    1    3    3    0  502 -0.96670359101E+02  0.90860543180E+02 -0.41762754077E+03  0.43819351829E+03  0.50400001928E-02 0.  1.
</event>
<event>
 5   0  0.2217251E-04  0.1397651E+04  0.7818609E-02  0.8955521E-01
        1   -1    0    0  501    0  0.00000000000E+00  0.00000000000E+00  0.83733081041E+03  0.83733081042E+03  0.50400001928E-02 0. -1.
       -1   -1    0    0    0  501  0.00000000000E+00  0.00000000000E+00 -0.58323036055E+03  0.58323036057E+03  0.50400001928E-02 0.  1.
    10030    2    1    2    0    0  0.00000000000E+00  0.00000000000E+00  0.25410044986E+03  0.14205611710E+04  0.13976505292E+04 0.  0.
        5    1    3    3  502    0 -0.53612663097E+03 -0.33999967282E+03 -0.16980438707E+03  0.65718122449E+03  0.46999998093E+01 0.  1.
       -5    1    3    3    0  502  0.53612663097E+03  0.33999967282E+03  0.42390483693E+03  0.76337994651E+03  0.46999998093E+01 0. -1.
</event>
<event>
 5   0  0.2217251E-04  0.1409981E+04  0.7818609E-02  0.8946625E-01
        1   -1    0    0  501    0  0.00000000000E+00  0.00000000000E+00  0.83140682294E+03  0.83140682295E+03  0.50400001928E-02 0.  1.
       -1   -1    0    0    0  501  0.00000000000E+00  0.00000000000E+00 -0.59779573656E+03  0.59779573658E+03  0.50400001928E-02 0. -1.
    10030    2    1    2    0    0  0.00000000000E+00  0.00000000000E+00  0.23361108637E+03  0.14292025595E+04  0.14099807859E+04 0.  0.
        5    1    3    3  502    0  0.35311942797E+03  0.43839981179E+03  0.54697485341E+03  0.78491483974E+03  0.46999998093E+01 0.  1.
       -5    1    3    3    0  502 -0.35311942797E+03 -0.43839981179E+03 -0.31336376703E+03  0.64428771979E+03  0.46999998093E+01 0. -1.
</event>
<event>
 5   0  0.2155352E-04  0.1376353E+04  0.7818609E-02  0.8971116E-01
        1   -1    0    0  501    0  0.00000000000E+00  0.00000000000E+00  0.85132204044E+03  0.85132204046E+03  0.50400001928E-02 0. -1.
       -1   -1    0    0    0  501  0.00000000000E+00  0.00000000000E+00 -0.55629552590E+03  0.55629552592E+03  0.50400001928E-02 0.  1.
    10030    2    1    2    0    0  0.00000000000E+00  0.00000000000E+00  0.29502651454E+03  0.14076175664E+04  0.13763526325E+04 0.  0.
        2    1    3    3  502    0 -0.63338249168E+03  0.18996250384E+03  0.34244060212E+03  0.74466415223E+03  0.25500000920E-02 0. -1.
       -2    1    3    3    0  502  0.63338249168E+03 -0.18996250384E+03 -0.47414087579E+02  0.66295341415E+03  0.25500000920E-02 0.  1.
</event>
<event>
 5   0  0.2155352E-04  0.1389979E+04  0.7818609E-02  0.8961104E-01
        1   -1    0    0  501    0  0.00000000000E+00  0.00000000000E+00  0.56184646337E+03  0.56184646339E+03  0.50400001928E-02 0. -1.
       -1   -1    0    0    0  501  0.00000000000E+00  0.00000000000E+00 -0.85968404129E+03  0.85968404130E+03  0.50400001928E-02 0.  1.
    10030    2    1    2    0    0  0.00000000000E+00  0.00000000000E+00 -0.29783757792E+03  0.14215305047E+04  0.13899790477E+04 0.  0.
        2    1    3    3  502    0 -0.29727521029E+03  0.39055230726E+03  0.35429369674E+03  0.60533270101E+03  0.25500000920E-02 0. -1.
       -2    1    3    3    0  502  0.29727521029E+03 -0.39055230726E+03 -0.65213127465E+03  0.81619780369E+03  0.25500000920E-02 0.  1.
</event>
<event>
 5   0  0.2155352E-04  0.1398095E+04  0.7818609E-02  0.8955199E-01
       -1   -1    0    0    0  501  0.00000000000E+00  0.00000000000E+00  0.43164918535E+03  0.43164918538E+03  0.50400001928E-02 0.  1.
        1   -1    0    0  501    0  0.00000000000E+00  0.00000000000E+00 -0.11320937200E+04  0.11320937200E+04  0.50400001928E-02 0. -1.
    10030    2    1    2    0    0  0.00000000000E+00  0.00000000000E+00 -0.70044453468E+03  0.15637429054E+04  0.13980948924E+04 0.  0.
        2    1    3    3  502    0 -0.40670686042E+03  0.13830386130E+03 -0.96704099536E+03  0.10581619512E+04  0.25500000920E-02 0. -1.
       -2    1    3    3    0  502  0.40670686042E+03 -0.13830386130E+03  0.26659646068E+03  0.50558095417E+03  0.25500000920E-02 0.  1.
</event>
<event>
 5   0  0.3975164E-04  0.1397570E+04  0.7818609E-02  0.8955579E-01
       -2   -1    0    0    0  501  0.00000000000E+00  0.00000000000E+00  0.37283081297E+03  0.37283081298E+03  0.25500000920E-02 0. -1.
        2   -1    0    0  501    0  0.00000000000E+00  0.00000000000E+00 -0.13097114429E+04  0.13097114430E+04  0.25500000920E-02 0.  1.
    10030    2    1    2    0    0  0.00000000000E+00  0.00000000000E+00 -0.93688062997E+03  0.16825422559E+04  0.13975704376E+04 0.  0.
        5    1    3    3  502    0 -0.37621378798E+03  0.24518683704E+03 -0.11129798035E+04  0.12001664603E+04  0.46999998093E+01 0.  1.
       -5    1    3    3    0  502  0.37621378798E+03 -0.24518683704E+03  0.17609917354E+03  0.48237579566E+03  0.46999998093E+01 0. -1.
</event>
<event>
 5   0  0.2223112E-04  0.1407637E+04  0.7818609E-02  0.8948309E-01
        1   -1    0    0  501    0  0.00000000000E+00  0.00000000000E+00  0.57051702677E+03  0.57051702679E+03  0.50400001928E-02 0.  1.
       -1   -1    0    0    0  501  0.00000000000E+00  0.00000000000E+00 -0.86826644919E+03  0.86826644921E+03  0.50400001928E-02 0. -1.
    10030    2    1    2    0    0  0.00000000000E+00  0.00000000000E+00 -0.29774942242E+03  0.14387834760E+04  0.14076374435E+04 0.  0.
        1    1    3    3  502    0  0.93413254259E+02 -0.64501434933E+03  0.12269420245E+03  0.66319183820E+03  0.50400001928E-02 0.  1.
       -1    1    3    3    0  502 -0.93413254259E+02  0.64501434933E+03 -0.42044362487E+03  0.77559163780E+03  0.50400001928E-02 0. -1.
</event>
<event>
 5   0  0.1497625E-04  0.1403907E+04  0.7818609E-02  0.8950996E-01
       -3   -1    0    0    0  501  0.00000000000E+00  0.00000000000E+00  0.40818380660E+03  0.40818381909E+03  0.10100000352E+00 0. -1.
        3   -1    0    0  501    0  0.00000000000E+00  0.00000000000E+00 -0.12071486153E+04  0.12071486196E+04  0.10100000352E+00 0.  1.
    10030    2    1    2    0    0  0.00000000000E+00  0.00000000000E+00 -0.79896480874E+03  0.16153324387E+04  0.14039067354E+04 0.  0.
        1    1    3    3  502    0  0.94373656832E+02  0.14398737939E+03  0.38351611941E+03  0.42038478374E+03  0.50400001928E-02 0. -1.
       -1    1    3    3    0  502 -0.94373656832E+02 -0.14398737939E+03 -0.11824809281E+04  0.11949476549E+04  0.50400001928E-02 0.  1.
</event>
<event>
 5   0  0.3975164E-04  0.1418906E+04  0.7818609E-02  0.8940246E-01
        2   -1    0    0  501    0  0.00000000000E+00  0.00000000000E+00  0.11198402220E+04  0.11198402220E+04  0.25500000920E-02 0. -1.
       -2   -1    0    0    0  501  0.00000000000E+00  0.00000000000E+00 -0.44945990804E+03  0.44945990805E+03  0.25500000920E-02 0.  1.
    10030    2    1    2    0    0  0.00000000000E+00  0.00000000000E+00  0.67038031395E+03  0.15693001300E+04  0.14189056110E+04 0.  0.
        5    1    3    3  502    0 -0.44133509171E+03 -0.36365360981E+03 -0.12916977896E+03  0.58628280966E+03  0.46999998093E+01 0.  1.
       -5    1    3    3    0  502  0.44133509171E+03  0.36365360981E+03  0.79955009291E+03  0.98301732039E+03  0.46999998093E+01 0. -1.
</event>
<event>
 5   0  0.2143942E-04  0.1410581E+04  0.7818609E-02  0.8946195E-01
       -1   -1    0    0    0  501  0.00000000000E+00  0.00000000000E+00  0.31852770034E+03  0.31852770037E+03  0.50400001928E-02 0.  1.
        1   -1    0    0  501    0  0.00000000000E+00  0.00000000000E+00 -0.15616694850E+04  0.15616694850E+04  0.50400001928E-02 0. -1.
    10030    2    1    2    0    0  0.00000000000E+00  0.00000000000E+00 -0.12431417847E+04  0.18801971854E+04  0.14105814259E+04 0.  0.
        4    1    3    3  502    0  0.11530757954E+03 -0.53976674766E+03 -0.36313632090E+02  0.55314037329E+03  0.12699999809E+01 0.  1.
       -4    1    3    3    0  502 -0.11530757954E+03  0.53976674766E+03 -0.12068281526E+04  0.13270568121E+04  0.12699999809E+01 0. -1.
</event>
<event>
 5   0  0.4208622E-04  0.1407776E+04  0.7818609E-02  0.8948209E-01
       -2   -1    0    0    0  501  0.00000000000E+00  0.00000000000E+00  0.36681572440E+03  0.36681572441E+03  0.25500000920E-02 0. -1.
        2   -1    0    0  501    0  0.00000000000E+00  0.00000000000E+00 -0.13507002377E+04  0.13507002377E+04  0.25500000920E-02 0.  1.
    10030    2    1    2    0    0  0.00000000000E+00  0.00000000000E+00 -0.98388451328E+03  0.17175159621E+04  0.14077756727E+04 0.  0.
        4    1    3    3  502    0 -0.11686895539E+03  0.21298434896E+02  0.35449609262E+03  0.37387306488E+03  0.12699999809E+01 0. -1.
       -4    1    3    3    0  502  0.11686895539E+03 -0.21298434896E+02 -0.13383806059E+04  0.13436428972E+04  0.12699999809E+01 0.  1.
</event>
<event>
 5   0  0.4310348E-04  0.1400780E+04  0.7818609E-02  0.8953254E-01
       -2   -1    0    0    0  501  0.00000000000E+00  0.00000000000E+00  0.64021862559E+03  0.64021862560E+03  0.25500000920E-02 0.  1.
        2   -1    0    0  501    0  0.00000000000E+00  0.00000000000E+00 -0.76621674424E+03  0.76621674425E+03  0.25500000920E-02 0. -1.
    10030    2    1    2    0    0  0.00000000000E+00  0.00000000000E+00 -0.12599811865E+03  0.14064353698E+04  0.14007801125E+04 0.  0.
        1    1    3    3  502    0 -0.66068578063E+03 -0.18904704525E+03  0.72831053234E+02  0.69104909260E+03  0.50400001928E-02 0. -1.
       -1    1    3    3    0  502  0.66068578063E+03  0.18904704525E+03 -0.19882917188E+03  0.71538627724E+03  0.50400001928E-02 0.  1.
</event>
<event>
 5   0  0.2215876E-04  0.1408413E+04  0.7818609E-02  0.8947751E-01
       -1   -1    0    0    0  501  0.00000000000E+00  0.00000000000E+00  0.76144292257E+03  0.76144292259E+03  0.50400001928E-02 0. -1.
        1   -1    0    0  501    0  0.00000000000E+00  0.00000000000E+00 -0.65127283961E+03  0.65127283963E+03  0.50400001928E-02 0.  1.
    10030    2    1    2    0    0  0.00000000000E+00  0.00000000000E+00  0.11017008297E+03  0.14127157622E+04  0.14084134257E+04 0.  0.
        3    1    3    3  502    0 -0.54135666009E+03 -0.19908165990E+03  0.46030741682E+03  0.73795898864E+03  0.10100000352E+00 0. -1.
       -3    1    3    3    0  502  0.54135666009E+03  0.19908165990E+03 -0.35013733385E+03  0.67475677358E+03  0.10100000352E+00 0.  1.
</event>
<event>
 5   0  0.3917598E-04  0.1398509E+04  0.7818609E-02  0.8954899E-01
       -2   -1    0    0    0  501  0.00000000000E+00  0.00000000000E+00  0.61442423183E+03  0.61442423184E+03  0.25500000920E-02 0. -1.
        2   -1    0    0  501    0  0.00000000000E+00  0.00000000000E+00 -0.79579651270E+03  0.79579651270E+03  0.25500000920E-02 0.  1.
    10030    2    1    2    0    0  0.00000000000E+00  0.00000000000E+00 -0.18137228087E+03  0.14102207445E+04  0.13985087215E+04 0.  0.
        3    1    3    3  502    0 -0.62138998485E+02 -0.47596180956E+03 -0.60342829187E+03  0.77105551870E+03  0.10100000352E+00 0.  1.
       -3    1    3    3    0  502  0.62138998485E+02  0.47596180956E+03  0.42205601100E+03  0.63916522583E+03  0.10100000352E+00 0. -1.
</event>
<event>
 5   0  0.2143942E-04  0.1399909E+04  0.7818609E-02  0.8953885E-01
        1   -1    0    0  501    0  0.00000000000E+00  0.00000000000E+00  0.11258872353E+04  0.11258872353E+04  0.50400001928E-02 0.  1.
       -1   -1    0    0    0  501  0.00000000000E+00  0.00000000000E+00 -0.43515552355E+03  0.43515552358E+03  0.50400001928E-02 0. -1.
    10030    2    1    2    0    0  0.00000000000E+00  0.00000000000E+00  0.69073171172E+03  0.15610427589E+04  0.13999086389E+04 0.  0.
        4    1    3    3  502    0  0.55088665747E+03  0.89397871171E+02  0.81644434494E+03  0.98896464549E+03  0.12699999809E+01 0.  1.
       -4    1    3    3    0  502 -0.55088665747E+03 -0.89397871171E+02 -0.12571263322E+03  0.57207811337E+03  0.12699999809E+01 0. -1.
</event>
<event>
 5   0  0.3932568E-04  0.1399624E+04  0.7818609E-02  0.8954090E-01
        2   -1    0    0  501    0  0.00000000000E+00  0.00000000000E+00  0.23694405326E+04  0.23694405326E+04  0.25500000920E-02 0. -1.
       -2   -1    0    0    0  501  0.00000000000E+00  0.00000000000E+00 -0.20668894168E+03  0.20668894169E+03  0.25500000920E-02 0.  1.
    10030    2    1    2    0    0  0.00000000000E+00  0.00000000000E+00  0.21627515910E+04  0.25761294743E+04  0.13996244583E+04 0.  0.
        2    1    3    3  502    0  0.15558795662E+03  0.48140437055E+03  0.19713127903E+04  0.20351982452E+04  0.25500000920E-02 0. -1.
       -2    1    3    3    0  502 -0.15558795662E+03 -0.48140437055E+03  0.19143880071E+03  0.54093122914E+03  0.25500000920E-02 0.  1.
</event>
<event>
 5   0  0.2143942E-04  0.1403770E+04  0.7818609E-02  0.8951094E-01
       -1   -1    0    0    0  501  0.00000000000E+00  0.00000000000E+00  0.45547734858E+03  0.45547734861E+03  0.50400001928E-02 0. -1.
        1   -1    0    0  501    0  0.00000000000E+00  0.00000000000E+00 -0.10815965942E+04  0.10815965942E+04  0.50400001928E-02 0.  1.
    10030    2    1    2    0    0  0.00000000000E+00  0.00000000000E+00 -0.62611924560E+03  0.15370739428E+04  0.14037702789E+04 0.  0.
        4    1    3    3  502    0 -0.57300887124E+03  0.30773141081E+03 -0.60193716692E+03  0.88620976836E+03  0.12699999809E+01 0. -1.
       -4    1    3    3    0  502  0.57300887124E+03 -0.30773141081E+03 -0.24182078677E+02  0.65086417443E+03  0.12699999809E+01 0.  1.
</event>
<event>
 5   0  0.2143942E-04  0.1397031E+04  0.7818609E-02  0.8955970E-01
        1   -1    0    0  501    0  0.00000000000E+00  0.00000000000E+00  0.90983552642E+03  0.90983552644E+03  0.50400001928E-02 0.  1.
       -1   -1    0    0    0  501  0.00000000000E+00  0.00000000000E+00 -0.53627726127E+03  0.53627726129E+03  0.50400001928E-02 0. -1.
    10030    2    1    2    0    0  0.00000000000E+00  0.00000000000E+00  0.37355826516E+03  0.14461127877E+04  0.13970312872E+04 0.  0.
        4    1    3    3  502    0  0.61361024870E+03 -0.93789939254E+02  0.51835849709E+03  0.80870961069E+03  0.12699999809E+01 0.  1.
       -4    1    3    3    0  502 -0.61361024870E+03  0.93789939254E+02 -0.14480023194E+03  0.63740317703E+03  0.12699999809E+01 0. -1.
</event>
<event>
 5   0  0.2155352E-04  0.1412341E+04  0.7818609E-02  0.8944934E-01
        1   -1    0    0  501    0  0.00000000000E+00  0.00000000000E+00  0.34137053667E+03  0.34137053671E+03  0.50400001928E-02 0.  1.
       -1   -1    0    0    0  501  0.00000000000E+00  0.00000000000E+00 -0.14608080621E+04  0.14608080621E+04  0.50400001928E-02 0. -1.
    10030    2    1    2    0    0  0.00000000000E+00  0.00000000000E+00 -0.11194375254E+04  0.18021785988E+04  0.14123410809E+04 0.  0.
        2    1    3    3  502    0 -0.18768963768E+03 -0.64097666151E+03 -0.26707161014E+03  0.71930920031E+03  0.25500000920E-02 0.  1.
       -2    1    3    3    0  502  0.18768963768E+03  0.64097666151E+03 -0.85236591530E+03  0.10828693985E+04  0.25500000920E-02 0. -1.
</event>
<event>
 5   0  0.3932568E-04  0.1405895E+04  0.7818609E-02  0.8949563E-01
        2   -1    0    0  501    0  0.00000000000E+00  0.00000000000E+00  0.48242920632E+03  0.48242920632E+03  0.25500000920E-02 0. -1.
       -2   -1    0    0    0  501  0.00000000000E+00  0.00000000000E+00 -0.10242643523E+04  0.10242643523E+04  0.25500000920E-02 0.  1.
    10030    2    1    2    0    0  0.00000000000E+00  0.00000000000E+00 -0.54183514598E+03  0.15066935586E+04  0.14058947877E+04 0.  0.
        2    1    3    3  502    0  0.51523354301E+03  0.45941896494E+03 -0.12872612876E+03  0.70221208009E+03  0.25500000920E-02 0. -1.
       -2    1    3    3    0  502 -0.51523354301E+03 -0.45941896494E+03 -0.41310901722E+03  0.80448147853E+03  0.25500000920E-02 0.  1.
</event>
<event>
 5   0  0.4310348E-04  0.1450226E+04  0.7818609E-02  0.8918244E-01
       -2   -1    0    0    0  501  0.00000000000E+00  0.00000000000E+00  0.39653036917E+03  0.39653036918E+03  0.25500000920E-02 0.  1.
        2   -1    0    0  501    0  0.00000000000E+00  0.00000000000E+00 -0.13259745647E+04  0.13259745647E+04  0.25500000920E-02 0. -1.
    10030    2    1    2    0    0  0.00000000000E+00  0.00000000000E+00 -0.92944419551E+03  0.17225049339E+04  0.14502264425E+04 0.  0.
        1    1    3    3  502    0 -0.22130493648E+03  0.65158984153E+03 -0.73620520544E+03  0.10077416837E+04  0.50400001928E-02 0. -1.
       -1    1    3    3    0  502  0.22130493648E+03 -0.65158984153E+03 -0.19323899008E+03  0.71476325018E+03  0.50400001928E-02 0.  1.
</event>
<event>
 5   0  0.1497625E-04  0.1401703E+04  0.7818609E-02  0.8952587E-01
       -4   -1    0    0    0  501  0.00000000000E+00  0.00000000000E+00  0.10630963252E+04  0.10630970838E+04  0.12699999809E+01 0. -1.
        4   -1    0    0  501    0  0.00000000000E+00  0.00000000000E+00 -0.46203787646E+03  0.46203962187E+03  0.12699999809E+01 0.  1.
    10030    2    1    2    0    0  0.00000000000E+00  0.00000000000E+00  0.60105844875E+03  0.15251367057E+04  0.14017027902E+04 0.  0.
        3    1    3    3  502    0  0.73405288646E+02 -0.48238634050E+03  0.84793018740E+03  0.97829981642E+03  0.10100000352E+00 0. -1.
       -3    1    3    3    0  502 -0.73405288646E+02  0.48238634050E+03 -0.24687173865E+03  0.54683688925E+03  0.10100000352E+00 0.  1.
</event>
<event>
 5   0  0.4310348E-04  0.1403116E+04  0.7818609E-02  0.8951566E-01
       -2   -1    0    0    0  501  0.00000000000E+00  0.00000000000E+00  0.40361660032E+03  0.40361660033E+03  0.25500000920E-02 0.  1.
        2   -1    0    0  501    0  0.00000000000E+00  0.00000000000E+00 -0.12194333032E+04  0.12194333032E+04  0.25500000920E-02 0. -1.
    10030    2    1    2    0    0  0.00000000000E+00  0.00000000000E+00 -0.81581670287E+03  0.16230499035E+04  0.14031158529E+04 0.  0.
        1    1    3    3  502    0 -0.44037218197E+03 -0.54564193459E+03 -0.43455736721E+03  0.82491992633E+03  0.50400001928E-02 0. -1.
       -1    1    3    3    0  502  0.44037218197E+03  0.54564193459E+03 -0.38125933566E+03  0.79812997719E+03  0.50400001928E-02 0.  1.
</event>
<event>
 5   0  0.2223112E-04  0.1405654E+04  0.7818609E-02  0.8949736E-01
        1   -1    0    0  501    0  0.00000000000E+00  0.00000000000E+00  0.62472301486E+03  0.62472301488E+03  0.50400001928E-02 0. -1.
       -1   -1    0    0    0  501  0.00000000000E+00  0.00000000000E+00 -0.79069533596E+03  0.79069533598E+03  0.50400001928E-02 0.  1.
    10030    2    1    2    0    0  0.00000000000E+00  0.00000000000E+00 -0.16597232110E+03  0.14154183509E+04  0.14056536901E+04 0.  0.
        1    1    3    3  502    0 -0.29249306245E+03  0.14339161697E+03  0.54411792392E+03  0.63417478865E+03  0.50400001928E-02 0. -1.
       -1    1    3    3    0  502  0.29249306245E+03 -0.14339161697E+03 -0.71009024502E+03  0.78124356221E+03  0.50400001928E-02 0.  1.
</event>
<event>
 5   0  0.3975164E-04  0.1399332E+04  0.7818609E-02  0.8954302E-01
        2   -1    0    0  501    0  0.00000000000E+00  0.00000000000E+00  0.17046120379E+04  0.17046120379E+04  0.25500000920E-02 0.  1.
       -2   -1    0    0    0  501  0.00000000000E+00  0.00000000000E+00 -0.28718136615E+03  0.28718136616E+03  0.25500000920E-02 0. -1.
    10030    2    1    2    0    0  0.00000000000E+00  0.00000000000E+00  0.14174306718E+04  0.19917934041E+04  0.13993324320E+04 0.  0.
        5    1    3    3  502    0 -0.47679285166E+03  0.35949166265E+03  0.18972476498E+03  0.62656464579E+03  0.46999998093E+01 0. -1.
       -5    1    3    3    0  502  0.47679285166E+03 -0.35949166265E+03  0.12277059068E+04  0.13652287583E+04  0.46999998093E+01 0.  1.
</event>
<event>
 5   0  0.1497625E-04  0.1383562E+04  0.7818609E-02  0.8965804E-01
       -3   -1    0    0    0  501  0.00000000000E+00  0.00000000000E+00  0.26165573898E+04  0.26165573918E+04  0.10100000352E+00 0.  1.
        3   -1    0    0  501    0  0.00000000000E+00  0.00000000000E+00 -0.18289713300E+03  0.18289716089E+03  0.10100000352E+00 0. -1.
    10030    2    1    2    0    0  0.00000000000E+00  0.00000000000E+00  0.24336602568E+04  0.27994545526E+04  0.13835619056E+04 0.  0.
        5    1    3    3  502    0 -0.38444704172E+03 -0.75555975331E+02  0.23703814627E+04  0.24025483558E+04  0.46999998093E+01 0.  1.
       -5    1    3    3    0  502  0.38444704172E+03  0.75555975331E+02  0.63278794100E+02  0.39690619682E+03  0.46999998093E+01 0. -1.
</event>
<event>
 5   0  0.4208622E-04  0.1400634E+04  0.7818609E-02  0.8953360E-01
        2   -1    0    0  501    0  0.00000000000E+00  0.00000000000E+00  0.49913723581E+03  0.49913723582E+03  0.25500000920E-02 0. -1.
       -2   -1    0    0    0  501  0.00000000000E+00  0.00000000000E+00 -0.98258329806E+03  0.98258329806E+03  0.25500000920E-02 0.  1.
    10030    2    1    2    0    0  0.00000000000E+00  0.00000000000E+00 -0.48344606224E+03  0.14817205339E+04  0.14006340155E+04 0.  0.
        4    1    3    3  502    0  0.51103138155E+02  0.53356680170E+03 -0.71852319872E+03  0.89642749992E+03  0.12699999809E+01 0.  1.
       -4    1    3    3    0  502 -0.51103138155E+02 -0.53356680170E+03  0.23507713648E+03  0.58529303396E+03  0.12699999809E+01 0. -1.
</event>
<event>
 5   0  0.4208622E-04  0.1371165E+04  0.7818609E-02  0.8974959E-01
       -2   -1    0    0    0  501  0.00000000000E+00  0.00000000000E+00  0.50012284041E+03  0.50012284042E+03  0.25500000920E-02 0. -1.
        2   -1    0    0  501    0  0.00000000000E+00  0.00000000000E+00 -0.93981566628E+03  0.93981566628E+03  0.25500000920E-02 0.  1.
    10030    2    1    2    0    0  0.00000000000E+00  0.00000000000E+00 -0.43969282587E+03  0.14399385067E+04  0.13711648777E+04 0.  0.
        4    1    3    3  502    0  0.50093665005E+03 -0.35762710522E+03  0.97271456278E+02  0.62313563761E+03  0.12699999809E+01 0. -1.
       -4    1    3    3    0  502 -0.50093665005E+03  0.35762710522E+03 -0.53696428214E+03  0.81680286909E+03  0.12699999809E+01 0.  1.
</event>
<event>
 5   0  0.2155352E-04  0.1396713E+04  0.7818609E-02  0.8956201E-01
       -1   -1    0    0    0  501  0.00000000000E+00  0.00000000000E+00  0.79135308992E+03  0.79135308994E+03  0.50400001928E-02 0.  1.
        1   -1    0    0  501    0  0.00000000000E+00  0.00000000000E+00 -0.61628870002E+03  0.61628870004E+03  0.50400001928E-02 0. -1.
    10030    2    1    2    0    0  0.00000000000E+00  0.00000000000E+00  0.17506438991E+03  0.14076417900E+04  0.13967132377E+04 0.  0.
        2    1    3    3  502    0 -0.11200332530E+02 -0.67322668319E+03 -0.99234710983E+02  0.68059322821E+03  0.25500000920E-02 0. -1.
       -2    1    3    3    0  502  0.11200332530E+02  0.67322668319E+03  0.27429910089E+03  0.72704856177E+03  0.25500000920E-02 0.  1.
</event>
<event>
 5   0  0.2215876E-04  0.1398156E+04  0.7818609E-02  0.8955154E-01
       -1   -1    0    0    0  501  0.00000000000E+00  0.00000000000E+00  0.46937056999E+03  0.46937057002E+03  0.50400001928E-02 0. -1.
        1   -1    0    0  501    0  0.00000000000E+00  0.00000000000E+00 -0.10412028942E+04  0.10412028942E+04  0.50400001928E-02 0.  1.
    10030    2    1    2    0    0  0.00000000000E+00  0.00000000000E+00 -0.57183232419E+03  0.15105734642E+04  0.13981559226E+04 0.  0.
        3    1    3    3  502    0 -0.50633980760E+03  0.39348331345E+03 -0.58668963132E+03  0.86914547253E+03  0.10100000352E+00 0.  1.
       -3    1    3    3    0  502  0.50633980760E+03 -0.39348331345E+03  0.14857307127E+02  0.64142799168E+03  0.10100000352E+00 0. -1.
</event>
<event>
 5   0  0.2217251E-04  0.1397053E+04  0.7818609E-02  0.8955954E-01
       -1   -1    0    0    0  501  0.00000000000E+00  0.00000000000E+00  0.23403701011E+03  0.23403701016E+03  0.50400001928E-02 0.  1.
        1   -1    0    0  501    0  0.00000000000E+00  0.00000000000E+00 -0.20848808838E+04  0.20848808838E+04  0.50400001928E-02 0. -1.
    10030    2    1    2    0    0  0.00000000000E+00  0.00000000000E+00 -0.18508438737E+04  0.23189178940E+04  0.13970530248E+04 0.  0.
        5    1    3    3  502    0  0.69506060925E+02  0.37464937250E+03 -0.18971499247E+04  0.19350434547E+04  0.46999998093E+01 0. -1.
       -5    1    3    3    0  502 -0.69506060925E+02 -0.37464937250E+03  0.46306050939E+02  0.38387443933E+03  0.46999998093E+01 0.  1.
</event>
<event>
 5   0  0.4208622E-04  0.1404608E+04  0.7818609E-02  0.8950490E-01
       -2   -1    0    0    0  501  0.00000000000E+00  0.00000000000E+00  0.65788734709E+03  0.65788734709E+03  0.25500000920E-02 0.  1.
        2   -1    0    0  501    0  0.00000000000E+00  0.00000000000E+00 -0.74971939549E+03  0.74971939550E+03  0.25500000920E-02 0. -1.
    10030    2    1    2    0    0  0.00000000000E+00  0.00000000000E+00 -0.91832048406E+02  0.14076067426E+04  0.14046079940E+04 0.  0.
        4    1    3    3  502    0  0.29282865692E+03  0.55286103738E+03  0.27386606983E+03  0.68294083643E+03  0.12699999809E+01 0.  1.
       -4    1    3    3    0  502 -0.29282865692E+03 -0.55286103738E+03 -0.36569811824E+03  0.72466590616E+03  0.12699999809E+01 0. -1.
</event>
<event>
 5   0  0.3975164E-04  0.1386946E+04  0.7818609E-02  0.8963322E-01
       -2   -1    0    0    0  501  0.00000000000E+00  0.00000000000E+00  0.32448170998E+03  0.32448170999E+03  0.25500000920E-02 0.  1.
        2   -1    0    0  501    0  0.00000000000E+00  0.00000000000E+00 -0.14820707683E+04  0.14820707683E+04  0.25500000920E-02 0. -1.
    10030    2    1    2    0    0  0.00000000000E+00  0.00000000000E+00 -0.11575890584E+04  0.18065524783E+04  0.13869460800E+04 0.  0.
        5    1    3    3  502    0 -0.32886268716E+03  0.61051581187E+03 -0.57671711837E+03  0.90194509155E+03  0.46999998093E+01 0. -1.
       -5    1    3    3    0  502  0.32886268716E+03 -0.61051581187E+03 -0.58087193999E+03  0.90460738678E+03  0.46999998093E+01 0.  1.
</event>
<event>
 5   0  0.4310348E-04  0.1414492E+04  0.7818609E-02  0.8943395E-01
        2   -1    0    0  501    0  0.00000000000E+00  0.00000000000E+00  0.71893827665E+03  0.71893827665E+03  0.25500000920E-02 0.  1.
       -2   -1    0    0    0  501  0.00000000000E+00  0.00000000000E+00 -0.69574351583E+03  0.69574351583E+03  0.25500000920E-02 0. -1.
    10030    2    1    2    0    0  0.00000000000E+00  0.00000000000E+00  0.23194760821E+02  0.14146817925E+04  0.14144916320E+04 0.  0.
        1    1    3    3  502    0 -0.14933769803E+03  0.44629901343E+02 -0.67835264311E+03  0.69602865213E+03  0.50400001928E-02 0. -1.
       -1    1    3    3    0  502  0.14933769803E+03 -0.44629901343E+02  0.70154740393E+03  0.71865314035E+03  0.50400001928E-02 0.  1.
</event>
<event>
 5   0  0.4310348E-04  0.1397634E+04  0.7818609E-02  0.8955533E-01
       -2   -1    0    0    0  501  0.00000000000E+00  0.00000000000E+00  0.30182745869E+03  0.30182745870E+03  0.25500000920E-02 0.  1.
        2   -1    0    0  501    0  0.00000000000E+00  0.00000000000E+00 -0.16179603223E+04  0.16179603223E+04  0.25500000920E-02 0. -1.
    10030    2    1    2    0    0  0.00000000000E+00  0.00000000000E+00 -0.13161328636E+04  0.19197877810E+04  0.13976335032E+04 0.  0.
        1    1    3    3  502    0 -0.68112342660E+03 -0.51240379751E+02 -0.86083006545E+03  0.10989008601E+04  0.50400001928E-02 0.  1.
       -1    1    3    3    0  502  0.68112342660E+03  0.51240379751E+02 -0.45530279812E+03  0.82088692083E+03  0.50400001928E-02 0. -1.
</event>
<event>
 5   0  0.1497625E-04  0.1399611E+04  0.7818609E-02  0.8954100E-01
       -3   -1    0    0    0  501  0.00000000000E+00  0.00000000000E+00  0.86274738339E+03  0.86274738930E+03  0.10100000352E+00 0.  1.
        3   -1    0    0  501    0  0.00000000000E+00  0.00000000000E+00 -0.56763732515E+03  0.56763733414E+03  0.10100000352E+00 0. -1.
    10030    2    1    2    0    0  0.00000000000E+00  0.00000000000E+00  0.29511005824E+03  0.14303847234E+04  0.13996108425E+04 0.  0.
        2    1    3    3  502    0 -0.60307841990E+03  0.89192387577E+02 -0.20361146788E+03  0.64274138844E+03  0.25500000920E-02 0. -1.
       -2    1    3    3    0  502  0.60307841990E+03 -0.89192387577E+02  0.49872152612E+03  0.78764333500E+03  0.25500000920E-02 0.  1.
</event>
<event>
 5   0  0.1497625E-04  0.1399497E+04  0.7818609E-02  0.8954183E-01
        3   -1    0    0  501    0  0.00000000000E+00  0.00000000000E+00  0.40426392039E+03  0.40426393301E+03  0.10100000352E+00 0.  1.
       -3   -1    0    0    0  501  0.00000000000E+00  0.00000000000E+00 -0.12112083595E+04  0.12112083637E+04  0.10100000352E+00 0. -1.
    10030    2    1    2    0    0  0.00000000000E+00  0.00000000000E+00 -0.80694443909E+03  0.16154722967E+04  0.13994968430E+04 0.  0.
        4    1    3    3  502    0 -0.34045521507E+03  0.16387355044E+02 -0.11089027566E+04  0.11601057001E+04  0.12699999809E+01 0. -1.
       -4    1    3    3    0  502  0.34045521507E+03 -0.16387355044E+02  0.30195831753E+03  0.45536659660E+03  0.12699999809E+01 0.  1.
</event>
<event>
 5   0  0.4208622E-04  0.1395708E+04  0.7818609E-02  0.8956932E-01
        2   -1    0    0  501    0  0.00000000000E+00  0.00000000000E+00  0.28486095345E+04  0.28486095345E+04  0.25500000920E-02 0.  1.
       -2   -1    0    0    0  501  0.00000000000E+00  0.00000000000E+00 -0.17096055269E+03  0.17096055271E+03  0.25500000920E-02 0. -1.
    10030    2    1    2    0    0  0.00000000000E+00  0.00000000000E+00  0.26776489818E+04  0.30195700872E+04  0.13957075058E+04 0.  0.
        4    1    3    3  502    0  0.16267755184E+03  0.16131046724E+03  0.27649317319E+04  0.27744069903E+04  0.12699999809E+01 0.  1.
       -4    1    3    3    0  502 -0.16267755184E+03 -0.16131046724E+03 -0.87282750115E+02  0.24516309691E+03  0.12699999809E+01 0. -1.
</event>
<event>
 5   0  0.2143942E-04  0.1401593E+04  0.7818609E-02  0.8952666E-01
       -1   -1    0    0    0  501  0.00000000000E+00  0.00000000000E+00  0.66244551015E+03  0.66244551017E+03  0.50400001928E-02 0. -1.
        1   -1    0    0  501    0  0.00000000000E+00  0.00000000000E+00 -0.74136772055E+03  0.74136772056E+03  0.50400001928E-02 0.  1.
    10030    2    1    2    0    0  0.00000000000E+00  0.00000000000E+00 -0.78922210398E+02  0.14038132307E+04  0.14015929764E+04 0.  0.
        4    1    3    3  502    0 -0.54913894039E+03 -0.28841597822E+03 -0.36613225637E+03  0.72027202806E+03  0.12699999809E+01 0.  1.
       -4    1    3    3    0  502  0.54913894039E+03  0.28841597822E+03  0.28721004597E+03  0.68354120267E+03  0.12699999809E+01 0. -1.
</event>
<event>
 5   0  0.4208622E-04  0.1352057E+04  0.7818609E-02  0.8989272E-01
        2   -1    0    0  501    0  0.00000000000E+00  0.00000000000E+00  0.12467929772E+04  0.12467929772E+04  0.25500000920E-02 0.  1.
       -2   -1    0    0    0  501  0.00000000000E+00  0.00000000000E+00 -0.36655223964E+03  0.36655223965E+03  0.25500000920E-02 0. -1.
    10030    2    1    2    0    0  0.00000000000E+00  0.00000000000E+00  0.88024073753E+03  0.16133452168E+04  0.13520573333E+04 0.  0.
        4    1    3    3  502    0  0.11960035558E+03 -0.50221728266E+03 -0.80671899736E+02  0.52252847996E+03  0.12699999809E+01 0. -1.
       -4    1    3    3    0  502 -0.11960035558E+03  0.50221728266E+03  0.96091263727E+03  0.10908167369E+04  0.12699999809E+01 0.  1.
</event>
<event>
 5   0  0.2215876E-04  0.1397919E+04  0.7818609E-02  0.8955326E-01
        1   -1    0    0  501    0  0.00000000000E+00  0.00000000000E+00  0.18305928142E+04  0.18305928142E+04  0.50400001928E-02 0.  1.
       -1   -1    0    0    0  501  0.00000000000E+00  0.00000000000E+00 -0.26687771943E+03  0.26687771947E+03  0.50400001928E-02 0. -1.
    10030    2    1    2    0    0  0.00000000000E+00  0.00000000000E+00  0.15637150948E+04  0.20974705337E+04  0.13979190756E+04 0.  0.
        3    1    3    3  502    0  0.28258960074E+03  0.59043407128E+03  0.11496148204E+04  0.13229072229E+04  0.10100000352E+00 0.  1.
       -3    1    3    3    0  502 -0.28258960074E+03 -0.59043407128E+03  0.41410027443E+03  0.77456331081E+03  0.10100000352E+00 0. -1.
</event>
<event>
 5   0  0.2143942E-04  0.1389724E+04  0.7818609E-02  0.8961291E-01
        1   -1    0    0  501    0  0.00000000000E+00  0.00000000000E+00  0.18964422624E+04  0.18964422624E+04  0.50400001928E-02 0. -1.
       -1   -1    0    0    0  501  0.00000000000E+00  0.00000000000E+00 -0.25459940828E+03  0.25459940833E+03  0.50400001928E-02 0.  1.
    10030    2    1    2    0    0  0.00000000000E+00  0.00000000000E+00  0.16418428542E+04  0.21510416708E+04  0.13897238257E+04 0.  0.
        4    1    3    3  502    0 -0.63196960087E+03  0.10477815373E+03  0.12375909561E+04  0.13935555336E+04  0.12699999809E+01 0. -1.
       -4    1    3    3    0  502  0.63196960087E+03 -0.10477815373E+03  0.40425189810E+03  0.75748613713E+03  0.12699999809E+01 0.  1.
</event>
<event>
 5   0  0.2155352E-04  0.1393237E+04  0.7818609E-02  0.8958729E-01
        1   -1    0    0  501    0  0.00000000000E+00  0.00000000000E+00  0.13241763622E+04  0.13241763622E+04  0.50400001928E-02 0. -1.
       -1   -1    0    0    0  501  0.00000000000E+00  0.00000000000E+00 -0.36647465800E+03  0.36647465803E+03  0.50400001928E-02 0.  1.
    10030    2    1    2    0    0  0.00000000000E+00  0.00000000000E+00  0.95770170417E+03  0.16906510202E+04  0.13932366339E+04 0.  0.
        2    1    3    3  502    0  0.48407868783E+02 -0.61482163340E+03  0.85776212512E+02  0.62266083970E+03  0.25500000920E-02 0.  1.
       -2    1    3    3    0  502 -0.48407868783E+02  0.61482163340E+03  0.87192549166E+03  0.10679901805E+04  0.25500000920E-02 0. -1.
</event>
<event>
 5   0  0.4310348E-04  0.1395796E+04  0.7818609E-02  0.8956867E-01
        2   -1    0    0  501    0  0.00000000000E+00  0.00000000000E+00  0.25863254092E+03  0.25863254093E+03  0.25500000920E-02 0. -1.
       -2   -1    0    0    0  501  0.00000000000E+00  0.00000000000E+00 -0.18832189801E+04  0.18832189801E+04  0.25500000920E-02 0.  1.
    10030    2    1    2    0    0  0.00000000000E+00  0.00000000000E+00 -0.16245864391E+04  0.21418515210E+04  0.13957961311E+04 0.  0.
        1    1    3    3  502    0 -0.17293890074E+03 -0.19305698468E+03  0.18203882915E+03  0.31672858738E+03  0.50400001928E-02 0. -1.
       -1    1    3    3    0  502  0.17293890074E+03  0.19305698468E+03 -0.18066252683E+04  0.18251229336E+04  0.50400001928E-02 0.  1.
</event>
<event>
 5   0  0.2223112E-04  0.1413167E+04  0.7818609E-02  0.8944342E-01
       -1   -1    0    0    0  501  0.00000000000E+00  0.00000000000E+00  0.43287847151E+03  0.43287847154E+03  0.50400001928E-02 0. -1.
        1   -1    0    0  501    0  0.00000000000E+00  0.00000000000E+00 -0.11533496011E+04  0.11533496011E+04  0.50400001928E-02 0.  1.
    10030    2    1    2    0    0  0.00000000000E+00  0.00000000000E+00 -0.72047112960E+03  0.15862280727E+04  0.14131669576E+04 0.  0.
        1    1    3    3  502    0 -0.17039539339E+03  0.45705463972E+03  0.21356904348E+03  0.53248969017E+03  0.50400001928E-02 0. -1.
       -1    1    3    3    0  502  0.17039539339E+03 -0.45705463972E+03 -0.93404017308E+03  0.10537383825E+04  0.50400001928E-02 0.  1.
</event>
<event>
 5   0  0.3917598E-04  0.1397284E+04  0.7818609E-02  0.8955787E-01
       -2   -1    0    0    0  501  0.00000000000E+00  0.00000000000E+00  0.27581697167E+03  0.27581697168E+03  0.25500000920E-02 0. -1.
        2   -1    0    0  501    0  0.00000000000E+00  0.00000000000E+00 -0.17696542941E+04  0.17696542941E+04  0.25500000920E-02 0.  1.
    10030    2    1    2    0    0  0.00000000000E+00  0.00000000000E+00 -0.14938373225E+04  0.20454712658E+04  0.13972840632E+04 0.  0.
        3    1    3    3  502    0 -0.80702117275E+01 -0.61871201810E+03 -0.27204235382E+03  0.67592658043E+03  0.10100000352E+00 0. -1.
       -3    1    3    3    0  502  0.80702117275E+01  0.61871201810E+03 -0.12217949687E+04  0.13695446854E+04  0.10100000352E+00 0.  1.
</event>
<event>
 5   0  0.3932568E-04  0.1400369E+04  0.7818609E-02  0.8953552E-01
       -2   -1    0    0    0  501  0.00000000000E+00  0.00000000000E+00  0.50665850983E+03  0.50665850983E+03  0.25500000920E-02 0.  1.
        2   -1    0    0  501    0  0.00000000000E+00  0.00000000000E+00 -0.96763031676E+03  0.96763031677E+03  0.25500000920E-02 0. -1.
    10030    2    1    2    0    0  0.00000000000E+00  0.00000000000E+00 -0.46097180694E+03  0.14742888266E+04  0.14003687148E+04 0.  0.
        2    1    3    3  502    0  0.48179407149E+02  0.40434122489E+03  0.36918192854E+03  0.54964386450E+03  0.25500000920E-02 0.  1.
       -2    1    3    3    0  502 -0.48179407149E+02 -0.40434122489E+03 -0.83015373547E+03  0.92464496210E+03  0.25500000920E-02 0. -1.
</event>
<event>
 5   0  0.4208622E-04  0.1399906E+04  0.7818609E-02  0.8953886E-01
       -2   -1    0    0    0  501  0.00000000000E+00  0.00000000000E+00  0.42528254122E+03  0.42528254123E+03  0.25500000920E-02 0.  1.
        2   -1    0    0  501    0  0.00000000000E+00  0.00000000000E+00 -0.11520210223E+04  0.11520210223E+04  0.25500000920E-02 0. -1.
    10030    2    1    2    0    0  0.00000000000E+00  0.00000000000E+00 -0.72673848104E+03  0.15773035635E+04  0.13999063224E+04 0.  0.
        4    1    3    3  502    0  0.48003556568E+02 -0.50094653150E+03  0.18477903182E+03  0.53609390256E+03  0.12699999809E+01 0.  1.
       -4    1    3    3    0  502 -0.48003556568E+02  0.50094653150E+03 -0.91151751286E+03  0.10412096609E+04  0.12699999809E+01 0. -1.
</event>
<event>
 5   0  0.2143942E-04  0.1398302E+04  0.7818609E-02  0.8955048E-01
       -1   -1    0    0    0  501  0.00000000000E+00  0.00000000000E+00  0.67243168382E+03  0.67243168383E+03  0.50400001928E-02 0. -1.
        1   -1    0    0  501    0  0.00000000000E+00  0.00000000000E+00 -0.72693222897E+03  0.72693222899E+03  0.50400001928E-02 0.  1.
    10030    2    1    2    0    0  0.00000000000E+00  0.00000000000E+00 -0.54500545154E+02  0.13993639128E+04  0.13983022031E+04 0.  0.
        4    1    3    3  502    0  0.13051427383E+03  0.41169170694E+03  0.52297316407E+03  0.67825259341E+03  0.12699999809E+01 0. -1.
       -4    1    3    3    0  502 -0.13051427383E+03 -0.41169170694E+03 -0.57747370922E+03  0.72111131941E+03  0.12699999809E+01 0.  1.
</event>
<event>
 5   0  0.2223112E-04  0.1374568E+04  0.7818609E-02  0.8972436E-01
        1   -1    0    0  501    0  0.00000000000E+00  0.00000000000E+00  0.70291677954E+03  0.70291677956E+03  0.50400001928E-02 0.  1.
       -1   -1    0    0    0  501  0.00000000000E+00  0.00000000000E+00 -0.67199915099E+03  0.67199915100E+03  0.50400001928E-02 0. -1.
    10030    2    1    2    0    0  0.00000000000E+00  0.00000000000E+00  0.30917628555E+02  0.13749159306E+04  0.13745682654E+04 0.  0.
        1    1    3    3  502    0 -0.38823406467E+03  0.33376622331E+03  0.47408748682E+03  0.69777111289E+03  0.50400001928E-02 0.  1.
       -1    1    3    3    0  502  0.38823406467E+03 -0.33376622331E+03 -0.44316985827E+03  0.67714481767E+03  0.50400001928E-02 0. -1.
</event>
<event>
 5   0  0.4208622E-04  0.1365959E+04  0.7818609E-02  0.8978835E-01
       -2   -1    0    0    0  501  0.00000000000E+00  0.00000000000E+00  0.37148488631E+03  0.37148488632E+03  0.25500000920E-02 0. -1.
        2   -1    0    0  501    0  0.00000000000E+00  0.00000000000E+00 -0.12556654579E+04  0.12556654579E+04  0.25500000920E-02 0.  1.
    10030    2    1    2    0    0  0.00000000000E+00  0.00000000000E+00 -0.88418057159E+03  0.16271503442E+04  0.13659586229E+04 0.  0.
        4    1    3    3  502    0 -0.52149643070E+03 -0.73493103724E+02  0.75916169415E+02  0.53209457920E+03  0.12699999809E+01 0. -1.
       -4    1    3    3    0  502  0.52149643070E+03  0.73493103724E+02 -0.96009674100E+03  0.10950557650E+04  0.12699999809E+01 0.  1.
</event>
<event>
 5   0  0.3975164E-04  0.1386721E+04  0.7818609E-02  0.8963487E-01
        2   -1    0    0  501    0  0.00000000000E+00  0.00000000000E+00  0.17265893525E+04  0.17265893525E+04  0.25500000920E-02 0.  1.
       -2   -1    0    0    0  501  0.00000000000E+00  0.00000000000E+00 -0.27843842422E+03  0.27843842423E+03  0.25500000920E-02 0. -1.
    10030    2    1    2    0    0  0.00000000000E+00  0.00000000000E+00  0.14481509283E+04  0.20050277767E+04  0.13867210514E+04 0.  0.
        5    1    3    3  502    0 -0.67057552123E+03 -0.15676443710E+03  0.60768363850E+03  0.91844875356E+03  0.46999998093E+01 0. -1.
       -5    1    3    3    0  502  0.67057552123E+03  0.15676443710E+03  0.84046728977E+03  0.10865790232E+04  0.46999998093E+01 0.  1.
</event>
<event>
 5   0  0.2155352E-04  0.1395404E+04  0.7818609E-02  0.8957152E-01
       -1   -1    0    0    0  501  0.00000000000E+00  0.00000000000E+00  0.12569634112E+04  0.12569634112E+04  0.50400001928E-02 0. -1.
        1   -1    0    0  501    0  0.00000000000E+00  0.00000000000E+00 -0.38727315336E+03  0.38727315340E+03  0.50400001928E-02 0.  1.
    10030    2    1    2    0    0  0.00000000000E+00  0.00000000000E+00  0.86969025779E+03  0.16442365646E+04  0.13954041478E+04 0.  0.
        2    1    3    3  502    0  0.45070435845E+03  0.22456960650E+03 -0.13420337942E+03  0.52112999716E+03  0.25500000920E-02 0. -1.
       -2    1    3    3    0  502 -0.45070435845E+03 -0.22456960650E+03  0.10038936372E+04  0.11231065674E+04  0.25500000920E-02 0.  1.
</event>
<event>
 5   0  0.2215876E-04  0.1396607E+04  0.7818609E-02  0.8956279E-01
       -1   -1    0    0    0  501  0.00000000000E+00  0.00000000000E+00  0.24528913277E+03  0.24528913282E+03  0.50400001928E-02 0.  1.
        1   -1    0    0  501    0  0.00000000000E+00  0.00000000000E+00 -0.19879701853E+04  0.19879701853E+04  0.50400001928E-02 0. -1.
    10030    2    1    2    0    0  0.00000000000E+00  0.00000000000E+00 -0.17426810526E+04  0.22332593182E+04  0.13966065771E+04 0.  0.
        3    1    3    3  502    0 -0.53095422339E+03 -0.22902076751E+03 -0.24532376408E+03  0.62812949199E+03  0.10100000352E+00 0.  1.
       -3    1    3    3    0  502  0.53095422339E+03  0.22902076751E+03 -0.14973572885E+04  0.16051298262E+04  0.10100000352E+00 0. -1.
</event>
<event>
 5   0  0.3932568E-04  0.1383641E+04  0.7818609E-02  0.8965746E-01
        2   -1    0    0  501    0  0.00000000000E+00  0.00000000000E+00  0.56895507909E+03  0.56895507909E+03  0.25500000920E-02 0. -1.
       -2   -1    0    0    0  501  0.00000000000E+00  0.00000000000E+00 -0.84121872025E+03  0.84121872026E+03  0.25500000920E-02 0.  1.
    10030    2    1    2    0    0  0.00000000000E+00  0.00000000000E+00 -0.27226364116E+03  0.14101737994E+04  0.13836410857E+04 0.  0.
        2    1    3    3  502    0 -0.39553118558E+03 -0.56328742665E+03 -0.20731394869E+03  0.71883010310E+03  0.25500000920E-02 0.  1.
       -2    1    3    3    0  502  0.39553118558E+03  0.56328742665E+03 -0.64949692473E+02  0.69134369625E+03  0.25500000920E-02 0. -1.
</event>
<event>
 5   0  0.4208622E-04  0.1397197E+04  0.7818609E-02  0.8955850E-01
        2   -1    0    0  501    0  0.00000000000E+00  0.00000000000E+00  0.15673589831E+04  0.15673589831E+04  0.25500000920E-02 0.  1.
       -2   -1    0    0    0  501  0.00000000000E+00  0.00000000000E+00 -0.31137699159E+03  0.31137699160E+03  0.25500000920E-02 0. -1.
    10030    2    1    2    0    0  0.00000000000E+00  0.00000000000E+00  0.12559819915E+04  0.18787359747E+04  0.13971965143E+04 0.  0.
        4    1    3    3  502    0 -0.49050968954E+03  0.37257919206E+02 -0.38999961693E+02  0.49346784899E+03  0.12699999809E+01 0. -1.
       -4    1    3    3    0  502  0.49050968954E+03 -0.37257919206E+02  0.12949819532E+04  0.13852681257E+04  0.12699999809E+01 0.  1.
</event>
<event>
 5   0  0.2223112E-04  0.1407104E+04  0.7818609E-02  0.8948692E-01
        1   -1    0    0  501    0  0.00000000000E+00  0.00000000000E+00  0.96852975162E+03  0.96852975163E+03  0.50400001928E-02 0.  1.
       -1   -1    0    0    0  501  0.00000000000E+00  0.00000000000E+00 -0.51106886920E+03  0.51106886922E+03  0.50400001928E-02 0. -1.
    10030    2    1    2    0    0  0.00000000000E+00  0.00000000000E+00  0.45746088242E+03  0.14795986209E+04  0.14071039833E+04 0.  0.
        1    1    3    3  502    0  0.36056122405E+03  0.36514938099E+03  0.73482423024E+03  0.89627290270E+03  0.50400001928E-02 0.  1.
       -1    1    3    3    0  502 -0.36056122405E+03 -0.36514938099E+03 -0.27736334782E+03  0.58332571816E+03  0.50400001928E-02 0. -1.
</event>
<event>
 5   0  0.2223112E-04  0.1407216E+04  0.7818609E-02  0.8948612E-01
        1   -1    0    0  501    0  0.00000000000E+00  0.00000000000E+00  0.14466017200E+04  0.14466017200E+04  0.50400001928E-02 0.  1.
       -1   -1    0    0    0  501  0.00000000000E+00  0.00000000000E+00 -0.34222575372E+03  0.34222575375E+03  0.50400001928E-02 0. -1.
    10030    2    1    2    0    0  0.00000000000E+00  0.00000000000E+00  0.11043759662E+04  0.17888274737E+04  0.14072162080E+04 0.  0.
        1    1    3    3  502    0 -0.32730006927E+03  0.51908220447E+03  0.98976390242E+03  0.11645618287E+04  0.50400001928E-02 0.  1.
       -1    1    3    3    0  502  0.32730006927E+03 -0.51908220447E+03  0.11461206382E+03  0.62426564501E+03  0.50400001928E-02 0. -1.
</event>
<event>
 5   0  0.3917598E-04  0.1401694E+04  0.7818609E-02  0.8952593E-01
       -2   -1    0    0    0  501  0.00000000000E+00  0.00000000000E+00  0.27238843829E+03  0.27238843830E+03  0.25500000920E-02 0. -1.
        2   -1    0    0  501    0  0.00000000000E+00  0.00000000000E+00 -0.18032586813E+04  0.18032586813E+04  0.25500000920E-02 0.  1.
    10030    2    1    2    0    0  0.00000000000E+00  0.00000000000E+00 -0.15308702430E+04  0.20756471196E+04  0.14016944261E+04 0.  0.
        3    1    3    3  502    0 -0.38912139969E+03 -0.56957808925E+03 -0.94891340546E+03  0.11731459094E+04  0.10100000352E+00 0.  1.
       -3    1    3    3    0  502  0.38912139969E+03  0.56957808925E+03 -0.58195683753E+03  0.90250121019E+03  0.10100000352E+00 0. -1.
</event>
<event>
 5   0  0.2143942E-04  0.1387813E+04  0.7818609E-02  0.8962687E-01
       -1   -1    0    0    0  501  0.00000000000E+00  0.00000000000E+00  0.93321871792E+03  0.93321871793E+03  0.50400001928E-02 0. -1.
        1   -1    0    0  501    0  0.00000000000E+00  0.00000000000E+00 -0.51596311785E+03  0.51596311788E+03  0.50400001928E-02 0.  1.
    10030    2    1    2    0    0  0.00000000000E+00  0.00000000000E+00  0.41725560007E+03  0.14491818358E+04  0.13878133006E+04 0.  0.
        4    1    3    3  502    0 -0.35143154654E+03 -0.11449730101E+03 -0.40461549245E+03  0.54802287677E+03  0.12699999809E+01 0.  1.
       -4    1    3    3    0  502  0.35143154654E+03  0.11449730101E+03  0.82187109252E+03  0.90115895904E+03  0.12699999809E+01 0. -1.
</event>
<event>
 5   0  0.2215876E-04  0.1414150E+04  0.7818609E-02  0.8943639E-01
       -1   -1    0    0    0  501  0.00000000000E+00  0.00000000000E+00  0.50228706423E+03  0.50228706426E+03  0.50400001928E-02 0.  1.
        1   -1    0    0  501    0  0.00000000000E+00  0.00000000000E+00 -0.99535724640E+03  0.99535724641E+03  0.50400001928E-02 0. -1.
    10030    2    1    2    0    0  0.00000000000E+00  0.00000000000E+00 -0.49307018217E+03  0.14976443107E+04  0.14141500192E+04 0.  0.
        3    1    3    3  502    0 -0.43534240266E+03 -0.45041742970E+03 -0.59385597933E+03  0.86317078432E+03  0.10100000352E+00 0. -1.
       -3    1    3    3    0  502  0.43534240266E+03  0.45041742970E+03  0.10078579716E+03  0.63447352635E+03  0.10100000352E+00 0.  1.
</event>
<event>
 5   0  0.2223112E-04  0.1397537E+04  0.7818609E-02  0.8955604E-01
       -1   -1    0    0    0  501  0.00000000000E+00  0.00000000000E+00  0.58208158908E+03  0.58208158910E+03  0.50400001928E-02 0. -1.
        1   -1    0    0  501    0  0.00000000000E+00  0.00000000000E+00 -0.83884663014E+03  0.83884663015E+03  0.50400001928E-02 0.  1.
    10030    2    1    2    0    0  0.00000000000E+00  0.00000000000E+00 -0.25676504106E+03  0.14209282193E+04  0.13975366607E+04 0.  0.
        1    1    3    3  502    0  0.17511824353E+03  0.50788546917E+03 -0.58269834904E+03  0.79256003874E+03  0.50400001928E-02 0.  1.
       -1    1    3    3    0  502 -0.17511824353E+03 -0.50788546917E+03  0.32593330798E+03  0.62836818051E+03  0.50400001928E-02 0. -1.
</event>
<event>
 5   0  0.2215876E-04  0.1412607E+04  0.7818609E-02  0.8944743E-01
        1   -1    0    0  501    0  0.00000000000E+00  0.00000000000E+00  0.10797593757E+04  0.10797593757E+04  0.50400001928E-02 0. -1.
       -1   -1    0    0    0  501  0.00000000000E+00  0.00000000000E+00 -0.46201475965E+03  0.46201475967E+03  0.50400001928E-02 0.  1.
    10030    2    1    2    0    0  0.00000000000E+00  0.00000000000E+00  0.61774461605E+03  0.15417741354E+04  0.14126071902E+04 0.  0.
        3    1    3    3  502    0 -0.53598846719E+03  0.42231172762E+03  0.10990113164E+03  0.69116503180E+03  0.10100000352E+00 0.  1.
       -3    1    3    3    0  502  0.53598846719E+03 -0.42231172762E+03  0.50784348441E+03  0.85060910358E+03  0.10100000352E+00 0. -1.
</event>
<event>
 5   0  0.1497625E-04  0.1398090E+04  0.7818609E-02  0.8955202E-01
       -4   -1    0    0    0  501  0.00000000000E+00  0.00000000000E+00  0.44059263211E+03  0.44059446248E+03  0.12699999809E+01 0.  1.
        4   -1    0    0  501    0  0.00000000000E+00  0.00000000000E+00 -0.11091022473E+04  0.11091029744E+04  0.12699999809E+01 0. -1.
    10030    2    1    2    0    0  0.00000000000E+00  0.00000000000E+00 -0.66850961517E+03  0.15496974369E+04  0.13980904979E+04 0.  0.
        4    1    3    3  502    0  0.48067228614E+03  0.18045941226E+03  0.19158359287E+03  0.54801216418E+03  0.12699999809E+01 0.  1.
       -4    1    3    3    0  502 -0.48067228614E+03 -0.18045941226E+03 -0.86009320804E+03  0.10016852727E+04  0.12699999809E+01 0. -1.
</event>
<event>
 5   0  0.2143942E-04  0.1399034E+04  0.7818609E-02  0.8954518E-01
        1   -1    0    0  501    0  0.00000000000E+00  0.00000000000E+00  0.10047571449E+04  0.10047571449E+04  0.50400001928E-02 0. -1.
       -1   -1    0    0    0  501  0.00000000000E+00  0.00000000000E+00 -0.48700693637E+03  0.48700693639E+03  0.50400001928E-02 0.  1.
    10030    2    1    2    0    0  0.00000000000E+00  0.00000000000E+00  0.51775020850E+03  0.14917640813E+04  0.13990335220E+04 0.  0.
        4    1    3    3  502    0  0.17079677755E+03 -0.50622359966E+03 -0.22259362560E+03  0.57877751091E+03  0.12699999809E+01 0.  1.
       -4    1    3    3    0  502 -0.17079677755E+03  0.50622359966E+03  0.74034383410E+03  0.91298657036E+03  0.12699999809E+01 0. -1.
</event>
<event>
 5   0  0.2223112E-04  0.1389823E+04  0.7818609E-02  0.8961219E-01
       -1   -1    0    0    0  501  0.00000000000E+00  0.00000000000E+00  0.35865633791E+03  0.35865633794E+03  0.50400001928E-02 0.  1.
        1   -1    0    0  501    0  0.00000000000E+00  0.00000000000E+00 -0.13464188960E+04  0.13464188960E+04  0.50400001928E-02 0. -1.
    10030    2    1    2    0    0  0.00000000000E+00  0.00000000000E+00 -0.98776255810E+03  0.17050752340E+04  0.13898225363E+04 0.  0.
        1    1    3    3  502    0  0.29158615484E+03  0.16731385663E+03 -0.12400167871E+04  0.12847793758E+04  0.50400001928E-02 0. -1.
       -1    1    3    3    0  502 -0.29158615484E+03 -0.16731385663E+03  0.25225422896E+03  0.42029585814E+03  0.50400001928E-02 0.  1.
</event>
<event>
 5   0  0.2215876E-04  0.1409639E+04  0.7818609E-02  0.8946871E-01
       -1   -1    0    0    0  501  0.00000000000E+00  0.00000000000E+00  0.85276414810E+03  0.85276414812E+03  0.50400001928E-02 0. -1.
        1   -1    0    0  501    0  0.00000000000E+00  0.00000000000E+00 -0.58254123857E+03  0.58254123859E+03  0.50400001928E-02 0.  1.
    10030    2    1    2    0    0  0.00000000000E+00  0.00000000000E+00  0.27022290954E+03  0.14353053867E+04  0.14096386531E+04 0.  0.
        3    1    3    3  502    0  0.56329322897E+03 -0.41541332378E+03  0.50515698427E+02  0.70172597029E+03  0.10100000352E+00 0.  1.
       -3    1    3    3    0  502 -0.56329322897E+03  0.41541332378E+03  0.21970721111E+03  0.73357941642E+03  0.10100000352E+00 0. -1.
</event>
<event>
 5   0  0.3975164E-04  0.1394649E+04  0.7818609E-02  0.8957701E-01
       -2   -1    0    0    0  501  0.00000000000E+00  0.00000000000E+00  0.69236209207E+03  0.69236209207E+03  0.25500000920E-02 0.  1.
        2   -1    0    0  501    0  0.00000000000E+00  0.00000000000E+00 -0.70232285328E+03  0.70232285328E+03  0.25500000920E-02 0. -1.
    10030    2    1    2    0    0  0.00000000000E+00  0.00000000000E+00 -0.99607612112E+01  0.13946849454E+04  0.13946493753E+04 0.  0.
        5    1    3    3  502    0 -0.67196531933E+03  0.11311160946E+03  0.14303691891E+03  0.69628534147E+03  0.46999998093E+01 0.  1.
       -5    1    3    3    0  502  0.67196531933E+03 -0.11311160946E+03 -0.15299768012E+03  0.69839960388E+03  0.46999998093E+01 0. -1.
</event>
<event>
 5   0  0.4208622E-04  0.1396693E+04  0.7818609E-02  0.8956216E-01
       -2   -1    0    0    0  501  0.00000000000E+00  0.00000000000E+00  0.31813682662E+03  0.31813682663E+03  0.25500000920E-02 0. -1.
        2   -1    0    0  501    0  0.00000000000E+00  0.00000000000E+00 -0.15329503411E+04  0.15329503411E+04  0.25500000920E-02 0.  1.
    10030    2    1    2    0    0  0.00000000000E+00  0.00000000000E+00 -0.12148135144E+04  0.18510871677E+04  0.13966931759E+04 0.  0.
        4    1    3    3  502    0 -0.23782782572E+03  0.39309233212E+03 -0.13044409083E+04  0.13829863891E+04  0.12699999809E+01 0.  1.
       -4    1    3    3    0  502  0.23782782572E+03 -0.39309233212E+03  0.89627393899E+02  0.46810077856E+03  0.12699999809E+01 0. -1.
</event>
<event>
 5   0  0.2217251E-04  0.1400528E+04  0.7818609E-02  0.8953437E-01
       -1   -1    0    0    0  501  0.00000000000E+00  0.00000000000E+00  0.40090699037E+03  0.40090699041E+03  0.50400001928E-02 0. -1.
        1   -1    0    0  501    0  0.00000000000E+00  0.00000000000E+00 -0.12231499068E+04  0.12231499068E+04  0.50400001928E-02 0.  1.
    10030    2    1    2    0    0  0.00000000000E+00  0.00000000000E+00 -0.82224291641E+03  0.16240568972E+04  0.14005275405E+04 0.  0.
        5    1    3    3  502    0 -0.25847019472E+03 -0.27285884633E+03  0.27401540816E+03  0.46515086315E+03  0.46999998093E+01 0. -1.
       -5    1    3    3    0  502  0.25847019472E+03  0.27285884633E+03 -0.10962583246E+04  0.11589060341E+04  0.46999998093E+01 0.  1.
</event>
<event>
 5   0  0.4208622E-04  0.1381330E+04  0.7818609E-02  0.8967445E-01
       -2   -1    0    0    0  501  0.00000000000E+00  0.00000000000E+00  0.18162604357E+04  0.18162604357E+04  0.25500000920E-02 0.  1.
        2   -1    0    0  501    0  0.00000000000E+00  0.00000000000E+00 -0.26263758152E+03  0.26263758153E+03  0.25500000920E-02 0. -1.
    10030    2    1    2    0    0  0.00000000000E+00  0.00000000000E+00  0.15536228542E+04  0.20788980172E+04  0.13813301535E+04 0.  0.
        4    1    3    3  502    0 -0.41125098318E+03 -0.39828722849E+03  0.19537479636E+03  0.60492397166E+03  0.12699999809E+01 0. -1.
       -4    1    3    3    0  502  0.41125098318E+03  0.39828722849E+03  0.13582480578E+04  0.14739740456E+04  0.12699999809E+01 0.  1.
</event>
<event>
 5   0  0.2215876E-04  0.1405452E+04  0.7818609E-02  0.8949881E-01
       -1   -1    0    0    0  501  0.00000000000E+00  0.00000000000E+00  0.37062325581E+03  0.37062325585E+03  0.50400001928E-02 0. -1.
        1   -1    0    0  501    0  0.00000000000E+00  0.00000000000E+00 -0.13324154025E+04  0.13324154025E+04  0.50400001928E-02 0.  1.
    10030    2    1    2    0    0  0.00000000000E+00  0.00000000000E+00 -0.96179214667E+03  0.17030386583E+04  0.14054524319E+04 0.  0.
        3    1    3    3  502    0 -0.27569105172E+03 -0.21448524562E+03 -0.12197721455E+04  0.12688000527E+04  0.10100000352E+00 0.  1.
       -3    1    3    3    0  502  0.27569105172E+03  0.21448524562E+03  0.25797999886E+03  0.43423860561E+03  0.10100000352E+00 0. -1.
</event>
<event>
 5   0  0.3932568E-04  0.1399893E+04  0.7818609E-02  0.8953896E-01
        2   -1    0    0  501    0  0.00000000000E+00  0.00000000000E+00  0.14561152067E+04  0.14561152067E+04  0.25500000920E-02 0.  1.
       -2   -1    0    0    0  501  0.00000000000E+00  0.00000000000E+00 -0.33646033595E+03  0.33646033596E+03  0.25500000920E-02 0. -1.
    10030    2    1    2    0    0  0.00000000000E+00  0.00000000000E+00  0.11196548708E+04  0.17925755427E+04  0.13998928697E+04 0.  0.
        2    1    3    3  502    0  0.35640754168E+03 -0.60191420856E+03  0.59114004377E+03  0.91584583942E+03  0.25500000920E-02 0.  1.
       -2    1    3    3    0  502 -0.35640754168E+03  0.60191420856E+03  0.52851482699E+03  0.87672970326E+03  0.25500000920E-02 0. -1.
</event>
<event>
 5   0  0.4310348E-04  0.1402768E+04  0.7818609E-02  0.8951817E-01
       -2   -1    0    0    0  501  0.00000000000E+00  0.00000000000E+00  0.63647951529E+03  0.63647951529E+03  0.25500000920E-02 0. -1.
        2   -1    0    0  501    0  0.00000000000E+00  0.00000000000E+00 -0.77290721728E+03  0.77290721728E+03  0.25500000920E-02 0.  1.
    10030    2    1    2    0    0  0.00000000000E+00  0.00000000000E+00 -0.13642770199E+03  0.14093867326E+04  0.14027681363E+04 0.  0.
        1    1    3    3  502    0 -0.55011688547E+03 -0.36209348596E+03  0.17416977706E+03  0.68123079167E+03  0.50400001928E-02 0. -1.
       -1    1    3    3    0  502  0.55011688547E+03  0.36209348596E+03 -0.31059747906E+03  0.72815594091E+03  0.50400001928E-02 0.  1.
</event>
<event>
 5   0  0.2143942E-04  0.1399334E+04  0.7818609E-02  0.8954301E-01
       -1   -1    0    0    0  501  0.00000000000E+00  0.00000000000E+00  0.49050792508E+03  0.49050792510E+03  0.50400001928E-02 0.  1.
        1   -1    0    0  501    0  0.00000000000E+00  0.00000000000E+00 -0.99801408652E+03  0.99801408653E+03  0.50400001928E-02 0. -1.
    10030    2    1    2    0    0  0.00000000000E+00  0.00000000000E+00 -0.50750616144E+03  0.14885220116E+04  0.13993338684E+04 0.  0.
        4    1    3    3  502    0  0.77992093904E+02 -0.60221619308E+03  0.11593937665E+03  0.61821570821E+03  0.12699999809E+01 0.  1.
       -4    1    3    3    0  502 -0.77992093904E+02  0.60221619308E+03 -0.62344553809E+03  0.87030630342E+03  0.12699999809E+01 0. -1.
</event>
<event>
 5   0  0.4310348E-04  0.1376486E+04  0.7818609E-02  0.8971017E-01
        2   -1    0    0  501    0  0.00000000000E+00  0.00000000000E+00  0.18090285101E+04  0.18090285101E+04  0.25500000920E-02 0.  1.
       -2   -1    0    0    0  501  0.00000000000E+00  0.00000000000E+00 -0.26184127024E+03  0.26184127026E+03  0.25500000920E-02 0. -1.
    10030    2    1    2    0    0  0.00000000000E+00  0.00000000000E+00  0.15471872398E+04  0.20708697803E+04  0.13764858488E+04 0.  0.
        1    1    3    3  502    0 -0.10711798877E+03  0.57990528995E+03  0.13074419665E+04  0.14342834115E+04  0.50400001928E-02 0.  1.
       -1    1    3    3    0  502  0.10711798877E+03 -0.57990528995E+03  0.23974527335E+03  0.63658636881E+03  0.50400001928E-02 0. -1.
</event>
<event>
 5   0  0.2155352E-04  0.1406959E+04  0.7818609E-02  0.8948797E-01
       -1   -1    0    0    0  501  0.00000000000E+00  0.00000000000E+00  0.60186271545E+03  0.60186271547E+03  0.50400001928E-02 0. -1.
        1   -1    0    0  501    0  0.00000000000E+00  0.00000000000E+00 -0.82225273554E+03  0.82225273555E+03  0.50400001928E-02 0.  1.
    10030    2    1    2    0    0  0.00000000000E+00  0.00000000000E+00 -0.22039002009E+03  0.14241154510E+04  0.14069587972E+04 0.  0.
        2    1    3    3  502    0  0.10463099917E+03 -0.66957025873E+03  0.80815670955E+02  0.68249772896E+03  0.25500000920E-02 0.  1.
       -2    1    3    3    0  502 -0.10463099917E+03  0.66957025873E+03 -0.30120569104E+03  0.74161772207E+03  0.25500000920E-02 0. -1.
</event>
<event>
 5   0  0.4208622E-04  0.1399992E+04  0.7818609E-02  0.8953825E-01
        2   -1    0    0  501    0  0.00000000000E+00  0.00000000000E+00  0.90652302693E+03  0.90652302693E+03  0.25500000920E-02 0.  1.
       -2   -1    0    0    0  501  0.00000000000E+00  0.00000000000E+00 -0.54052031732E+03  0.54052031733E+03  0.25500000920E-02 0. -1.
    10030    2    1    2    0    0  0.00000000000E+00  0.00000000000E+00  0.36600270961E+03  0.14470433443E+04  0.13999915917E+04 0.  0.
        4    1    3    3  502    0  0.73114372457E+02 -0.49661015558E+03 -0.32127375226E+03  0.59597465959E+03  0.12699999809E+01 0. -1.
       -4    1    3    3    0  502 -0.73114372457E+02  0.49661015558E+03  0.68727646186E+03  0.85106868467E+03  0.12699999809E+01 0.  1.
</event>
<event>
 5   0  0.3917598E-04  0.1409891E+04  0.7818609E-02  0.8946690E-01
        2   -1    0    0  501    0  0.00000000000E+00  0.00000000000E+00  0.69701416333E+03  0.69701416333E+03  0.25500000920E-02 0.  1.
       -2   -1    0    0    0  501  0.00000000000E+00  0.00000000000E+00 -0.71296757657E+03  0.71296757658E+03  0.25500000920E-02 0. -1.
    10030    2    1    2    0    0  0.00000000000E+00  0.00000000000E+00 -0.15953413246E+02  0.14099817399E+04  0.14098914836E+04 0.  0.
        3    1    3    3  502    0  0.51695376966E+03  0.91843420073E+02 -0.47840247753E+03  0.71031356068E+03  0.10100000352E+00 0.  1.
       -3    1    3    3    0  502 -0.51695376966E+03 -0.91843420073E+02  0.46244906428E+03  0.69966817923E+03  0.10100000352E+00 0. -1.
</event>
<event>
 5   0  0.2155352E-04  0.1406008E+04  0.7818609E-02  0.8949481E-01
        1   -1    0    0  501    0  0.00000000000E+00  0.00000000000E+00  0.39310763410E+03  0.39310763414E+03  0.50400001928E-02 0.  1.
       -1   -1    0    0    0  501  0.00000000000E+00  0.00000000000E+00 -0.12571983833E+04  0.12571983833E+04  0.50400001928E-02 0. -1.
    10030    2    1    2    0    0  0.00000000000E+00  0.00000000000E+00 -0.86409074916E+03  0.16503060174E+04  0.14060075136E+04 0.  0.
        2    1    3    3  502    0 -0.14533683677E+03  0.65736676207E+03 -0.66959758421E+03  0.94953398085E+03  0.25500000920E-02 0.  1.
       -2    1    3    3    0  502  0.14533683677E+03 -0.65736676207E+03 -0.19449316494E+03  0.70077203656E+03  0.25500000920E-02 0. -1.
</event>
<event>
 5   0  0.2143942E-04  0.1418379E+04  0.7818609E-02  0.8940622E-01
       -1   -1    0    0    0  501  0.00000000000E+00  0.00000000000E+00  0.33244791812E+03  0.33244791816E+03  0.50400001928E-02 0.  1.
        1   -1    0    0  501    0  0.00000000000E+00  0.00000000000E+00 -0.15128667378E+04  0.15128667378E+04  0.50400001928E-02 0. -1.
    10030    2    1    2    0    0  0.00000000000E+00  0.00000000000E+00 -0.11804188197E+04  0.18453146560E+04  0.14183785072E+04 0.  0.
        4    1    3    3  502    0  0.20265212357E+03 -0.18762023485E+03  0.25961400715E+03  0.37903862774E+03  0.12699999809E+01 0.  1.
       -4    1    3    3    0  502 -0.20265212357E+03  0.18762023485E+03 -0.14400328269E+04  0.14662760283E+04  0.12699999809E+01 0. -1.
</event>
<event>
 5   0  0.2215876E-04  0.1439755E+04  0.7818609E-02  0.8925534E-01
       -1   -1    0    0    0  501  0.00000000000E+00  0.00000000000E+00  0.99914078734E+03  0.99914078736E+03  0.50400001928E-02 0.  1.
        1   -1    0    0  501    0  0.00000000000E+00  0.00000000000E+00 -0.51866933554E+03  0.51866933557E+03  0.50400001928E-02 0. -1.
    10030    2    1    2    0    0  0.00000000000E+00  0.00000000000E+00  0.48047145180E+03  0.15178101229E+04  0.14397551018E+04 0.  0.
        3    1    3    3  502    0 -0.35742786668E+02  0.47304283740E+03  0.81104822560E+03  0.93959901408E+03  0.10100000352E+00 0.  1.
       -3    1    3    3    0  502  0.35742786668E+02 -0.47304283740E+03 -0.33057677380E+03  0.57821110884E+03  0.10100000352E+00 0. -1.
</event>
<event>
 5   0  0.2215876E-04  0.1395372E+04  0.7818609E-02  0.8957175E-01
        1   -1    0    0  501    0  0.00000000000E+00  0.00000000000E+00  0.11724250863E+04  0.11724250863E+04  0.50400001928E-02 0. -1.
       -1   -1    0    0    0  501  0.00000000000E+00  0.00000000000E+00 -0.41517848700E+03  0.41517848703E+03  0.50400001928E-02 0.  1.
    10030    2    1    2    0    0  0.00000000000E+00  0.00000000000E+00  0.75724659931E+03  0.15876035733E+04  0.13953718837E+04 0.  0.
        3    1    3    3  502    0  0.50763652915E+03  0.46712136832E+03  0.49723725873E+03  0.85037763385E+03  0.10100000352E+00 0.  1.
       -3    1    3    3    0  502 -0.50763652915E+03 -0.46712136832E+03  0.26000934058E+03  0.73722593949E+03  0.10100000352E+00 0. -1.
</event>
<event>
 5   0  0.3917598E-04  0.1402533E+04  0.7818609E-02  0.8951987E-01
        2   -1    0    0  501    0  0.00000000000E+00  0.00000000000E+00  0.46055172503E+03  0.46055172503E+03  0.25500000920E-02 0. -1.
       -2   -1    0    0    0  501  0.00000000000E+00  0.00000000000E+00 -0.10677944971E+04  0.10677944971E+04  0.25500000920E-02 0.  1.
    10030    2    1    2    0    0  0.00000000000E+00  0.00000000000E+00 -0.60724277207E+03  0.15283462221E+04  0.14025328483E+04 0.  0.
        3    1    3    3  502    0  0.64257956732E+03  0.22629513459E+03 -0.12240056497E+03  0.69217042467E+03  0.10100000352E+00 0. -1.
       -3    1    3    3    0  502 -0.64257956732E+03 -0.22629513459E+03 -0.48484220711E+03  0.83617579747E+03  0.10100000352E+00 0.  1.
</event>
<event>
 5   0  0.3975164E-04  0.1392506E+04  0.7818609E-02  0.8959261E-01
        2   -1    0    0  501    0  0.00000000000E+00  0.00000000000E+00  0.31287042487E+03  0.31287042488E+03  0.25500000920E-02 0. -1.
       -2   -1    0    0    0  501  0.00000000000E+00  0.00000000000E+00 -0.15494225018E+04  0.15494225018E+04  0.25500000920E-02 0.  1.
    10030    2    1    2    0    0  0.00000000000E+00  0.00000000000E+00 -0.12365520769E+04  0.18622929267E+04  0.13925063396E+04 0.  0.
        5    1    3    3  502    0 -0.29204354837E+03 -0.45786208497E+03 -0.12009437531E+04  0.13180345637E+04  0.46999998093E+01 0.  1.
       -5    1    3    3    0  502  0.29204354837E+03  0.45786208497E+03 -0.35608323868E+02  0.54425836303E+03  0.46999998093E+01 0. -1.
</event>
<event>
 5   0  0.3932568E-04  0.1402562E+04  0.7818609E-02  0.8951966E-01
       -2   -1    0    0    0  501  0.00000000000E+00  0.00000000000E+00  0.76783005315E+03  0.76783005316E+03  0.25500000920E-02 0.  1.
        2   -1    0    0  501    0  0.00000000000E+00  0.00000000000E+00 -0.64050004555E+03  0.64050004556E+03  0.25500000920E-02 0. -1.
    10030    2    1    2    0    0  0.00000000000E+00  0.00000000000E+00  0.12733000760E+03  0.14083300987E+04  0.14025622040E+04 0.  0.
        2    1    3    3  502    0 -0.64223907853E+03  0.27869750784E+03  0.10447509095E+03  0.70785477289E+03  0.25500000920E-02 0.  1.
       -2    1    3    3    0  502  0.64223907853E+03 -0.27869750784E+03  0.22854916653E+02  0.70047532583E+03  0.25500000920E-02 0. -1.
</event>
<event>
 5   0  0.2223112E-04  0.1392927E+04  0.7818609E-02  0.8958954E-01
        1   -1    0    0  501    0  0.00000000000E+00  0.00000000000E+00  0.12172692591E+04  0.12172692591E+04  0.50400001928E-02 0.  1.
       -1   -1    0    0    0  501  0.00000000000E+00  0.00000000000E+00 -0.39848335007E+03  0.39848335010E+03  0.50400001928E-02 0. -1.
    10030    2    1    2    0    0  0.00000000000E+00  0.00000000000E+00  0.81878590902E+03  0.16157526092E+04  0.13929271802E+04 0.  0.
        1    1    3    3  502    0  0.40678335559E+03 -0.38498194022E+02  0.10636266029E+04  0.11394105317E+04  0.50400001928E-02 0.  1.
       -1    1    3    3    0  502 -0.40678335559E+03  0.38498194022E+02 -0.24484069393E+03  0.47634207746E+03  0.50400001928E-02 0. -1.
</event>
<event>
 5   0  0.3932568E-04  0.1402150E+04  0.7818609E-02  0.8952264E-01
       -2   -1    0    0    0  501  0.00000000000E+00  0.00000000000E+00  0.75592854465E+03  0.75592854465E+03  0.25500000920E-02 0.  1.
        2   -1    0    0  501    0  0.00000000000E+00  0.00000000000E+00 -0.65020142088E+03  0.65020142089E+03  0.25500000920E-02 0. -1.
    10030    2    1    2    0    0  0.00000000000E+00  0.00000000000E+00  0.10572712377E+03  0.14061299655E+04  0.14021495125E+04 0.  0.
        2    1    3    3  502    0  0.43364930230E+03  0.49155069716E+03 -0.19650276904E+03  0.68431509081E+03  0.25500000920E-02 0. -1.
       -2    1    3    3    0  502 -0.43364930230E+03 -0.49155069716E+03  0.30222989280E+03  0.72181487473E+03  0.25500000920E-02 0.  1.
</event>
<event>
 5   0  0.2223112E-04  0.1401125E+04  0.7818609E-02  0.8953005E-01
       -1   -1    0    0    0  501  0.00000000000E+00  0.00000000000E+00  0.25213378728E+03  0.25213378733E+03  0.50400001928E-02 0.  1.
        1   -1    0    0  501    0  0.00000000000E+00  0.00000000000E+00 -0.19465368382E+04  0.19465368382E+04  0.50400001928E-02 0. -1.
    10030    2    1    2    0    0  0.00000000000E+00  0.00000000000E+00 -0.16944030509E+04  0.21986706256E+04  0.14011248412E+04 0.  0.
        1    1    3    3  502    0 -0.60097787899E+03 -0.11115343997E+03 -0.13845486950E+04  0.15134413062E+04  0.50400001928E-02 0.  1.
       -1    1    3    3    0  502  0.60097787899E+03  0.11115343997E+03 -0.30985435591E+03  0.68522931940E+03  0.50400001928E-02 0. -1.
</event>
<event>
 5   0  0.2217251E-04  0.1394334E+04  0.7818609E-02  0.8957930E-01
        1   -1    0    0  501    0  0.00000000000E+00  0.00000000000E+00  0.12393665035E+04  0.12393665035E+04  0.50400001928E-02 0.  1.
       -1   -1    0    0    0  501  0.00000000000E+00  0.00000000000E+00 -0.39216974744E+03  0.39216974747E+03  0.50400001928E-02 0. -1.
    10030    2    1    2    0    0  0.00000000000E+00  0.00000000000E+00  0.84719675601E+03  0.16315362509E+04  0.13943343196E+04 0.  0.
        5    1    3    3  502    0  0.12358631177E+02  0.55613813181E+03 -0.68098688338E+02  0.56044792691E+03  0.46999998093E+01 0. -1.
       -5    1    3    3    0  502 -0.12358631177E+02 -0.55613813181E+03  0.91529544435E+03  0.10710883240E+04  0.46999998093E+01 0.  1.
</event>
<event>
 5   0  0.4208622E-04  0.1403957E+04  0.7818609E-02  0.8950960E-01
        2   -1    0    0  501    0  0.00000000000E+00  0.00000000000E+00  0.75850333190E+03  0.75850333191E+03  0.25500000920E-02 0. -1.
       -2   -1    0    0    0  501  0.00000000000E+00  0.00000000000E+00 -0.64966552316E+03  0.64966552317E+03  0.25500000920E-02 0.  1.
    10030    2    1    2    0    0  0.00000000000E+00  0.00000000000E+00  0.10883780874E+03  0.14081688551E+04  0.14039565007E+04 0.  0.
        4    1    3    3  502    0  0.16227410102E+03  0.51283290059E+03  0.50681696303E+03  0.73905041418E+03  0.12699999809E+01 0. -1.
       -4    1    3    3    0  502 -0.16227410102E+03 -0.51283290059E+03 -0.39797915429E+03  0.66911844089E+03  0.12699999809E+01 0.  1.
</event>
<event>
 5   0  0.2215876E-04  0.1402103E+04  0.7818609E-02  0.8952298E-01
        1   -1    0    0  501    0  0.00000000000E+00  0.00000000000E+00  0.16305171823E+04  0.16305171823E+04  0.50400001928E-02 0. -1.
       -1   -1    0    0    0  501  0.00000000000E+00  0.00000000000E+00 -0.30142170658E+03  0.30142170662E+03  0.50400001928E-02 0.  1.
    10030    2    1    2    0    0  0.00000000000E+00  0.00000000000E+00  0.13290954757E+04  0.19319388889E+04  0.14021030943E+04 0.  0.
        3    1    3    3  502    0  0.59456698440E+02  0.69218973606E+03  0.79388961055E+03  0.10549513987E+04  0.10100000352E+00 0. -1.
       -3    1    3    3    0  502 -0.59456698440E+02 -0.69218973606E+03  0.53520586517E+03  0.87698749022E+03  0.10100000352E+00 0.  1.
</event>
<event>
 5   0  0.1497625E-04  0.1398292E+04  0.7818609E-02  0.8955056E-01
       -3   -1    0    0    0  501  0.00000000000E+00  0.00000000000E+00  0.34517082551E+03  0.34517084028E+03  0.10100000352E+00 0. -1.
        3   -1    0    0  501    0  0.00000000000E+00  0.00000000000E+00 -0.14161255004E+04  0.14161255040E+04  0.10100000352E+00 0.  1.
    10030    2    1    2    0    0  0.00000000000E+00  0.00000000000E+00 -0.10709546748E+04  0.17612963442E+04  0.13982921357E+04 0.  0.
        1    1    3    3  502    0 -0.53955067020E+03  0.58941743493E+02  0.19630310149E+02  0.54311546097E+03  0.50400001928E-02 0. -1.
       -1    1    3    3    0  502  0.53955067020E+03 -0.58941743493E+02 -0.10905849850E+04  0.12181808833E+04  0.50400001928E-02 0.  1.
</event>
<event>
 5   0  0.2223112E-04  0.1400999E+04  0.7818609E-02  0.8953096E-01
        1   -1    0    0  501    0  0.00000000000E+00  0.00000000000E+00  0.48459447663E+03  0.48459447666E+03  0.50400001928E-02 0. -1.
       -1   -1    0    0    0  501  0.00000000000E+00  0.00000000000E+00 -0.10125986266E+04  0.10125986266E+04  0.50400001928E-02 0.  1.
    10030    2    1    2    0    0  0.00000000000E+00  0.00000000000E+00 -0.52800414999E+03  0.14971931033E+04  0.14009992170E+04 0.  0.
        1    1    3    3  502    0 -0.36498709491E+03 -0.20369539111E+03 -0.86473049972E+03  0.96045105497E+03  0.50400001928E-02 0.  1.
       -1    1    3    3    0  502  0.36498709491E+03  0.20369539111E+03  0.33672634974E+03  0.53674204833E+03  0.50400001928E-02 0. -1.
</event>
<event>
 5   0  0.2155352E-04  0.1395052E+04  0.7818609E-02  0.8957408E-01
       -1   -1    0    0    0  501  0.00000000000E+00  0.00000000000E+00  0.32987591734E+03  0.32987591738E+03  0.50400001928E-02 0.  1.
        1   -1    0    0  501    0  0.00000000000E+00  0.00000000000E+00 -0.14749263232E+04  0.14749263232E+04  0.50400001928E-02 0. -1.
    10030    2    1    2    0    0  0.00000000000E+00  0.00000000000E+00 -0.11450504059E+04  0.18048022406E+04  0.13950522197E+04 0.  0.
        2    1    3    3  502    0 -0.50484269742E+03  0.34339999226E+03 -0.13618972192E+03  0.62556961578E+03  0.25500000920E-02 0.  1.
       -2    1    3    3    0  502  0.50484269742E+03 -0.34339999226E+03 -0.10088606840E+04  0.11792326248E+04  0.25500000920E-02 0. -1.
</event>
<event>
 5   0  0.2143942E-04  0.1402448E+04  0.7818609E-02  0.8952049E-01
       -1   -1    0    0    0  501  0.00000000000E+00  0.00000000000E+00  0.79248111274E+03  0.79248111275E+03  0.50400001928E-02 0.  1.
        1   -1    0    0  501    0  0.00000000000E+00  0.00000000000E+00 -0.62047539881E+03  0.62047539883E+03  0.50400001928E-02 0. -1.
    10030    2    1    2    0    0  0.00000000000E+00  0.00000000000E+00  0.17200571393E+03  0.14129565116E+04  0.14024479092E+04 0.  0.
        4    1    3    3  502    0 -0.45498699565E+03  0.20900344380E+03  0.58061711238E+03  0.76668993069E+03  0.12699999809E+01 0.  1.
       -4    1    3    3    0  502  0.45498699565E+03 -0.20900344380E+03 -0.40861139845E+03  0.64626658089E+03  0.12699999809E+01 0. -1.
</event>
<event>
 5   0  0.1497625E-04  0.1400412E+04  0.7818609E-02  0.8953521E-01
       -3   -1    0    0    0  501  0.00000000000E+00  0.00000000000E+00  0.60830986925E+03  0.60830987764E+03  0.10100000352E+00 0. -1.
        3   -1    0    0  501    0  0.00000000000E+00  0.00000000000E+00 -0.80598439078E+03  0.80598439711E+03  0.10100000352E+00 0.  1.
    10030    2    1    2    0    0  0.00000000000E+00  0.00000000000E+00 -0.19767452153E+03  0.14142942747E+04  0.14004117534E+04 0.  0.
        2    1    3    3  502    0 -0.38261076778E+03  0.21014957818E+03  0.45407007091E+03  0.62986782274E+03  0.25500000920E-02 0. -1.
       -2    1    3    3    0  502  0.38261076778E+03 -0.21014957818E+03 -0.65174459244E+03  0.78442645201E+03  0.25500000920E-02 0.  1.
</event>
<event>
 5   0  0.4310348E-04  0.1396751E+04  0.7818609E-02  0.8956174E-01
       -2   -1    0    0    0  501  0.00000000000E+00  0.00000000000E+00  0.58203093526E+03  0.58203093526E+03  0.25500000920E-02 0.  1.
        2   -1    0    0  501    0  0.00000000000E+00  0.00000000000E+00 -0.83797673577E+03  0.83797673577E+03  0.25500000920E-02 0. -1.
    10030    2    1    2    0    0  0.00000000000E+00  0.00000000000E+00 -0.25594580051E+03  0.14200076710E+04  0.13967510634E+04 0.  0.
        1    1    3    3  502    0 -0.11300705061E+03  0.68797637328E+03 -0.16922310506E+03  0.71743887753E+03  0.50400001928E-02 0.  1.
       -1    1    3    3    0  502  0.11300705061E+03 -0.68797637328E+03 -0.86722695454E+02  0.70256879351E+03  0.50400001928E-02 0. -1.
</event>
<event>
 5   0  0.2155352E-04  0.1349023E+04  0.7818609E-02  0.8991568E-01
       -1   -1    0    0    0  501  0.00000000000E+00  0.00000000000E+00  0.56909069090E+03  0.56909069092E+03  0.50400001928E-02 0. -1.
        1   -1    0    0  501    0  0.00000000000E+00  0.00000000000E+00 -0.79946108629E+03  0.79946108631E+03  0.50400001928E-02 0.  1.
    10030    2    1    2    0    0  0.00000000000E+00  0.00000000000E+00 -0.23037039539E+03  0.13685517772E+04  0.13490231458E+04 0.  0.
        2    1    3    3  502    0  0.29443086524E+03 -0.77768881085E+02 -0.72575179012E+03  0.78705348874E+03  0.25500000920E-02 0.  1.
       -2    1    3    3    0  502 -0.29443086524E+03  0.77768881085E+02  0.49538139473E+03  0.58149828849E+03  0.25500000920E-02 0. -1.
</event>
<event>
 5   0  0.3917598E-04  0.1399679E+04  0.7818609E-02  0.8954051E-01
       -2   -1    0    0    0  501  0.00000000000E+00  0.00000000000E+00  0.81255717070E+03  0.81255717071E+03  0.25500000920E-02 0. -1.
        2   -1    0    0  501    0  0.00000000000E+00  0.00000000000E+00 -0.60275780204E+03  0.60275780205E+03  0.25500000920E-02 0.  1.
    10030    2    1    2    0    0  0.00000000000E+00  0.00000000000E+00  0.20979936866E+03  0.14153149728E+04  0.13996787835E+04 0.  0.
        3    1    3    3  502    0 -0.38570948908E+03 -0.24657990890E+03 -0.43035454370E+03  0.62831401777E+03  0.10100000352E+00 0.  1.
       -3    1    3    3    0  502  0.38570948908E+03  0.24657990890E+03  0.64015391236E+03  0.78700095499E+03  0.10100000352E+00 0. -1.
</event>
<event>
 5   0  0.2143942E-04  0.1406026E+04  0.7818609E-02  0.8949468E-01
        1   -1    0    0  501    0  0.00000000000E+00  0.00000000000E+00  0.10601213362E+04  0.10601213362E+04  0.50400001928E-02 0. -1.
       -1   -1    0    0    0  501  0.00000000000E+00  0.00000000000E+00 -0.46619909033E+03  0.46619909036E+03  0.50400001928E-02 0.  1.
    10030    2    1    2    0    0  0.00000000000E+00  0.00000000000E+00  0.59392224585E+03  0.15263204266E+04  0.14060264615E+04 0.  0.
        4    1    3    3  502    0  0.32508292978E+03  0.50075732960E+03  0.69991911390E+03  0.91995934328E+03  0.12699999809E+01 0. -1.
       -4    1    3    3    0  502 -0.32508292978E+03 -0.50075732960E+03 -0.10599686805E+03  0.60636108328E+03  0.12699999809E+01 0.  1.
</event>
<event>
 5   0  0.4310348E-04  0.1400403E+04  0.7818609E-02  0.8953527E-01
        2   -1    0    0  501    0  0.00000000000E+00  0.00000000000E+00  0.10863131676E+04  0.10863131676E+04  0.25500000920E-02 0. -1.
       -2   -1    0    0    0  501  0.00000000000E+00  0.00000000000E+00 -0.45132651285E+03  0.45132651286E+03  0.25500000920E-02 0.  1.
    10030    2    1    2    0    0  0.00000000000E+00  0.00000000000E+00  0.63498665478E+03  0.15376396805E+04  0.14004027047E+04 0.  0.
        1    1    3    3  502    0 -0.23556776192E+03  0.65938053050E+03  0.31457188043E+03  0.76761339387E+03  0.50400001928E-02 0.  1.
       -1    1    3    3    0  502  0.23556776192E+03 -0.65938053050E+03  0.32041477435E+03  0.77002628664E+03  0.50400001928E-02 0. -1.
</event>
<event>
 5   0  0.2215876E-04  0.1414431E+04  0.7818609E-02  0.8943438E-01
        1   -1    0    0  501    0  0.00000000000E+00  0.00000000000E+00  0.47370393124E+03  0.47370393127E+03  0.50400001928E-02 0.  1.
       -1   -1    0    0    0  501  0.00000000000E+00  0.00000000000E+00 -0.10558368974E+04  0.10558368974E+04  0.50400001928E-02 0. -1.
    10030    2    1    2    0    0  0.00000000000E+00  0.00000000000E+00 -0.58213296616E+03  0.15295408287E+04  0.14144314605E+04 0.  0.
        3    1    3    3  502    0 -0.11608070510E+03 -0.60426061055E+03 -0.66807738004E+03  0.90825822951E+03  0.10100000352E+00 0. -1.
       -3    1    3    3    0  502  0.11608070510E+03  0.60426061055E+03  0.85944413879E+02  0.62128259917E+03  0.10100000352E+00 0.  1.
</event>
<event>
 5   0  0.4208622E-04  0.1336378E+04  0.7818609E-02  0.9001205E-01
       -2   -1    0    0    0  501  0.00000000000E+00  0.00000000000E+00  0.35541941426E+03  0.35541941427E+03  0.25500000920E-02 0. -1.
        2   -1    0    0  501    0  0.00000000000E+00  0.00000000000E+00 -0.12561954343E+04  0.12561954343E+04  0.25500000920E-02 0.  1.
    10030    2    1    2    0    0  0.00000000000E+00  0.00000000000E+00 -0.90077602001E+03  0.16116148485E+04  0.13363775596E+04 0.  0.
        4    1    3    3  502    0  0.31086403809E+02  0.17541956277E+03  0.32624899772E+03  0.37172356519E+03  0.12699999809E+01 0. -1.
       -4    1    3    3    0  502 -0.31086403809E+02 -0.17541956277E+03 -0.12270250177E+04  0.12398912834E+04  0.12699999809E+01 0.  1.
</event>
<event>
 5   0  0.4208622E-04  0.1398308E+04  0.7818609E-02  0.8955044E-01
       -2   -1    0    0    0  501  0.00000000000E+00  0.00000000000E+00  0.32411810135E+03  0.32411810136E+03  0.25500000920E-02 0. -1.
        2   -1    0    0  501    0  0.00000000000E+00  0.00000000000E+00 -0.15081431379E+04  0.15081431380E+04  0.25500000920E-02 0.  1.
    10030    2    1    2    0    0  0.00000000000E+00  0.00000000000E+00 -0.11840250366E+04  0.18322612393E+04  0.13983082499E+04 0.  0.
        4    1    3    3  502    0  0.21336046452E+03  0.52091229408E+03 -0.11353581544E+04  0.12672458552E+04  0.12699999809E+01 0. -1.
       -4    1    3    3    0  502 -0.21336046452E+03 -0.52091229408E+03 -0.48666882240E+02  0.56501538410E+03  0.12699999809E+01 0.  1.
</event>
<event>
 5   0  0.3975164E-04  0.1434750E+04  0.7818609E-02  0.8929042E-01
       -2   -1    0    0    0  501  0.00000000000E+00  0.00000000000E+00  0.48595424965E+03  0.48595424965E+03  0.25500000920E-02 0.  1.
        2   -1    0    0  501    0  0.00000000000E+00  0.00000000000E+00 -0.10590023163E+04  0.10590023163E+04  0.25500000920E-02 0. -1.
    10030    2    1    2    0    0  0.00000000000E+00  0.00000000000E+00 -0.57304806668E+03  0.15449565660E+04  0.14347497008E+04 0.  0.
        5    1    3    3  502    0 -0.39210060229E+03 -0.58404309126E+03 -0.43787413930E+03  0.82861635672E+03  0.46999998093E+01 0. -1.
       -5    1    3    3    0  502  0.39210060229E+03  0.58404309126E+03 -0.13517392738E+03  0.71634020926E+03  0.46999998093E+01 0.  1.
</event>
<event>
 5   0  0.3932568E-04  0.1421947E+04  0.7818609E-02  0.8938084E-01
        2   -1    0    0  501    0  0.00000000000E+00  0.00000000000E+00  0.21187271727E+04  0.21187271727E+04  0.25500000920E-02 0.  1.
       -2   -1    0    0    0  501  0.00000000000E+00  0.00000000000E+00 -0.23857866395E+03  0.23857866396E+03  0.25500000920E-02 0. -1.
    10030    2    1    2    0    0  0.00000000000E+00  0.00000000000E+00  0.18801485088E+04  0.23573058367E+04  0.14219466912E+04 0.  0.
        2    1    3    3  502    0  0.43091595294E+03 -0.66901645460E+02  0.91647020589E+01  0.43617471320E+03  0.25500000920E-02 0. -1.
       -2    1    3    3    0  502 -0.43091595294E+03  0.66901645460E+02  0.18709838067E+04  0.19211311235E+04  0.25500000920E-02 0.  1.
</event>
<event>
 5   0  0.3917598E-04  0.1400595E+04  0.7818609E-02  0.8953388E-01
       -2   -1    0    0    0  501  0.00000000000E+00  0.00000000000E+00  0.41633930351E+03  0.41633930351E+03  0.25500000920E-02 0.  1.
        2   -1    0    0  501    0  0.00000000000E+00  0.00000000000E+00 -0.11779250015E+04  0.11779250015E+04  0.25500000920E-02 0. -1.
    10030    2    1    2    0    0  0.00000000000E+00  0.00000000000E+00 -0.76158569804E+03  0.15942643051E+04  0.14005948375E+04 0.  0.
        3    1    3    3  502    0  0.63475582771E+03 -0.15191245135E+03 -0.91876566648E+02  0.65911582244E+03  0.10100000352E+00 0.  1.
       -3    1    3    3    0  502 -0.63475582771E+03  0.15191245135E+03 -0.66970913139E+03  0.93514848262E+03  0.10100000352E+00 0. -1.
</event>
<event>
 5   0  0.3917598E-04  0.1402974E+04  0.7818609E-02  0.8951669E-01
       -2   -1    0    0    0  501  0.00000000000E+00  0.00000000000E+00  0.46055730976E+03  0.46055730976E+03  0.25500000920E-02 0.  1.
        2   -1    0    0  501    0  0.00000000000E+00  0.00000000000E+00 -0.10684526398E+04  0.10684526398E+04  0.25500000920E-02 0. -1.
    10030    2    1    2    0    0  0.00000000000E+00  0.00000000000E+00 -0.60789533007E+03  0.15290099496E+04  0.14029735185E+04 0.  0.
        3    1    3    3  502    0 -0.47704178513E+03 -0.46758050153E+03 -0.53739452297E+03  0.85731748710E+03  0.10100000352E+00 0. -1.
       -3    1    3    3    0  502  0.47704178513E+03  0.46758050153E+03 -0.70500807100E+02  0.67169246249E+03  0.10100000352E+00 0.  1.
</event>
<event>
 5   0  0.3932568E-04  0.1402661E+04  0.7818609E-02  0.8951895E-01
        2   -1    0    0  501    0  0.00000000000E+00  0.00000000000E+00  0.12182011466E+04  0.12182011466E+04  0.25500000920E-02 0. -1.
       -2   -1    0    0    0  501  0.00000000000E+00  0.00000000000E+00 -0.40376272365E+03  0.40376272366E+03  0.25500000920E-02 0.  1.
    10030    2    1    2    0    0  0.00000000000E+00  0.00000000000E+00  0.81443842290E+03  0.16219638702E+04  0.14026606331E+04 0.  0.
        2    1    3    3  502    0  0.36660994759E+03 -0.27622720658E+03  0.10203671178E+04  0.11188625378E+04  0.25500000920E-02 0. -1.
       -2    1    3    3    0  502 -0.36660994759E+03  0.27622720658E+03 -0.20592869490E+03  0.50310133245E+03  0.25500000920E-02 0.  1.
</event>
<event>
 5   0  0.1497625E-04  0.1401348E+04  0.7818609E-02  0.8952844E-01
       -3   -1    0    0    0  501  0.00000000000E+00  0.00000000000E+00  0.12477575445E+04  0.12477575485E+04  0.10100000352E+00 0.  1.
        3   -1    0    0  501    0  0.00000000000E+00  0.00000000000E+00 -0.39346082001E+03  0.39346083297E+03  0.10100000352E+00 0. -1.
    10030    2    1    2    0    0  0.00000000000E+00  0.00000000000E+00  0.85429672444E+03  0.16412183815E+04  0.14013475238E+04 0.  0.
        5    1    3    3  502    0  0.50616668353E+03  0.44322702410E+03  0.19804515702E+03  0.70135503179E+03  0.46999998093E+01 0. -1.
       -5    1    3    3    0  502 -0.50616668353E+03 -0.44322702410E+03  0.65625156743E+03  0.93986334972E+03  0.46999998093E+01 0.  1.
</event>
<event>
 5   0  0.1497625E-04  0.1403920E+04  0.7818609E-02  0.8950986E-01
        4   -1    0    0  501    0  0.00000000000E+00  0.00000000000E+00  0.47811902748E+03  0.47812071419E+03  0.12699999809E+01 0. -1.
       -4   -1    0    0    0  501  0.00000000000E+00  0.00000000000E+00 -0.10305929769E+04  0.10305937594E+04  0.12699999809E+01 0.  1.
    10030    2    1    2    0    0  0.00000000000E+00  0.00000000000E+00 -0.55247394946E+03  0.15087144736E+04  0.14039201894E+04 0.  0.
        3    1    3    3  502    0  0.12750284460E+02  0.35991575967E+03 -0.92374549794E+03  0.99146743717E+03  0.10100000352E+00 0.  1.
       -3    1    3    3    0  502 -0.12750284460E+02 -0.35991575967E+03  0.37127154848E+03  0.51724703646E+03  0.10100000352E+00 0. -1.
</event>
<event>
 5   0  0.3917598E-04  0.1414858E+04  0.7818609E-02  0.8943133E-01
       -2   -1    0    0    0  501  0.00000000000E+00  0.00000000000E+00  0.41750991519E+03  0.41750991520E+03  0.25500000920E-02 0.  1.
        2   -1    0    0  501    0  0.00000000000E+00  0.00000000000E+00 -0.11986686295E+04  0.11986686295E+04  0.25500000920E-02 0. -1.
    10030    2    1    2    0    0  0.00000000000E+00  0.00000000000E+00 -0.78115871433E+03  0.16161785447E+04  0.14148583503E+04 0.  0.
        3    1    3    3  502    0 -0.67954786905E+02  0.56236467708E+03 -0.87465181114E+03  0.10420593476E+04  0.10100000352E+00 0. -1.
       -3    1    3    3    0  502  0.67954786905E+02 -0.56236467708E+03  0.93493096809E+02  0.57411919707E+03  0.10100000352E+00 0.  1.
</event>
<event>
 5   0  0.2143942E-04  0.1399298E+04  0.7818609E-02  0.8954327E-01
       -1   -1    0    0    0  501  0.00000000000E+00  0.00000000000E+00  0.59606405994E+03  0.59606405996E+03  0.50400001928E-02 0.  1.
        1   -1    0    0  501    0  0.00000000000E+00  0.00000000000E+00 -0.82123491366E+03  0.82123491368E+03  0.50400001928E-02 0. -1.
    10030    2    1    2    0    0  0.00000000000E+00  0.00000000000E+00 -0.22517085372E+03  0.14172989736E+04  0.13992978480E+04 0.  0.
        4    1    3    3  502    0 -0.29215887189E+03 -0.13428185830E+03  0.51679271601E+03  0.60865815374E+03  0.12699999809E+01 0.  1.
       -4    1    3    3    0  502  0.29215887189E+03  0.13428185830E+03 -0.74196356974E+03  0.80864081990E+03  0.12699999809E+01 0. -1.
</event>
<event>
 5   0  0.4310348E-04  0.1400836E+04  0.7818609E-02  0.8953214E-01
        2   -1    0    0  501    0  0.00000000000E+00  0.00000000000E+00  0.67100667991E+03  0.67100667991E+03  0.25500000920E-02 0. -1.
       -2   -1    0    0    0  501  0.00000000000E+00  0.00000000000E+00 -0.73111837626E+03  0.73111837626E+03  0.25500000920E-02 0.  1.
    10030    2    1    2    0    0  0.00000000000E+00  0.00000000000E+00 -0.60111696354E+02  0.14021250562E+04  0.14008359137E+04 0.  0.
        1    1    3    3  502    0 -0.29714236043E+03  0.66099811273E+02  0.60133568921E+03  0.67399360424E+03  0.50400001928E-02 0. -1.
       -1    1    3    3    0  502  0.29714236043E+03 -0.66099811273E+02 -0.66144738556E+03  0.72813145194E+03  0.50400001928E-02 0.  1.
</event>
<event>
 5   0  0.3932568E-04  0.1445317E+04  0.7818609E-02  0.8921654E-01
        2   -1    0    0  501    0  0.00000000000E+00  0.00000000000E+00  0.12555989073E+04  0.12555989073E+04  0.25500000920E-02 0. -1.
       -2   -1    0    0    0  501  0.00000000000E+00  0.00000000000E+00 -0.41592512175E+03  0.41592512175E+03  0.25500000920E-02 0.  1.
    10030    2    1    2    0    0  0.00000000000E+00  0.00000000000E+00  0.83967378558E+03  0.16715240291E+04  0.14453167520E+04 0.  0.
        2    1    3    3  502    0  0.47068166572E+03  0.45393611035E+03  0.64060146407E+02  0.65704103760E+03  0.25500000920E-02 0.  1.
       -2    1    3    3    0  502 -0.47068166572E+03 -0.45393611035E+03  0.77561363918E+03  0.10144829915E+04  0.25500000920E-02 0. -1.
</event>
<event>
 5   0  0.2155352E-04  0.1425932E+04  0.7818609E-02  0.8935258E-01
        1   -1    0    0  501    0  0.00000000000E+00  0.00000000000E+00  0.54264844104E+03  0.54264844106E+03  0.50400001928E-02 0. -1.
       -1   -1    0    0    0  501  0.00000000000E+00  0.00000000000E+00 -0.93674065870E+03  0.93674065872E+03  0.50400001928E-02 0.  1.
    10030    2    1    2    0    0  0.00000000000E+00  0.00000000000E+00 -0.39409221766E+03  0.14793890998E+04  0.14259324782E+04 0.  0.
        2    1    3    3  502    0  0.48940095293E+03 -0.37208429131E+03 -0.57163684934E+03  0.83948120890E+03  0.25500000920E-02 0.  1.
       -2    1    3    3    0  502 -0.48940095293E+03  0.37208429131E+03  0.17754463167E+03  0.63990789088E+03  0.25500000920E-02 0. -1.
</event>
<event>
 5   0  0.3975164E-04  0.1445173E+04  0.7818609E-02  0.8921754E-01
       -2   -1    0    0    0  501  0.00000000000E+00  0.00000000000E+00  0.46761928298E+03  0.46761928299E+03  0.25500000920E-02 0. -1.
        2   -1    0    0  501    0  0.00000000000E+00  0.00000000000E+00 -0.11165734131E+04  0.11165734131E+04  0.25500000920E-02 0.  1.
    10030    2    1    2    0    0  0.00000000000E+00  0.00000000000E+00 -0.64895413014E+03  0.15841926961E+04  0.14451730123E+04 0.  0.
        5    1    3    3  502    0  0.33067299682E+03 -0.62794986480E+03 -0.17560613673E+03  0.73111235031E+03  0.46999998093E+01 0. -1.
       -5    1    3    3    0  502 -0.33067299682E+03  0.62794986480E+03 -0.47334799341E+03  0.85308034579E+03  0.46999998093E+01 0.  1.
</event>
<event>
 5   0  0.2215876E-04  0.1406039E+04  0.7818609E-02  0.8949459E-01
        1   -1    0    0  501    0  0.00000000000E+00  0.00000000000E+00  0.11612051198E+04  0.11612051198E+04  0.50400001928E-02 0. -1.
       -1   -1    0    0    0  501  0.00000000000E+00  0.00000000000E+00 -0.42562369504E+03  0.42562369507E+03  0.50400001928E-02 0.  1.
    10030    2    1    2    0    0  0.00000000000E+00  0.00000000000E+00  0.73558142477E+03  0.15868288149E+04  0.14060389949E+04 0.  0.
        3    1    3    3  502    0 -0.96407428546E+02 -0.37171818819E+03  0.10323779069E+04  0.11014867029E+04  0.10100000352E+00 0. -1.
       -3    1    3    3    0  502  0.96407428546E+02  0.37171818819E+03 -0.29679648213E+03  0.48534211203E+03  0.10100000352E+00 0.  1.
</event>
<event>
 5   0  0.2215876E-04  0.1403881E+04  0.7818609E-02  0.8951014E-01
       -1   -1    0    0    0  501  0.00000000000E+00  0.00000000000E+00  0.36062677715E+03  0.36062677718E+03  0.50400001928E-02 0.  1.
        1   -1    0    0  501    0  0.00000000000E+00  0.00000000000E+00 -0.13662897790E+04  0.13662897790E+04  0.50400001928E-02 0. -1.
    10030    2    1    2    0    0  0.00000000000E+00  0.00000000000E+00 -0.10056630018E+04  0.17269165562E+04  0.14038813051E+04 0.  0.
        3    1    3    3  502    0 -0.78494547368E+02  0.12341077733E+03 -0.13473381416E+04  0.13552533682E+04  0.10100000352E+00 0. -1.
       -3    1    3    3    0  502  0.78494547368E+02 -0.12341077733E+03  0.34167513980E+03  0.37166318796E+03  0.10100000352E+00 0.  1.
</event>
<event>
 5   0  0.2143942E-04  0.1409942E+04  0.7818609E-02  0.8946653E-01
        1   -1    0    0  501    0  0.00000000000E+00  0.00000000000E+00  0.47789460159E+03  0.47789460161E+03  0.50400001928E-02 0.  1.
       -1   -1    0    0    0  501  0.00000000000E+00  0.00000000000E+00 -0.10399455423E+04  0.10399455424E+04  0.50400001928E-02 0. -1.
    10030    2    1    2    0    0  0.00000000000E+00  0.00000000000E+00 -0.56205094076E+03  0.15178401440E+04  0.14099423544E+04 0.  0.
        4    1    3    3  502    0  0.75858112205E+01  0.70371400087E+03 -0.23648526351E+03  0.74242698787E+03  0.12699999809E+01 0. -1.
       -4    1    3    3    0  502 -0.75858112205E+01 -0.70371400087E+03 -0.32556567725E+03  0.77541315610E+03  0.12699999809E+01 0.  1.
</event>
<event>
 5   0  0.4208622E-04  0.1401548E+04  0.7818609E-02  0.8952699E-01
        2   -1    0    0  501    0  0.00000000000E+00  0.00000000000E+00  0.32084863656E+03  0.32084863657E+03  0.25500000920E-02 0.  1.
       -2   -1    0    0    0  501  0.00000000000E+00  0.00000000000E+00 -0.15305791762E+04  0.15305791762E+04  0.25500000920E-02 0. -1.
    10030    2    1    2    0    0  0.00000000000E+00  0.00000000000E+00 -0.12097305397E+04  0.18514278128E+04  0.14015480610E+04 0.  0.
        4    1    3    3  502    0  0.39394863474E+03 -0.57222237248E+03 -0.72628595201E+03  0.10050506790E+04  0.12699999809E+01 0. -1.
       -4    1    3    3    0  502 -0.39394863474E+03  0.57222237248E+03 -0.48344458765E+03  0.84637713379E+03  0.12699999809E+01 0.  1.
</event>
<event>
 5   0  0.3932568E-04  0.1381765E+04  0.7818609E-02  0.8967125E-01
       -2   -1    0    0    0  501  0.00000000000E+00  0.00000000000E+00  0.45388676329E+03  0.45388676330E+03  0.25500000920E-02 0.  1.
        2   -1    0    0  501    0  0.00000000000E+00  0.00000000000E+00 -0.10516254034E+04  0.10516254034E+04  0.25500000920E-02 0. -1.
    10030    2    1    2    0    0  0.00000000000E+00  0.00000000000E+00 -0.59773864015E+03  0.15055121667E+04  0.13817653210E+04 0.  0.
        2    1    3    3  502    0 -0.45551977396E+03  0.49893686658E+03 -0.45631913485E+03  0.81526892136E+03  0.25500000920E-02 0.  1.
       -2    1    3    3    0  502  0.45551977396E+03 -0.49893686658E+03 -0.14141950531E+03  0.69024324538E+03  0.25500000920E-02 0. -1.
</event>
<event>
 5   0  0.4208622E-04  0.1416288E+04  0.7818609E-02  0.8942112E-01
       -2   -1    0    0    0  501  0.00000000000E+00  0.00000000000E+00  0.40196627124E+03  0.40196627125E+03  0.25500000920E-02 0. -1.
        2   -1    0    0  501    0  0.00000000000E+00  0.00000000000E+00 -0.12475379524E+04  0.12475379524E+04  0.25500000920E-02 0.  1.
    10030    2    1    2    0    0  0.00000000000E+00  0.00000000000E+00 -0.84557168118E+03  0.16495042237E+04  0.14162883590E+04 0.  0.
        4    1    3    3  502    0 -0.25860790302E+03  0.63929208863E+03 -0.23537162670E+03  0.72867951642E+03  0.12699999809E+01 0. -1.
       -4    1    3    3    0  502  0.25860790302E+03 -0.63929208863E+03 -0.61020005448E+03  0.92082470725E+03  0.12699999809E+01 0.  1.
</event>
<event>
 5   0  0.4310348E-04  0.1400399E+04  0.7818609E-02  0.8953530E-01
       -2   -1    0    0    0  501  0.00000000000E+00  0.00000000000E+00  0.66068346755E+03  0.66068346755E+03  0.25500000920E-02 0.  1.
        2   -1    0    0  501    0  0.00000000000E+00  0.00000000000E+00 -0.74207905041E+03  0.74207905042E+03  0.25500000920E-02 0. -1.
    10030    2    1    2    0    0  0.00000000000E+00  0.00000000000E+00 -0.81395582868E+02  0.14027625180E+04  0.14003990292E+04 0.  0.
        1    1    3    3  502    0  0.44970549945E+03  0.53423308676E+03 -0.92158936278E+02  0.70436730247E+03  0.50400001928E-02 0.  1.
       -1    1    3    3    0  502 -0.44970549945E+03 -0.53423308676E+03  0.10763353411E+02  0.69839521550E+03  0.50400001928E-02 0. -1.
</event>
<event>
 5   0  0.3917598E-04  0.1400101E+04  0.7818609E-02  0.8953745E-01
       -2   -1    0    0    0  501  0.00000000000E+00  0.00000000000E+00  0.49258004426E+03  0.49258004426E+03  0.25500000920E-02 0.  1.
        2   -1    0    0  501    0  0.00000000000E+00  0.00000000000E+00 -0.99490634309E+03  0.99490634309E+03  0.25500000920E-02 0. -1.
    10030    2    1    2    0    0  0.00000000000E+00  0.00000000000E+00 -0.50232629883E+03  0.14874863874E+04  0.14001014399E+04 0.  0.
        3    1    3    3  502    0 -0.62276168801E+03 -0.24366653896E+03 -0.31201263376E+02  0.66946174745E+03  0.10100000352E+00 0.  1.
       -3    1    3    3    0  502  0.62276168801E+03  0.24366653896E+03 -0.47112503545E+03  0.81802463991E+03  0.10100000352E+00 0. -1.
</event>
<event>
 5   0  0.2223112E-04  0.1401739E+04  0.7818609E-02  0.8952561E-01
        1   -1    0    0  501    0  0.00000000000E+00  0.00000000000E+00  0.14705703839E+04  0.14705703839E+04  0.50400001928E-02 0.  1.
       -1   -1    0    0    0  501  0.00000000000E+00  0.00000000000E+00 -0.33403226048E+03  0.33403226052E+03  0.50400001928E-02 0. -1.
    10030    2    1    2    0    0  0.00000000000E+00  0.00000000000E+00  0.11365381235E+04  0.18046026445E+04  0.14017388481E+04 0.  0.
        1    1    3    3  502    0  0.12370406724E+03  0.65607176673E+03  0.29370163721E+03  0.72937885291E+03  0.50400001928E-02 0. -1.
       -1    1    3    3    0  502 -0.12370406724E+03 -0.65607176673E+03  0.84283648624E+03  0.10752237915E+04  0.50400001928E-02 0.  1.
</event>
<event>
 5   0  0.3932568E-04  0.1395067E+04  0.7818609E-02  0.8957397E-01
       -2   -1    0    0    0  501  0.00000000000E+00  0.00000000000E+00  0.77110463335E+03  0.77110463336E+03  0.25500000920E-02 0. -1.
        2   -1    0    0  501    0  0.00000000000E+00  0.00000000000E+00 -0.63098203493E+03  0.63098203494E+03  0.25500000920E-02 0.  1.
    10030    2    1    2    0    0  0.00000000000E+00  0.00000000000E+00  0.14012259842E+03  0.14020866683E+04  0.13950672682E+04 0.  0.
        2    1    3    3  502    0 -0.51080895613E+03  0.35946802428E+02 -0.40596224161E+03  0.65347020122E+03  0.25500000920E-02 0.  1.
       -2    1    3    3    0  502  0.51080895613E+03 -0.35946802428E+02  0.54608484002E+03  0.74861646708E+03  0.25500000920E-02 0. -1.
</event>
<event>
 5   0  0.2155352E-04  0.1392655E+04  0.7818609E-02  0.8959152E-01
       -1   -1    0    0    0  501  0.00000000000E+00  0.00000000000E+00  0.44538565926E+03  0.44538565929E+03  0.50400001928E-02 0. -1.
        1   -1    0    0  501    0  0.00000000000E+00  0.00000000000E+00 -0.10886570628E+04  0.10886570629E+04  0.50400001928E-02 0.  1.
    10030    2    1    2    0    0  0.00000000000E+00  0.00000000000E+00 -0.64327140359E+03  0.15340427221E+04  0.13926553682E+04 0.  0.
        2    1    3    3  502    0 -0.48598791286E+03  0.72235874935E+02  0.22188551112E+03  0.53910616128E+03  0.25500000920E-02 0. -1.
       -2    1    3    3    0  502  0.48598791286E+03 -0.72235874935E+02 -0.86515691471E+03  0.99493656087E+03  0.25500000920E-02 0.  1.
</event>
<event>
 5   0  0.3932568E-04  0.1408595E+04  0.7818609E-02  0.8947620E-01
        2   -1    0    0  501    0  0.00000000000E+00  0.00000000000E+00  0.57661236956E+03  0.57661236957E+03  0.25500000920E-02 0. -1.
       -2   -1    0    0    0  501  0.00000000000E+00  0.00000000000E+00 -0.86025746328E+03  0.86025746329E+03  0.25500000920E-02 0.  1.
    10030    2    1    2    0    0  0.00000000000E+00  0.00000000000E+00 -0.28364509372E+03  0.14368698329E+04  0.14085951787E+04 0.  0.
        2    1    3    3  502    0 -0.62685047933E+03 -0.80513041689E+02 -0.45888514550E+03  0.78102461554E+03  0.25500000920E-02 0.  1.
       -2    1    3    3    0  502  0.62685047933E+03  0.80513041689E+02  0.17524005178E+03  0.65584521731E+03  0.25500000920E-02 0. -1.
</event>
<event>
 5   0  0.4208622E-04  0.1398813E+04  0.7818609E-02  0.8954678E-01
        2   -1    0    0  501    0  0.00000000000E+00  0.00000000000E+00  0.11536219211E+04  0.11536219211E+04  0.25500000920E-02 0. -1.
       -2   -1    0    0    0  501  0.00000000000E+00  0.00000000000E+00 -0.42402936724E+03  0.42402936724E+03  0.25500000920E-02 0.  1.
    10030    2    1    2    0    0  0.00000000000E+00  0.00000000000E+00  0.72959255382E+03  0.15776512883E+04  0.13988131730E+04 0.  0.
        4    1    3    3  502    0  0.10726967481E+03 -0.53239718191E+03 -0.13224451969E+03  0.55896669697E+03  0.12699999809E+01 0.  1.
       -4    1    3    3    0  502 -0.10726967481E+03  0.53239718191E+03  0.86183707351E+03  0.10186845913E+04  0.12699999809E+01 0. -1.
</event>
<event>
 5   0  0.2223112E-04  0.1404223E+04  0.7818609E-02  0.8950767E-01
       -1   -1    0    0    0  501  0.00000000000E+00  0.00000000000E+00  0.16247752720E+03  0.16247752728E+03  0.50400001928E-02 0.  1.
        1   -1    0    0  501    0  0.00000000000E+00  0.00000000000E+00 -0.30340239146E+04  0.30340239146E+04  0.50400001928E-02 0. -1.
    10030    2    1    2    0    0  0.00000000000E+00  0.00000000000E+00 -0.28715463874E+04  0.31965014419E+04  0.14042232063E+04 0.  0.
        1    1    3    3  502    0 -0.17564421990E+03  0.55377446427E+03 -0.23332541809E+04  0.24044941510E+04  0.50400001928E-02 0. -1.
       -1    1    3    3    0  502  0.17564421990E+03 -0.55377446427E+03 -0.53829220644E+03  0.79200729088E+03  0.50400001928E-02 0.  1.
</event>
<event>
 5   0  0.2215876E-04  0.1400194E+04  0.7818609E-02  0.8953678E-01
       -1   -1    0    0    0  501  0.00000000000E+00  0.00000000000E+00  0.54040961779E+03  0.54040961781E+03  0.50400001928E-02 0. -1.
        1   -1    0    0  501    0  0.00000000000E+00  0.00000000000E+00 -0.90697078099E+03  0.90697078100E+03  0.50400001928E-02 0.  1.
    10030    2    1    2    0    0  0.00000000000E+00  0.00000000000E+00 -0.36656116320E+03  0.14473803988E+04  0.14001938910E+04 0.  0.
        3    1    3    3  502    0  0.31879339988E+03  0.22596967482E+03  0.41719519222E+03  0.57161469921E+03  0.10100000352E+00 0. -1.
       -3    1    3    3    0  502 -0.31879339988E+03 -0.22596967482E+03 -0.78375635542E+03  0.87576569960E+03  0.10100000352E+00 0.  1.
</event>
<event>
 5   0  0.3917598E-04  0.1419231E+04  0.7818609E-02  0.8940014E-01
       -2   -1    0    0    0  501  0.00000000000E+00  0.00000000000E+00  0.54081817214E+03  0.54081817214E+03  0.25500000920E-02 0.  1.
        2   -1    0    0  501    0  0.00000000000E+00  0.00000000000E+00 -0.93109723499E+03  0.93109723499E+03  0.25500000920E-02 0. -1.
    10030    2    1    2    0    0  0.00000000000E+00  0.00000000000E+00 -0.39027906285E+03  0.14719154071E+04  0.14192312070E+04 0.  0.
        3    1    3    3  502    0  0.39453077566E+03  0.56188897950E+01 -0.80683752737E+03  0.89814971504E+03  0.10100000352E+00 0. -1.
       -3    1    3    3    0  502 -0.39453077566E+03 -0.56188897950E+01  0.41655846452E+03  0.57376569209E+03  0.10100000352E+00 0.  1.
</event>
<event>
 5   0  0.2217251E-04  0.1396448E+04  0.7818609E-02  0.8956394E-01
       -1   -1    0    0    0  501  0.00000000000E+00  0.00000000000E+00  0.66475953664E+03  0.66475953666E+03  0.50400001928E-02 0.  1.
        1   -1    0    0  501    0  0.00000000000E+00  0.00000000000E+00 -0.73337287212E+03  0.73337287213E+03  0.50400001928E-02 0. -1.
    10030    2    1    2    0    0  0.00000000000E+00  0.00000000000E+00 -0.68613335475E+02  0.13981324088E+04  0.13964477945E+04 0.  0.
        5    1    3    3  502    0  0.25868308793E+02  0.55093996483E+03  0.39433420839E+03  0.67803065723E+03  0.46999998093E+01 0.  1.
       -5    1    3    3    0  502 -0.25868308793E+02 -0.55093996483E+03 -0.46294754386E+03  0.72010175157E+03  0.46999998093E+01 0. -1.
</event>
<event>
 5   0  0.2143942E-04  0.1403149E+04  0.7818609E-02  0.8951542E-01
        1   -1    0    0  501    0  0.00000000000E+00  0.00000000000E+00  0.73567758702E+03  0.73567758703E+03  0.50400001928E-02 0.  1.
       -1   -1    0    0    0  501  0.00000000000E+00  0.00000000000E+00 -0.66905230828E+03  0.66905230830E+03  0.50400001928E-02 0. -1.
    10030    2    1    2    0    0  0.00000000000E+00  0.00000000000E+00  0.66625278735E+02  0.14047298953E+04  0.14031490124E+04 0.  0.
        4    1    3    3  502    0 -0.32949561418E+03  0.28513982651E+03  0.58378038246E+03  0.72847321726E+03  0.12699999809E+01 0.  1.
       -4    1    3    3    0  502  0.32949561418E+03 -0.28513982651E+03 -0.51715510372E+03  0.67625667807E+03  0.12699999809E+01 0. -1.
</event>
<event>
 5   0  0.4208622E-04  0.1398845E+04  0.7818609E-02  0.8954655E-01
       -2   -1    0    0    0  501  0.00000000000E+00  0.00000000000E+00  0.63441931550E+03  0.63441931550E+03  0.25500000920E-02 0. -1.
        2   -1    0    0  501    0  0.00000000000E+00  0.00000000000E+00 -0.77108555787E+03  0.77108555787E+03  0.25500000920E-02 0.  1.
    10030    2    1    2    0    0  0.00000000000E+00  0.00000000000E+00 -0.13666624237E+03  0.14055048734E+04  0.13988446259E+04 0.  0.
        4    1    3    3  502    0  0.60638941465E+02 -0.26614011119E+03 -0.71535748786E+03  0.76566676064E+03  0.12699999809E+01 0.  1.
       -4    1    3    3    0  502 -0.60638941465E+02  0.26614011119E+03  0.57869124549E+03  0.63983811274E+03  0.12699999809E+01 0. -1.
</event>
<event>
 5   0  0.4310348E-04  0.1395804E+04  0.7818609E-02  0.8956862E-01
        2   -1    0    0  501    0  0.00000000000E+00  0.00000000000E+00  0.11078628725E+04  0.11078628725E+04  0.25500000920E-02 0. -1.
       -2   -1    0    0    0  501  0.00000000000E+00  0.00000000000E+00 -0.43964560447E+03  0.43964560448E+03  0.25500000920E-02 0.  1.
    10030    2    1    2    0    0  0.00000000000E+00  0.00000000000E+00  0.66821726804E+03  0.15475084770E+04  0.13958037717E+04 0.  0.
        1    1    3    3  502    0  0.40229986555E+03 -0.20594456702E+03 -0.25548807213E+03  0.51916519676E+03  0.50400001928E-02 0.  1.
       -1    1    3    3    0  502 -0.40229986555E+03  0.20594456702E+03  0.92370534017E+03  0.10283432802E+04  0.50400001928E-02 0. -1.
</event>
<event>
 5   0  0.2155352E-04  0.1401181E+04  0.7818609E-02  0.8952964E-01
       -1   -1    0    0    0  501  0.00000000000E+00  0.00000000000E+00  0.28929940946E+03  0.28929940950E+03  0.50400001928E-02 0. -1.
        1   -1    0    0  501    0  0.00000000000E+00  0.00000000000E+00 -0.16966049124E+04  0.16966049124E+04  0.50400001928E-02 0.  1.
    10030    2    1    2    0    0  0.00000000000E+00  0.00000000000E+00 -0.14073055029E+04  0.19859043219E+04  0.14011806440E+04 0.  0.
        2    1    3    3  502    0  0.23203860580E+03 -0.66032399256E+03 -0.65980523354E+03  0.96187974090E+03  0.25500000920E-02 0. -1.
       -2    1    3    3    0  502 -0.23203860580E+03  0.66032399256E+03 -0.74750026937E+03  0.10240245810E+04  0.25500000920E-02 0.  1.
</event>
<event>
 5   0  0.3932568E-04  0.1397850E+04  0.7818609E-02  0.8955377E-01
       -2   -1    0    0    0  501  0.00000000000E+00  0.00000000000E+00  0.56007553241E+03  0.56007553241E+03  0.25500000920E-02 0.  1.
        2   -1    0    0  501    0  0.00000000000E+00  0.00000000000E+00 -0.87219641372E+03  0.87219641372E+03  0.25500000920E-02 0. -1.
    10030    2    1    2    0    0  0.00000000000E+00  0.00000000000E+00 -0.31212088131E+03  0.14322719461E+04  0.13978495925E+04 0.  0.
        2    1    3    3  502    0  0.65227592526E+03 -0.24885481806E+03 -0.12202702962E+03  0.70871940789E+03  0.25500000920E-02 0. -1.
       -2    1    3    3    0  502 -0.65227592526E+03  0.24885481806E+03 -0.19009385169E+03  0.72355253825E+03  0.25500000920E-02 0.  1.
</event>
<event>
 5   0  0.4310348E-04  0.1391480E+04  0.7818609E-02  0.8960009E-01
       -2   -1    0    0    0  501  0.00000000000E+00  0.00000000000E+00  0.11454171332E+04  0.11454171332E+04  0.25500000920E-02 0.  1.
        2   -1    0    0  501    0  0.00000000000E+00  0.00000000000E+00 -0.42260081255E+03  0.42260081255E+03  0.25500000920E-02 0. -1.
    10030    2    1    2    0    0  0.00000000000E+00  0.00000000000E+00  0.72281632066E+03  0.15680179458E+04  0.13914800914E+04 0.  0.
        1    1    3    3  502    0  0.65951693211E+03  0.15140934389E+03  0.17912369666E+03  0.69998047965E+03  0.50400001928E-02 0.  1.
       -1    1    3    3    0  502 -0.65951693211E+03 -0.15140934389E+03  0.54369262401E+03  0.86803746612E+03  0.50400001928E-02 0. -1.
</event>
<event>
 5   0  0.3917598E-04  0.1402435E+04  0.7818609E-02  0.8952058E-01
       -2   -1    0    0    0  501  0.00000000000E+00  0.00000000000E+00  0.23317499290E+03  0.23317499292E+03  0.25500000920E-02 0.  1.
        2   -1    0    0  501    0  0.00000000000E+00  0.00000000000E+00 -0.21087411790E+04  0.21087411790E+04  0.25500000920E-02 0. -1.
    10030    2    1    2    0    0  0.00000000000E+00  0.00000000000E+00 -0.18755661861E+04  0.23419161719E+04  0.14024346109E+04 0.  0.
        3    1    3    3  502    0 -0.26363591917E+03  0.29144431070E+03 -0.19075613432E+04  0.19476226463E+04  0.10100000352E+00 0. -1.
       -3    1    3    3    0  502  0.26363591917E+03 -0.29144431070E+03  0.31995157046E+02  0.39429352568E+03  0.10100000352E+00 0.  1.
</event>
<event>
 5   0  0.3932568E-04  0.1403466E+04  0.7818609E-02  0.8951314E-01
        2   -1    0    0  501    0  0.00000000000E+00  0.00000000000E+00  0.97701604572E+03  0.97701604572E+03  0.25500000920E-02 0.  1.
       -2   -1    0    0    0  501  0.00000000000E+00  0.00000000000E+00 -0.50401337090E+03  0.50401337091E+03  0.25500000920E-02 0. -1.
    10030    2    1    2    0    0  0.00000000000E+00  0.00000000000E+00  0.47300267482E+03  0.14810294166E+04  0.14034659250E+04 0.  0.
        2    1    3    3  502    0  0.28668021633E+03 -0.59145036950E+03 -0.22909634731E+02  0.65766552090E+03  0.25500000920E-02 0.  1.
       -2    1    3    3    0  502 -0.28668021633E+03  0.59145036950E+03  0.49591230955E+03  0.82336389572E+03  0.25500000920E-02 0. -1.
</event>
<event>
 5   0  0.2217251E-04  0.1396643E+04  0.7818609E-02  0.8956252E-01
        1   -1    0    0  501    0  0.00000000000E+00  0.00000000000E+00  0.91476842866E+03  0.91476842867E+03  0.50400001928E-02 0. -1.
       -1   -1    0    0    0  501  0.00000000000E+00  0.00000000000E+00 -0.53308890818E+03  0.53308890821E+03  0.50400001928E-02 0.  1.
    10030    2    1    2    0    0  0.00000000000E+00  0.00000000000E+00  0.38167952047E+03  0.14478573369E+04  0.13966429793E+04 0.  0.
        5    1    3    3  502    0  0.22911943891E+03  0.77010021319E+01  0.87462988969E+03  0.90418723540E+03  0.46999998093E+01 0. -1.
       -5    1    3    3    0  502 -0.22911943891E+03 -0.77010021319E+01 -0.49295036922E+03  0.54367010147E+03  0.46999998093E+01 0.  1.
</event>
<event>
 5   0  0.4208622E-04  0.1387887E+04  0.7818609E-02  0.8962633E-01
       -2   -1    0    0    0  501  0.00000000000E+00  0.00000000000E+00  0.13596527906E+04  0.13596527906E+04  0.25500000920E-02 0. -1.
        2   -1    0    0  501    0  0.00000000000E+00  0.00000000000E+00 -0.35417711945E+03  0.35417711946E+03  0.25500000920E-02 0.  1.
    10030    2    1    2    0    0  0.00000000000E+00  0.00000000000E+00  0.10054756712E+04  0.17138299101E+04  0.13878874722E+04 0.  0.
        4    1    3    3  502    0  0.29472888234E+03 -0.12430871828E+03 -0.25771045225E+03  0.41077251810E+03  0.12699999809E+01 0.  1.
       -4    1    3    3    0  502 -0.29472888234E+03  0.12430871828E+03  0.12631861234E+04  0.13030573920E+04  0.12699999809E+01 0. -1.
</event>
<event>
 5   0  0.2215876E-04  0.1403544E+04  0.7818609E-02  0.8951258E-01
        1   -1    0    0  501    0  0.00000000000E+00  0.00000000000E+00  0.13463488266E+04  0.13463488267E+04  0.50400001928E-02 0.  1.
       -1   -1    0    0    0  501  0.00000000000E+00  0.00000000000E+00 -0.36579201948E+03  0.36579201951E+03  0.50400001928E-02 0. -1.
    10030    2    1    2    0    0  0.00000000000E+00  0.00000000000E+00  0.98055680716E+03  0.17121408462E+04  0.14035435957E+04 0.  0.
        3    1    3    3  502    0 -0.45385614493E+03 -0.37374014399E+03  0.95769172896E+03  0.11237617868E+04  0.10100000352E+00 0.  1.
       -3    1    3    3    0  502  0.45385614493E+03  0.37374014399E+03  0.22865078207E+02  0.58837905938E+03  0.10100000352E+00 0. -1.
</event>
<event>
 5   0  0.2215876E-04  0.1388127E+04  0.7818609E-02  0.8962458E-01
       -1   -1    0    0    0  501  0.00000000000E+00  0.00000000000E+00  0.26487307670E+03  0.26487307675E+03  0.50400001928E-02 0. -1.
        1   -1    0    0  501    0  0.00000000000E+00  0.00000000000E+00 -0.18186987206E+04  0.18186987206E+04  0.50400001928E-02 0.  1.
    10030    2    1    2    0    0  0.00000000000E+00  0.00000000000E+00 -0.15538256439E+04  0.20835717973E+04  0.13881272647E+04 0.  0.
        3    1    3    3  502    0  0.46561912069E+03  0.51364181284E+03 -0.82658731686E+03  0.10788307004E+04  0.10100000352E+00 0.  1.
       -3    1    3    3    0  502 -0.46561912069E+03 -0.51364181284E+03 -0.72723832701E+03  0.10047410970E+04  0.10100000352E+00 0. -1.
</event>
<event>
 5   0  0.3917598E-04  0.1398768E+04  0.7818609E-02  0.8954711E-01
        2   -1    0    0  501    0  0.00000000000E+00  0.00000000000E+00  0.16402934435E+04  0.16402934435E+04  0.25500000920E-02 0.  1.
       -2   -1    0    0    0  501  0.00000000000E+00  0.00000000000E+00 -0.29820143716E+03  0.29820143718E+03  0.25500000920E-02 0. -1.
    10030    2    1    2    0    0  0.00000000000E+00  0.00000000000E+00  0.13420920063E+04  0.19384948806E+04  0.13987678324E+04 0.  0.
        3    1    3    3  502    0 -0.12996564677E+03 -0.10543446459E+02  0.16232991244E+04  0.16285276452E+04  0.10100000352E+00 0.  1.
       -3    1    3    3    0  502  0.12996564677E+03  0.10543446459E+02 -0.28120711809E+03  0.30996723548E+03  0.10100000352E+00 0. -1.
</event>
<event>
 5   0  0.1497625E-04  0.1399864E+04  0.7818609E-02  0.8953917E-01
        3   -1    0    0  501    0  0.00000000000E+00  0.00000000000E+00  0.64136223505E+03  0.64136224300E+03  0.10100000352E+00 0.  1.
       -3   -1    0    0    0  501  0.00000000000E+00  0.00000000000E+00 -0.76385006511E+03  0.76385007178E+03  0.10100000352E+00 0. -1.
    10030    2    1    2    0    0  0.00000000000E+00  0.00000000000E+00 -0.12248783006E+03  0.14052123148E+04  0.13998637009E+04 0.  0.
        1    1    3    3  502    0 -0.36385665872E+03 -0.13831371827E+03  0.52268499437E+03  0.65170695571E+03  0.50400001928E-02 0.  1.
       -1    1    3    3    0  502  0.36385665872E+03  0.13831371827E+03 -0.64517282442E+03  0.75350535908E+03  0.50400001928E-02 0. -1.
</event>
<event>
 5   0  0.2215876E-04  0.1400913E+04  0.7818609E-02  0.8953158E-01
       -1   -1    0    0    0  501  0.00000000000E+00  0.00000000000E+00  0.45730528352E+03  0.45730528354E+03  0.50400001928E-02 0. -1.
        1   -1    0    0  501    0  0.00000000000E+00  0.00000000000E+00 -0.10728925631E+04  0.10728925631E+04  0.50400001928E-02 0.  1.
    10030    2    1    2    0    0  0.00000000000E+00  0.00000000000E+00 -0.61558727957E+03  0.15301978466E+04  0.14009131847E+04 0.  0.
        3    1    3    3  502    0 -0.85227379527E+02  0.24261483349E+03 -0.10194695275E+04  0.10514008709E+04  0.10100000352E+00 0.  1.
       -3    1    3    3    0  502  0.85227379527E+02 -0.24261483349E+03  0.40388224789E+03  0.47879697577E+03  0.10100000352E+00 0. -1.
</event>
<event>
 5   0  0.2143942E-04  0.1399151E+04  0.7818609E-02  0.8954433E-01
       -1   -1    0    0    0  501  0.00000000000E+00  0.00000000000E+00  0.77734966563E+03  0.77734966564E+03  0.50400001928E-02 0. -1.
        1   -1    0    0  501    0  0.00000000000E+00  0.00000000000E+00 -0.62958275510E+03  0.62958275512E+03  0.50400001928E-02 0.  1.
    10030    2    1    2    0    0  0.00000000000E+00  0.00000000000E+00  0.14776691053E+03  0.14069324208E+04  0.13991510915E+04 0.  0.
        4    1    3    3  502    0 -0.61572887266E+03  0.24569926328E+03  0.29854073686E+03  0.72706145344E+03  0.12699999809E+01 0. -1.
       -4    1    3    3    0  502  0.61572887266E+03 -0.24569926328E+03 -0.15077382634E+03  0.67987096733E+03  0.12699999809E+01 0.  1.
</event>
<event>
 5   0  0.2217251E-04  0.1395227E+04  0.7818609E-02  0.8957280E-01
       -1   -1    0    0    0  501  0.00000000000E+00  0.00000000000E+00  0.60530861962E+03  0.60530861964E+03  0.50400001928E-02 0.  1.
        1   -1    0    0  501    0  0.00000000000E+00  0.00000000000E+00 -0.80399472286E+03  0.80399472288E+03  0.50400001928E-02 0. -1.
    10030    2    1    2    0    0  0.00000000000E+00  0.00000000000E+00 -0.19868610324E+03  0.14093033425E+04  0.13952274881E+04 0.  0.
        5    1    3    3  502    0 -0.64327100386E+02 -0.10415754776E+03  0.59435771503E+03  0.60685249774E+03  0.46999998093E+01 0.  1.
       -5    1    3    3    0  502  0.64327100386E+02  0.10415754776E+03 -0.79304381827E+03  0.80245084478E+03  0.46999998093E+01 0. -1.
</event>
<event>
 5   0  0.2143942E-04  0.1400509E+04  0.7818609E-02  0.8953450E-01
        1   -1    0    0  501    0  0.00000000000E+00  0.00000000000E+00  0.56203323874E+03  0.56203323876E+03  0.50400001928E-02 0. -1.
       -1   -1    0    0    0  501  0.00000000000E+00  0.00000000000E+00 -0.87246895399E+03  0.87246895400E+03  0.50400001928E-02 0.  1.
    10030    2    1    2    0    0  0.00000000000E+00  0.00000000000E+00 -0.31043571525E+03  0.14345021928E+04  0.14005092673E+04 0.  0.
        4    1    3    3  502    0 -0.25079496060E+03  0.10338346549E+03 -0.81646341891E+03  0.86034898763E+03  0.12699999809E+01 0.  1.
       -4    1    3    3    0  502  0.25079496060E+03 -0.10338346549E+03  0.50602770366E+03  0.57415320514E+03  0.12699999809E+01 0. -1.
</event>
<event>
 5   0  0.3917598E-04  0.1404551E+04  0.7818609E-02  0.8950531E-01
       -2   -1    0    0    0  501  0.00000000000E+00  0.00000000000E+00  0.49642696258E+03  0.49642696258E+03  0.25500000920E-02 0. -1.
        2   -1    0    0  501    0  0.00000000000E+00  0.00000000000E+00 -0.99348168203E+03  0.99348168203E+03  0.25500000920E-02 0.  1.
    10030    2    1    2    0    0  0.00000000000E+00  0.00000000000E+00 -0.49705471945E+03  0.14899086446E+04  0.14045513074E+04 0.  0.
        3    1    3    3  502    0  0.61281591749E+03 -0.27116813527E+02 -0.61123135901E+03  0.86595753634E+03  0.10100000352E+00 0. -1.
       -3    1    3    3    0  502 -0.61281591749E+03  0.27116813527E+02  0.11417663956E+03  0.62395110828E+03  0.10100000352E+00 0.  1.
</event>
<event>
 5   0  0.2223112E-04  0.1399533E+04  0.7818609E-02  0.8954157E-01
        1   -1    0    0  501    0  0.00000000000E+00  0.00000000000E+00  0.69201537979E+03  0.69201537981E+03  0.50400001928E-02 0. -1.
       -1   -1    0    0    0  501  0.00000000000E+00  0.00000000000E+00 -0.70760460020E+03  0.70760460022E+03  0.50400001928E-02 0.  1.
    10030    2    1    2    0    0  0.00000000000E+00  0.00000000000E+00 -0.15589220410E+02  0.13996199800E+04  0.13995331596E+04 0.  0.
        1    1    3    3  502    0 -0.26834587373E+03  0.63489434382E+03  0.11293127153E+03  0.69846532331E+03  0.50400001928E-02 0. -1.
       -1    1    3    3    0  502  0.26834587373E+03 -0.63489434382E+03 -0.12852049194E+03  0.70115465671E+03  0.50400001928E-02 0.  1.
</event>
<event>
 5   0  0.3917598E-04  0.1396725E+04  0.7818609E-02  0.8956193E-01
        2   -1    0    0  501    0  0.00000000000E+00  0.00000000000E+00  0.10880052417E+04  0.10880052417E+04  0.25500000920E-02 0. -1.
       -2   -1    0    0    0  501  0.00000000000E+00  0.00000000000E+00 -0.44826074118E+03  0.44826074119E+03  0.25500000920E-02 0.  1.
    10030    2    1    2    0    0  0.00000000000E+00  0.00000000000E+00  0.63974450054E+03  0.15362659829E+04  0.13967247919E+04 0.  0.
        3    1    3    3  502    0  0.19436234020E+02 -0.15747728868E+03 -0.42817151944E+03  0.45662645993E+03  0.10100000352E+00 0.  1.
       -3    1    3    3    0  502 -0.19436234020E+02  0.15747728868E+03  0.10679160200E+04  0.10796395230E+04  0.10100000352E+00 0. -1.
</event>
<event>
 5   0  0.4208622E-04  0.1408882E+04  0.7818609E-02  0.8947414E-01
        2   -1    0    0  501    0  0.00000000000E+00  0.00000000000E+00  0.55228334475E+03  0.55228334475E+03  0.25500000920E-02 0.  1.
       -2   -1    0    0    0  501  0.00000000000E+00  0.00000000000E+00 -0.89851964819E+03  0.89851964819E+03  0.25500000920E-02 0. -1.
    10030    2    1    2    0    0  0.00000000000E+00  0.00000000000E+00 -0.34623630344E+03  0.14508029929E+04  0.14088824460E+04 0.  0.
        4    1    3    3  502    0 -0.15674311215E+03  0.97966333055E+01  0.53402515529E+03  0.55664068896E+03  0.12699999809E+01 0.  1.
       -4    1    3    3    0  502  0.15674311215E+03 -0.97966333055E+01 -0.88026145873E+03  0.89416230398E+03  0.12699999809E+01 0. -1.
</event>
<event>
 5   0  0.2143942E-04  0.1402873E+04  0.7818609E-02  0.8951741E-01
       -1   -1    0    0    0  501  0.00000000000E+00  0.00000000000E+00  0.32489371732E+03  0.32489371736E+03  0.50400001928E-02 0. -1.
        1   -1    0    0  501    0  0.00000000000E+00  0.00000000000E+00 -0.15143820941E+04  0.15143820941E+04  0.50400001928E-02 0.  1.
    10030    2    1    2    0    0  0.00000000000E+00  0.00000000000E+00 -0.11894883768E+04  0.18392758115E+04  0.14028730920E+04 0.  0.
        4    1    3    3  502    0 -0.53995019280E+03 -0.14689629969E+03 -0.40223541942E+02  0.56102074810E+03  0.12699999809E+01 0.  1.
       -4    1    3    3    0  502  0.53995019280E+03  0.14689629969E+03 -0.11492648348E+04  0.12782550634E+04  0.12699999809E+01 0. -1.
</event>
<event>
 5   0  0.2223112E-04  0.1398320E+04  0.7818609E-02  0.8955036E-01
        1   -1    0    0  501    0  0.00000000000E+00  0.00000000000E+00  0.10305734116E+04  0.10305734116E+04  0.50400001928E-02 0.  1.
       -1   -1    0    0    0  501  0.00000000000E+00  0.00000000000E+00 -0.47432272625E+03  0.47432272628E+03  0.50400001928E-02 0. -1.
    10030    2    1    2    0    0  0.00000000000E+00  0.00000000000E+00  0.55625068537E+03  0.15048961379E+04  0.13983195489E+04 0.  0.
        1    1    3    3  502    0  0.10523891720E+03 -0.67628415885E+03  0.43179812854E+03  0.80924972477E+03  0.50400001928E-02 0.  1.
       -1    1    3    3    0  502 -0.10523891720E+03  0.67628415885E+03  0.12445255682E+03  0.69564641315E+03  0.50400001928E-02 0. -1.
</event>
<event>
 5   0  0.3932568E-04  0.1409777E+04  0.7818609E-02  0.8946772E-01
        2   -1    0    0  501    0  0.00000000000E+00  0.00000000000E+00  0.88006528010E+03  0.88006528010E+03  0.25500000920E-02 0. -1.
       -2   -1    0    0    0  501  0.00000000000E+00  0.00000000000E+00 -0.56458022600E+03  0.56458022601E+03  0.25500000920E-02 0.  1.
    10030    2    1    2    0    0  0.00000000000E+00  0.00000000000E+00  0.31548505410E+03  0.14446455061E+04  0.14097765138E+04 0.  0.
        2    1    3    3  502    0 -0.83868686284E+02  0.27735684675E+03 -0.50072895859E+03  0.57852421467E+03  0.25500000920E-02 0.  1.
       -2    1    3    3    0  502  0.83868686284E+02 -0.27735684675E+03  0.81621401269E+03  0.86612129144E+03  0.25500000920E-02 0. -1.
</event>
<event>
 5   0  0.3917598E-04  0.1398947E+04  0.7818609E-02  0.8954581E-01
        2   -1    0    0  501    0  0.00000000000E+00  0.00000000000E+00  0.18980104277E+04  0.18980104277E+04  0.25500000920E-02 0. -1.
       -2   -1    0    0    0  501  0.00000000000E+00  0.00000000000E+00 -0.25777687337E+03  0.25777687338E+03  0.25500000920E-02 0.  1.
    10030    2    1    2    0    0  0.00000000000E+00  0.00000000000E+00  0.16402335543E+04  0.21557873010E+04  0.13989470236E+04 0.  0.
        3    1    3    3  502    0 -0.35857405354E+03  0.41509281771E+03  0.14889667357E+04  0.15867890060E+04  0.10100000352E+00 0. -1.
       -3    1    3    3    0  502  0.35857405354E+03 -0.41509281771E+03  0.15126681855E+03  0.56899829506E+03  0.10100000352E+00 0.  1.
</event>
<event>
 5   0  0.2143942E-04  0.1401012E+04  0.7818609E-02  0.8953086E-01
       -1   -1    0    0    0  501  0.00000000000E+00  0.00000000000E+00  0.42224859922E+03  0.42224859925E+03  0.50400001928E-02 0.  1.
        1   -1    0    0  501    0  0.00000000000E+00  0.00000000000E+00 -0.11621328822E+04  0.11621328822E+04  0.50400001928E-02 0. -1.
    10030    2    1    2    0    0  0.00000000000E+00  0.00000000000E+00 -0.73988428301E+03  0.15843814815E+04  0.14010124648E+04 0.  0.
        4    1    3    3  502    0 -0.39614324687E+03  0.23626880221E+03  0.22627569544E+03  0.51376524034E+03  0.12699999809E+01 0. -1.
       -4    1    3    3    0  502  0.39614324687E+03 -0.23626880221E+03 -0.96615997845E+03  0.10706162411E+04  0.12699999809E+01 0.  1.
</event>
<event>
 5   0  0.2155352E-04  0.1400441E+04  0.7818609E-02  0.8953500E-01
       -1   -1    0    0    0  501  0.00000000000E+00  0.00000000000E+00  0.41059026979E+03  0.41059026982E+03  0.50400001928E-02 0. -1.
        1   -1    0    0  501    0  0.00000000000E+00  0.00000000000E+00 -0.11941551672E+04  0.11941551672E+04  0.50400001928E-02 0.  1.
    10030    2    1    2    0    0  0.00000000000E+00  0.00000000000E+00 -0.78356489744E+03  0.16047454371E+04  0.14004406340E+04 0.  0.
        2    1    3    3  502    0 -0.41128118782E+03  0.12380349848E+02 -0.10410085837E+04  0.11193767729E+04  0.25500000920E-02 0.  1.
       -2    1    3    3    0  502  0.41128118782E+03 -0.12380349848E+02  0.25744368623E+03  0.48536866412E+03  0.25500000920E-02 0. -1.
</event>
<event>
 5   0  0.2223112E-04  0.1399800E+04  0.7818609E-02  0.8953963E-01
       -1   -1    0    0    0  501  0.00000000000E+00  0.00000000000E+00  0.72667451926E+03  0.72667451928E+03  0.50400001928E-02 0.  1.
        1   -1    0    0  501    0  0.00000000000E+00  0.00000000000E+00 -0.67411237761E+03  0.67411237763E+03  0.50400001928E-02 0. -1.
    10030    2    1    2    0    0  0.00000000000E+00  0.00000000000E+00  0.52562141650E+02  0.14007868969E+04  0.13998003971E+04 0.  0.
        1    1    3    3  502    0 -0.35037474956E+03 -0.18140144357E+02  0.63232223748E+03  0.72313411067E+03  0.50400001928E-02 0.  1.
       -1    1    3    3    0  502  0.35037474956E+03  0.18140144357E+02 -0.57976009583E+03  0.67765278625E+03  0.50400001928E-02 0. -1.
</event>
<event>
 5   0  0.3932568E-04  0.1387746E+04  0.7818609E-02  0.8962737E-01
        2   -1    0    0  501    0  0.00000000000E+00  0.00000000000E+00  0.39684070215E+03  0.39684070216E+03  0.25500000920E-02 0.  1.
       -2   -1    0    0    0  501  0.00000000000E+00  0.00000000000E+00 -0.12132314929E+04  0.12132314929E+04  0.25500000920E-02 0. -1.
    10030    2    1    2    0    0  0.00000000000E+00  0.00000000000E+00 -0.81639079076E+03  0.16100721951E+04  0.13877458521E+04 0.  0.
        2    1    3    3  502    0 -0.63086873842E+02  0.80503550493E+02 -0.12044378707E+04  0.12087726666E+04  0.25500000920E-02 0. -1.
       -2    1    3    3    0  502  0.63086873842E+02 -0.80503550493E+02  0.38804707991E+03  0.40129952844E+03  0.25500000920E-02 0.  1.
</event>
<event>
 5   0  0.2217251E-04  0.1386189E+04  0.7818609E-02  0.8963877E-01
        1   -1    0    0  501    0  0.00000000000E+00  0.00000000000E+00  0.58339422960E+03  0.58339422962E+03  0.50400001928E-02 0.  1.
       -1   -1    0    0    0  501  0.00000000000E+00  0.00000000000E+00 -0.82342276914E+03  0.82342276915E+03  0.50400001928E-02 0. -1.
    10030    2    1    2    0    0  0.00000000000E+00  0.00000000000E+00 -0.24002853954E+03  0.14068169988E+04  0.13861891531E+04 0.  0.
        5    1    3    3  502    0 -0.28954759228E+03  0.55158533561E+03 -0.42830065176E+03  0.75600775721E+03  0.46999998093E+01 0. -1.
       -5    1    3    3    0  502  0.28954759228E+03 -0.55158533561E+03  0.18827211223E+03  0.65080924156E+03  0.46999998093E+01 0.  1.
</event>
<event>
 5   0  0.2215876E-04  0.1398071E+04  0.7818609E-02  0.8955216E-01
        1   -1    0    0  501    0  0.00000000000E+00  0.00000000000E+00  0.49629482683E+03  0.49629482686E+03  0.50400001928E-02 0. -1.
       -1   -1    0    0    0  501  0.00000000000E+00  0.00000000000E+00 -0.98459798306E+03  0.98459798307E+03  0.50400001928E-02 0.  1.
    10030    2    1    2    0    0  0.00000000000E+00  0.00000000000E+00 -0.48830315623E+03  0.14808928099E+04  0.13980713652E+04 0.  0.
        3    1    3    3  502    0  0.34875321747E+03  0.19767842032E+02  0.39721903003E+03  0.52896364931E+03  0.10100000352E+00 0. -1.
       -3    1    3    3    0  502 -0.34875321747E+03 -0.19767842032E+02 -0.88552218626E+03  0.95192916061E+03  0.10100000352E+00 0.  1.
</event>
<event>
 5   0  0.3917598E-04  0.1396569E+04  0.7818609E-02  0.8956306E-01
        2   -1    0    0  501    0  0.00000000000E+00  0.00000000000E+00  0.19041685949E+04  0.19041685949E+04  0.25500000920E-02 0.  1.
       -2   -1    0    0    0  501  0.00000000000E+00  0.00000000000E+00 -0.25607042570E+03  0.25607042571E+03  0.25500000920E-02 0. -1.
    10030    2    1    2    0    0  0.00000000000E+00  0.00000000000E+00  0.16480981692E+04  0.21602390206E+04  0.13965690283E+04 0.  0.
        3    1    3    3  502    0 -0.35410828992E+02  0.57894359123E+03  0.22263365229E+03  0.62128525008E+03  0.10100000352E+00 0.  1.
       -3    1    3    3    0  502  0.35410828992E+02 -0.57894359123E+03  0.14254645169E+04  0.15389537705E+04  0.10100000352E+00 0. -1.
</event>
<event>
 5   0  0.3917598E-04  0.1400931E+04  0.7818609E-02  0.8953145E-01
        2   -1    0    0  501    0  0.00000000000E+00  0.00000000000E+00  0.16927518865E+04  0.16927518865E+04  0.25500000920E-02 0. -1.
       -2   -1    0    0    0  501  0.00000000000E+00  0.00000000000E+00 -0.28985445174E+03  0.28985445175E+03  0.25500000920E-02 0.  1.
    10030    2    1    2    0    0  0.00000000000E+00  0.00000000000E+00  0.14028974347E+04  0.19826063382E+04  0.14009306478E+04 0.  0.
        3    1    3    3  502    0 -0.59802236220E+03 -0.25974666343E+03  0.33910998145E+03  0.73491133110E+03  0.10100000352E+00 0.  1.
       -3    1    3    3    0  502  0.59802236220E+03  0.25974666343E+03  0.10637874533E+04  0.12476950071E+04  0.10100000352E+00 0. -1.
</event>
<event>
 5   0  0.2223112E-04  0.1405580E+04  0.7818609E-02  0.8949790E-01
        1   -1    0    0  501    0  0.00000000000E+00  0.00000000000E+00  0.55222370231E+03  0.55222370233E+03  0.50400001928E-02 0. -1.
       -1   -1    0    0    0  501  0.00000000000E+00  0.00000000000E+00 -0.89440845958E+03  0.89440845960E+03  0.50400001928E-02 0.  1.
    10030    2    1    2    0    0  0.00000000000E+00  0.00000000000E+00 -0.34218475727E+03  0.14466321619E+04  0.14055796683E+04 0.  0.
        1    1    3    3  502    0 -0.41985274474E+03  0.54532478820E+03 -0.24604397131E+02  0.68866597729E+03  0.50400001928E-02 0. -1.
       -1    1    3    3    0  502  0.41985274474E+03 -0.54532478820E+03 -0.31758036014E+03  0.75796618464E+03  0.50400001928E-02 0.  1.
</event>
<event>
 5   0  0.4310348E-04  0.1405841E+04  0.7818609E-02  0.8949602E-01
        2   -1    0    0  501    0  0.00000000000E+00  0.00000000000E+00  0.10250180343E+04  0.10250180343E+04  0.25500000920E-02 0. -1.
       -2   -1    0    0    0  501  0.00000000000E+00  0.00000000000E+00 -0.48203728261E+03  0.48203728262E+03  0.25500000920E-02 0.  1.
    10030    2    1    2    0    0  0.00000000000E+00  0.00000000000E+00  0.54298075171E+03  0.15070553169E+04  0.14058405427E+04 0.  0.
        1    1    3    3  502    0 -0.67287516277E+03  0.16197720431E+03  0.40321642276E+03  0.80098756731E+03  0.50400001928E-02 0.  1.
       -1    1    3    3    0  502  0.67287516277E+03 -0.16197720431E+03  0.13976432895E+03  0.70606774962E+03  0.50400001928E-02 0. -1.
</event>
<event>
 5   0  0.2155352E-04  0.1401233E+04  0.7818609E-02  0.8952927E-01
        1   -1    0    0  501    0  0.00000000000E+00  0.00000000000E+00  0.15155359223E+04  0.15155359223E+04  0.50400001928E-02 0.  1.
       -1   -1    0    0    0  501  0.00000000000E+00  0.00000000000E+00 -0.32388763751E+03  0.32388763755E+03  0.50400001928E-02 0. -1.
    10030    2    1    2    0    0  0.00000000000E+00  0.00000000000E+00  0.11916482847E+04  0.18394235598E+04  0.14012328136E+04 0.  0.
        2    1    3    3  502    0  0.54029016856E+03  0.43146869241E+03  0.44739612752E+03  0.82355448739E+03  0.25500000920E-02 0.  1.
       -2    1    3    3    0  502 -0.54029016856E+03 -0.43146869241E+03  0.74425215722E+03  0.10158690724E+04  0.25500000920E-02 0. -1.
</event>
<event>
 5   0  0.2223112E-04  0.1397216E+04  0.7818609E-02  0.8955836E-01
        1   -1    0    0  501    0  0.00000000000E+00  0.00000000000E+00  0.11283628567E+04  0.11283628567E+04  0.50400001928E-02 0.  1.
       -1   -1    0    0    0  501  0.00000000000E+00  0.00000000000E+00 -0.43253218270E+03  0.43253218273E+03  0.50400001928E-02 0. -1.
    10030    2    1    2    0    0  0.00000000000E+00  0.00000000000E+00  0.69583067403E+03  0.15608950395E+04  0.13972161598E+04 0.  0.
        1    1    3    3  502    0  0.23521746469E+03  0.23571979123E+03  0.10339943989E+04  0.10862943858E+04  0.50400001928E-02 0.  1.
       -1    1    3    3    0  502 -0.23521746469E+03 -0.23571979123E+03 -0.33816372483E+03  0.47460065369E+03  0.50400001928E-02 0. -1.
</event>
<event>
 5   0  0.1497625E-04  0.1393433E+04  0.7818609E-02  0.8958586E-01
        4   -1    0    0  501    0  0.00000000000E+00  0.00000000000E+00  0.90848779928E+03  0.90848868697E+03  0.12699999809E+01 0.  1.
       -4   -1    0    0    0  501  0.00000000000E+00  0.00000000000E+00 -0.53430789050E+03  0.53430939983E+03  0.12699999809E+01 0. -1.
    10030    2    1    2    0    0  0.00000000000E+00  0.00000000000E+00  0.37417990879E+03  0.14427980868E+04  0.13934330680E+04 0.  0.
        5    1    3    3  502    0 -0.39678534393E+03  0.19922704661E+03 -0.36883094631E+03  0.57722472419E+03  0.46999998093E+01 0. -1.
       -5    1    3    3    0  502  0.39678534393E+03 -0.19922704661E+03  0.74301085510E+03  0.86557336261E+03  0.46999998093E+01 0.  1.
</event>
<event>
 5   0  0.3917598E-04  0.1403432E+04  0.7818609E-02  0.8951338E-01
        2   -1    0    0  501    0  0.00000000000E+00  0.00000000000E+00  0.42218588640E+03  0.42218588640E+03  0.25500000920E-02 0. -1.
       -2   -1    0    0    0  501  0.00000000000E+00  0.00000000000E+00 -0.11663228382E+04  0.11663228382E+04  0.25500000920E-02 0.  1.
    10030    2    1    2    0    0  0.00000000000E+00  0.00000000000E+00 -0.74413695176E+03  0.15885087246E+04  0.14034315676E+04 0.  0.
        3    1    3    3  502    0 -0.64450931298E+03 -0.27513749649E+03 -0.41306882466E+03  0.81346097669E+03  0.10100000352E+00 0.  1.
       -3    1    3    3    0  502  0.64450931298E+03  0.27513749649E+03 -0.33106812710E+03  0.77504774787E+03  0.10100000352E+00 0. -1.
</event>
<event>
 5   0  0.2143942E-04  0.1395969E+04  0.7818609E-02  0.8956742E-01
        1   -1    0    0  501    0  0.00000000000E+00  0.00000000000E+00  0.10592063059E+04  0.10592063059E+04  0.50400001928E-02 0.  1.
       -1   -1    0    0    0  501  0.00000000000E+00  0.00000000000E+00 -0.45995034082E+03  0.45995034085E+03  0.50400001928E-02 0. -1.
    10030    2    1    2    0    0  0.00000000000E+00  0.00000000000E+00  0.59925596507E+03  0.15191566467E+04  0.13959689129E+04 0.  0.
        4    1    3    3  502    0 -0.13564314407E+03  0.11309361444E+03  0.10344889257E+04  0.10494561346E+04  0.12699999809E+01 0.  1.
       -4    1    3    3    0  502  0.13564314407E+03 -0.11309361444E+03 -0.43523296065E+03  0.46970051213E+03  0.12699999809E+01 0. -1.
</event>
<event>
 5   0  0.2155352E-04  0.1428956E+04  0.7818609E-02  0.8933122E-01
        1   -1    0    0  501    0  0.00000000000E+00  0.00000000000E+00  0.11822454479E+04  0.11822454479E+04  0.50400001928E-02 0.  1.
       -1   -1    0    0    0  501  0.00000000000E+00  0.00000000000E+00 -0.43178733118E+03  0.43178733121E+03  0.50400001928E-02 0. -1.
    10030    2    1    2    0    0  0.00000000000E+00  0.00000000000E+00  0.75045811671E+03  0.16140327791E+04  0.14289557121E+04 0.  0.
        2    1    3    3  502    0 -0.43636378537E+03  0.19436145458E+03  0.97535232677E+03  0.10860487510E+04  0.25500000920E-02 0.  1.
       -2    1    3    3    0  502  0.43636378537E+03 -0.19436145458E+03 -0.22489421007E+03  0.52798402811E+03  0.25500000920E-02 0. -1.
</event>
<event>
 5   0  0.3932568E-04  0.1405082E+04  0.7818609E-02  0.8950148E-01
       -2   -1    0    0    0  501  0.00000000000E+00  0.00000000000E+00  0.44223227770E+03  0.44223227771E+03  0.25500000920E-02 0.  1.
        2   -1    0    0  501    0  0.00000000000E+00  0.00000000000E+00 -0.11160738344E+04  0.11160738344E+04  0.25500000920E-02 0. -1.
    10030    2    1    2    0    0  0.00000000000E+00  0.00000000000E+00 -0.67384155673E+03  0.15583061121E+04  0.14050820245E+04 0.  0.
        2    1    3    3  502    0  0.90244643573E+02  0.52631650122E+03 -0.84322450262E+03  0.99808853163E+03  0.25500000920E-02 0. -1.
       -2    1    3    3    0  502 -0.90244643573E+02 -0.52631650122E+03  0.16938294589E+03  0.56021758051E+03  0.25500000920E-02 0.  1.
</event>
<event>
 5   0  0.2215876E-04  0.1394115E+04  0.7818609E-02  0.8958089E-01
       -1   -1    0    0    0  501  0.00000000000E+00  0.00000000000E+00  0.10371508098E+04  0.10371508098E+04  0.50400001928E-02 0.  1.
        1   -1    0    0  501    0  0.00000000000E+00  0.00000000000E+00 -0.46848473774E+03  0.46848473776E+03  0.50400001928E-02 0. -1.
    10030    2    1    2    0    0  0.00000000000E+00  0.00000000000E+00  0.56866607209E+03  0.15056355476E+04  0.13941152394E+04 0.  0.
        3    1    3    3  502    0 -0.55214619104E+03 -0.41876036272E+03  0.36561041099E+03  0.78351556493E+03  0.10100000352E+00 0. -1.
       -3    1    3    3    0  502  0.55214619104E+03  0.41876036272E+03  0.20305566111E+03  0.72211998267E+03  0.10100000352E+00 0.  1.
</event>
<event>
 5   0  0.3975164E-04  0.1398974E+04  0.7818609E-02  0.8954561E-01
       -2   -1    0    0    0  501  0.00000000000E+00  0.00000000000E+00  0.29078591375E+03  0.29078591376E+03  0.25500000920E-02 0. -1.
        2   -1    0    0  501    0  0.00000000000E+00  0.00000000000E+00 -0.16826206538E+04  0.16826206538E+04  0.25500000920E-02 0.  1.
    10030    2    1    2    0    0  0.00000000000E+00  0.00000000000E+00 -0.13918347401E+04  0.19734065676E+04  0.13989744591E+04 0.  0.
        5    1    3    3  502    0  0.20219498501E+03 -0.56661914229E+03 -0.19258427069E+03  0.63170472191E+03  0.46999998093E+01 0. -1.
       -5    1    3    3    0  502 -0.20219498501E+03  0.56661914229E+03 -0.11992504694E+04  0.13417018457E+04  0.46999998093E+01 0.  1.
</event>
<event>
 5   0  0.2215876E-04  0.1378793E+04  0.7818609E-02  0.8969314E-01
        1   -1    0    0  501    0  0.00000000000E+00  0.00000000000E+00  0.77125536750E+03  0.77125536752E+03  0.50400001928E-02 0.  1.
       -1   -1    0    0    0  501  0.00000000000E+00  0.00000000000E+00 -0.61622553152E+03  0.61622553154E+03  0.50400001928E-02 0. -1.
    10030    2    1    2    0    0  0.00000000000E+00  0.00000000000E+00  0.15502983598E+03  0.13874808991E+04  0.13787925860E+04 0.  0.
        3    1    3    3  502    0 -0.23823670754E+03 -0.12871629450E+03  0.71549938633E+03  0.76502548672E+03  0.10100000352E+00 0.  1.
       -3    1    3    3    0  502  0.23823670754E+03  0.12871629450E+03 -0.56046955034E+03  0.62245541234E+03  0.10100000352E+00 0. -1.
</event>
<event>
 5   0  0.3932568E-04  0.1402401E+04  0.7818609E-02  0.8952083E-01
       -2   -1    0    0    0  501  0.00000000000E+00  0.00000000000E+00  0.41036652756E+03  0.41036652756E+03  0.25500000920E-02 0. -1.
        2   -1    0    0  501    0  0.00000000000E+00  0.00000000000E+00 -0.11981532135E+04  0.11981532135E+04  0.25500000920E-02 0.  1.
    10030    2    1    2    0    0  0.00000000000E+00  0.00000000000E+00 -0.78778668590E+03  0.16085197410E+04  0.14024007611E+04 0.  0.
        2    1    3    3  502    0  0.28294920308E+03 -0.38062911034E+03 -0.98627409260E+03  0.10943835511E+04  0.25500000920E-02 0.  1.
       -2    1    3    3    0  502 -0.28294920308E+03  0.38062911034E+03  0.19848740670E+03  0.51413618993E+03  0.25500000920E-02 0. -1.
</event>
<event>
 5   0  0.3932568E-04  0.1424645E+04  0.7818609E-02  0.8936170E-01
       -2   -1    0    0    0  501  0.00000000000E+00  0.00000000000E+00  0.99287383625E+03  0.99287383625E+03  0.25500000920E-02 0. -1.
        2   -1    0    0  501    0  0.00000000000E+00  0.00000000000E+00 -0.51104537588E+03  0.51104537588E+03  0.25500000920E-02 0.  1.
    10030    2    1    2    0    0  0.00000000000E+00  0.00000000000E+00  0.48182846037E+03  0.15039192121E+04  0.14246453353E+04 0.  0.
        2    1    3    3  502    0  0.38165782263E+03 -0.30983608839E+03  0.78510133320E+03  0.92630729169E+03  0.25500000920E-02 0. -1.
       -2    1    3    3    0  502 -0.38165782263E+03  0.30983608839E+03 -0.30327287282E+03  0.57761192045E+03  0.25500000920E-02 0.  1.
</event>
<event>
 5   0  0.2223112E-04  0.1403797E+04  0.7818609E-02  0.8951074E-01
        1   -1    0    0  501    0  0.00000000000E+00  0.00000000000E+00  0.52267830300E+03  0.52267830303E+03  0.50400001928E-02 0.  1.
       -1   -1    0    0    0  501  0.00000000000E+00  0.00000000000E+00 -0.94257168359E+03  0.94257168361E+03  0.50400001928E-02 0. -1.
    10030    2    1    2    0    0  0.00000000000E+00  0.00000000000E+00 -0.41989338059E+03  0.14652499866E+04  0.14037973758E+04 0.  0.
        1    1    3    3  502    0 -0.22909173122E+03 -0.17377707617E+03 -0.87827334269E+03  0.92414585322E+03  0.50400001928E-02 0. -1.
       -1    1    3    3    0  502  0.22909173122E+03  0.17377707617E+03  0.45837996210E+03  0.54110413341E+03  0.50400001928E-02 0.  1.
</event>
<event>
 5   0  0.3917598E-04  0.1402425E+04  0.7818609E-02  0.8952065E-01
        2   -1    0    0  501    0  0.00000000000E+00  0.00000000000E+00  0.62642411707E+03  0.62642411708E+03  0.25500000920E-02 0.  1.
       -2   -1    0    0    0  501  0.00000000000E+00  0.00000000000E+00 -0.78492958975E+03  0.78492958975E+03  0.25500000920E-02 0. -1.
    10030    2    1    2    0    0  0.00000000000E+00  0.00000000000E+00 -0.15850547267E+03  0.14113537068E+04  0.14024247933E+04 0.  0.
        3    1    3    3  502    0  0.21397196153E+03 -0.32314336188E+03 -0.66734749136E+03  0.77172424938E+03  0.10100000352E+00 0. -1.
       -3    1    3    3    0  502 -0.21397196153E+03  0.32314336188E+03  0.50884201869E+03  0.63962945745E+03  0.10100000352E+00 0.  1.
</event>
<event>
 5   0  0.3932568E-04  0.1403562E+04  0.7818609E-02  0.8951244E-01
       -2   -1    0    0    0  501  0.00000000000E+00  0.00000000000E+00  0.28405791907E+03  0.28405791908E+03  0.25500000920E-02 0.  1.
        2   -1    0    0  501    0  0.00000000000E+00  0.00000000000E+00 -0.17337890750E+04  0.17337890750E+04  0.25500000920E-02 0. -1.
    10030    2    1    2    0    0  0.00000000000E+00  0.00000000000E+00 -0.14497311559E+04  0.20178469941E+04  0.14035619214E+04 0.  0.
        2    1    3    3  502    0 -0.33444913610E+03 -0.61672744637E+03 -0.74924439366E+03  0.10264385657E+04  0.25500000920E-02 0. -1.
       -2    1    3    3    0  502  0.33444913610E+03  0.61672744637E+03 -0.70048676228E+03  0.99140842839E+03  0.25500000920E-02 0.  1.
</event>
<event>
 5   0  0.2215876E-04  0.1398868E+04  0.7818609E-02  0.8954638E-01
        1   -1    0    0  501    0  0.00000000000E+00  0.00000000000E+00  0.66349092175E+03  0.66349092177E+03  0.50400001928E-02 0. -1.
       -1   -1    0    0    0  501  0.00000000000E+00  0.00000000000E+00 -0.73732455437E+03  0.73732455438E+03  0.50400001928E-02 0.  1.
    10030    2    1    2    0    0  0.00000000000E+00  0.00000000000E+00 -0.73833632617E+02  0.14008154762E+04  0.13988683258E+04 0.  0.
        3    1    3    3  502    0  0.53485695271E+03 -0.12512586433E+02 -0.48807652228E+03  0.72418728688E+03  0.10100000352E+00 0.  1.
       -3    1    3    3    0  502 -0.53485695271E+03  0.12512586433E+02  0.41424288966E+03  0.67662818927E+03  0.10100000352E+00 0. -1.
</event>
<event>
 5   0  0.2215876E-04  0.1403194E+04  0.7818609E-02  0.8951510E-01
       -1   -1    0    0    0  501  0.00000000000E+00  0.00000000000E+00  0.75942238590E+03  0.75942238592E+03  0.50400001928E-02 0. -1.
        1   -1    0    0  501    0  0.00000000000E+00  0.00000000000E+00 -0.64817461038E+03  0.64817461040E+03  0.50400001928E-02 0.  1.
    10030    2    1    2    0    0  0.00000000000E+00  0.00000000000E+00  0.11124777552E+03  0.14075969963E+04  0.14031939411E+04 0.  0.
        3    1    3    3  502    0 -0.33356883543E+02 -0.65531368271E+03 -0.19352938049E+03  0.68410696221E+03  0.10100000352E+00 0.  1.
       -3    1    3    3    0  502  0.33356883543E+02  0.65531368271E+03  0.30477715602E+03  0.72349003411E+03  0.10100000352E+00 0. -1.
</event>
<event>
 5   0  0.2143942E-04  0.1402698E+04  0.7818609E-02  0.8951868E-01
       -1   -1    0    0    0  501  0.00000000000E+00  0.00000000000E+00  0.29850860941E+03  0.29850860946E+03  0.50400001928E-02 0. -1.
        1   -1    0    0  501    0  0.00000000000E+00  0.00000000000E+00 -0.16478254666E+04  0.16478254666E+04  0.50400001928E-02 0.  1.
    10030    2    1    2    0    0  0.00000000000E+00  0.00000000000E+00 -0.13493168572E+04  0.19463340761E+04  0.14026975278E+04 0.  0.
        4    1    3    3  502    0 -0.35007883237E+03  0.57593804780E+03 -0.94381977051E+03  0.11597660091E+04  0.12699999809E+01 0.  1.
       -4    1    3    3    0  502  0.35007883237E+03 -0.57593804780E+03 -0.40549708670E+03  0.78656806698E+03  0.12699999809E+01 0. -1.
</event>
<event>
 5   0  0.3917598E-04  0.1414737E+04  0.7818609E-02  0.8943220E-01
        2   -1    0    0  501    0  0.00000000000E+00  0.00000000000E+00  0.21866734626E+04  0.21866734626E+04  0.25500000920E-02 0. -1.
       -2   -1    0    0    0  501  0.00000000000E+00  0.00000000000E+00 -0.22882700481E+03  0.22882700483E+03  0.25500000920E-02 0.  1.
    10030    2    1    2    0    0  0.00000000000E+00  0.00000000000E+00  0.19578464578E+04  0.24155004675E+04  0.14147366384E+04 0.  0.
        3    1    3    3  502    0 -0.71396482250E+02  0.42994614758E+03  0.27649463554E+02  0.43671003026E+03  0.10100000352E+00 0.  1.
       -3    1    3    3    0  502  0.71396482250E+02 -0.42994614758E+03  0.19301969943E+04  0.19787904372E+04  0.10100000352E+00 0. -1.
</event>
<event>
 5   0  0.3932568E-04  0.1398024E+04  0.7818609E-02  0.8955250E-01
       -2   -1    0    0    0  501  0.00000000000E+00  0.00000000000E+00  0.65435234378E+03  0.65435234379E+03  0.25500000920E-02 0. -1.
        2   -1    0    0  501    0  0.00000000000E+00  0.00000000000E+00 -0.74671993806E+03  0.74671993807E+03  0.25500000920E-02 0.  1.
    10030    2    1    2    0    0  0.00000000000E+00  0.00000000000E+00 -0.92367594279E+02  0.14010722819E+04  0.13980242367E+04 0.  0.
        2    1    3    3  502    0  0.44547367880E+03 -0.65932935642E+02  0.48960691427E+03  0.66521341012E+03  0.25500000920E-02 0. -1.
       -2    1    3    3    0  502 -0.44547367880E+03  0.65932935642E+02 -0.58197450855E+03  0.73585887173E+03  0.25500000920E-02 0.  1.
</event>
<event>
 5   0  0.4208622E-04  0.1466290E+04  0.7818609E-02  0.8907184E-01
       -2   -1    0    0    0  501  0.00000000000E+00  0.00000000000E+00  0.42894592730E+03  0.42894592731E+03  0.25500000920E-02 0.  1.
        2   -1    0    0  501    0  0.00000000000E+00  0.00000000000E+00 -0.12530754614E+04  0.12530754614E+04  0.25500000920E-02 0. -1.
    10030    2    1    2    0    0  0.00000000000E+00  0.00000000000E+00 -0.82412953414E+03  0.16820213888E+04  0.14662900338E+04 0.  0.
        4    1    3    3  502    0 -0.23142166538E+03 -0.33194750810E+03 -0.11133667389E+04  0.11846232496E+04  0.12699999809E+01 0. -1.
       -4    1    3    3    0  502  0.23142166538E+03  0.33194750810E+03  0.28923720473E+03  0.49739813916E+03  0.12699999809E+01 0.  1.
</event>
<event>
 5   0  0.2155352E-04  0.1399875E+04  0.7818609E-02  0.8953909E-01
       -1   -1    0    0    0  501  0.00000000000E+00  0.00000000000E+00  0.76362901424E+03  0.76362901426E+03  0.50400001928E-02 0.  1.
        1   -1    0    0  501    0  0.00000000000E+00  0.00000000000E+00 -0.64155847200E+03  0.64155847202E+03  0.50400001928E-02 0. -1.
    10030    2    1    2    0    0  0.00000000000E+00  0.00000000000E+00  0.12207054224E+03  0.14051874863E+04  0.13998752281E+04 0.  0.
        2    1    3    3  502    0 -0.13648735687E+03  0.57320822883E+03  0.44024683181E+03  0.73553636559E+03  0.25500000920E-02 0.  1.
       -2    1    3    3    0  502  0.13648735687E+03 -0.57320822883E+03 -0.31817628957E+03  0.66965112068E+03  0.25500000920E-02 0. -1.
</event>
<event>
 5   0  0.1497625E-04  0.1411621E+04  0.7818609E-02  0.8945449E-01
        3   -1    0    0  501    0  0.00000000000E+00  0.00000000000E+00  0.61133705697E+03  0.61133706531E+03  0.10100000352E+00 0.  1.
       -3   -1    0    0    0  501  0.00000000000E+00  0.00000000000E+00 -0.81488398310E+03  0.81488398936E+03  0.10100000352E+00 0. -1.
    10030    2    1    2    0    0  0.00000000000E+00  0.00000000000E+00 -0.20354692613E+03  0.14262210547E+04  0.14116214598E+04 0.  0.
        3    1    3    3  502    0 -0.41467217407E+03  0.56637265515E+03 -0.17627743023E+03  0.72374355890E+03  0.10100000352E+00 0.  1.
       -3    1    3    3    0  502  0.41467217407E+03 -0.56637265515E+03 -0.27269495905E+02  0.70247749576E+03  0.10100000352E+00 0. -1.
</event>
<event>
 5   0  0.3917598E-04  0.1400946E+04  0.7818609E-02  0.8953134E-01
       -2   -1    0    0    0  501  0.00000000000E+00  0.00000000000E+00  0.31507525437E+03  0.31507525438E+03  0.25500000920E-02 0.  1.
        2   -1    0    0  501    0  0.00000000000E+00  0.00000000000E+00 -0.15572871754E+04  0.15572871754E+04  0.25500000920E-02 0. -1.
    10030    2    1    2    0    0  0.00000000000E+00  0.00000000000E+00 -0.12422119210E+04  0.18723624298E+04  0.14009463272E+04 0.  0.
        3    1    3    3  502    0 -0.68991226283E+03  0.10280013018E+02 -0.45973778254E+03  0.82912209473E+03  0.10100000352E+00 0. -1.
       -3    1    3    3    0  502  0.68991226283E+03 -0.10280013018E+02 -0.78247413847E+03  0.10432403350E+04  0.10100000352E+00 0.  1.
</event>
<event>
 5   0  0.3932568E-04  0.1426919E+04  0.7818609E-02  0.8934560E-01
       -2   -1    0    0    0  501  0.00000000000E+00  0.00000000000E+00  0.12449134617E+04  0.12449134617E+04  0.25500000920E-02 0.  1.
        2   -1    0    0  501    0  0.00000000000E+00  0.00000000000E+00 -0.40888344121E+03  0.40888344121E+03  0.25500000920E-02 0. -1.
    10030    2    1    2    0    0  0.00000000000E+00  0.00000000000E+00  0.83603002045E+03  0.16537969029E+04  0.14269190590E+04 0.  0.
        2    1    3    3  502    0  0.67991267623E+03 -0.21191370563E+03  0.46767419352E+03  0.85200224015E+03  0.25500000920E-02 0.  1.
       -2    1    3    3    0  502 -0.67991267623E+03  0.21191370563E+03  0.36835582692E+03  0.80179466272E+03  0.25500000920E-02 0. -1.
</event>
<event>
 5   0  0.2223112E-04  0.1386012E+04  0.7818609E-02  0.8964006E-01
       -1   -1    0    0    0  501  0.00000000000E+00  0.00000000000E+00  0.49244856304E+03  0.49244856306E+03  0.50400001928E-02 0.  1.
        1   -1    0    0  501    0  0.00000000000E+00  0.00000000000E+00 -0.97524424928E+03  0.97524424929E+03  0.50400001928E-02 0. -1.
    10030    2    1    2    0    0  0.00000000000E+00  0.00000000000E+00 -0.48279568624E+03  0.14676928124E+04  0.13860124519E+04 0.  0.
        1    1    3    3  502    0 -0.55001495031E+03 -0.31613798445E+03 -0.53675815335E+03  0.83100480503E+03  0.50400001928E-02 0. -1.
       -1    1    3    3    0  502  0.55001495031E+03  0.31613798445E+03  0.53962467109E+02  0.63668800732E+03  0.50400001928E-02 0.  1.
</event>
<event>
 5   0  0.2215876E-04  0.1384027E+04  0.7818609E-02  0.8965463E-01
        1   -1    0    0  501    0  0.00000000000E+00  0.00000000000E+00  0.22731333465E+04  0.22731333465E+04  0.50400001928E-02 0. -1.
       -1   -1    0    0    0  501  0.00000000000E+00  0.00000000000E+00 -0.21067069089E+03  0.21067069095E+03  0.50400001928E-02 0.  1.
    10030    2    1    2    0    0  0.00000000000E+00  0.00000000000E+00  0.20624626556E+04  0.24838040374E+04  0.13840268389E+04 0.  0.
        3    1    3    3  502    0  0.30719694648E+03 -0.12210341475E+03  0.21222715685E+04  0.21478630842E+04  0.10100000352E+00 0. -1.
       -3    1    3    3    0  502 -0.30719694648E+03  0.12210341475E+03 -0.59808912869E+02  0.33594095327E+03  0.10100000352E+00 0.  1.
</event>
<event>
 5   0  0.2143942E-04  0.1400529E+04  0.7818609E-02  0.8953436E-01
       -1   -1    0    0    0  501  0.00000000000E+00  0.00000000000E+00  0.52726382832E+03  0.52726382834E+03  0.50400001928E-02 0. -1.
        1   -1    0    0  501    0  0.00000000000E+00  0.00000000000E+00 -0.93002823958E+03  0.93002823959E+03  0.50400001928E-02 0.  1.
    10030    2    1    2    0    0  0.00000000000E+00  0.00000000000E+00 -0.40276441127E+03  0.14572920679E+04  0.14005288288E+04 0.  0.
        4    1    3    3  502    0  0.97837659993E+02  0.54620603105E+03 -0.64584243922E+03  0.85148535235E+03  0.12699999809E+01 0.  1.
       -4    1    3    3    0  502 -0.97837659993E+02 -0.54620603105E+03  0.24307802795E+03  0.60580671558E+03  0.12699999809E+01 0. -1.
</event>
<event>
 5   0  0.2215876E-04  0.1397690E+04  0.7818609E-02  0.8955492E-01
       -1   -1    0    0    0  501  0.00000000000E+00  0.00000000000E+00  0.35252114160E+03  0.35252114164E+03  0.50400001928E-02 0.  1.
        1   -1    0    0  501    0  0.00000000000E+00  0.00000000000E+00 -0.13854051813E+04  0.13854051813E+04  0.50400001928E-02 0. -1.
    10030    2    1    2    0    0  0.00000000000E+00  0.00000000000E+00 -0.10328840397E+04  0.17379263229E+04  0.13976904037E+04 0.  0.
        3    1    3    3  502    0  0.49461799996E+03  0.40510217916E+03 -0.16556222041E+03  0.66042834621E+03  0.10100000352E+00 0.  1.
       -3    1    3    3    0  502 -0.49461799996E+03 -0.40510217916E+03 -0.86732181925E+03  0.10774979767E+04  0.10100000352E+00 0. -1.
</event>
<event>
 5   0  0.3975164E-04  0.1400641E+04  0.7818609E-02  0.8953354E-01
       -2   -1    0    0    0  501  0.00000000000E+00  0.00000000000E+00  0.65704358511E+03  0.65704358512E+03  0.25500000920E-02 0. -1.
        2   -1    0    0  501    0  0.00000000000E+00  0.00000000000E+00 -0.74644838450E+03  0.74644838450E+03  0.25500000920E-02 0.  1.
    10030    2    1    2    0    0  0.00000000000E+00  0.00000000000E+00 -0.89404799387E+02  0.14034919696E+04  0.14006414568E+04 0.  0.
        5    1    3    3  502    0 -0.17065003883E+03 -0.15050807639E+03  0.61895427356E+03  0.65946993833E+03  0.46999998093E+01 0. -1.
       -5    1    3    3    0  502  0.17065003883E+03  0.15050807639E+03 -0.70835907295E+03  0.74402203128E+03  0.46999998093E+01 0.  1.
</event>
<event>
 5   0  0.2155352E-04  0.1395642E+04  0.7818609E-02  0.8956979E-01
       -1   -1    0    0    0  501  0.00000000000E+00  0.00000000000E+00  0.40282961566E+03  0.40282961569E+03  0.50400001928E-02 0.  1.
        1   -1    0    0  501    0  0.00000000000E+00  0.00000000000E+00 -0.12088342469E+04  0.12088342469E+04  0.50400001928E-02 0. -1.
    10030    2    1    2    0    0  0.00000000000E+00  0.00000000000E+00 -0.80600463122E+03  0.16116638626E+04  0.13956421248E+04 0.  0.
        2    1    3    3  502    0 -0.46217899113E+03 -0.48661866345E+03 -0.18223904993E+03  0.69542664228E+03  0.25500000920E-02 0.  1.
       -2    1    3    3    0  502  0.46217899113E+03  0.48661866345E+03 -0.62376558128E+03  0.91623722030E+03  0.25500000920E-02 0. -1.
</event>
<event>
 5   0  0.4310348E-04  0.1426310E+04  0.7818609E-02  0.8934991E-01
       -2   -1    0    0    0  501  0.00000000000E+00  0.00000000000E+00  0.25704994804E+03  0.25704994805E+03  0.25500000920E-02 0. -1.
        2   -1    0    0  501    0  0.00000000000E+00  0.00000000000E+00 -0.19785645333E+04  0.19785645333E+04  0.25500000920E-02 0.  1.
    10030    2    1    2    0    0  0.00000000000E+00  0.00000000000E+00 -0.17215145852E+04  0.22356144813E+04  0.14263097987E+04 0.  0.
        1    1    3    3  502    0 -0.11212125402E+03  0.17595650946E+03  0.20814160097E+03  0.29471137559E+03  0.50400001928E-02 0. -1.
       -1    1    3    3    0  502  0.11212125402E+03 -0.17595650946E+03 -0.19296561862E+04  0.19409031057E+04  0.50400001928E-02 0.  1.
</event>
<event>
 5   0  0.2155352E-04  0.1394592E+04  0.7818609E-02  0.8957742E-01
       -1   -1    0    0    0  501  0.00000000000E+00  0.00000000000E+00  0.32293129343E+03  0.32293129347E+03  0.50400001928E-02 0. -1.
        1   -1    0    0  501    0  0.00000000000E+00  0.00000000000E+00 -0.15056506474E+04  0.15056506474E+04  0.50400001928E-02 0.  1.
    10030    2    1    2    0    0  0.00000000000E+00  0.00000000000E+00 -0.11827193539E+04  0.18285819408E+04  0.13945919992E+04 0.  0.
        2    1    3    3  502    0 -0.16818202746E+02  0.67118638401E+03 -0.34449368305E+03  0.75461905071E+03  0.25500000920E-02 0. -1.
       -2    1    3    3    0  502  0.16818202746E+02 -0.67118638401E+03 -0.83822567089E+03  0.10739628901E+04  0.25500000920E-02 0.  1.
</event>
<event>
 5   0  0.2215876E-04  0.1399060E+04  0.7818609E-02  0.8954499E-01
        1   -1    0    0  501    0  0.00000000000E+00  0.00000000000E+00  0.69028043074E+03  0.69028043075E+03  0.50400001928E-02 0.  1.
       -1   -1    0    0    0  501  0.00000000000E+00  0.00000000000E+00 -0.70890378574E+03  0.70890378575E+03  0.50400001928E-02 0. -1.
    10030    2    1    2    0    0  0.00000000000E+00  0.00000000000E+00 -0.18623355000E+02  0.13991842165E+04  0.13990602712E+04 0.  0.
        3    1    3    3  502    0  0.44764944729E+03 -0.43183840654E+03 -0.32944621144E+03  0.70385314765E+03  0.10100000352E+00 0. -1.
       -3    1    3    3    0  502 -0.44764944729E+03  0.43183840654E+03  0.31082285644E+03  0.69533106885E+03  0.10100000352E+00 0.  1.
</event>
<event>
 5   0  0.4310348E-04  0.1397707E+04  0.7818609E-02  0.8955480E-01
        2   -1    0    0  501    0  0.00000000000E+00  0.00000000000E+00  0.93274597093E+03  0.93274597094E+03  0.25500000920E-02 0. -1.
       -2   -1    0    0    0  501  0.00000000000E+00  0.00000000000E+00 -0.52361152125E+03  0.52361152126E+03  0.25500000920E-02 0.  1.
    10030    2    1    2    0    0  0.00000000000E+00  0.00000000000E+00  0.40913444968E+03  0.14563574922E+04  0.13977074612E+04 0.  0.
        1    1    3    3  502    0 -0.46035313651E+03  0.42484508104E+03 -0.11823608131E+03  0.63749362673E+03  0.50400001928E-02 0.  1.
       -1    1    3    3    0  502  0.46035313651E+03 -0.42484508104E+03  0.52737053099E+03  0.81886386546E+03  0.50400001928E-02 0. -1.
</event>
<event>
 5   0  0.2143942E-04  0.1389052E+04  0.7818609E-02  0.8961782E-01
       -1   -1    0    0    0  501  0.00000000000E+00  0.00000000000E+00  0.40133527738E+03  0.40133527741E+03  0.50400001928E-02 0.  1.
        1   -1    0    0  501    0  0.00000000000E+00  0.00000000000E+00 -0.12019034472E+04  0.12019034472E+04  0.50400001928E-02 0. -1.
    10030    2    1    2    0    0  0.00000000000E+00  0.00000000000E+00 -0.80056816986E+03  0.16032387247E+04  0.13890518398E+04 0.  0.
        4    1    3    3  502    0  0.27506407262E+03 -0.63685448711E+03 -0.36164420204E+03  0.78232475582E+03  0.12699999809E+01 0.  1.
       -4    1    3    3    0  502 -0.27506407262E+03  0.63685448711E+03 -0.43892396782E+03  0.82091396883E+03  0.12699999809E+01 0. -1.
</event>
<event>
 5   0  0.3932568E-04  0.1397315E+04  0.7818609E-02  0.8955764E-01
        2   -1    0    0  501    0  0.00000000000E+00  0.00000000000E+00  0.68878343197E+03  0.68878343198E+03  0.25500000920E-02 0. -1.
       -2   -1    0    0    0  501  0.00000000000E+00  0.00000000000E+00 -0.70867295131E+03  0.70867295132E+03  0.25500000920E-02 0.  1.
    10030    2    1    2    0    0  0.00000000000E+00  0.00000000000E+00 -0.19889519338E+02  0.13974563833E+04  0.13973148358E+04 0.  0.
        2    1    3    3  502    0  0.42046911737E+03  0.33348199738E+03 -0.45733520667E+03  0.70509574705E+03  0.25500000920E-02 0.  1.
       -2    1    3    3    0  502 -0.42046911737E+03 -0.33348199738E+03  0.43744568733E+03  0.69236063624E+03  0.25500000920E-02 0. -1.
</event>
<event>
 5   0  0.2217251E-04  0.1403832E+04  0.7818609E-02  0.8951050E-01
       -1   -1    0    0    0  501  0.00000000000E+00  0.00000000000E+00  0.66211224639E+03  0.66211224641E+03  0.50400001928E-02 0. -1.
        1   -1    0    0  501    0  0.00000000000E+00  0.00000000000E+00 -0.74411246652E+03  0.74411246653E+03  0.50400001928E-02 0.  1.
    10030    2    1    2    0    0  0.00000000000E+00  0.00000000000E+00 -0.82000220127E+02  0.14062247129E+04  0.14038318657E+04 0.  0.
        5    1    3    3  502    0 -0.68464705652E+03  0.73209479438E+02  0.95476999361E+02  0.69515406011E+03  0.46999998093E+01 0. -1.
       -5    1    3    3    0  502  0.68464705652E+03 -0.73209479438E+02 -0.17747721949E+03  0.71107065283E+03  0.46999998093E+01 0.  1.
</event>
<event>
 5   0  0.3917598E-04  0.1398228E+04  0.7818609E-02  0.8955102E-01
        2   -1    0    0  501    0  0.00000000000E+00  0.00000000000E+00  0.32168471835E+04  0.32168471835E+04  0.25500000920E-02 0. -1.
       -2   -1    0    0    0  501  0.00000000000E+00  0.00000000000E+00 -0.15193773282E+03  0.15193773284E+03  0.25500000920E-02 0.  1.
    10030    2    1    2    0    0  0.00000000000E+00  0.00000000000E+00  0.30649094507E+04  0.33687849163E+04  0.13982281186E+04 0.  0.
        3    1    3    3  502    0  0.13842299033E+03  0.40384171881E+03  0.28663402753E+04  0.28979571498E+04  0.10100000352E+00 0. -1.
       -3    1    3    3    0  502 -0.13842299033E+03 -0.40384171881E+03  0.19856917534E+03  0.47082776649E+03  0.10100000352E+00 0.  1.
</event>
<event>
 5   0  0.2155352E-04  0.1398604E+04  0.7818609E-02  0.8954829E-01
        1   -1    0    0  501    0  0.00000000000E+00  0.00000000000E+00  0.11209190462E+04  0.11209190462E+04  0.50400001928E-02 0.  1.
       -1   -1    0    0    0  501  0.00000000000E+00  0.00000000000E+00 -0.43627022413E+03  0.43627022416E+03  0.50400001928E-02 0. -1.
    10030    2    1    2    0    0  0.00000000000E+00  0.00000000000E+00  0.68464882204E+03  0.15571892703E+04  0.13986044524E+04 0.  0.
        2    1    3    3  502    0  0.31295038964E+03 -0.22657359322E+03 -0.30664805260E+03  0.49326115567E+03  0.25500000920E-02 0. -1.
       -2    1    3    3    0  502 -0.31295038964E+03  0.22657359322E+03  0.99129687465E+03  0.10639281147E+04  0.25500000920E-02 0.  1.
</event>
<event>
 5   0  0.3932568E-04  0.1399705E+04  0.7818609E-02  0.8954032E-01
        2   -1    0    0  501    0  0.00000000000E+00  0.00000000000E+00  0.56417786552E+03  0.56417786553E+03  0.25500000920E-02 0. -1.
       -2   -1    0    0    0  501  0.00000000000E+00  0.00000000000E+00 -0.86815458446E+03  0.86815458446E+03  0.25500000920E-02 0.  1.
    10030    2    1    2    0    0  0.00000000000E+00  0.00000000000E+00 -0.30397671894E+03  0.14323324500E+04  0.13997051124E+04 0.  0.
        2    1    3    3  502    0  0.37568635404E+03  0.53515100357E+03  0.10336139309E+03  0.66197463005E+03  0.25500000920E-02 0. -1.
       -2    1    3    3    0  502 -0.37568635404E+03 -0.53515100357E+03 -0.40733811203E+03  0.77035781995E+03  0.25500000920E-02 0.  1.
</event>
<event>
 5   0  0.3917598E-04  0.1391382E+04  0.7818609E-02  0.8960080E-01
       -2   -1    0    0    0  501  0.00000000000E+00  0.00000000000E+00  0.44092013606E+03  0.44092013607E+03  0.25500000920E-02 0.  1.
        2   -1    0    0  501    0  0.00000000000E+00  0.00000000000E+00 -0.10976726115E+04  0.10976726115E+04  0.25500000920E-02 0. -1.
    10030    2    1    2    0    0  0.00000000000E+00  0.00000000000E+00 -0.65675247539E+03  0.15385927475E+04  0.13913819852E+04 0.  0.
        3    1    3    3  502    0  0.16201300890E+03  0.49950715182E+03  0.17622615573E+03  0.55390547744E+03  0.10100000352E+00 0.  1.
       -3    1    3    3    0  502 -0.16201300890E+03 -0.49950715182E+03 -0.83297863112E+03  0.98468727009E+03  0.10100000352E+00 0. -1.
</event>
<event>
 5   0  0.2215876E-04  0.1398758E+04  0.7818609E-02  0.8954718E-01
       -1   -1    0    0    0  501  0.00000000000E+00  0.00000000000E+00  0.64142486763E+03  0.64142486765E+03  0.50400001928E-02 0. -1.
        1   -1    0    0  501    0  0.00000000000E+00  0.00000000000E+00 -0.76256965963E+03  0.76256965965E+03  0.50400001928E-02 0.  1.
    10030    2    1    2    0    0  0.00000000000E+00  0.00000000000E+00 -0.12114479200E+03  0.14039945273E+04  0.13987582250E+04 0.  0.
        3    1    3    3  502    0 -0.66950166349E+02  0.47199264485E+03  0.45307736208E+03  0.65767658298E+03  0.10100000352E+00 0. -1.
       -3    1    3    3    0  502  0.66950166349E+02 -0.47199264485E+03 -0.57422215408E+03  0.74631794432E+03  0.10100000352E+00 0.  1.
</event>
<event>
 5   0  0.2143942E-04  0.1399365E+04  0.7818609E-02  0.8954278E-01
        1   -1    0    0  501    0  0.00000000000E+00  0.00000000000E+00  0.73206330260E+03  0.73206330262E+03  0.50400001928E-02 0.  1.
       -1   -1    0    0    0  501  0.00000000000E+00  0.00000000000E+00 -0.66873379055E+03  0.66873379057E+03  0.50400001928E-02 0. -1.
    10030    2    1    2    0    0  0.00000000000E+00  0.00000000000E+00  0.63329512050E+02  0.14007970932E+04  0.13993648092E+04 0.  0.
        4    1    3    3  502    0 -0.42124295336E+03  0.20617222992E+03  0.55142759576E+03  0.72389682995E+03  0.12699999809E+01 0.  1.
       -4    1    3    3    0  502  0.42124295336E+03 -0.20617222992E+03 -0.48809808371E+03  0.67690026324E+03  0.12699999809E+01 0. -1.
</event>
<event>
 5   0  0.3932568E-04  0.1405238E+04  0.7818609E-02  0.8950036E-01
       -2   -1    0    0    0  501  0.00000000000E+00  0.00000000000E+00  0.41216085634E+03  0.41216085635E+03  0.25500000920E-02 0.  1.
        2   -1    0    0  501    0  0.00000000000E+00  0.00000000000E+00 -0.11977693397E+04  0.11977693397E+04  0.25500000920E-02 0. -1.
    10030    2    1    2    0    0  0.00000000000E+00  0.00000000000E+00 -0.78560848331E+03  0.16099301960E+04  0.14052382527E+04 0.  0.
        2    1    3    3  502    0 -0.27324115528E+03  0.13729344270E+02  0.34863074725E+03  0.44316207167E+03  0.25500000920E-02 0.  1.
       -2    1    3    3    0  502  0.27324115528E+03 -0.13729344270E+02 -0.11342392306E+04  0.11667681243E+04  0.25500000920E-02 0. -1.
</event>
<event>
 5   0  0.4208622E-04  0.1408189E+04  0.7818609E-02  0.8947912E-01
       -2   -1    0    0    0  501  0.00000000000E+00  0.00000000000E+00  0.76769354664E+03  0.76769354664E+03  0.25500000920E-02 0. -1.
        2   -1    0    0  501    0  0.00000000000E+00  0.00000000000E+00 -0.64576424779E+03  0.64576424779E+03  0.25500000920E-02 0.  1.
    10030    2    1    2    0    0  0.00000000000E+00  0.00000000000E+00  0.12192929885E+03  0.14134577944E+04  0.14081889727E+04 0.  0.
        4    1    3    3  502    0 -0.34850491487E+03 -0.25506210087E+03 -0.49720508579E+03  0.65857942666E+03  0.12699999809E+01 0.  1.
       -4    1    3    3    0  502  0.34850491487E+03  0.25506210087E+03  0.61913438464E+03  0.75487836777E+03  0.12699999809E+01 0. -1.
</event>
<event>
 5   0  0.3917598E-04  0.1412695E+04  0.7818609E-02  0.8944680E-01
        2   -1    0    0  501    0  0.00000000000E+00  0.00000000000E+00  0.12752174180E+04  0.12752174180E+04  0.25500000920E-02 0.  1.
       -2   -1    0    0    0  501  0.00000000000E+00  0.00000000000E+00 -0.39124839461E+03  0.39124839462E+03  0.25500000920E-02 0. -1.
    10030    2    1    2    0    0  0.00000000000E+00  0.00000000000E+00  0.88396902341E+03  0.16664658126E+04  0.14126949672E+04 0.  0.
        3    1    3    3  502    0 -0.78305973699E+02 -0.20026321715E+03  0.12356696671E+04  0.12542394978E+04  0.10100000352E+00 0.  1.
       -3    1    3    3    0  502  0.78305973699E+02  0.20026321715E+03 -0.35170064365E+03  0.41222631479E+03  0.10100000352E+00 0. -1.
</event>
<event>
 5   0  0.3975164E-04  0.1402545E+04  0.7818609E-02  0.8951979E-01
        2   -1    0    0  501    0  0.00000000000E+00  0.00000000000E+00  0.41061265964E+03  0.41061265965E+03  0.25500000920E-02 0.  1.
       -2   -1    0    0    0  501  0.00000000000E+00  0.00000000000E+00 -0.11976807070E+04  0.11976807070E+04  0.25500000920E-02 0. -1.
    10030    2    1    2    0    0  0.00000000000E+00  0.00000000000E+00 -0.78706804739E+03  0.16082933667E+04  0.14025446311E+04 0.  0.
        5    1    3    3  502    0  0.31312032274E+03  0.20290210029E+03 -0.10743930481E+04  0.11373460821E+04  0.46999998093E+01 0. -1.
       -5    1    3    3    0  502 -0.31312032274E+03 -0.20290210029E+03  0.28732500067E+03  0.47094728455E+03  0.46999998093E+01 0.  1.
</event>
<event>
 5   0  0.2143942E-04  0.1398958E+04  0.7818609E-02  0.8954573E-01
       -1   -1    0    0    0  501  0.00000000000E+00  0.00000000000E+00  0.32997552053E+03  0.32997552057E+03  0.50400001928E-02 0.  1.
        1   -1    0    0  501    0  0.00000000000E+00  0.00000000000E+00 -0.14827492247E+04  0.14827492247E+04  0.50400001928E-02 0. -1.
    10030    2    1    2    0    0  0.00000000000E+00  0.00000000000E+00 -0.11527737041E+04  0.18127247453E+04  0.13989581084E+04 0.  0.
        4    1    3    3  502    0 -0.70787169813E+01  0.38839649012E+03 -0.13301265788E+04  0.13856912608E+04  0.12699999809E+01 0. -1.
       -4    1    3    3    0  502  0.70787169813E+01 -0.38839649012E+03  0.17735287467E+03  0.42703348443E+03  0.12699999809E+01 0.  1.
</event>
<event>
 5   0  0.2217251E-04  0.1396717E+04  0.7818609E-02  0.8956199E-01
        1   -1    0    0  501    0  0.00000000000E+00  0.00000000000E+00  0.17927878346E+04  0.17927878346E+04  0.50400001928E-02 0.  1.
       -1   -1    0    0    0  501  0.00000000000E+00  0.00000000000E+00 -0.27203687959E+03  0.27203687964E+03  0.50400001928E-02 0. -1.
    10030    2    1    2    0    0  0.00000000000E+00  0.00000000000E+00  0.15207509550E+04  0.20648247142E+04  0.13967167334E+04 0.  0.
        5    1    3    3  502    0  0.49439529249E+03  0.34135291548E+02  0.32991663150E+02  0.49669151714E+03  0.46999998093E+01 0. -1.
       -5    1    3    3    0  502 -0.49439529249E+03 -0.34135291548E+02  0.14877592918E+04  0.15681331971E+04  0.46999998093E+01 0.  1.
</event>
<event>
 5   0  0.2223112E-04  0.1438903E+04  0.7818609E-02  0.8926130E-01
       -1   -1    0    0    0  501  0.00000000000E+00  0.00000000000E+00  0.74362378328E+03  0.74362378330E+03  0.50400001928E-02 0.  1.
        1   -1    0    0  501    0  0.00000000000E+00  0.00000000000E+00 -0.69606500713E+03  0.69606500715E+03  0.50400001928E-02 0. -1.
    10030    2    1    2    0    0  0.00000000000E+00  0.00000000000E+00  0.47558776151E+02  0.14396887904E+04  0.14389030461E+04 0.  0.
        1    1    3    3  502    0 -0.45471781259E+03 -0.52899680769E+03 -0.15239794608E+03  0.71402454134E+03  0.50400001928E-02 0. -1.
       -1    1    3    3    0  502  0.45471781259E+03  0.52899680769E+03  0.19995672223E+03  0.72566424911E+03  0.50400001928E-02 0.  1.
</event>
<event>
 5   0  0.4208622E-04  0.1401895E+04  0.7818609E-02  0.8952448E-01
       -2   -1    0    0    0  501  0.00000000000E+00  0.00000000000E+00  0.83731086331E+03  0.83731086331E+03  0.25500000920E-02 0. -1.
        2   -1    0    0  501    0  0.00000000000E+00  0.00000000000E+00 -0.58679247239E+03  0.58679247239E+03  0.25500000920E-02 0.  1.
    10030    2    1    2    0    0  0.00000000000E+00  0.00000000000E+00  0.25051839092E+03  0.14241033357E+04  0.14018954478E+04 0.  0.
        4    1    3    3  502    0 -0.32996839751E+03  0.52135060812E+03  0.46315510991E+03  0.77149197577E+03  0.12699999809E+01 0. -1.
       -4    1    3    3    0  502  0.32996839751E+03 -0.52135060812E+03 -0.21263671899E+03  0.65261135993E+03  0.12699999809E+01 0.  1.
</event>
<event>
 5   0  0.4208622E-04  0.1393947E+04  0.7818609E-02  0.8958212E-01
        2   -1    0    0  501    0  0.00000000000E+00  0.00000000000E+00  0.72570021557E+03  0.72570021558E+03  0.25500000920E-02 0. -1.
       -2   -1    0    0    0  501  0.00000000000E+00  0.00000000000E+00 -0.66938369896E+03  0.66938369896E+03  0.25500000920E-02 0.  1.
    10030    2    1    2    0    0  0.00000000000E+00  0.00000000000E+00  0.56316516615E+02  0.13950839145E+04  0.13939467632E+04 0.  0.
        4    1    3    3  502    0 -0.37790191131E+03  0.50423160637E+02 -0.55577116348E+03  0.67396999099E+03  0.12699999809E+01 0.  1.
       -4    1    3    3    0  502  0.37790191131E+03 -0.50423160637E+02  0.61208768010E+03  0.72111392354E+03  0.12699999809E+01 0. -1.
</event>
<event>
 5   0  0.1497625E-04  0.1392263E+04  0.7818609E-02  0.8959438E-01
        3   -1    0    0  501    0  0.00000000000E+00  0.00000000000E+00  0.11317327086E+04  0.11317327131E+04  0.10100000352E+00 0.  1.
       -3   -1    0    0    0  501  0.00000000000E+00  0.00000000000E+00 -0.42819231399E+03  0.42819232590E+03  0.10100000352E+00 0. -1.
    10030    2    1    2    0    0  0.00000000000E+00  0.00000000000E+00  0.70354039458E+03  0.15599250390E+04  0.13922632799E+04 0.  0.
        4    1    3    3  502    0  0.48238315019E+03  0.54268781470E+02  0.91081461223E+03  0.10320966403E+04  0.12699999809E+01 0.  1.
       -4    1    3    3    0  502 -0.48238315019E+03 -0.54268781470E+02 -0.20727421765E+03  0.52782839866E+03  0.12699999809E+01 0. -1.
</event>
<event>
 5   0  0.3932568E-04  0.1399132E+04  0.7818609E-02  0.8954447E-01
        2   -1    0    0  501    0  0.00000000000E+00  0.00000000000E+00  0.12625690368E+04  0.12625690368E+04  0.25500000920E-02 0.  1.
       -2   -1    0    0    0  501  0.00000000000E+00  0.00000000000E+00 -0.38761652823E+03  0.38761652823E+03  0.25500000920E-02 0. -1.
    10030    2    1    2    0    0  0.00000000000E+00  0.00000000000E+00  0.87495250854E+03  0.16501855650E+04  0.13991320548E+04 0.  0.
        2    1    3    3  502    0 -0.50009562210E+03  0.37118383161E+03  0.61683036684E+02  0.62584172529E+03  0.25500000920E-02 0. -1.
       -2    1    3    3    0  502  0.50009562210E+03 -0.37118383161E+03  0.81326947185E+03  0.10243438397E+04  0.25500000920E-02 0.  1.
</event>
<event>
 5   0  0.2155352E-04  0.1407685E+04  0.7818609E-02  0.8948275E-01
        1   -1    0    0  501    0  0.00000000000E+00  0.00000000000E+00  0.50617815081E+03  0.50617815084E+03  0.50400001928E-02 0. -1.
       -1   -1    0    0    0  501  0.00000000000E+00  0.00000000000E+00 -0.97869507777E+03  0.97869507778E+03  0.50400001928E-02 0.  1.
    10030    2    1    2    0    0  0.00000000000E+00  0.00000000000E+00 -0.47251692696E+03  0.14848732286E+04  0.14076847157E+04 0.  0.
        2    1    3    3  502    0  0.66133230926E+03 -0.15000418765E+03 -0.43509498749E+03  0.80571044906E+03  0.25500000920E-02 0. -1.
       -2    1    3    3    0  502 -0.66133230926E+03  0.15000418765E+03 -0.37421939468E+02  0.67916277956E+03  0.25500000920E-02 0.  1.
</event>
<event>
 5   0  0.2215876E-04  0.1394039E+04  0.7818609E-02  0.8958145E-01
       -1   -1    0    0    0  501  0.00000000000E+00  0.00000000000E+00  0.46181557276E+03  0.46181557279E+03  0.50400001928E-02 0. -1.
        1   -1    0    0  501    0  0.00000000000E+00  0.00000000000E+00 -0.10520136498E+04  0.10520136498E+04  0.50400001928E-02 0.  1.
    10030    2    1    2    0    0  0.00000000000E+00  0.00000000000E+00 -0.59019807699E+03  0.15138292226E+04  0.13940391476E+04 0.  0.
        3    1    3    3  502    0  0.53167907344E+03  0.44110149772E+03 -0.19449296633E+03  0.71769122370E+03  0.10100000352E+00 0. -1.
       -3    1    3    3    0  502 -0.53167907344E+03 -0.44110149772E+03 -0.39570511066E+03  0.79613799886E+03  0.10100000352E+00 0.  1.
</event>
<event>
 5   0  0.3975164E-04  0.1405136E+04  0.7818609E-02  0.8950109E-01
        2   -1    0    0  501    0  0.00000000000E+00  0.00000000000E+00  0.14912431449E+04  0.14912431449E+04  0.25500000920E-02 0.  1.
       -2   -1    0    0    0  501  0.00000000000E+00  0.00000000000E+00 -0.33100024603E+03  0.33100024604E+03  0.25500000920E-02 0. -1.
    10030    2    1    2    0    0  0.00000000000E+00  0.00000000000E+00  0.11602428989E+04  0.18222433909E+04  0.14051360758E+04 0.  0.
        5    1    3    3  502    0  0.42644105926E+03  0.17702939062E+03  0.12668229589E+04  0.13483522838E+04  0.46999998093E+01 0.  1.
       -5    1    3    3    0  502 -0.42644105926E+03 -0.17702939062E+03 -0.10658006005E+03  0.47389110707E+03  0.46999998093E+01 0. -1.
</event>
<event>
 5   0  0.4310348E-04  0.1453986E+04  0.7818609E-02  0.8915642E-01
       -2   -1    0    0    0  501  0.00000000000E+00  0.00000000000E+00  0.67523695165E+03  0.67523695166E+03  0.25500000920E-02 0.  1.
        2   -1    0    0  501    0  0.00000000000E+00  0.00000000000E+00 -0.78271559165E+03  0.78271559166E+03  0.25500000920E-02 0. -1.
    10030    2    1    2    0    0  0.00000000000E+00  0.00000000000E+00 -0.10747864000E+03  0.14579525433E+04  0.14539855434E+04 0.  0.
        1    1    3    3  502    0 -0.24451849921E+03 -0.66981634915E+03  0.88334416618E+02  0.71850275380E+03  0.50400001928E-02 0.  1.
       -1    1    3    3    0  502  0.24451849921E+03  0.66981634915E+03 -0.19581305662E+03  0.73944978951E+03  0.50400001928E-02 0. -1.
</event>
<event>
 5   0  0.2143942E-04  0.1399044E+04  0.7818609E-02  0.8954511E-01
        1   -1    0    0  501    0  0.00000000000E+00  0.00000000000E+00  0.20239991815E+04  0.20239991815E+04  0.50400001928E-02 0.  1.
       -1   -1    0    0    0  501  0.00000000000E+00  0.00000000000E+00 -0.24176437286E+03  0.24176437291E+03  0.50400001928E-02 0. -1.
    10030    2    1    2    0    0  0.00000000000E+00  0.00000000000E+00  0.17822348086E+04  0.22657635544E+04  0.13990438061E+04 0.  0.
        4    1    3    3  502    0 -0.18904664224E+03  0.65512095598E+03  0.11441299615E+04  0.13318998017E+04  0.12699999809E+01 0.  1.
       -4    1    3    3    0  502  0.18904664224E+03 -0.65512095598E+03  0.63810484710E+03  0.93386375274E+03  0.12699999809E+01 0. -1.
</event>
<event>
 5   0  0.2143942E-04  0.1373193E+04  0.7818609E-02  0.8973454E-01
        1   -1    0    0  501    0  0.00000000000E+00  0.00000000000E+00  0.53041061090E+03  0.53041061092E+03  0.50400001928E-02 0. -1.
       -1   -1    0    0    0  501  0.00000000000E+00  0.00000000000E+00 -0.88877378247E+03  0.88877378249E+03  0.50400001928E-02 0.  1.
    10030    2    1    2    0    0  0.00000000000E+00  0.00000000000E+00 -0.35836317157E+03  0.14191843934E+04  0.13731934240E+04 0.  0.
        4    1    3    3  502    0 -0.19489410546E+03 -0.18854536106E+03 -0.83108516620E+03  0.87420662998E+03  0.12699999809E+01 0.  1.
       -4    1    3    3    0  502  0.19489410546E+03  0.18854536106E+03  0.47272199463E+03  0.54497776342E+03  0.12699999809E+01 0. -1.
</event>
<event>
 5   0  0.2217251E-04  0.1413485E+04  0.7818609E-02  0.8944115E-01
       -1   -1    0    0    0  501  0.00000000000E+00  0.00000000000E+00  0.94245275263E+03  0.94245275264E+03  0.50400001928E-02 0.  1.
        1   -1    0    0  501    0  0.00000000000E+00  0.00000000000E+00 -0.52998394630E+03  0.52998394632E+03  0.50400001928E-02 0. -1.
    10030    2    1    2    0    0  0.00000000000E+00  0.00000000000E+00  0.41246880633E+03  0.14724366990E+04  0.14134848129E+04 0.  0.
        5    1    3    3  502    0 -0.19225085228E+03  0.67786194441E+03  0.14912518025E+03  0.72022053238E+03  0.46999998093E+01 0.  1.
       -5    1    3    3    0  502  0.19225085228E+03 -0.67786194441E+03  0.26334362608E+03  0.75221616659E+03  0.46999998093E+01 0. -1.
</event>
<event>
 5   0  0.4208622E-04  0.1402122E+04  0.7818609E-02  0.8952284E-01
       -2   -1    0    0    0  501  0.00000000000E+00  0.00000000000E+00  0.35720168769E+03  0.35720168770E+03  0.25500000920E-02 0.  1.
        2   -1    0    0  501    0  0.00000000000E+00  0.00000000000E+00 -0.13759348962E+04  0.13759348962E+04  0.25500000920E-02 0. -1.
    10030    2    1    2    0    0  0.00000000000E+00  0.00000000000E+00 -0.10187332085E+04  0.17331365839E+04  0.14021216311E+04 0.  0.
        4    1    3    3  502    0  0.40559611953E+03 -0.51554731054E+02 -0.12133023128E+04  0.12803398837E+04  0.12699999809E+01 0. -1.
       -4    1    3    3    0  502 -0.40559611953E+03  0.51554731054E+02  0.19456910434E+03  0.45279670023E+03  0.12699999809E+01 0.  1.
</event>
<event>
 5   0  0.2217251E-04  0.1404101E+04  0.7818609E-02  0.8950855E-01
       -1   -1    0    0    0  501  0.00000000000E+00  0.00000000000E+00  0.85185603178E+03  0.85185603179E+03  0.50400001928E-02 0. -1.
        1   -1    0    0  501    0  0.00000000000E+00  0.00000000000E+00 -0.57858941813E+03  0.57858941815E+03  0.50400001928E-02 0.  1.
    10030    2    1    2    0    0  0.00000000000E+00  0.00000000000E+00  0.27326661365E+03  0.14304454499E+04  0.14041009733E+04 0.  0.
        5    1    3    3  502    0 -0.55380793974E+03 -0.15027971074E+03 -0.27538727042E+03  0.63651195141E+03  0.46999998093E+01 0. -1.
       -5    1    3    3    0  502  0.55380793974E+03  0.15027971074E+03  0.54865388408E+03  0.79393349853E+03  0.46999998093E+01 0.  1.
</event>
<event>
 5   0  0.3917598E-04  0.1400292E+04  0.7818609E-02  0.8953608E-01
        2   -1    0    0  501    0  0.00000000000E+00  0.00000000000E+00  0.51665525622E+03  0.51665525622E+03  0.25500000920E-02 0. -1.
       -2   -1    0    0    0  501  0.00000000000E+00  0.00000000000E+00 -0.94880303321E+03  0.94880303321E+03  0.25500000920E-02 0.  1.
    10030    2    1    2    0    0  0.00000000000E+00  0.00000000000E+00 -0.43214777699E+03  0.14654582894E+04  0.14002915043E+04 0.  0.
        3    1    3    3  502    0  0.55647633357E+03 -0.46570862848E+02  0.22591878734E+03  0.60239029189E+03  0.10100000352E+00 0. -1.
       -3    1    3    3    0  502 -0.55647633357E+03  0.46570862848E+02 -0.65806656433E+03  0.86306799754E+03  0.10100000352E+00 0.  1.
</event>
<event>
 5   0  0.3917598E-04  0.1400623E+04  0.7818609E-02  0.8953368E-01
        2   -1    0    0  501    0  0.00000000000E+00  0.00000000000E+00  0.68886119360E+03  0.68886119361E+03  0.25500000920E-02 0. -1.
       -2   -1    0    0    0  501  0.00000000000E+00  0.00000000000E+00 -0.71195218268E+03  0.71195218269E+03  0.25500000920E-02 0.  1.
    10030    2    1    2    0    0  0.00000000000E+00  0.00000000000E+00 -0.23090989080E+02  0.14008133763E+04  0.14006230476E+04 0.  0.
        3    1    3    3  502    0  0.11184180600E+02 -0.26671167546E+03  0.63598052552E+03  0.68973287784E+03  0.10100000352E+00 0. -1.
       -3    1    3    3    0  502 -0.11184180600E+02  0.26671167546E+03 -0.65907151460E+03  0.71108049846E+03  0.10100000352E+00 0.  1.
</event>
<event>
 5   0  0.1497625E-04  0.1402942E+04  0.7818609E-02  0.8951691E-01
       -3   -1    0    0    0  501  0.00000000000E+00  0.00000000000E+00  0.72683166068E+03  0.72683166770E+03  0.10100000352E+00 0. -1.
        3   -1    0    0  501    0  0.00000000000E+00  0.00000000000E+00 -0.67699561395E+03  0.67699562148E+03  0.10100000352E+00 0.  1.
    10030    2    1    2    0    0  0.00000000000E+00  0.00000000000E+00  0.49836046734E+02  0.14038272892E+04  0.14029424173E+04 0.  0.
        1    1    3    3  502    0  0.60320318772E+03 -0.34369406636E+03  0.12539131234E+03  0.70548045909E+03  0.50400001928E-02 0. -1.
       -1    1    3    3    0  502 -0.60320318772E+03  0.34369406636E+03 -0.75555265605E+02  0.69834683010E+03  0.50400001928E-02 0.  1.
</event>
<event>
 5   0  0.2217251E-04  0.1400363E+04  0.7818609E-02  0.8953556E-01
       -1   -1    0    0    0  501  0.00000000000E+00  0.00000000000E+00  0.66069012970E+03  0.66069012972E+03  0.50400001928E-02 0.  1.
        1   -1    0    0  501    0  0.00000000000E+00  0.00000000000E+00 -0.74203300321E+03  0.74203300322E+03  0.50400001928E-02 0. -1.
    10030    2    1    2    0    0  0.00000000000E+00  0.00000000000E+00 -0.81342873503E+02  0.14027231329E+04  0.14003626404E+04 0.  0.
        5    1    3    3  502    0 -0.41099988723E+03 -0.44753519296E+03  0.30779876156E+03  0.68115403828E+03  0.46999998093E+01 0.  1.
       -5    1    3    3    0  502  0.41099988723E+03  0.44753519296E+03 -0.38914163507E+03  0.72156909467E+03  0.46999998093E+01 0. -1.
</event>
<event>
 5   0  0.3917598E-04  0.1401627E+04  0.7818609E-02  0.8952642E-01
        2   -1    0    0  501    0  0.00000000000E+00  0.00000000000E+00  0.12564987965E+04  0.12564987965E+04  0.25500000920E-02 0. -1.
       -2   -1    0    0    0  501  0.00000000000E+00  0.00000000000E+00 -0.39087933124E+03  0.39087933125E+03  0.25500000920E-02 0.  1.
    10030    2    1    2    0    0  0.00000000000E+00  0.00000000000E+00  0.86561946526E+03  0.16473781277E+04  0.14016267824E+04 0.  0.
        3    1    3    3  502    0  0.38092742019E+02 -0.33613479259E+02  0.12543317064E+04  0.12553600929E+04  0.10100000352E+00 0. -1.
       -3    1    3    3    0  502 -0.38092742019E+02  0.33613479259E+02 -0.38871224117E+03  0.39201803481E+03  0.10100000352E+00 0.  1.
</event>
<event>
 5   0  0.1497625E-04  0.1391721E+04  0.7818609E-02  0.8959833E-01
       -3   -1    0    0    0  501  0.00000000000E+00  0.00000000000E+00  0.68233139950E+03  0.68233140698E+03  0.10100000352E+00 0. -1.
        3   -1    0    0  501    0  0.00000000000E+00  0.00000000000E+00 -0.70965805532E+03  0.70965806251E+03  0.10100000352E+00 0.  1.
    10030    2    1    2    0    0  0.00000000000E+00  0.00000000000E+00 -0.27326655819E+02  0.13919894695E+04  0.13917212138E+04 0.  0.
        5    1    3    3  502    0 -0.20340683337E+03  0.19757633747E+03  0.62190320818E+03  0.68351769496E+03  0.46999998093E+01 0. -1.
       -5    1    3    3    0  502  0.20340683337E+03 -0.19757633747E+03 -0.64922986399E+03  0.70847177452E+03  0.46999998093E+01 0.  1.
</event>
<event>
 5   0  0.3932568E-04  0.1407379E+04  0.7818609E-02  0.8948495E-01
       -2   -1    0    0    0  501  0.00000000000E+00  0.00000000000E+00  0.75172093695E+03  0.75172093695E+03  0.25500000920E-02 0.  1.
        2   -1    0    0  501    0  0.00000000000E+00  0.00000000000E+00 -0.65872668168E+03  0.65872668169E+03  0.25500000920E-02 0. -1.
    10030    2    1    2    0    0  0.00000000000E+00  0.00000000000E+00  0.92994255267E+02  0.14104476186E+04  0.14073786105E+04 0.  0.
        2    1    3    3  502    0  0.53050440885E+03  0.13317669986E+01 -0.41683336828E+03  0.67467529845E+03  0.25500000920E-02 0. -1.
       -2    1    3    3    0  502 -0.53050440885E+03 -0.13317669986E+01  0.50982762355E+03  0.73577232019E+03  0.25500000920E-02 0.  1.
</event>
<event>
 5   0  0.4310348E-04  0.1400786E+04  0.7818609E-02  0.8953250E-01
       -2   -1    0    0    0  501  0.00000000000E+00  0.00000000000E+00  0.46876687023E+03  0.46876687024E+03  0.25500000920E-02 0.  1.
        2   -1    0    0  501    0  0.00000000000E+00  0.00000000000E+00 -0.10464699111E+04  0.10464699111E+04  0.25500000920E-02 0. -1.
    10030    2    1    2    0    0  0.00000000000E+00  0.00000000000E+00 -0.57770304089E+03  0.15152367814E+04  0.14007861008E+04 0.  0.
        1    1    3    3  502    0 -0.13545263261E+03 -0.66448197721E+03 -0.99424345480E+02  0.68539690269E+03  0.50400001928E-02 0.  1.
       -1    1    3    3    0  502  0.13545263261E+03  0.66448197721E+03 -0.47827869541E+03  0.82983987867E+03  0.50400001928E-02 0. -1.
</event>
<event>
 5   0  0.2223112E-04  0.1398329E+04  0.7818609E-02  0.8955029E-01
       -1   -1    0    0    0  501  0.00000000000E+00  0.00000000000E+00  0.25214230264E+03  0.25214230269E+03  0.50400001928E-02 0.  1.
        1   -1    0    0  501    0  0.00000000000E+00  0.00000000000E+00 -0.19387097256E+04  0.19387097257E+04  0.50400001928E-02 0. -1.
    10030    2    1    2    0    0  0.00000000000E+00  0.00000000000E+00 -0.16865674230E+04  0.21908520283E+04  0.13983286229E+04 0.  0.
        1    1    3    3  502    0  0.13107204004E+03  0.60301557821E+03 -0.32833728266E+03  0.69900861115E+03  0.50400001928E-02 0.  1.
       -1    1    3    3    0  502 -0.13107204004E+03 -0.60301557821E+03 -0.13582301403E+04  0.14918434172E+04  0.50400001928E-02 0. -1.
</event>
<event>
 5   0  0.4208622E-04  0.1401759E+04  0.7818609E-02  0.8952546E-01
        2   -1    0    0  501    0  0.00000000000E+00  0.00000000000E+00  0.10404687062E+04  0.10404687062E+04  0.25500000920E-02 0.  1.
       -2   -1    0    0    0  501  0.00000000000E+00  0.00000000000E+00 -0.47212564972E+03  0.47212564972E+03  0.25500000920E-02 0. -1.
    10030    2    1    2    0    0  0.00000000000E+00  0.00000000000E+00  0.56834305651E+03  0.15125943560E+04  0.14017588437E+04 0.  0.
        4    1    3    3  502    0 -0.44623786164E+03  0.34204818505E+03 -0.16737098310E+03  0.58663434006E+03  0.12699999809E+01 0. -1.
       -4    1    3    3    0  502  0.44623786164E+03 -0.34204818505E+03  0.73571403961E+03  0.92596001589E+03  0.12699999809E+01 0.  1.
</event>
<event>
 5   0  0.4208622E-04  0.1401185E+04  0.7818609E-02  0.8952961E-01
       -2   -1    0    0    0  501  0.00000000000E+00  0.00000000000E+00  0.46418954807E+03  0.46418954807E+03  0.25500000920E-02 0.  1.
        2   -1    0    0  501    0  0.00000000000E+00  0.00000000000E+00 -0.10573905775E+04  0.10573905775E+04  0.25500000920E-02 0. -1.
    10030    2    1    2    0    0  0.00000000000E+00  0.00000000000E+00 -0.59320102939E+03  0.15215801255E+04  0.14011847191E+04 0.  0.
        4    1    3    3  502    0 -0.79648507135E+02 -0.84960413092E+02  0.45360392607E+03  0.46831644337E+03  0.12699999809E+01 0.  1.
       -4    1    3    3    0  502  0.79648507135E+02  0.84960413092E+02 -0.10468049555E+04  0.10532636822E+04  0.12699999809E+01 0. -1.
</event>
<event>
 5   0  0.3975164E-04  0.1397341E+04  0.7818609E-02  0.8955746E-01
        2   -1    0    0  501    0  0.00000000000E+00  0.00000000000E+00  0.15497159185E+04  0.15497159185E+04  0.25500000920E-02 0. -1.
       -2   -1    0    0    0  501  0.00000000000E+00  0.00000000000E+00 -0.31498698175E+03  0.31498698176E+03  0.25500000920E-02 0.  1.
    10030    2    1    2    0    0  0.00000000000E+00  0.00000000000E+00  0.12347289367E+04  0.18647029002E+04  0.13973408170E+04 0.  0.
        5    1    3    3  502    0  0.84400197481E+02 -0.24371382197E+03  0.14838409777E+04  0.15060962643E+04  0.46999998093E+01 0. -1.
       -5    1    3    3    0  502 -0.84400197481E+02  0.24371382197E+03 -0.24911204098E+03  0.35860663590E+03  0.46999998093E+01 0.  1.
</event>
<event>
 5   0  0.2143942E-04  0.1400198E+04  0.7818609E-02  0.8953675E-01
       -1   -1    0    0    0  501  0.00000000000E+00  0.00000000000E+00  0.10065915163E+04  0.10065915163E+04  0.50400001928E-02 0.  1.
        1   -1    0    0  501    0  0.00000000000E+00  0.00000000000E+00 -0.48692932092E+03  0.48692932095E+03  0.50400001928E-02 0. -1.
    10030    2    1    2    0    0  0.00000000000E+00  0.00000000000E+00  0.51966219536E+03  0.14935208372E+04  0.14001984481E+04 0.  0.
        4    1    3    3  502    0  0.36271595743E+03 -0.37641497744E+03 -0.23691865965E+03  0.57391912776E+03  0.12699999809E+01 0. -1.
       -4    1    3    3    0  502 -0.36271595743E+03  0.37641497744E+03  0.75658085500E+03  0.91960170948E+03  0.12699999809E+01 0.  1.
</event>
<event>
 5   0  0.2155352E-04  0.1400842E+04  0.7818609E-02  0.8953210E-01
        1   -1    0    0  501    0  0.00000000000E+00  0.00000000000E+00  0.19928449217E+04  0.19928449217E+04  0.50400001928E-02 0.  1.
       -1   -1    0    0    0  501  0.00000000000E+00  0.00000000000E+00 -0.24617534844E+03  0.24617534849E+03  0.50400001928E-02 0. -1.
    10030    2    1    2    0    0  0.00000000000E+00  0.00000000000E+00  0.17466695733E+04  0.22390202702E+04  0.14008415943E+04 0.  0.
        2    1    3    3  502    0 -0.21544615716E+03 -0.21051495949E+03 -0.13736143363E+03  0.33106156265E+03  0.25500000920E-02 0. -1.
       -2    1    3    3    0  502  0.21544615716E+03  0.21051495949E+03  0.18840310069E+04  0.19079587076E+04  0.25500000920E-02 0.  1.
</event>
<event>
 5   0  0.3917598E-04  0.1392600E+04  0.7818609E-02  0.8959192E-01
       -2   -1    0    0    0  501  0.00000000000E+00  0.00000000000E+00  0.83040751865E+03  0.83040751865E+03  0.25500000920E-02 0. -1.
        2   -1    0    0  501    0  0.00000000000E+00  0.00000000000E+00 -0.58385071320E+03  0.58385071320E+03  0.25500000920E-02 0.  1.
    10030    2    1    2    0    0  0.00000000000E+00  0.00000000000E+00  0.24655680545E+03  0.14142582319E+04  0.13926004768E+04 0.  0.
        3    1    3    3  502    0  0.82122787794E+02  0.68763336946E+03  0.49693204990E+02  0.69430053139E+03  0.10100000352E+00 0. -1.
       -3    1    3    3    0  502 -0.82122787794E+02 -0.68763336946E+03  0.19686360046E+03  0.71995770046E+03  0.10100000352E+00 0.  1.
</event>
<event>
 5   0  0.4310348E-04  0.1392110E+04  0.7818609E-02  0.8959549E-01
        2   -1    0    0  501    0  0.00000000000E+00  0.00000000000E+00  0.60652169476E+03  0.60652169477E+03  0.25500000920E-02 0. -1.
       -2   -1    0    0    0  501  0.00000000000E+00  0.00000000000E+00 -0.79880528085E+03  0.79880528086E+03  0.25500000920E-02 0.  1.
    10030    2    1    2    0    0  0.00000000000E+00  0.00000000000E+00 -0.19228358609E+03  0.14053269756E+04  0.13921102438E+04 0.  0.
        1    1    3    3  502    0  0.48274253326E+03 -0.19098456871E+03 -0.56420017729E+03  0.76670548386E+03  0.50400001928E-02 0.  1.
       -1    1    3    3    0  502 -0.48274253326E+03  0.19098456871E+03  0.37191659120E+03  0.63862149176E+03  0.50400001928E-02 0. -1.
</event>
<event>
 5   0  0.4208622E-04  0.1401058E+04  0.7818609E-02  0.8953053E-01
        2   -1    0    0  501    0  0.00000000000E+00  0.00000000000E+00  0.14342217733E+04  0.14342217733E+04  0.25500000920E-02 0. -1.
       -2   -1    0    0    0  501  0.00000000000E+00  0.00000000000E+00 -0.34216504563E+03  0.34216504564E+03  0.25500000920E-02 0.  1.
    10030    2    1    2    0    0  0.00000000000E+00  0.00000000000E+00  0.10920567276E+04  0.17763868189E+04  0.14010575413E+04 0.  0.
        4    1    3    3  502    0 -0.15199642684E+03  0.41739824656E+03 -0.14075937051E+03  0.46598178429E+03  0.12699999809E+01 0.  1.
       -4    1    3    3    0  502  0.15199642684E+03 -0.41739824656E+03  0.12328160982E+04  0.13104050346E+04  0.12699999809E+01 0. -1.
</event>
<event>
 5   0  0.2215876E-04  0.1398422E+04  0.7818609E-02  0.8954961E-01
        1   -1    0    0  501    0  0.00000000000E+00  0.00000000000E+00  0.95580803179E+03  0.95580803180E+03  0.50400001928E-02 0.  1.
       -1   -1    0    0    0  501  0.00000000000E+00  0.00000000000E+00 -0.51150044590E+03  0.51150044593E+03  0.50400001928E-02 0. -1.
    10030    2    1    2    0    0  0.00000000000E+00  0.00000000000E+00  0.44430758588E+03  0.14673084777E+04  0.13984223031E+04 0.  0.
        3    1    3    3  502    0 -0.19496853580E+03 -0.66668322838E+03  0.13810180315E+03  0.70820291950E+03  0.10100000352E+00 0. -1.
       -3    1    3    3    0  502  0.19496853580E+03  0.66668322838E+03  0.30620578273E+03  0.75910555823E+03  0.10100000352E+00 0.  1.
</event>
<event>
 5   0  0.2223112E-04  0.1401823E+04  0.7818609E-02  0.8952500E-01
       -1   -1    0    0    0  501  0.00000000000E+00  0.00000000000E+00  0.43183971625E+03  0.43183971628E+03  0.50400001928E-02 0.  1.
        1   -1    0    0  501    0  0.00000000000E+00  0.00000000000E+00 -0.11376377121E+04  0.11376377121E+04  0.50400001928E-02 0. -1.
    10030    2    1    2    0    0  0.00000000000E+00  0.00000000000E+00 -0.70579799589E+03  0.15694774284E+04  0.14018233082E+04 0.  0.
        1    1    3    3  502    0 -0.49284055261E+03 -0.38231211339E+03  0.50619510839E+01  0.62376276397E+03  0.50400001928E-02 0.  1.
       -1    1    3    3    0  502  0.49284055261E+03  0.38231211339E+03 -0.71085994697E+03  0.94571466446E+03  0.50400001928E-02 0. -1.
</event>
<event>
 5   0  0.2143942E-04  0.1396708E+04  0.7818609E-02  0.8956205E-01
       -1   -1    0    0    0  501  0.00000000000E+00  0.00000000000E+00  0.34993430746E+03  0.34993430750E+03  0.50400001928E-02 0.  1.
        1   -1    0    0  501    0  0.00000000000E+00  0.00000000000E+00 -0.13936849007E+04  0.13936849007E+04  0.50400001928E-02 0. -1.
    10030    2    1    2    0    0  0.00000000000E+00  0.00000000000E+00 -0.10437505932E+04  0.17436192082E+04  0.13967077870E+04 0.  0.
        4    1    3    3  502    0  0.91656429766E+02 -0.30797206313E+03 -0.12959188109E+04  0.13351609904E+04  0.12699999809E+01 0. -1.
       -4    1    3    3    0  502 -0.91656429766E+02  0.30797206313E+03  0.25216821770E+03  0.40845821782E+03  0.12699999809E+01 0.  1.
</event>
<event>
 5   0  0.4310348E-04  0.1419045E+04  0.7818609E-02  0.8940147E-01
       -2   -1    0    0    0  501  0.00000000000E+00  0.00000000000E+00  0.48135541164E+03  0.48135541165E+03  0.25500000920E-02 0. -1.
        2   -1    0    0  501    0  0.00000000000E+00  0.00000000000E+00 -0.10458431084E+04  0.10458431084E+04  0.25500000920E-02 0.  1.
    10030    2    1    2    0    0  0.00000000000E+00  0.00000000000E+00 -0.56448769680E+03  0.15271985201E+04  0.14190450873E+04 0.  0.
        1    1    3    3  502    0 -0.52977883012E+02 -0.60831101156E+03  0.10664589151E+03  0.61985666817E+03  0.50400001928E-02 0. -1.
       -1    1    3    3    0  502  0.52977883012E+02  0.60831101156E+03 -0.67113358831E+03  0.90734185192E+03  0.50400001928E-02 0.  1.
</event>
<event>
 5   0  0.4208622E-04  0.1398491E+04  0.7818609E-02  0.8954912E-01
       -2   -1    0    0    0  501  0.00000000000E+00  0.00000000000E+00  0.32697703618E+03  0.32697703619E+03  0.25500000920E-02 0.  1.
        2   -1    0    0  501    0  0.00000000000E+00  0.00000000000E+00 -0.14953474993E+04  0.14953474993E+04  0.25500000920E-02 0. -1.
    10030    2    1    2    0    0  0.00000000000E+00  0.00000000000E+00 -0.11683704631E+04  0.18223245355E+04  0.13984910345E+04 0.  0.
        4    1    3    3  502    0 -0.29033025458E+03 -0.34239674023E+03  0.11440277557E+03  0.46326751710E+03  0.12699999809E+01 0.  1.
       -4    1    3    3    0  502  0.29033025458E+03  0.34239674023E+03 -0.12827732387E+04  0.13590570184E+04  0.12699999809E+01 0. -1.
</event>
<event>
 5   0  0.2217251E-04  0.1399818E+04  0.7818609E-02  0.8953950E-01
        1   -1    0    0  501    0  0.00000000000E+00  0.00000000000E+00  0.10274228698E+04  0.10274228698E+04  0.50400001928E-02 0. -1.
       -1   -1    0    0    0  501  0.00000000000E+00  0.00000000000E+00 -0.47679776710E+03  0.47679776712E+03  0.50400001928E-02 0.  1.
    10030    2    1    2    0    0  0.00000000000E+00  0.00000000000E+00  0.55062510273E+03  0.15042206370E+04  0.13998184600E+04 0.  0.
        5    1    3    3  502    0 -0.19341525551E+02  0.62089468907E+03  0.62179927809E+03  0.87894296843E+03  0.46999998093E+01 0. -1.
       -5    1    3    3    0  502  0.19341525551E+02 -0.62089468907E+03 -0.71174175358E+02  0.62527766853E+03  0.46999998093E+01 0.  1.
</event>
<event>
 5   0  0.4310348E-04  0.1401194E+04  0.7818609E-02  0.8952955E-01
        2   -1    0    0  501    0  0.00000000000E+00  0.00000000000E+00  0.11351204285E+04  0.11351204285E+04  0.25500000920E-02 0.  1.
       -2   -1    0    0    0  501  0.00000000000E+00  0.00000000000E+00 -0.43240865225E+03  0.43240865225E+03  0.25500000920E-02 0. -1.
    10030    2    1    2    0    0  0.00000000000E+00  0.00000000000E+00  0.70271177621E+03  0.15675290807E+04  0.14011936263E+04 0.  0.
        1    1    3    3  502    0 -0.23320983625E+03  0.62736172135E+03  0.58297566698E+03  0.88759798639E+03  0.50400001928E-02 0.  1.
       -1    1    3    3    0  502  0.23320983625E+03 -0.62736172135E+03  0.11973610923E+03  0.67993109431E+03  0.50400001928E-02 0. -1.
</event>
<event>
 5   0  0.2215876E-04  0.1422857E+04  0.7818609E-02  0.8937437E-01
       -1   -1    0    0    0  501  0.00000000000E+00  0.00000000000E+00  0.45523151810E+03  0.45523151813E+03  0.50400001928E-02 0. -1.
        1   -1    0    0  501    0  0.00000000000E+00  0.00000000000E+00 -0.11118097402E+04  0.11118097402E+04  0.50400001928E-02 0.  1.
    10030    2    1    2    0    0  0.00000000000E+00  0.00000000000E+00 -0.65657822207E+03  0.15670412583E+04  0.14228574572E+04 0.  0.
        3    1    3    3  502    0  0.35449592896E+03  0.18931518511E+03  0.31824479647E+03  0.51262789978E+03  0.10100000352E+00 0. -1.
       -3    1    3    3    0  502 -0.35449592896E+03 -0.18931518511E+03 -0.97482301854E+03  0.10544133585E+04  0.10100000352E+00 0.  1.
</event>
<event>
 5   0  0.1497625E-04  0.1403858E+04  0.7818609E-02  0.8951031E-01
        3   -1    0    0  501    0  0.00000000000E+00  0.00000000000E+00  0.63616199736E+03  0.63616200538E+03  0.10100000352E+00 0. -1.
       -3   -1    0    0    0  501  0.00000000000E+00  0.00000000000E+00 -0.77449481813E+03  0.77449482471E+03  0.10100000352E+00 0.  1.
    10030    2    1    2    0    0  0.00000000000E+00  0.00000000000E+00 -0.13833282076E+03  0.14106568301E+04  0.14038578001E+04 0.  0.
        2    1    3    3  502    0 -0.53707067972E+03  0.33192154914E+03  0.23905576200E+03  0.67510331592E+03  0.25500000920E-02 0.  1.
       -2    1    3    3    0  502  0.53707067972E+03 -0.33192154914E+03 -0.37738858277E+03  0.73555351418E+03  0.25500000920E-02 0. -1.
</event>
<event>
 5   0  0.2217251E-04  0.1397456E+04  0.7818609E-02  0.8955662E-01
        1   -1    0    0  501    0  0.00000000000E+00  0.00000000000E+00  0.10681490307E+04  0.10681490307E+04  0.50400001928E-02 0.  1.
       -1   -1    0    0    0  501  0.00000000000E+00  0.00000000000E+00 -0.45707169357E+03  0.45707169360E+03  0.50400001928E-02 0. -1.
    10030    2    1    2    0    0  0.00000000000E+00  0.00000000000E+00  0.61107733715E+03  0.15252207243E+04  0.13974558118E+04 0.  0.
        5    1    3    3  502    0 -0.54492229185E+03  0.21272930066E+03  0.72257874282E+03  0.92969682643E+03  0.46999998093E+01 0.  1.
       -5    1    3    3    0  502  0.54492229185E+03 -0.21272930066E+03 -0.11150140566E+03  0.59552389790E+03  0.46999998093E+01 0. -1.
</event>
<event>
 5   0  0.1497625E-04  0.1400360E+04  0.7818609E-02  0.8953558E-01
       -4   -1    0    0    0  501  0.00000000000E+00  0.00000000000E+00  0.11783914102E+04  0.11783920945E+04  0.12699999809E+01 0. -1.
        4   -1    0    0  501    0  0.00000000000E+00  0.00000000000E+00 -0.41603339170E+03  0.41603533012E+03  0.12699999809E+01 0.  1.
    10030    2    1    2    0    0  0.00000000000E+00  0.00000000000E+00  0.76235801848E+03  0.15944274247E+04  0.14003603337E+04 0.  0.
        3    1    3    3  502    0  0.44718962773E+03 -0.14681999037E+03  0.97139775327E+03  0.10794203435E+04  0.10100000352E+00 0. -1.
       -3    1    3    3    0  502 -0.44718962773E+03  0.14681999037E+03 -0.20903973479E+03  0.51500708116E+03  0.10100000352E+00 0.  1.
</event>
<event>
 5   0  0.3975164E-04  0.1401287E+04  0.7818609E-02  0.8952888E-01
        2   -1    0    0  501    0  0.00000000000E+00  0.00000000000E+00  0.47165650796E+03  0.47165650796E+03  0.25500000920E-02 0. -1.
       -2   -1    0    0    0  501  0.00000000000E+00  0.00000000000E+00 -0.10408019927E+04  0.10408019927E+04  0.25500000920E-02 0.  1.
    10030    2    1    2    0    0  0.00000000000E+00  0.00000000000E+00 -0.56914548478E+03  0.15124585007E+04  0.14012865993E+04 0.  0.
        5    1    3    3  502    0  0.72065445470E+02 -0.36534103518E+03 -0.92513040264E+03  0.99727421119E+03  0.46999998093E+01 0.  1.
       -5    1    3    3    0  502 -0.72065445470E+02  0.36534103518E+03  0.35598491786E+03  0.51518428951E+03  0.46999998093E+01 0. -1.
</event>
<event>
 5   0  0.4208622E-04  0.1396896E+04  0.7818609E-02  0.8956068E-01
        2   -1    0    0  501    0  0.00000000000E+00  0.00000000000E+00  0.54287637392E+03  0.54287637393E+03  0.25500000920E-02 0.  1.
       -2   -1    0    0    0  501  0.00000000000E+00  0.00000000000E+00 -0.89860225468E+03  0.89860225468E+03  0.25500000920E-02 0. -1.
    10030    2    1    2    0    0  0.00000000000E+00  0.00000000000E+00 -0.35572588075E+03  0.14414786286E+04  0.13968964652E+04 0.  0.
        4    1    3    3  502    0  0.52151380204E+03  0.23589318467E+02  0.30094482190E+03  0.60257987055E+03  0.12699999809E+01 0.  1.
       -4    1    3    3    0  502 -0.52151380204E+03 -0.23589318467E+02 -0.65667070265E+03  0.83889875806E+03  0.12699999809E+01 0. -1.
</event>
<event>
 5   0  0.2223112E-04  0.1383191E+04  0.7818609E-02  0.8966077E-01
       -1   -1    0    0    0  501  0.00000000000E+00  0.00000000000E+00  0.84809682100E+03  0.84809682101E+03  0.50400001928E-02 0.  1.
        1   -1    0    0  501    0  0.00000000000E+00  0.00000000000E+00 -0.56397334595E+03  0.56397334598E+03  0.50400001928E-02 0. -1.
    10030    2    1    2    0    0  0.00000000000E+00  0.00000000000E+00  0.28412347504E+03  0.14120701670E+04  0.13831905174E+04 0.  0.
        1    1    3    3  502    0  0.16138510626E+03  0.37740283931E+03  0.71030352413E+03  0.82037135010E+03  0.50400001928E-02 0.  1.
       -1    1    3    3    0  502 -0.16138510626E+03 -0.37740283931E+03 -0.42618004909E+03  0.59169881689E+03  0.50400001928E-02 0. -1.
</event>
<event>
 5   0  0.3975164E-04  0.1398110E+04  0.7818609E-02  0.8955188E-01
        2   -1    0    0  501    0  0.00000000000E+00  0.00000000000E+00  0.14915806577E+04  0.14915806577E+04  0.25500000920E-02 0. -1.
       -2   -1    0    0    0  501  0.00000000000E+00  0.00000000000E+00 -0.32762415744E+03  0.32762415745E+03  0.25500000920E-02 0.  1.
    10030    2    1    2    0    0  0.00000000000E+00  0.00000000000E+00  0.11639565002E+04  0.18192048151E+04  0.13981099474E+04 0.  0.
        5    1    3    3  502    0 -0.14785879202E+02  0.88816380725E+02  0.14839834003E+04  0.14867198102E+04  0.46999998093E+01 0. -1.
       -5    1    3    3    0  502  0.14785879202E+02 -0.88816380725E+02 -0.32002690008E+03  0.33248500490E+03  0.46999998093E+01 0.  1.
</event>
<event>
 5   0  0.2217251E-04  0.1394383E+04  0.7818609E-02  0.8957894E-01
        1   -1    0    0  501    0  0.00000000000E+00  0.00000000000E+00  0.16856413485E+04  0.16856413485E+04  0.50400001928E-02 0. -1.
       -1   -1    0    0    0  501  0.00000000000E+00  0.00000000000E+00 -0.28836264912E+03  0.28836264917E+03  0.50400001928E-02 0.  1.
    10030    2    1    2    0    0  0.00000000000E+00  0.00000000000E+00  0.13972786994E+04  0.19740039977E+04  0.13943830245E+04 0.  0.
        5    1    3    3  502    0 -0.65457954350E+03  0.21208367683E+03  0.85754965996E+03  0.10994850495E+04  0.46999998093E+01 0. -1.
       -5    1    3    3    0  502  0.65457954350E+03 -0.21208367683E+03  0.53972903940E+03  0.87451894818E+03  0.46999998093E+01 0.  1.
</event>
<event>
 5   0  0.3917598E-04  0.1403746E+04  0.7818609E-02  0.8951112E-01
        2   -1    0    0  501    0  0.00000000000E+00  0.00000000000E+00  0.11474553858E+04  0.11474553858E+04  0.25500000920E-02 0.  1.
       -2   -1    0    0    0  501  0.00000000000E+00  0.00000000000E+00 -0.42932008478E+03  0.42932008478E+03  0.25500000920E-02 0. -1.
    10030    2    1    2    0    0  0.00000000000E+00  0.00000000000E+00  0.71813530098E+03  0.15767754705E+04  0.14037459079E+04 0.  0.
        3    1    3    3  502    0 -0.58567501484E+02  0.38888172511E+03 -0.29393984946E+03  0.49097840447E+03  0.10100000352E+00 0. -1.
       -3    1    3    3    0  502  0.58567501484E+02 -0.38888172511E+03  0.10120751504E+04  0.10857970661E+04  0.10100000352E+00 0.  1.
</event>
<event>
 5   0  0.3975164E-04  0.1400900E+04  0.7818609E-02  0.8953167E-01
        2   -1    0    0  501    0  0.00000000000E+00  0.00000000000E+00  0.13441181919E+04  0.13441181919E+04  0.25500000920E-02 0.  1.
       -2   -1    0    0    0  501  0.00000000000E+00  0.00000000000E+00 -0.36502004141E+03  0.36502004142E+03  0.25500000920E-02 0. -1.
    10030    2    1    2    0    0  0.00000000000E+00  0.00000000000E+00  0.97909815049E+03  0.17091382333E+04  0.14008998224E+04 0.  0.
        5    1    3    3  502    0  0.20050116949E+03  0.46184178831E+03  0.10836285173E+04  0.11948938906E+04  0.46999998093E+01 0.  1.
       -5    1    3    3    0  502 -0.20050116949E+03 -0.46184178831E+03 -0.10453036681E+03  0.51424434268E+03  0.46999998093E+01 0. -1.
</event>
<event>
 5   0  0.2143942E-04  0.1400994E+04  0.7818609E-02  0.8953100E-01
        1   -1    0    0  501    0  0.00000000000E+00  0.00000000000E+00  0.62819145929E+03  0.62819145931E+03  0.50400001928E-02 0.  1.
       -1   -1    0    0    0  501  0.00000000000E+00  0.00000000000E+00 -0.78112475456E+03  0.78112475458E+03  0.50400001928E-02 0. -1.
    10030    2    1    2    0    0  0.00000000000E+00  0.00000000000E+00 -0.15293329527E+03  0.14093162139E+04  0.14009937894E+04 0.  0.
        4    1    3    3  502    0 -0.35853134118E+03 -0.39322063833E+03  0.38179091436E+03  0.65492984983E+03  0.12699999809E+01 0.  1.
       -4    1    3    3    0  502  0.35853134118E+03  0.39322063833E+03 -0.53472420963E+03  0.75438636406E+03  0.12699999809E+01 0. -1.
</event>
<event>
 5   0  0.3917598E-04  0.1397457E+04  0.7818609E-02  0.8955662E-01
       -2   -1    0    0    0  501  0.00000000000E+00  0.00000000000E+00  0.43729412218E+03  0.43729412219E+03  0.25500000920E-02 0.  1.
        2   -1    0    0  501    0  0.00000000000E+00  0.00000000000E+00 -0.11164598115E+04  0.11164598115E+04  0.25500000920E-02 0. -1.
    10030    2    1    2    0    0  0.00000000000E+00  0.00000000000E+00 -0.67916568935E+03  0.15537539337E+04  0.13974567088E+04 0.  0.
        3    1    3    3  502    0  0.36415218099E+03  0.24796227528E+03  0.26341109965E+03  0.51330061222E+03  0.10100000352E+00 0.  1.
       -3    1    3    3    0  502 -0.36415218099E+03 -0.24796227528E+03 -0.94257678900E+03  0.10404533215E+04  0.10100000352E+00 0. -1.
</event>
<event>
 5   0  0.3932568E-04  0.1401327E+04  0.7818609E-02  0.8952859E-01
       -2   -1    0    0    0  501  0.00000000000E+00  0.00000000000E+00  0.10688677770E+04  0.10688677770E+04  0.25500000920E-02 0.  1.
        2   -1    0    0  501    0  0.00000000000E+00  0.00000000000E+00 -0.45929843356E+03  0.45929843357E+03  0.25500000920E-02 0. -1.
    10030    2    1    2    0    0  0.00000000000E+00  0.00000000000E+00  0.60956934346E+03  0.15281662106E+04  0.14013269364E+04 0.  0.
        2    1    3    3  502    0  0.19802377863E+03  0.16027248805E+03  0.10165724134E+04  0.10480077094E+04  0.25500000920E-02 0.  1.
       -2    1    3    3    0  502 -0.19802377863E+03 -0.16027248805E+03 -0.40700306992E+03  0.48015850118E+03  0.25500000920E-02 0. -1.
</event>
<event>
 5   0  0.4208622E-04  0.1398558E+04  0.7818609E-02  0.8954863E-01
       -2   -1    0    0    0  501  0.00000000000E+00  0.00000000000E+00  0.24369983434E+03  0.24369983435E+03  0.25500000920E-02 0. -1.
        2   -1    0    0  501    0  0.00000000000E+00  0.00000000000E+00 -0.20065297927E+04  0.20065297927E+04  0.25500000920E-02 0.  1.
    10030    2    1    2    0    0  0.00000000000E+00  0.00000000000E+00 -0.17628299584E+04  0.22502296271E+04  0.13985577973E+04 0.  0.
        4    1    3    3  502    0 -0.22923467212E+03  0.47759225827E+03 -0.14700344707E+03  0.54977679690E+03  0.12699999809E+01 0. -1.
       -4    1    3    3    0  502  0.22923467212E+03 -0.47759225827E+03 -0.16158265113E+04  0.17004528302E+04  0.12699999809E+01 0.  1.
</event>
<event>
 5   0  0.3975164E-04  0.1405484E+04  0.7818609E-02  0.8949858E-01
        2   -1    0    0  501    0  0.00000000000E+00  0.00000000000E+00  0.20853596281E+04  0.20853596281E+04  0.25500000920E-02 0.  1.
       -2   -1    0    0    0  501  0.00000000000E+00  0.00000000000E+00 -0.23681597765E+03  0.23681597766E+03  0.25500000920E-02 0. -1.
    10030    2    1    2    0    0  0.00000000000E+00  0.00000000000E+00  0.18485436505E+04  0.23221756058E+04  0.14054842284E+04 0.  0.
        5    1    3    3  502    0 -0.45737642446E+03 -0.28603275616E+03  0.16683536197E+04  0.17534063482E+04  0.46999998093E+01 0.  1.
       -5    1    3    3    0  502  0.45737642446E+03  0.28603275616E+03  0.18019003074E+03  0.56876925763E+03  0.46999998093E+01 0. -1.
</event>
<event>
 5   0  0.4310348E-04  0.1402319E+04  0.7818609E-02  0.8952142E-01
        2   -1    0    0  501    0  0.00000000000E+00  0.00000000000E+00  0.22610906471E+04  0.22610906471E+04  0.25500000920E-02 0.  1.
       -2   -1    0    0    0  501  0.00000000000E+00  0.00000000000E+00 -0.21742809006E+03  0.21742809007E+03  0.25500000920E-02 0. -1.
    10030    2    1    2    0    0  0.00000000000E+00  0.00000000000E+00  0.20436625570E+04  0.24785187371E+04  0.14023189664E+04 0.  0.
        1    1    3    3  502    0 -0.56443687710E+03 -0.66860627060E+02  0.29617747916E+03  0.64092154814E+03  0.50400001928E-02 0. -1.
       -1    1    3    3    0  502  0.56443687710E+03  0.66860627060E+02  0.17474850779E+04  0.18375971890E+04  0.50400001928E-02 0.  1.
</event>
<event>
 5   0  0.4310348E-04  0.1478198E+04  0.7818609E-02  0.8899082E-01
       -2   -1    0    0    0  501  0.00000000000E+00  0.00000000000E+00  0.32572874421E+03  0.32572874422E+03  0.25500000920E-02 0. -1.
        2   -1    0    0  501    0  0.00000000000E+00  0.00000000000E+00 -0.16770623342E+04  0.16770623342E+04  0.25500000920E-02 0.  1.
    10030    2    1    2    0    0  0.00000000000E+00  0.00000000000E+00 -0.13513335900E+04  0.20027910784E+04  0.14781981032E+04 0.  0.
        1    1    3    3  502    0  0.29768329481E+03  0.66237887280E+03 -0.48936965034E+03  0.87569616297E+03  0.50400001928E-02 0. -1.
       -1    1    3    3    0  502 -0.29768329481E+03 -0.66237887280E+03 -0.86196393966E+03  0.11270949155E+04  0.50400001928E-02 0.  1.
</event>
<event>
 5   0  0.2223112E-04  0.1398608E+04  0.7818609E-02  0.8954827E-01
       -1   -1    0    0    0  501  0.00000000000E+00  0.00000000000E+00  0.60499953346E+03  0.60499953348E+03  0.50400001928E-02 0.  1.
        1   -1    0    0  501    0  0.00000000000E+00  0.00000000000E+00 -0.80830834783E+03  0.80830834785E+03  0.50400001928E-02 0. -1.
    10030    2    1    2    0    0  0.00000000000E+00  0.00000000000E+00 -0.20330881437E+03  0.14133078813E+04  0.13986081272E+04 0.  0.
        1    1    3    3  502    0  0.62754584763E+03 -0.30831930641E+03 -0.11409590833E+03  0.70844369001E+03  0.50400001928E-02 0. -1.
       -1    1    3    3    0  502 -0.62754584763E+03  0.30831930641E+03 -0.89212906037E+02  0.70486419133E+03  0.50400001928E-02 0.  1.
</event>
<event>
 5   0  0.2155352E-04  0.1392834E+04  0.7818609E-02  0.8959022E-01
       -1   -1    0    0    0  501  0.00000000000E+00  0.00000000000E+00  0.43265891995E+03  0.43265891998E+03  0.50400001928E-02 0.  1.
        1   -1    0    0  501    0  0.00000000000E+00  0.00000000000E+00 -0.11209675856E+04  0.11209675856E+04  0.50400001928E-02 0. -1.
    10030    2    1    2    0    0  0.00000000000E+00  0.00000000000E+00 -0.68830866561E+03  0.15536265056E+04  0.13928339814E+04 0.  0.
        2    1    3    3  502    0 -0.43748527259E+03 -0.26002425175E+03 -0.87441877212E+03  0.10117381896E+04  0.25500000920E-02 0. -1.
       -2    1    3    3    0  502  0.43748527259E+03  0.26002425175E+03  0.18611010651E+03  0.54188831597E+03  0.25500000920E-02 0.  1.
</event>
<event>
 5   0  0.4310348E-04  0.1397719E+04  0.7818609E-02  0.8955472E-01
       -2   -1    0    0    0  501  0.00000000000E+00  0.00000000000E+00  0.47444724463E+03  0.47444724464E+03  0.25500000920E-02 0. -1.
        2   -1    0    0  501    0  0.00000000000E+00  0.00000000000E+00 -0.10294176988E+04  0.10294176988E+04  0.25500000920E-02 0.  1.
    10030    2    1    2    0    0  0.00000000000E+00  0.00000000000E+00 -0.55497045421E+03  0.15038649435E+04  0.13977186996E+04 0.  0.
        1    1    3    3  502    0  0.18553026476E+03  0.34223126344E+03  0.34698856518E+03  0.52148325112E+03  0.50400001928E-02 0. -1.
       -1    1    3    3    0  502 -0.18553026476E+03 -0.34223126344E+03 -0.90195901938E+03  0.98238169236E+03  0.50400001928E-02 0.  1.
</event>
<event>
 5   0  0.2217251E-04  0.1401129E+04  0.7818609E-02  0.8953002E-01
       -1   -1    0    0    0  501  0.00000000000E+00  0.00000000000E+00  0.22394878761E+04  0.22394878761E+04  0.50400001928E-02 0.  1.
        1   -1    0    0  501    0  0.00000000000E+00  0.00000000000E+00 -0.21915296436E+03  0.21915296442E+03  0.50400001928E-02 0. -1.
    10030    2    1    2    0    0  0.00000000000E+00  0.00000000000E+00  0.20203349117E+04  0.24586408405E+04  0.14011286975E+04 0.  0.
        5    1    3    3  502    0 -0.30895994381E+03  0.29572531783E+03  0.19837946883E+04  0.20293775316E+04  0.46999998093E+01 0.  1.
       -5    1    3    3    0  502  0.30895994381E+03 -0.29572531783E+03  0.36540223485E+02  0.42926330896E+03  0.46999998093E+01 0. -1.
</event>
<event>
 5   0  0.3975164E-04  0.1401603E+04  0.7818609E-02  0.8952659E-01
       -2   -1    0    0    0  501  0.00000000000E+00  0.00000000000E+00  0.19193032281E+03  0.19193032283E+03  0.25500000920E-02 0. -1.
        2   -1    0    0  501    0  0.00000000000E+00  0.00000000000E+00 -0.25588583653E+04  0.25588583653E+04  0.25500000920E-02 0.  1.
    10030    2    1    2    0    0  0.00000000000E+00  0.00000000000E+00 -0.23669280425E+04  0.27507886882E+04  0.14016026714E+04 0.  0.
        5    1    3    3  502    0 -0.60953804009E+03 -0.26158930964E+03 -0.73966051031E+03  0.99352169063E+03  0.46999998093E+01 0. -1.
       -5    1    3    3    0  502  0.60953804009E+03  0.26158930964E+03 -0.16272675322E+04  0.17572669975E+04  0.46999998093E+01 0.  1.
</event>
<event>
 5   0  0.2215876E-04  0.1400220E+04  0.7818609E-02  0.8953659E-01
       -1   -1    0    0    0  501  0.00000000000E+00  0.00000000000E+00  0.67769901178E+03  0.67769901180E+03  0.50400001928E-02 0. -1.
        1   -1    0    0  501    0  0.00000000000E+00  0.00000000000E+00 -0.72326239526E+03  0.72326239527E+03  0.50400001928E-02 0.  1.
    10030    2    1    2    0    0  0.00000000000E+00  0.00000000000E+00 -0.45563383477E+02  0.14009614071E+04  0.14002202835E+04 0.  0.
        3    1    3    3  502    0 -0.17324173964E+03 -0.38805104403E+03  0.53389206028E+03  0.68237603662E+03  0.10100000352E+00 0. -1.
       -3    1    3    3    0  502  0.17324173964E+03  0.38805104403E+03 -0.57945544376E+03  0.71858537045E+03  0.10100000352E+00 0.  1.
</event>
<event>
 5   0  0.3932568E-04  0.1390395E+04  0.7818609E-02  0.8960800E-01
        2   -1    0    0  501    0  0.00000000000E+00  0.00000000000E+00  0.13229169395E+04  0.13229169395E+04  0.25500000920E-02 0.  1.
       -2   -1    0    0    0  501  0.00000000000E+00  0.00000000000E+00 -0.36532892248E+03  0.36532892249E+03  0.25500000920E-02 0. -1.
    10030    2    1    2    0    0  0.00000000000E+00  0.00000000000E+00  0.95758801705E+03  0.16882458620E+04  0.13903953683E+04 0.  0.
        2    1    3    3  502    0  0.33445046363E+03  0.60190005628E+03  0.36258973108E+03  0.77821083484E+03  0.25500000920E-02 0. -1.
       -2    1    3    3    0  502 -0.33445046363E+03 -0.60190005628E+03  0.59499828598E+03  0.91003502718E+03  0.25500000920E-02 0.  1.
</event>
<event>
 5   0  0.2143942E-04  0.1401265E+04  0.7818609E-02  0.8952904E-01
       -1   -1    0    0    0  501  0.00000000000E+00  0.00000000000E+00  0.46688316758E+03  0.46688316761E+03  0.50400001928E-02 0. -1.
        1   -1    0    0  501    0  0.00000000000E+00  0.00000000000E+00 -0.10514101304E+04  0.10514101304E+04  0.50400001928E-02 0.  1.
    10030    2    1    2    0    0  0.00000000000E+00  0.00000000000E+00 -0.58452696281E+03  0.15182932980E+04  0.14012647032E+04 0.  0.
        4    1    3    3  502    0  0.23001165736E+03  0.49598553334E+02  0.42279061023E+03  0.48385833878E+03  0.12699999809E+01 0. -1.
       -4    1    3    3    0  502 -0.23001165736E+03 -0.49598553334E+02 -0.10073175730E+04  0.10344349592E+04  0.12699999809E+01 0.  1.
</event>
<event>
 5   0  0.2217251E-04  0.1399138E+04  0.7818609E-02  0.8954443E-01
        1   -1    0    0  501    0  0.00000000000E+00  0.00000000000E+00  0.15030531758E+04  0.15030531759E+04  0.50400001928E-02 0. -1.
       -1   -1    0    0    0  501  0.00000000000E+00  0.00000000000E+00 -0.32560161275E+03  0.32560161279E+03  0.50400001928E-02 0.  1.
    10030    2    1    2    0    0  0.00000000000E+00  0.00000000000E+00  0.11774515631E+04  0.18286547886E+04  0.13991376460E+04 0.  0.
        5    1    3    3  502    0 -0.12969483117E+03 -0.65496282516E+03  0.86156193992E+03  0.10900037238E+04  0.46999998093E+01 0. -1.
       -5    1    3    3    0  502  0.12969483117E+03  0.65496282516E+03  0.31588962318E+03  0.73865106485E+03  0.46999998093E+01 0.  1.
</event>
<event>
 5   0  0.2223112E-04  0.1394961E+04  0.7818609E-02  0.8957474E-01
        1   -1    0    0  501    0  0.00000000000E+00  0.00000000000E+00  0.29064187732E+03  0.29064187736E+03  0.50400001928E-02 0.  1.
       -1   -1    0    0    0  501  0.00000000000E+00  0.00000000000E+00 -0.16738085950E+04  0.16738085950E+04  0.50400001928E-02 0. -1.
    10030    2    1    2    0    0  0.00000000000E+00  0.00000000000E+00 -0.13831667177E+04  0.19644504724E+04  0.13949607484E+04 0.  0.
        1    1    3    3  502    0 -0.53720743020E+03  0.39233367972E+03 -0.39631662307E+03  0.77432835739E+03  0.50400001928E-02 0. -1.
       -1    1    3    3    0  502  0.53720743020E+03 -0.39233367972E+03 -0.98685009460E+03  0.11901221150E+04  0.50400001928E-02 0.  1.
</event>
<event>
 5   0  0.2155352E-04  0.1399713E+04  0.7818609E-02  0.8954026E-01
        1   -1    0    0  501    0  0.00000000000E+00  0.00000000000E+00  0.63106466872E+03  0.63106466874E+03  0.50400001928E-02 0. -1.
       -1   -1    0    0    0  501  0.00000000000E+00  0.00000000000E+00 -0.77614738012E+03  0.77614738013E+03  0.50400001928E-02 0.  1.
    10030    2    1    2    0    0  0.00000000000E+00  0.00000000000E+00 -0.14508271139E+03  0.14072120489E+04  0.13997130982E+04 0.  0.
        2    1    3    3  502    0 -0.25990140555E+03  0.52911320362E+03 -0.45177529650E+03  0.74270481444E+03  0.25500000920E-02 0.  1.
       -2    1    3    3    0  502  0.25990140555E+03 -0.52911320362E+03  0.30669258511E+03  0.66450723444E+03  0.25500000920E-02 0. -1.
</event>
<event>
 5   0  0.3917598E-04  0.1389605E+04  0.7818609E-02  0.8961378E-01
        2   -1    0    0  501    0  0.00000000000E+00  0.00000000000E+00  0.53496702902E+03  0.53496702903E+03  0.25500000920E-02 0.  1.
       -2   -1    0    0    0  501  0.00000000000E+00  0.00000000000E+00 -0.90239237870E+03  0.90239237871E+03  0.25500000920E-02 0. -1.
    10030    2    1    2    0    0  0.00000000000E+00  0.00000000000E+00 -0.36742534968E+03  0.14373594077E+04  0.13896045047E+04 0.  0.
        3    1    3    3  502    0  0.61535613688E+03 -0.18343896130E+03 -0.45823330969E+03  0.78885410820E+03  0.10100000352E+00 0. -1.
       -3    1    3    3    0  502 -0.61535613688E+03  0.18343896130E+03  0.90807960012E+02  0.64850529953E+03  0.10100000352E+00 0.  1.
</event>
<event>
 5   0  0.4310348E-04  0.1393165E+04  0.7818609E-02  0.8958781E-01
       -2   -1    0    0    0  501  0.00000000000E+00  0.00000000000E+00  0.46537688713E+03  0.46537688713E+03  0.25500000920E-02 0. -1.
        2   -1    0    0  501    0  0.00000000000E+00  0.00000000000E+00 -0.10426543355E+04  0.10426543355E+04  0.25500000920E-02 0.  1.
    10030    2    1    2    0    0  0.00000000000E+00  0.00000000000E+00 -0.57727744835E+03  0.15080312226E+04  0.13931650713E+04 0.  0.
        1    1    3    3  502    0 -0.37946785787E+03  0.57766602385E+03 -0.19468770342E+03  0.71805096766E+03  0.50400001928E-02 0. -1.
       -1    1    3    3    0  502  0.37946785787E+03 -0.57766602385E+03 -0.38258974494E+03  0.78998025496E+03  0.50400001928E-02 0.  1.
</event>
<event>
 5   0  0.2155352E-04  0.1400801E+04  0.7818609E-02  0.8953239E-01
       -1   -1    0    0    0  501  0.00000000000E+00  0.00000000000E+00  0.26974862560E+03  0.26974862565E+03  0.50400001928E-02 0.  1.
        1   -1    0    0  501    0  0.00000000000E+00  0.00000000000E+00 -0.18185855812E+04  0.18185855812E+04  0.50400001928E-02 0. -1.
    10030    2    1    2    0    0  0.00000000000E+00  0.00000000000E+00 -0.15488369556E+04  0.20883342068E+04  0.14008011438E+04 0.  0.
        2    1    3    3  502    0 -0.33872058124E+03  0.60930637401E+03 -0.67358088732E+03  0.96937975084E+03  0.25500000920E-02 0.  1.
       -2    1    3    3    0  502  0.33872058124E+03 -0.60930637401E+03 -0.87525606825E+03  0.11189544560E+04  0.25500000920E-02 0. -1.
</event>
<event>
 5   0  0.2143942E-04  0.1399135E+04  0.7818609E-02  0.8954445E-01
        1   -1    0    0  501    0  0.00000000000E+00  0.00000000000E+00  0.10896455419E+04  0.10896455419E+04  0.50400001928E-02 0.  1.
       -1   -1    0    0    0  501  0.00000000000E+00  0.00000000000E+00 -0.44913189852E+03  0.44913189855E+03  0.50400001928E-02 0. -1.
    10030    2    1    2    0    0  0.00000000000E+00  0.00000000000E+00  0.64051364336E+03  0.15387774404E+04  0.13991348341E+04 0.  0.
        4    1    3    3  502    0 -0.32482184485E+03  0.21687263532E+03  0.95857102615E+03  0.10350859848E+04  0.12699999809E+01 0.  1.
       -4    1    3    3    0  502  0.32482184485E+03 -0.21687263532E+03 -0.31805738279E+03  0.50369145564E+03  0.12699999809E+01 0. -1.
</event>
<event>
 5   0  0.2215876E-04  0.1401400E+04  0.7818609E-02  0.8952806E-01
       -1   -1    0    0    0  501  0.00000000000E+00  0.00000000000E+00  0.30330316963E+03  0.30330316967E+03  0.50400001928E-02 0.  1.
        1   -1    0    0  501    0  0.00000000000E+00  0.00000000000E+00 -0.16187778009E+04  0.16187778009E+04  0.50400001928E-02 0. -1.
    10030    2    1    2    0    0  0.00000000000E+00  0.00000000000E+00 -0.13154746313E+04  0.19220809706E+04  0.14013999258E+04 0.  0.
        3    1    3    3  502    0  0.48139536284E+02 -0.57257943271E+03 -0.10772304877E+03  0.58461002998E+03  0.10100000352E+00 0.  1.
       -3    1    3    3    0  502 -0.48139536284E+02  0.57257943271E+03 -0.12077515825E+04  0.13374709406E+04  0.10100000352E+00 0. -1.
</event>
<event>
 5   0  0.2143942E-04  0.1403302E+04  0.7818609E-02  0.8951432E-01
        1   -1    0    0  501    0  0.00000000000E+00  0.00000000000E+00  0.10520377306E+04  0.10520377306E+04  0.50400001928E-02 0. -1.
       -1   -1    0    0    0  501  0.00000000000E+00  0.00000000000E+00 -0.46796252700E+03  0.46796252703E+03  0.50400001928E-02 0.  1.
    10030    2    1    2    0    0  0.00000000000E+00  0.00000000000E+00  0.58407520356E+03  0.15200002576E+04  0.14033021555E+04 0.  0.
        4    1    3    3  502    0  0.37204570661E+03  0.54821299462E+02  0.93365701277E+03  0.10065487634E+04  0.12699999809E+01 0. -1.
       -4    1    3    3    0  502 -0.37204570661E+03 -0.54821299462E+02 -0.34958180921E+03  0.51345149422E+03  0.12699999809E+01 0.  1.
</event>
<event>
 5   0  0.3932568E-04  0.1399209E+04  0.7818609E-02  0.8954391E-01
       -2   -1    0    0    0  501  0.00000000000E+00  0.00000000000E+00  0.19125304956E+03  0.19125304958E+03  0.25500000920E-02 0.  1.
        2   -1    0    0  501    0  0.00000000000E+00  0.00000000000E+00 -0.25591556649E+04  0.25591556649E+04  0.25500000920E-02 0. -1.
    10030    2    1    2    0    0  0.00000000000E+00  0.00000000000E+00 -0.23679026154E+04  0.27504087145E+04  0.13992088125E+04 0.  0.
        2    1    3    3  502    0  0.48797372238E+02 -0.45637739192E+03 -0.22218363742E+04  0.22687481969E+04  0.25500000920E-02 0. -1.
       -2    1    3    3    0  502 -0.48797372238E+02  0.45637739192E+03 -0.14606624119E+03  0.48166051760E+03  0.25500000920E-02 0.  1.
</event>
<event>
 5   0  0.4310348E-04  0.1408608E+04  0.7818609E-02  0.8947611E-01
        2   -1    0    0  501    0  0.00000000000E+00  0.00000000000E+00  0.18779588782E+04  0.18779588782E+04  0.25500000920E-02 0.  1.
       -2   -1    0    0    0  501  0.00000000000E+00  0.00000000000E+00 -0.26413992492E+03  0.26413992493E+03  0.25500000920E-02 0. -1.
    10030    2    1    2    0    0  0.00000000000E+00  0.00000000000E+00  0.16138189533E+04  0.21420988031E+04  0.14086077057E+04 0.  0.
        1    1    3    3  502    0 -0.36484900349E+03 -0.29060227568E+03  0.16094112606E+04  0.16756399027E+04  0.50400001928E-02 0.  1.
       -1    1    3    3    0  502  0.36484900349E+03  0.29060227568E+03  0.44076927031E+01  0.46645890039E+03  0.50400001928E-02 0. -1.
</event>
<event>
 5   0  0.2223112E-04  0.1403308E+04  0.7818609E-02  0.8951427E-01
       -1   -1    0    0    0  501  0.00000000000E+00  0.00000000000E+00  0.98959804385E+03  0.98959804386E+03  0.50400001928E-02 0. -1.
        1   -1    0    0  501    0  0.00000000000E+00  0.00000000000E+00 -0.49749351491E+03  0.49749351493E+03  0.50400001928E-02 0.  1.
    10030    2    1    2    0    0  0.00000000000E+00  0.00000000000E+00  0.49210452894E+03  0.14870915588E+04  0.14033083898E+04 0.  0.
        1    1    3    3  502    0  0.58605913660E+03  0.58232740661E+02  0.65021822196E+03  0.87729134264E+03  0.50400001928E-02 0. -1.
       -1    1    3    3    0  502 -0.58605913660E+03 -0.58232740661E+02 -0.15811369302E+03  0.60980021616E+03  0.50400001928E-02 0.  1.
</event>
<event>
 5   0  0.3932568E-04  0.1401036E+04  0.7818609E-02  0.8953069E-01
       -2   -1    0    0    0  501  0.00000000000E+00  0.00000000000E+00  0.83453170925E+03  0.83453170926E+03  0.25500000920E-02 0.  1.
        2   -1    0    0  501    0  0.00000000000E+00  0.00000000000E+00 -0.58802531613E+03  0.58802531614E+03  0.25500000920E-02 0. -1.
    10030    2    1    2    0    0  0.00000000000E+00  0.00000000000E+00  0.24650639312E+03  0.14225570254E+04  0.14010364337E+04 0.  0.
        2    1    3    3  502    0  0.18387672420E+03 -0.43846764608E+03  0.64560780647E+03  0.80179421683E+03  0.25500000920E-02 0.  1.
       -2    1    3    3    0  502 -0.18387672420E+03  0.43846764608E+03 -0.39910141335E+03  0.62076280857E+03  0.25500000920E-02 0. -1.
</event>
<event>
 5   0  0.2215876E-04  0.1400684E+04  0.7818609E-02  0.8953323E-01
        1   -1    0    0  501    0  0.00000000000E+00  0.00000000000E+00  0.12011957282E+04  0.12011957282E+04  0.50400001928E-02 0. -1.
       -1   -1    0    0    0  501  0.00000000000E+00  0.00000000000E+00 -0.40832565685E+03  0.40832565688E+03  0.50400001928E-02 0.  1.
    10030    2    1    2    0    0  0.00000000000E+00  0.00000000000E+00  0.79287007138E+03  0.16095213851E+04  0.14006841682E+04 0.  0.
        3    1    3    3  502    0  0.46498909335E+03 -0.23841558594E+03  0.93224211878E+03  0.10687058654E+04  0.10100000352E+00 0. -1.
       -3    1    3    3    0  502 -0.46498909335E+03  0.23841558594E+03 -0.13937204740E+03  0.54081551970E+03  0.10100000352E+00 0.  1.
</event>
<event>
 5   0  0.4310348E-04  0.1415565E+04  0.7818609E-02  0.8942628E-01
        2   -1    0    0  501    0  0.00000000000E+00  0.00000000000E+00  0.10603555503E+04  0.10603555503E+04  0.25500000920E-02 0. -1.
       -2   -1    0    0    0  501  0.00000000000E+00  0.00000000000E+00 -0.47244152597E+03  0.47244152597E+03  0.25500000920E-02 0.  1.
    10030    2    1    2    0    0  0.00000000000E+00  0.00000000000E+00  0.58791402438E+03  0.15327970763E+04  0.14155648968E+04 0.  0.
        1    1    3    3  502    0  0.53088349063E+03 -0.37120441198E+03  0.60275152899E+03  0.88483863038E+03  0.50400001928E-02 0.  1.
       -1    1    3    3    0  502 -0.53088349063E+03  0.37120441198E+03 -0.14837504609E+02  0.64795844594E+03  0.50400001928E-02 0. -1.
</event>
<event>
 5   0  0.2215876E-04  0.1385799E+04  0.7818609E-02  0.8964163E-01
       -1   -1    0    0    0  501  0.00000000000E+00  0.00000000000E+00  0.53597771225E+03  0.53597771227E+03  0.50400001928E-02 0. -1.
        1   -1    0    0  501    0  0.00000000000E+00  0.00000000000E+00 -0.89576403519E+03  0.89576403520E+03  0.50400001928E-02 0.  1.
    10030    2    1    2    0    0  0.00000000000E+00  0.00000000000E+00 -0.35978632294E+03  0.14317417475E+04  0.13857987709E+04 0.  0.
        3    1    3    3  502    0  0.55174784833E+03  0.17274733359E+02 -0.61256765051E+03  0.82459883653E+03  0.10100000352E+00 0.  1.
       -3    1    3    3    0  502 -0.55174784833E+03 -0.17274733359E+02  0.25278132757E+03  0.60714291095E+03  0.10100000352E+00 0. -1.
</event>
<event>
 5   0  0.1497625E-04  0.1393995E+04  0.7818609E-02  0.8958177E-01
       -4   -1    0    0    0  501  0.00000000000E+00  0.00000000000E+00  0.76786575745E+03  0.76786680770E+03  0.12699999809E+01 0. -1.
        4   -1    0    0  501    0  0.00000000000E+00  0.00000000000E+00 -0.63266777200E+03  0.63266904668E+03  0.12699999809E+01 0.  1.
    10030    2    1    2    0    0  0.00000000000E+00  0.00000000000E+00  0.13519798546E+03  0.14005358544E+04  0.13939950445E+04 0.  0.
        2    1    3    3  502    0  0.29073488479E+03 -0.60494641742E+03 -0.12121525883E+03  0.68204111325E+03  0.25500000920E-02 0.  1.
       -2    1    3    3    0  502 -0.29073488479E+03  0.60494641742E+03  0.25641324429E+03  0.71849474113E+03  0.25500000920E-02 0. -1.
</event>
<event>
 5   0  0.4310348E-04  0.1401231E+04  0.7818609E-02  0.8952928E-01
        2   -1    0    0  501    0  0.00000000000E+00  0.00000000000E+00  0.13617507501E+04  0.13617507501E+04  0.25500000920E-02 0.  1.
       -2   -1    0    0    0  501  0.00000000000E+00  0.00000000000E+00 -0.36046377478E+03  0.36046377479E+03  0.25500000920E-02 0. -1.
    10030    2    1    2    0    0  0.00000000000E+00  0.00000000000E+00  0.10012869753E+04  0.17222145249E+04  0.14012306244E+04 0.  0.
        1    1    3    3  502    0  0.65824804143E+03  0.22952862364E+03  0.58657266881E+03  0.91106606178E+03  0.50400001928E-02 0.  1.
       -1    1    3    3    0  502 -0.65824804143E+03 -0.22952862364E+03  0.41471430647E+03  0.81114846307E+03  0.50400001928E-02 0. -1.
</event>
<event>
 5   0  0.2155352E-04  0.1388987E+04  0.7818609E-02  0.8961829E-01
        1   -1    0    0  501    0  0.00000000000E+00  0.00000000000E+00  0.13099131729E+04  0.13099131730E+04  0.50400001928E-02 0.  1.
       -1   -1    0    0    0  501  0.00000000000E+00  0.00000000000E+00 -0.36820830603E+03  0.36820830607E+03  0.50400001928E-02 0. -1.
    10030    2    1    2    0    0  0.00000000000E+00  0.00000000000E+00  0.94170486691E+03  0.16781214790E+04  0.13889865521E+04 0.  0.
        2    1    3    3  502    0  0.10549218022E+03  0.54589888950E+03  0.97363781227E+03  0.11212068440E+04  0.25500000920E-02 0. -1.
       -2    1    3    3    0  502 -0.10549218022E+03 -0.54589888950E+03 -0.31932945361E+02  0.55691463497E+03  0.25500000920E-02 0.  1.
</event>
<event>
 5   0  0.3932568E-04  0.1395929E+04  0.7818609E-02  0.8956771E-01
        2   -1    0    0  501    0  0.00000000000E+00  0.00000000000E+00  0.15663512643E+04  0.15663512643E+04  0.25500000920E-02 0. -1.
       -2   -1    0    0    0  501  0.00000000000E+00  0.00000000000E+00 -0.31101221958E+03  0.31101221959E+03  0.25500000920E-02 0.  1.
    10030    2    1    2    0    0  0.00000000000E+00  0.00000000000E+00  0.12553390447E+04  0.18773634839E+04  0.13959289142E+04 0.  0.
        2    1    3    3  502    0 -0.18440713798E+03 -0.61621568336E+02  0.15291949970E+04  0.15415059355E+04  0.25500000920E-02 0. -1.
       -2    1    3    3    0  502  0.18440713798E+03  0.61621568336E+02 -0.27385595229E+03  0.33585754842E+03  0.25500000920E-02 0.  1.
</event>
<event>
 5   0  0.4310348E-04  0.1383576E+04  0.7818609E-02  0.8965793E-01
        2   -1    0    0  501    0  0.00000000000E+00  0.00000000000E+00  0.14054011529E+04  0.14054011529E+04  0.25500000920E-02 0.  1.
       -2   -1    0    0    0  501  0.00000000000E+00  0.00000000000E+00 -0.34052264634E+03  0.34052264635E+03  0.25500000920E-02 0. -1.
    10030    2    1    2    0    0  0.00000000000E+00  0.00000000000E+00  0.10648785065E+04  0.17459237992E+04  0.13835764088E+04 0.  0.
        1    1    3    3  502    0 -0.41878445783E+03 -0.23651663430E+03 -0.95027356376E+02  0.49025578926E+03  0.50400001928E-02 0. -1.
       -1    1    3    3    0  502  0.41878445783E+03  0.23651663430E+03  0.11599058629E+04  0.12556680099E+04  0.50400001928E-02 0.  1.
</event>
<event>
 5   0  0.2155352E-04  0.1388887E+04  0.7818609E-02  0.8961902E-01
        1   -1    0    0  501    0  0.00000000000E+00  0.00000000000E+00  0.10155878989E+04  0.10155878989E+04  0.50400001928E-02 0. -1.
       -1   -1    0    0    0  501  0.00000000000E+00  0.00000000000E+00 -0.47484971163E+03  0.47484971166E+03  0.50400001928E-02 0.  1.
    10030    2    1    2    0    0  0.00000000000E+00  0.00000000000E+00  0.54073818727E+03  0.14904376106E+04  0.13888867786E+04 0.  0.
        2    1    3    3  502    0  0.27239684655E+03  0.15908813798E+03  0.93426551364E+03  0.98608373257E+03  0.25500000920E-02 0. -1.
       -2    1    3    3    0  502 -0.27239684655E+03 -0.15908813798E+03 -0.39352732637E+03  0.50435387801E+03  0.25500000920E-02 0.  1.
</event>
<event>
 5   0  0.2143942E-04  0.1401035E+04  0.7818609E-02  0.8953070E-01
       -1   -1    0    0    0  501  0.00000000000E+00  0.00000000000E+00  0.37695469537E+03  0.37695469540E+03  0.50400001928E-02 0.  1.
        1   -1    0    0  501    0  0.00000000000E+00  0.00000000000E+00 -0.13018130824E+04  0.13018130824E+04  0.50400001928E-02 0. -1.
    10030    2    1    2    0    0  0.00000000000E+00  0.00000000000E+00 -0.92485838703E+03  0.16787677778E+04  0.14010346947E+04 0.  0.
        4    1    3    3  502    0  0.57335752293E+03  0.34250724554E+03 -0.71568750330E+03  0.97890769618E+03  0.12699999809E+01 0. -1.
       -4    1    3    3    0  502 -0.57335752293E+03 -0.34250724554E+03 -0.20917088373E+03  0.69986008163E+03  0.12699999809E+01 0.  1.
</event>
<event>
 5   0  0.3975164E-04  0.1409279E+04  0.7818609E-02  0.8947129E-01
       -2   -1    0    0    0  501  0.00000000000E+00  0.00000000000E+00  0.68468086861E+03  0.68468086861E+03  0.25500000920E-02 0. -1.
        2   -1    0    0  501    0  0.00000000000E+00  0.00000000000E+00 -0.72517981441E+03  0.72517981442E+03  0.25500000920E-02 0.  1.
    10030    2    1    2    0    0  0.00000000000E+00  0.00000000000E+00 -0.40498945801E+02  0.14098606830E+04  0.14092788869E+04 0.  0.
        5    1    3    3  502    0  0.53488889821E+02 -0.69313670202E+03 -0.13516684842E+03  0.70823139999E+03  0.46999998093E+01 0.  1.
       -5    1    3    3    0  502 -0.53488889821E+02  0.69313670202E+03  0.94667902622E+02  0.70162928304E+03  0.46999998093E+01 0. -1.
</event>
<event>
 5   0  0.2217251E-04  0.1407253E+04  0.7818609E-02  0.8948585E-01
       -1   -1    0    0    0  501  0.00000000000E+00  0.00000000000E+00  0.83030192103E+03  0.83030192104E+03  0.50400001928E-02 0. -1.
        1   -1    0    0  501    0  0.00000000000E+00  0.00000000000E+00 -0.59627721849E+03  0.59627721851E+03  0.50400001928E-02 0.  1.
    10030    2    1    2    0    0  0.00000000000E+00  0.00000000000E+00  0.23402470254E+03  0.14265791396E+04  0.14072528131E+04 0.  0.
        5    1    3    3  502    0  0.62819704715E+03  0.20831003173E+03 -0.12510536112E+03  0.67357111038E+03  0.46999998093E+01 0.  1.
       -5    1    3    3    0  502 -0.62819704715E+03 -0.20831003173E+03  0.35913006366E+03  0.75300802917E+03  0.46999998093E+01 0. -1.
</event>
<event>
 5   0  0.2215876E-04  0.1414702E+04  0.7818609E-02  0.8943245E-01
        1   -1    0    0  501    0  0.00000000000E+00  0.00000000000E+00  0.97559566913E+03  0.97559566914E+03  0.50400001928E-02 0.  1.
       -1   -1    0    0    0  501  0.00000000000E+00  0.00000000000E+00 -0.51286148154E+03  0.51286148157E+03  0.50400001928E-02 0. -1.
    10030    2    1    2    0    0  0.00000000000E+00  0.00000000000E+00  0.46273418758E+03  0.14884571507E+04  0.14147020044E+04 0.  0.
        3    1    3    3  502    0  0.10435988744E+03 -0.46931527754E+03 -0.31452520976E+03  0.57452061200E+03  0.10100000352E+00 0. -1.
       -3    1    3    3    0  502 -0.10435988744E+03  0.46931527754E+03  0.77725939734E+03  0.91393653871E+03  0.10100000352E+00 0.  1.
</event>
<event>
 5   0  0.3917598E-04  0.1394879E+04  0.7818609E-02  0.8957534E-01
        2   -1    0    0  501    0  0.00000000000E+00  0.00000000000E+00  0.14352979083E+04  0.14352979083E+04  0.25500000920E-02 0. -1.
       -2   -1    0    0    0  501  0.00000000000E+00  0.00000000000E+00 -0.33889974114E+03  0.33889974115E+03  0.25500000920E-02 0.  1.
    10030    2    1    2    0    0  0.00000000000E+00  0.00000000000E+00  0.10963981672E+04  0.17741976495E+04  0.13948793347E+04 0.  0.
        3    1    3    3  502    0  0.51466155360E+03 -0.40687390709E+03  0.24720620140E+03  0.70109472059E+03  0.10100000352E+00 0.  1.
       -3    1    3    3    0  502 -0.51466155360E+03  0.40687390709E+03  0.84919196580E+03  0.10731029289E+04  0.10100000352E+00 0. -1.
</event>
<event>
 5   0  0.3975164E-04  0.1382681E+04  0.7818609E-02  0.8966451E-01
        2   -1    0    0  501    0  0.00000000000E+00  0.00000000000E+00  0.36951184877E+03  0.36951184878E+03  0.25500000920E-02 0.  1.
       -2   -1    0    0    0  501  0.00000000000E+00  0.00000000000E+00 -0.12934671144E+04  0.12934671144E+04  0.25500000920E-02 0. -1.
    10030    2    1    2    0    0  0.00000000000E+00  0.00000000000E+00 -0.92395526560E+03  0.16629789632E+04  0.13826806208E+04 0.  0.
        5    1    3    3  502    0  0.62739877994E+03  0.97990845636E+02 -0.79069229445E+03  0.10141241686E+04  0.46999998093E+01 0. -1.
       -5    1    3    3    0  502 -0.62739877994E+03 -0.97990845636E+02 -0.13326297115E+03  0.64885479453E+03  0.46999998093E+01 0.  1.
</event>
<event>
 5   0  0.2217251E-04  0.1442968E+04  0.7818609E-02  0.8923290E-01
       -1   -1    0    0    0  501  0.00000000000E+00  0.00000000000E+00  0.84897923327E+03  0.84897923328E+03  0.50400001928E-02 0.  1.
        1   -1    0    0  501    0  0.00000000000E+00  0.00000000000E+00 -0.61313572749E+03  0.61313572751E+03  0.50400001928E-02 0. -1.
    10030    2    1    2    0    0  0.00000000000E+00  0.00000000000E+00  0.23584350578E+03  0.14621149608E+04  0.14429684679E+04 0.  0.
        5    1    3    3  502    0  0.40954180509E+03 -0.32686575581E+03 -0.38459389765E+03  0.65000020657E+03  0.46999998093E+01 0. -1.
       -5    1    3    3    0  502 -0.40954180509E+03  0.32686575581E+03  0.62043740343E+03  0.81211475422E+03  0.46999998093E+01 0.  1.
</event>
<event>
 5   0  0.2155352E-04  0.1403700E+04  0.7818609E-02  0.8951145E-01
        1   -1    0    0  501    0  0.00000000000E+00  0.00000000000E+00  0.34277913609E+03  0.34277913613E+03  0.50400001928E-02 0.  1.
       -1   -1    0    0    0  501  0.00000000000E+00  0.00000000000E+00 -0.14370579735E+04  0.14370579735E+04  0.50400001928E-02 0. -1.
    10030    2    1    2    0    0  0.00000000000E+00  0.00000000000E+00 -0.10942788374E+04  0.17798371096E+04  0.14037000972E+04 0.  0.
        2    1    3    3  502    0  0.87121988598E+01  0.10586218196E+03  0.33252844201E+03  0.34908146432E+03  0.25500000920E-02 0.  1.
       -2    1    3    3    0  502 -0.87121988598E+01 -0.10586218196E+03 -0.14268072794E+04  0.14307556453E+04  0.25500000920E-02 0. -1.
</event>
<event>
 5   0  0.4208622E-04  0.1395394E+04  0.7818609E-02  0.8957160E-01
        2   -1    0    0  501    0  0.00000000000E+00  0.00000000000E+00  0.54355440591E+03  0.54355440591E+03  0.25500000920E-02 0.  1.
       -2   -1    0    0    0  501  0.00000000000E+00  0.00000000000E+00 -0.89555112872E+03  0.89555112873E+03  0.25500000920E-02 0. -1.
    10030    2    1    2    0    0  0.00000000000E+00  0.00000000000E+00 -0.35199672282E+03  0.14391055346E+04  0.13953935097E+04 0.  0.
        4    1    3    3  502    0 -0.28864985133E+03  0.58035718478E+03  0.90247476306E+02  0.65443060631E+03  0.12699999809E+01 0.  1.
       -4    1    3    3    0  502  0.28864985133E+03 -0.58035718478E+03 -0.44224419912E+03  0.78467492833E+03  0.12699999809E+01 0. -1.
</event>
<event>
 5   0  0.1497625E-04  0.1405975E+04  0.7818609E-02  0.8949505E-01
        4   -1    0    0  501    0  0.00000000000E+00  0.00000000000E+00  0.25469975292E+04  0.25469978458E+04  0.12699999809E+01 0. -1.
       -4   -1    0    0    0  501  0.00000000000E+00  0.00000000000E+00 -0.19402651373E+03  0.19403067007E+03  0.12699999809E+01 0.  1.
    10030    2    1    2    0    0  0.00000000000E+00  0.00000000000E+00  0.23529710154E+04  0.27410285159E+04  0.14059746532E+04 0.  0.
        2    1    3    3  502    0  0.49776358514E+03  0.23500698222E+03  0.32402641521E+03  0.63874093821E+03  0.25500000920E-02 0.  1.
       -2    1    3    3    0  502 -0.49776358514E+03 -0.23500698222E+03  0.20289446002E+04  0.21022875777E+04  0.25500000920E-02 0. -1.
</event>
<event>
 5   0  0.2223112E-04  0.1383929E+04  0.7818609E-02  0.8965534E-01
        1   -1    0    0  501    0  0.00000000000E+00  0.00000000000E+00  0.10672245860E+04  0.10672245860E+04  0.50400001928E-02 0. -1.
       -1   -1    0    0    0  501  0.00000000000E+00  0.00000000000E+00 -0.44865421102E+03  0.44865421105E+03  0.50400001928E-02 0.  1.
    10030    2    1    2    0    0  0.00000000000E+00  0.00000000000E+00  0.61857037502E+03  0.15158787971E+04  0.13839289066E+04 0.  0.
        1    1    3    3  502    0 -0.21664125184E+03  0.59021950267E+03  0.62584220811E+03  0.88711383870E+03  0.50400001928E-02 0. -1.
       -1    1    3    3    0  502  0.21664125184E+03 -0.59021950267E+03 -0.72718330998E+01  0.62876495840E+03  0.50400001928E-02 0.  1.
</event>
<event>
 5   0  0.3932568E-04  0.1425057E+04  0.7818609E-02  0.8935878E-01
        2   -1    0    0  501    0  0.00000000000E+00  0.00000000000E+00  0.12455009771E+04  0.12455009771E+04  0.25500000920E-02 0. -1.
       -2   -1    0    0    0  501  0.00000000000E+00  0.00000000000E+00 -0.40762483276E+03  0.40762483277E+03  0.25500000920E-02 0.  1.
    10030    2    1    2    0    0  0.00000000000E+00  0.00000000000E+00  0.83787614430E+03  0.16531258098E+04  0.14250573708E+04 0.  0.
        2    1    3    3  502    0 -0.36162951770E+03  0.54162425340E+03  0.75427715712E+03  0.99652735522E+03  0.25500000920E-02 0. -1.
       -2    1    3    3    0  502  0.36162951770E+03 -0.54162425340E+03  0.83598987186E+02  0.65659845462E+03  0.25500000920E-02 0.  1.
</event>
<event>
 5   0  0.2155352E-04  0.1447870E+04  0.7818609E-02  0.8919879E-01
        1   -1    0    0  501    0  0.00000000000E+00  0.00000000000E+00  0.90193693007E+03  0.90193693008E+03  0.50400001928E-02 0.  1.
       -1   -1    0    0    0  501  0.00000000000E+00  0.00000000000E+00 -0.58106239325E+03  0.58106239328E+03  0.50400001928E-02 0. -1.
    10030    2    1    2    0    0  0.00000000000E+00  0.00000000000E+00  0.32087453681E+03  0.14829993234E+04  0.14478696505E+04 0.  0.
        2    1    3    3  502    0  0.56121148249E+03  0.41352587393E+03 -0.39542456686E+02  0.69823032187E+03  0.25500000920E-02 0.  1.
       -2    1    3    3    0  502 -0.56121148249E+03 -0.41352587393E+03  0.36041699350E+03  0.78476900149E+03  0.25500000920E-02 0. -1.
</event>
<event>
 5   0  0.4310348E-04  0.1404483E+04  0.7818609E-02  0.8950580E-01
       -2   -1    0    0    0  501  0.00000000000E+00  0.00000000000E+00  0.62279130407E+03  0.62279130408E+03  0.25500000920E-02 0.  1.
        2   -1    0    0  501    0  0.00000000000E+00  0.00000000000E+00 -0.79182732826E+03  0.79182732826E+03  0.25500000920E-02 0. -1.
    10030    2    1    2    0    0  0.00000000000E+00  0.00000000000E+00 -0.16903602419E+03  0.14146186323E+04  0.14044830713E+04 0.  0.
        1    1    3    3  502    0 -0.45850011455E+03  0.46998110309E+03 -0.33539093895E+03  0.73728669747E+03  0.50400001928E-02 0. -1.
       -1    1    3    3    0  502  0.45850011455E+03 -0.46998110309E+03  0.16635491476E+03  0.67733193487E+03  0.50400001928E-02 0.  1.
</event>
<event>
 5   0  0.2215876E-04  0.1381649E+04  0.7818609E-02  0.8967210E-01
       -1   -1    0    0    0  501  0.00000000000E+00  0.00000000000E+00  0.23281862351E+03  0.23281862356E+03  0.50400001928E-02 0.  1.
        1   -1    0    0  501    0  0.00000000000E+00  0.00000000000E+00 -0.20498285978E+04  0.20498285978E+04  0.50400001928E-02 0. -1.
    10030    2    1    2    0    0  0.00000000000E+00  0.00000000000E+00 -0.18170099743E+04  0.22826472214E+04  0.13816486856E+04 0.  0.
        3    1    3    3  502    0 -0.34450366602E+03 -0.31788452027E+03 -0.70138454043E+02  0.47397548150E+03  0.10100000352E+00 0.  1.
       -3    1    3    3    0  502  0.34450366602E+03  0.31788452027E+03 -0.17468715202E+04  0.18086717399E+04  0.10100000352E+00 0. -1.
</event>
<event>
 5   0  0.2215876E-04  0.1403037E+04  0.7818609E-02  0.8951623E-01
        1   -1    0    0  501    0  0.00000000000E+00  0.00000000000E+00  0.47302295958E+03  0.47302295961E+03  0.50400001928E-02 0.  1.
       -1   -1    0    0    0  501  0.00000000000E+00  0.00000000000E+00 -0.10403900535E+04  0.10403900535E+04  0.50400001928E-02 0. -1.
    10030    2    1    2    0    0  0.00000000000E+00  0.00000000000E+00 -0.56736709393E+03  0.15134130131E+04  0.14030372515E+04 0.  0.
        3    1    3    3  502    0  0.31658159782E+02  0.18607976676E+03  0.44511729984E+03  0.48348458042E+03  0.10100000352E+00 0.  1.
       -3    1    3    3    0  502 -0.31658159782E+02 -0.18607976676E+03 -0.10124843938E+04  0.10299284327E+04  0.10100000352E+00 0. -1.
</event>
<event>
 5   0  0.4208622E-04  0.1401124E+04  0.7818609E-02  0.8953005E-01
        2   -1    0    0  501    0  0.00000000000E+00  0.00000000000E+00  0.25217198674E+04  0.25217198674E+04  0.25500000920E-02 0.  1.
       -2   -1    0    0    0  501  0.00000000000E+00  0.00000000000E+00 -0.19462399272E+03  0.19462399273E+03  0.25500000920E-02 0. -1.
    10030    2    1    2    0    0  0.00000000000E+00  0.00000000000E+00  0.23270958747E+04  0.27163438601E+04  0.14011241046E+04 0.  0.
        4    1    3    3  502    0  0.78888261483E+02 -0.19378951629E+03  0.24597291206E+04  0.24686123013E+04  0.12699999809E+01 0.  1.
       -4    1    3    3    0  502 -0.78888261483E+02  0.19378951629E+03 -0.13263324592E+03  0.24773155885E+03  0.12699999809E+01 0. -1.
</event>
<event>
 5   0  0.4310348E-04  0.1404308E+04  0.7818609E-02  0.8950706E-01
       -2   -1    0    0    0  501  0.00000000000E+00  0.00000000000E+00  0.25625186471E+03  0.25625186472E+03  0.25500000920E-02 0.  1.
        2   -1    0    0  501    0  0.00000000000E+00  0.00000000000E+00 -0.19239678802E+04  0.19239678802E+04  0.25500000920E-02 0. -1.
    10030    2    1    2    0    0  0.00000000000E+00  0.00000000000E+00 -0.16677160155E+04  0.21802197449E+04  0.14043081670E+04 0.  0.
        1    1    3    3  502    0 -0.29949837506E+03  0.61413589750E+03 -0.58276096028E+03  0.89803814736E+03  0.50400001928E-02 0.  1.
       -1    1    3    3    0  502  0.29949837506E+03 -0.61413589750E+03 -0.10849550552E+04  0.12821815975E+04  0.50400001928E-02 0. -1.
</event>
<event>
 5   0  0.2155352E-04  0.1399133E+04  0.7818609E-02  0.8954446E-01
       -1   -1    0    0    0  501  0.00000000000E+00  0.00000000000E+00  0.47859160489E+03  0.47859160491E+03  0.50400001928E-02 0.  1.
        1   -1    0    0  501    0  0.00000000000E+00  0.00000000000E+00 -0.10225701839E+04  0.10225701839E+04  0.50400001928E-02 0. -1.
    10030    2    1    2    0    0  0.00000000000E+00  0.00000000000E+00 -0.54397857897E+03  0.15011617888E+04  0.13991333109E+04 0.  0.
        2    1    3    3  502    0 -0.46976772745E+03  0.15331792944E+03  0.25930288591E+03  0.55805563512E+03  0.25500000920E-02 0.  1.
       -2    1    3    3    0  502  0.46976772745E+03 -0.15331792944E+03 -0.80328146489E+03  0.94310615367E+03  0.25500000920E-02 0. -1.
</event>
<event>
 5   0  0.2143942E-04  0.1399017E+04  0.7818609E-02  0.8954530E-01
        1   -1    0    0  501    0  0.00000000000E+00  0.00000000000E+00  0.13824436586E+04  0.13824436586E+04  0.50400001928E-02 0.  1.
       -1   -1    0    0    0  501  0.00000000000E+00  0.00000000000E+00 -0.35394739322E+03  0.35394739326E+03  0.50400001928E-02 0. -1.
    10030    2    1    2    0    0  0.00000000000E+00  0.00000000000E+00  0.10284962654E+04  0.17363910519E+04  0.13990172684E+04 0.  0.
        4    1    3    3  502    0  0.68313331993E+01  0.17932728323E+03  0.13533850306E+04  0.13652317003E+04  0.12699999809E+01 0.  1.
       -4    1    3    3    0  502 -0.68313331993E+01 -0.17932728323E+03 -0.32488876518E+03  0.37115935158E+03  0.12699999809E+01 0. -1.
</event>
<event>
 5   0  0.2217251E-04  0.1401743E+04  0.7818609E-02  0.8952558E-01
        1   -1    0    0  501    0  0.00000000000E+00  0.00000000000E+00  0.12114647983E+04  0.12114647983E+04  0.50400001928E-02 0.  1.
       -1   -1    0    0    0  501  0.00000000000E+00  0.00000000000E+00 -0.40547676307E+03  0.40547676311E+03  0.50400001928E-02 0. -1.
    10030    2    1    2    0    0  0.00000000000E+00  0.00000000000E+00  0.80598803520E+03  0.16169415614E+04  0.14017429508E+04 0.  0.
        5    1    3    3  502    0  0.44635433845E+03 -0.33420229042E+03  0.89276622786E+03  0.10526048613E+04  0.46999998093E+01 0.  1.
       -5    1    3    3    0  502 -0.44635433845E+03  0.33420229042E+03 -0.86778192662E+02  0.56433670011E+03  0.46999998093E+01 0. -1.
</event>
<event>
 5   0  0.3932568E-04  0.1396828E+04  0.7818609E-02  0.8956118E-01
        2   -1    0    0  501    0  0.00000000000E+00  0.00000000000E+00  0.11447534056E+04  0.11447534056E+04  0.25500000920E-02 0.  1.
       -2   -1    0    0    0  501  0.00000000000E+00  0.00000000000E+00 -0.42610236150E+03  0.42610236150E+03  0.25500000920E-02 0. -1.
    10030    2    1    2    0    0  0.00000000000E+00  0.00000000000E+00  0.71865104415E+03  0.15708557671E+04  0.13968280202E+04 0.  0.
        2    1    3    3  502    0 -0.60913147008E+03 -0.58369350015E+02  0.73791930868E+03  0.95863081267E+03  0.25500000920E-02 0.  1.
       -2    1    3    3    0  502  0.60913147008E+03  0.58369350015E+02 -0.19268264531E+02  0.61222495448E+03  0.25500000920E-02 0. -1.
</event>
<event>
 5   0  0.2143942E-04  0.1406707E+04  0.7818609E-02  0.8948978E-01
        1   -1    0    0  501    0  0.00000000000E+00  0.00000000000E+00  0.15680772493E+04  0.15680772493E+04  0.50400001928E-02 0. -1.
       -1   -1    0    0    0  501  0.00000000000E+00  0.00000000000E+00 -0.31548579880E+03  0.31548579884E+03  0.50400001928E-02 0.  1.
    10030    2    1    2    0    0  0.00000000000E+00  0.00000000000E+00  0.12525914505E+04  0.18835630481E+04  0.14067069398E+04 0.  0.
        4    1    3    3  502    0  0.48032402847E+03  0.51204653519E+03  0.56946104078E+03  0.90398579435E+03  0.12699999809E+01 0.  1.
       -4    1    3    3    0  502 -0.48032402847E+03 -0.51204653519E+03  0.68313040969E+03  0.97957725375E+03  0.12699999809E+01 0. -1.
</event>
<event>
 5   0  0.3975164E-04  0.1400557E+04  0.7818609E-02  0.8953415E-01
       -2   -1    0    0    0  501  0.00000000000E+00  0.00000000000E+00  0.28389701870E+03  0.28389701871E+03  0.25500000920E-02 0. -1.
        2   -1    0    0  501    0  0.00000000000E+00  0.00000000000E+00 -0.17273515019E+04  0.17273515019E+04  0.25500000920E-02 0.  1.
    10030    2    1    2    0    0  0.00000000000E+00  0.00000000000E+00 -0.14434544832E+04  0.20112485206E+04  0.14005569487E+04 0.  0.
        5    1    3    3  502    0  0.61675087489E+02  0.69187980511E+03 -0.84909284688E+03  0.10970333786E+04  0.46999998093E+01 0. -1.
       -5    1    3    3    0  502 -0.61675087489E+02 -0.69187980511E+03 -0.59436163627E+03  0.91421514197E+03  0.46999998093E+01 0.  1.
</event>
<event>
 5   0  0.2217251E-04  0.1394850E+04  0.7818609E-02  0.8957555E-01
       -1   -1    0    0    0  501  0.00000000000E+00  0.00000000000E+00  0.50429400510E+03  0.50429400513E+03  0.50400001928E-02 0.  1.
        1   -1    0    0  501    0  0.00000000000E+00  0.00000000000E+00 -0.96451954755E+03  0.96451954757E+03  0.50400001928E-02 0. -1.
    10030    2    1    2    0    0  0.00000000000E+00  0.00000000000E+00 -0.46022554245E+03  0.14688135527E+04  0.13948497061E+04 0.  0.
        5    1    3    3  502    0  0.62392288241E+03  0.30787328260E+03 -0.17946215431E+03  0.71853634296E+03  0.46999998093E+01 0. -1.
       -5    1    3    3    0  502 -0.62392288241E+03 -0.30787328260E+03 -0.28076338814E+03  0.75027720973E+03  0.46999998093E+01 0.  1.
</event>
<event>
 5   0  0.2223112E-04  0.1389185E+04  0.7818609E-02  0.8961685E-01
        1   -1    0    0  501    0  0.00000000000E+00  0.00000000000E+00  0.66483325436E+03  0.66483325438E+03  0.50400001928E-02 0.  1.
       -1   -1    0    0    0  501  0.00000000000E+00  0.00000000000E+00 -0.72568354247E+03  0.72568354248E+03  0.50400001928E-02 0. -1.
    10030    2    1    2    0    0  0.00000000000E+00  0.00000000000E+00 -0.60850288101E+02  0.13905167969E+04  0.13891847267E+04 0.  0.
        1    1    3    3  502    0  0.60792609365E+01 -0.65510768704E+03  0.20056769799E+03  0.68514994018E+03  0.50400001928E-02 0.  1.
       -1    1    3    3    0  502 -0.60792609365E+01  0.65510768704E+03 -0.26141798609E+03  0.70536685668E+03  0.50400001928E-02 0. -1.
</event>
<event>
 5   0  0.3932568E-04  0.1412977E+04  0.7818609E-02  0.8944479E-01
        2   -1    0    0  501    0  0.00000000000E+00  0.00000000000E+00  0.23737113892E+04  0.23737113892E+04  0.25500000920E-02 0.  1.
       -2   -1    0    0    0  501  0.00000000000E+00  0.00000000000E+00 -0.21027232908E+03  0.21027232910E+03  0.25500000920E-02 0. -1.
    10030    2    1    2    0    0  0.00000000000E+00  0.00000000000E+00  0.21634390601E+04  0.25839837183E+04  0.14129767477E+04 0.  0.
        2    1    3    3  502    0  0.38370979138E+02  0.48341354137E+03  0.14215243692E+03  0.50533978604E+03  0.25500000920E-02 0. -1.
       -2    1    3    3    0  502 -0.38370979138E+02 -0.48341354137E+03  0.20212866232E+04  0.20786439322E+04  0.25500000920E-02 0.  1.
</event>
<event>
 5   0  0.2217251E-04  0.1399938E+04  0.7818609E-02  0.8953864E-01
       -1   -1    0    0    0  501  0.00000000000E+00  0.00000000000E+00  0.78824827662E+03  0.78824827663E+03  0.50400001928E-02 0.  1.
        1   -1    0    0  501    0  0.00000000000E+00  0.00000000000E+00 -0.62157640062E+03  0.62157640064E+03  0.50400001928E-02 0. -1.
    10030    2    1    2    0    0  0.00000000000E+00  0.00000000000E+00  0.16667187600E+03  0.14098246773E+04  0.13999378938E+04 0.  0.
        5    1    3    3  502    0  0.20314916447E+03 -0.55527935398E+03 -0.29391569278E+03  0.66031300793E+03  0.46999998093E+01 0. -1.
       -5    1    3    3    0  502 -0.20314916447E+03  0.55527935398E+03  0.46058756878E+03  0.74951166935E+03  0.46999998093E+01 0.  1.
</event>
<event>
 5   0  0.4310348E-04  0.1396353E+04  0.7818609E-02  0.8956463E-01
        2   -1    0    0  501    0  0.00000000000E+00  0.00000000000E+00  0.85132376530E+03  0.85132376530E+03  0.25500000920E-02 0.  1.
       -2   -1    0    0    0  501  0.00000000000E+00  0.00000000000E+00 -0.57257921478E+03  0.57257921478E+03  0.25500000920E-02 0. -1.
    10030    2    1    2    0    0  0.00000000000E+00  0.00000000000E+00  0.27874455052E+03  0.14239029801E+04  0.13963528108E+04 0.  0.
        1    1    3    3  502    0 -0.31913314234E+03  0.59521657795E+03 -0.41098506119E+02  0.67662236472E+03  0.50400001928E-02 0. -1.
       -1    1    3    3    0  502  0.31913314234E+03 -0.59521657795E+03  0.31984305664E+03  0.74728061537E+03  0.50400001928E-02 0.  1.
</event>
<event>
 5   0  0.2223112E-04  0.1404896E+04  0.7818609E-02  0.8950282E-01
        1   -1    0    0  501    0  0.00000000000E+00  0.00000000000E+00  0.81801832178E+03  0.81801832180E+03  0.50400001928E-02 0.  1.
       -1   -1    0    0    0  501  0.00000000000E+00  0.00000000000E+00 -0.60320523592E+03  0.60320523594E+03  0.50400001928E-02 0. -1.
    10030    2    1    2    0    0  0.00000000000E+00  0.00000000000E+00  0.21481308586E+03  0.14212235577E+04  0.14048956329E+04 0.  0.
        1    1    3    3  502    0  0.11414455364E+03 -0.82904230275E+02 -0.58872685722E+03  0.60539359343E+03  0.50400001928E-02 0. -1.
       -1    1    3    3    0  502 -0.11414455364E+03  0.82904230275E+02  0.80353994308E+03  0.81582996431E+03  0.50400001928E-02 0.  1.
</event>
<event>
 5   0  0.2155352E-04  0.1428445E+04  0.7818609E-02  0.8933482E-01
       -1   -1    0    0    0  501  0.00000000000E+00  0.00000000000E+00  0.77180955690E+03  0.77180955691E+03  0.50400001928E-02 0.  1.
        1   -1    0    0  501    0  0.00000000000E+00  0.00000000000E+00 -0.66093214217E+03  0.66093214218E+03  0.50400001928E-02 0. -1.
    10030    2    1    2    0    0  0.00000000000E+00  0.00000000000E+00  0.11087741473E+03  0.14327416991E+04  0.14284449500E+04 0.  0.
        2    1    3    3  502    0  0.33175785575E+02  0.27224885577E+03  0.71688705661E+03  0.76755919912E+03  0.25500000920E-02 0.  1.
       -2    1    3    3    0  502 -0.33175785575E+02 -0.27224885577E+03 -0.60600964188E+03  0.66518249997E+03  0.25500000920E-02 0. -1.
</event>
<event>
 5   0  0.4208622E-04  0.1401611E+04  0.7818609E-02  0.8952653E-01
       -2   -1    0    0    0  501  0.00000000000E+00  0.00000000000E+00  0.49811944489E+03  0.49811944490E+03  0.25500000920E-02 0.  1.
        2   -1    0    0  501    0  0.00000000000E+00  0.00000000000E+00 -0.98596501299E+03  0.98596501300E+03  0.25500000920E-02 0. -1.
    10030    2    1    2    0    0  0.00000000000E+00  0.00000000000E+00 -0.48784556810E+03  0.14840844579E+04  0.14016109945E+04 0.  0.
        4    1    3    3  502    0  0.13714631326E+03  0.65880968899E+03 -0.36737387231E+02  0.67393661873E+03  0.12699999809E+01 0.  1.
       -4    1    3    3    0  502 -0.13714631326E+03 -0.65880968899E+03 -0.45110818087E+03  0.81014783916E+03  0.12699999809E+01 0. -1.
</event>
<event>
 5   0  0.3932568E-04  0.1395649E+04  0.7818609E-02  0.8956974E-01
       -2   -1    0    0    0  501  0.00000000000E+00  0.00000000000E+00  0.29020440803E+03  0.29020440804E+03  0.25500000920E-02 0.  1.
        2   -1    0    0  501    0  0.00000000000E+00  0.00000000000E+00 -0.16779859171E+04  0.16779859172E+04  0.25500000920E-02 0. -1.
    10030    2    1    2    0    0  0.00000000000E+00  0.00000000000E+00 -0.13877815091E+04  0.19681903252E+04  0.13956488237E+04 0.  0.
        2    1    3    3  502    0 -0.60105778745E+03 -0.10245200545E+03 -0.21525828237E+03  0.64660885039E+03  0.25500000920E-02 0.  1.
       -2    1    3    3    0  502  0.60105778745E+03  0.10245200545E+03 -0.11725232267E+04  0.13215814748E+04  0.25500000920E-02 0. -1.
</event>
<event>
 5   0  0.4208622E-04  0.1390367E+04  0.7818609E-02  0.8960821E-01
        2   -1    0    0  501    0  0.00000000000E+00  0.00000000000E+00  0.12426571154E+04  0.12426571154E+04  0.25500000920E-02 0.  1.
       -2   -1    0    0    0  501  0.00000000000E+00  0.00000000000E+00 -0.38890862295E+03  0.38890862296E+03  0.25500000920E-02 0. -1.
    10030    2    1    2    0    0  0.00000000000E+00  0.00000000000E+00  0.85374849243E+03  0.16315657383E+04  0.13903669552E+04 0.  0.
        4    1    3    3  502    0 -0.19978271177E+03  0.32764706868E+03 -0.25335139599E+03  0.45984157738E+03  0.12699999809E+01 0.  1.
       -4    1    3    3    0  502  0.19978271177E+03 -0.32764706868E+03  0.11070998884E+04  0.11717241610E+04  0.12699999809E+01 0. -1.
</event>
<event>
 5   0  0.2155352E-04  0.1399969E+04  0.7818609E-02  0.8953841E-01
       -1   -1    0    0    0  501  0.00000000000E+00  0.00000000000E+00  0.27965425549E+03  0.27965425554E+03  0.50400001928E-02 0.  1.
        1   -1    0    0  501    0  0.00000000000E+00  0.00000000000E+00 -0.17520852729E+04  0.17520852729E+04  0.50400001928E-02 0. -1.
    10030    2    1    2    0    0  0.00000000000E+00  0.00000000000E+00 -0.14724310174E+04  0.20317395285E+04  0.13999687177E+04 0.  0.
        2    1    3    3  502    0  0.32721673906E+03 -0.13278650787E+03  0.14090588516E+03  0.38020720597E+03  0.25500000920E-02 0.  1.
       -2    1    3    3    0  502 -0.32721673906E+03  0.13278650787E+03 -0.16133369026E+04  0.16515323225E+04  0.25500000920E-02 0. -1.
</event>
<event>
 5   0  0.4310348E-04  0.1401837E+04  0.7818609E-02  0.8952490E-01
       -2   -1    0    0    0  501  0.00000000000E+00  0.00000000000E+00  0.51804398184E+03  0.51804398185E+03  0.25500000920E-02 0.  1.
        2   -1    0    0  501    0  0.00000000000E+00  0.00000000000E+00 -0.94834912729E+03  0.94834912729E+03  0.25500000920E-02 0. -1.
    10030    2    1    2    0    0  0.00000000000E+00  0.00000000000E+00 -0.43030514545E+03  0.14663931091E+04  0.14018367353E+04 0.  0.
        1    1    3    3  502    0 -0.15635992923E+03  0.35667210875E+03  0.39445676321E+03  0.55430998430E+03  0.50400001928E-02 0.  1.
       -1    1    3    3    0  502  0.15635992923E+03 -0.35667210875E+03 -0.82476190865E+03  0.91208312484E+03  0.50400001928E-02 0. -1.
</event>
<event>
 5   0  0.2143942E-04  0.1394989E+04  0.7818609E-02  0.8957454E-01
       -1   -1    0    0    0  501  0.00000000000E+00  0.00000000000E+00  0.15168347042E+04  0.15168347042E+04  0.50400001928E-02 0. -1.
        1   -1    0    0  501    0  0.00000000000E+00  0.00000000000E+00 -0.32073257840E+03  0.32073257844E+03  0.50400001928E-02 0.  1.
    10030    2    1    2    0    0  0.00000000000E+00  0.00000000000E+00  0.11961021258E+04  0.18375672827E+04  0.13949886103E+04 0.  0.
        4    1    3    3  502    0  0.52391323452E+03  0.33088138939E+03  0.17626113335E+03  0.64423378613E+03  0.12699999809E+01 0.  1.
       -4    1    3    3    0  502 -0.52391323452E+03 -0.33088138939E+03  0.10198409925E+04  0.11933334966E+04  0.12699999809E+01 0. -1.
</event>
<event>
 5   0  0.2155352E-04  0.1396384E+04  0.7818609E-02  0.8956440E-01
       -1   -1    0    0    0  501  0.00000000000E+00  0.00000000000E+00  0.25217495604E+03  0.25217495609E+03  0.50400001928E-02 0.  1.
        1   -1    0    0  501    0  0.00000000000E+00  0.00000000000E+00 -0.19330710039E+04  0.19330710039E+04  0.50400001928E-02 0. -1.
    10030    2    1    2    0    0  0.00000000000E+00  0.00000000000E+00 -0.16808960478E+04  0.21852459600E+04  0.13963840381E+04 0.  0.
        2    1    3    3  502    0 -0.46752125124E+03  0.51643714673E+03 -0.91366022608E+03  0.11489379686E+04  0.25500000920E-02 0. -1.
       -2    1    3    3    0  502  0.46752125124E+03 -0.51643714673E+03 -0.76723582175E+03  0.10363079914E+04  0.25500000920E-02 0.  1.
</event>
<event>
 5   0  0.2223112E-04  0.1400054E+04  0.7818609E-02  0.8953779E-01
       -1   -1    0    0    0  501  0.00000000000E+00  0.00000000000E+00  0.54475982842E+03  0.54475982844E+03  0.50400001928E-02 0.  1.
        1   -1    0    0  501    0  0.00000000000E+00  0.00000000000E+00 -0.89954896400E+03  0.89954896401E+03  0.50400001928E-02 0. -1.
    10030    2    1    2    0    0  0.00000000000E+00  0.00000000000E+00 -0.35478913558E+03  0.14443087925E+04  0.14000544837E+04 0.  0.
        1    1    3    3  502    0 -0.33397392957E+02  0.13441118355E+03  0.53048495810E+03  0.54826639776E+03  0.50400001928E-02 0.  1.
       -1    1    3    3    0  502  0.33397392957E+02 -0.13441118355E+03 -0.88527409368E+03  0.89604239469E+03  0.50400001928E-02 0. -1.
</event>
<event>
 5   0  0.4310348E-04  0.1403262E+04  0.7818609E-02  0.8951461E-01
       -2   -1    0    0    0  501  0.00000000000E+00  0.00000000000E+00  0.45369648408E+03  0.45369648409E+03  0.25500000920E-02 0.  1.
        2   -1    0    0  501    0  0.00000000000E+00  0.00000000000E+00 -0.10850556509E+04  0.10850556509E+04  0.25500000920E-02 0. -1.
    10030    2    1    2    0    0  0.00000000000E+00  0.00000000000E+00 -0.63135916685E+03  0.15387521350E+04  0.14032618200E+04 0.  0.
        1    1    3    3  502    0  0.10203065326E+02 -0.49038566988E+03 -0.86582155786E+03  0.99510259664E+03  0.50400001928E-02 0. -1.
       -1    1    3    3    0  502 -0.10203065326E+02  0.49038566988E+03  0.23446239101E+03  0.54364953839E+03  0.50400001928E-02 0.  1.
</event>
<event>
 5   0  0.2215876E-04  0.1399827E+04  0.7818609E-02  0.8953944E-01
       -1   -1    0    0    0  501  0.00000000000E+00  0.00000000000E+00  0.43352401188E+03  0.43352401191E+03  0.50400001928E-02 0.  1.
        1   -1    0    0  501    0  0.00000000000E+00  0.00000000000E+00 -0.11299929071E+04  0.11299929071E+04  0.50400001928E-02 0. -1.
    10030    2    1    2    0    0  0.00000000000E+00  0.00000000000E+00 -0.69646889520E+03  0.15635169190E+04  0.13998272158E+04 0.  0.
        3    1    3    3  502    0  0.47236401579E+03  0.23804482232E+03  0.16371449941E+03  0.55371070819E+03  0.10100000352E+00 0.  1.
       -3    1    3    3    0  502 -0.47236401579E+03 -0.23804482232E+03 -0.86018339461E+03  0.10098062108E+04  0.10100000352E+00 0. -1.
</event>
<event>
 5   0  0.2217251E-04  0.1391222E+04  0.7818609E-02  0.8960197E-01
       -1   -1    0    0    0  501  0.00000000000E+00  0.00000000000E+00  0.34404867890E+03  0.34404867894E+03  0.50400001928E-02 0.  1.
        1   -1    0    0  501    0  0.00000000000E+00  0.00000000000E+00 -0.14064132368E+04  0.14064132368E+04  0.50400001928E-02 0. -1.
    10030    2    1    2    0    0  0.00000000000E+00  0.00000000000E+00 -0.10623645579E+04  0.17504619157E+04  0.13912219322E+04 0.  0.
        5    1    3    3  502    0  0.11235386937E+03 -0.48017343631E+03  0.86066952290E+02  0.50061914783E+03  0.46999998093E+01 0.  1.
       -5    1    3    3    0  502 -0.11235386937E+03  0.48017343631E+03 -0.11484315101E+04  0.12498427679E+04  0.46999998093E+01 0. -1.
</event>
<event>
 5   0  0.2215876E-04  0.1383381E+04  0.7818609E-02  0.8965937E-01
        1   -1    0    0  501    0  0.00000000000E+00  0.00000000000E+00  0.93895938395E+03  0.93895938396E+03  0.50400001928E-02 0.  1.
       -1   -1    0    0    0  501  0.00000000000E+00  0.00000000000E+00 -0.50953838431E+03  0.50953838433E+03  0.50400001928E-02 0. -1.
    10030    2    1    2    0    0  0.00000000000E+00  0.00000000000E+00  0.42942099964E+03  0.14484977683E+04  0.13833811441E+04 0.  0.
        3    1    3    3  502    0 -0.67788199018E+03  0.13657327634E+03  0.23158052119E+03  0.72925016313E+03  0.10100000352E+00 0. -1.
       -3    1    3    3    0  502  0.67788199018E+03 -0.13657327634E+03  0.19784047845E+03  0.71924760517E+03  0.10100000352E+00 0.  1.
</event>
<event>
 5   0  0.3932568E-04  0.1405963E+04  0.7818609E-02  0.8949513E-01
       -2   -1    0    0    0  501  0.00000000000E+00  0.00000000000E+00  0.36632632424E+03  0.36632632425E+03  0.25500000920E-02 0.  1.
        2   -1    0    0  501    0  0.00000000000E+00  0.00000000000E+00 -0.13490240367E+04  0.13490240367E+04  0.25500000920E-02 0. -1.
    10030    2    1    2    0    0  0.00000000000E+00  0.00000000000E+00 -0.98269771246E+03  0.17153503610E+04  0.14059630389E+04 0.  0.
        2    1    3    3  502    0  0.58574286333E+03 -0.29313627061E+03 -0.17991371774E+03  0.67925880261E+03  0.25500000920E-02 0. -1.
       -2    1    3    3    0  502 -0.58574286333E+03  0.29313627061E+03 -0.80278399472E+03  0.10360915583E+04  0.25500000920E-02 0.  1.
</event>
<event>
 5   0  0.3932568E-04  0.1411883E+04  0.7818609E-02  0.8945262E-01
        2   -1    0    0  501    0  0.00000000000E+00  0.00000000000E+00  0.88044720796E+03  0.88044720796E+03  0.25500000920E-02 0.  1.
       -2   -1    0    0    0  501  0.00000000000E+00  0.00000000000E+00 -0.56602279756E+03  0.56602279756E+03  0.25500000920E-02 0. -1.
    10030    2    1    2    0    0  0.00000000000E+00  0.00000000000E+00  0.31442441040E+03  0.14464700055E+04  0.14118827030E+04 0.  0.
        2    1    3    3  502    0  0.74316974243E+02 -0.23163224475E+03  0.83615072853E+03  0.87081832221E+03  0.25500000920E-02 0.  1.
       -2    1    3    3    0  502 -0.74316974243E+02  0.23163224475E+03 -0.52172631813E+03  0.57565168332E+03  0.25500000920E-02 0. -1.
</event>
<event>
 5   0  0.4208622E-04  0.1402317E+04  0.7818609E-02  0.8952143E-01
        2   -1    0    0  501    0  0.00000000000E+00  0.00000000000E+00  0.13369681118E+04  0.13369681118E+04  0.25500000920E-02 0. -1.
       -2   -1    0    0    0  501  0.00000000000E+00  0.00000000000E+00 -0.36771521383E+03  0.36771521384E+03  0.25500000920E-02 0.  1.
    10030    2    1    2    0    0  0.00000000000E+00  0.00000000000E+00  0.96925289797E+03  0.17046833257E+04  0.14023173894E+04 0.  0.
        4    1    3    3  502    0  0.34007403828E+03  0.61313550071E+03  0.49196142514E+03  0.85651220100E+03  0.12699999809E+01 0. -1.
       -4    1    3    3    0  502 -0.34007403828E+03 -0.61313550071E+03  0.47729147283E+03  0.84817112465E+03  0.12699999809E+01 0.  1.
</event>
<event>
 5   0  0.1497625E-04  0.1397630E+04  0.7818609E-02  0.8955536E-01
       -3   -1    0    0    0  501  0.00000000000E+00  0.00000000000E+00  0.71979568728E+03  0.71979569436E+03  0.10100000352E+00 0.  1.
        3   -1    0    0  501    0  0.00000000000E+00  0.00000000000E+00 -0.67844626327E+03  0.67844627079E+03  0.10100000352E+00 0. -1.
    10030    2    1    2    0    0  0.00000000000E+00  0.00000000000E+00  0.41349424002E+02  0.13982419652E+04  0.13976304298E+04 0.  0.
        1    1    3    3  502    0 -0.59197396253E+03  0.98116867546E+02  0.37899704957E+03  0.70971744773E+03  0.50400001928E-02 0.  1.
       -1    1    3    3    0  502  0.59197396253E+03 -0.98116867546E+02 -0.33764762556E+03  0.68852451742E+03  0.50400001928E-02 0. -1.
</event>
<event>
 5   0  0.2215876E-04  0.1400559E+04  0.7818609E-02  0.8953414E-01
       -1   -1    0    0    0  501  0.00000000000E+00  0.00000000000E+00  0.33748073821E+03  0.33748073825E+03  0.50400001928E-02 0.  1.
        1   -1    0    0  501    0  0.00000000000E+00  0.00000000000E+00 -0.14530944672E+04  0.14530944673E+04  0.50400001928E-02 0. -1.
    10030    2    1    2    0    0  0.00000000000E+00  0.00000000000E+00 -0.11156137290E+04  0.17905752055E+04  0.14005590220E+04 0.  0.
        3    1    3    3  502    0  0.54678270985E+03 -0.37593004166E+03 -0.84395802838E+03  0.10735734217E+04  0.10100000352E+00 0. -1.
       -3    1    3    3    0  502 -0.54678270985E+03  0.37593004166E+03 -0.27165570066E+03  0.71700178376E+03  0.10100000352E+00 0.  1.
</event>
<event>
 5   0  0.2143942E-04  0.1400096E+04  0.7818609E-02  0.8953749E-01
       -1   -1    0    0    0  501  0.00000000000E+00  0.00000000000E+00  0.35501012024E+03  0.35501012027E+03  0.50400001928E-02 0. -1.
        1   -1    0    0  501    0  0.00000000000E+00  0.00000000000E+00 -0.13804317956E+04  0.13804317956E+04  0.50400001928E-02 0.  1.
    10030    2    1    2    0    0  0.00000000000E+00  0.00000000000E+00 -0.10254216754E+04  0.17354419159E+04  0.14000960793E+04 0.  0.
        4    1    3    3  502    0 -0.23156661164E+03  0.34904735268E+03 -0.12079551838E+04  0.12785204296E+04  0.12699999809E+01 0.  1.
       -4    1    3    3    0  502  0.23156661164E+03 -0.34904735268E+03  0.18253350840E+03  0.45692148628E+03  0.12699999809E+01 0. -1.
</event>
<event>
 5   0  0.3975164E-04  0.1401961E+04  0.7818609E-02  0.8952400E-01
       -2   -1    0    0    0  501  0.00000000000E+00  0.00000000000E+00  0.10098500616E+04  0.10098500616E+04  0.25500000920E-02 0. -1.
        2   -1    0    0  501    0  0.00000000000E+00  0.00000000000E+00 -0.48658091186E+03  0.48658091186E+03  0.25500000920E-02 0.  1.
    10030    2    1    2    0    0  0.00000000000E+00  0.00000000000E+00  0.52326914976E+03  0.14964309735E+04  0.14019611461E+04 0.  0.
        5    1    3    3  502    0 -0.43201522746E+03  0.54709427817E+03  0.18318099100E+03  0.72078198606E+03  0.46999998093E+01 0. -1.
       -5    1    3    3    0  502  0.43201522746E+03 -0.54709427817E+03  0.34008815876E+03  0.77564898742E+03  0.46999998093E+01 0.  1.
</event>
<event>
 5   0  0.2217251E-04  0.1399892E+04  0.7818609E-02  0.8953897E-01
       -1   -1    0    0    0  501  0.00000000000E+00  0.00000000000E+00  0.91550061984E+03  0.91550061985E+03  0.50400001928E-02 0.  1.
        1   -1    0    0  501    0  0.00000000000E+00  0.00000000000E+00 -0.53514355546E+03  0.53514355548E+03  0.50400001928E-02 0. -1.
    10030    2    1    2    0    0  0.00000000000E+00  0.00000000000E+00  0.38035706438E+03  0.14506441753E+04  0.13998917912E+04 0.  0.
        5    1    3    3  502    0 -0.21729767198E+03  0.42010511204E+03 -0.34446812330E+03  0.58513841215E+03  0.46999998093E+01 0. -1.
       -5    1    3    3    0  502  0.21729767198E+03 -0.42010511204E+03  0.72482518768E+03  0.86550576318E+03  0.46999998093E+01 0.  1.
</event>
<event>
 5   0  0.2155352E-04  0.1385857E+04  0.7818609E-02  0.8964120E-01
       -1   -1    0    0    0  501  0.00000000000E+00  0.00000000000E+00  0.62207165688E+03  0.62207165690E+03  0.50400001928E-02 0. -1.
        1   -1    0    0  501    0  0.00000000000E+00  0.00000000000E+00 -0.77185657135E+03  0.77185657136E+03  0.50400001928E-02 0.  1.
    10030    2    1    2    0    0  0.00000000000E+00  0.00000000000E+00 -0.14978491447E+03  0.13939282283E+04  0.13858572744E+04 0.  0.
        2    1    3    3  502    0 -0.58139979330E+03 -0.30629091287E+03  0.14618352557E+03  0.67320833783E+03  0.25500000920E-02 0. -1.
       -2    1    3    3    0  502  0.58139979330E+03  0.30629091287E+03 -0.29596844004E+03  0.72071989044E+03  0.25500000920E-02 0.  1.
</event>
<event>
 5   0  0.3975164E-04  0.1402049E+04  0.7818609E-02  0.8952336E-01
       -2   -1    0    0    0  501  0.00000000000E+00  0.00000000000E+00  0.33933560220E+03  0.33933560221E+03  0.25500000920E-02 0.  1.
        2   -1    0    0  501    0  0.00000000000E+00  0.00000000000E+00 -0.14482287741E+04  0.14482287741E+04  0.25500000920E-02 0. -1.
    10030    2    1    2    0    0  0.00000000000E+00  0.00000000000E+00 -0.11088931719E+04  0.17875643763E+04  0.14020493332E+04 0.  0.
        5    1    3    3  502    0  0.39870217597E+03  0.19629743306E+02 -0.12891461434E+04  0.13495438566E+04  0.46999998093E+01 0.  1.
       -5    1    3    3    0  502 -0.39870217597E+03 -0.19629743306E+02  0.18025297148E+03  0.43802051970E+03  0.46999998093E+01 0. -1.
</event>
<event>
 5   0  0.2215876E-04  0.1396775E+04  0.7818609E-02  0.8956157E-01
       -1   -1    0    0    0  501  0.00000000000E+00  0.00000000000E+00  0.33029922264E+03  0.33029922268E+03  0.50400001928E-02 0.  1.
        1   -1    0    0  501    0  0.00000000000E+00  0.00000000000E+00 -0.14766755196E+04  0.14766755196E+04  0.50400001928E-02 0. -1.
    10030    2    1    2    0    0  0.00000000000E+00  0.00000000000E+00 -0.11463762969E+04  0.18069747422E+04  0.13967745362E+04 0.  0.
        3    1    3    3  502    0  0.41468772269E+03 -0.46911604892E+03 -0.17296505667E+03  0.64957886029E+03  0.10100000352E+00 0.  1.
       -3    1    3    3    0  502 -0.41468772269E+03  0.46911604892E+03 -0.97341124025E+03  0.11573958819E+04  0.10100000352E+00 0. -1.
</event>
<event>
 5   0  0.2215876E-04  0.1397646E+04  0.7818609E-02  0.8955525E-01
       -1   -1    0    0    0  501  0.00000000000E+00  0.00000000000E+00  0.57338757558E+03  0.57338757560E+03  0.50400001928E-02 0.  1.
        1   -1    0    0  501    0  0.00000000000E+00  0.00000000000E+00 -0.85169834165E+03  0.85169834166E+03  0.50400001928E-02 0. -1.
    10030    2    1    2    0    0  0.00000000000E+00  0.00000000000E+00 -0.27831076607E+03  0.14250859173E+04  0.13976455162E+04 0.  0.
        3    1    3    3  502    0 -0.74427524418E+02 -0.69388059563E+03 -0.17652879926E+03  0.71984176355E+03  0.10100000352E+00 0.  1.
       -3    1    3    3    0  502  0.74427524418E+02  0.69388059563E+03 -0.10178196680E+03  0.70524415371E+03  0.10100000352E+00 0. -1.
</event>
<event>
 5   0  0.2215876E-04  0.1399298E+04  0.7818609E-02  0.8954327E-01
       -1   -1    0    0    0  501  0.00000000000E+00  0.00000000000E+00  0.87146364339E+03  0.87146364340E+03  0.50400001928E-02 0. -1.
        1   -1    0    0  501    0  0.00000000000E+00  0.00000000000E+00 -0.56170897431E+03  0.56170897434E+03  0.50400001928E-02 0.  1.
    10030    2    1    2    0    0  0.00000000000E+00  0.00000000000E+00  0.30975466907E+03  0.14331726177E+04  0.13992983232E+04 0.  0.
        3    1    3    3  502    0 -0.40892381575E+03  0.30969005880E+03  0.64219195453E+03  0.82191066197E+03  0.10100000352E+00 0. -1.
       -3    1    3    3    0  502  0.40892381575E+03 -0.30969005880E+03 -0.33243728545E+03  0.61126195576E+03  0.10100000352E+00 0.  1.
</event>
<event>
 5   0  0.2155352E-04  0.1402973E+04  0.7818609E-02  0.8951669E-01
        1   -1    0    0  501    0  0.00000000000E+00  0.00000000000E+00  0.18129419523E+04  0.18129419523E+04  0.50400001928E-02 0. -1.
       -1   -1    0    0    0  501  0.00000000000E+00  0.00000000000E+00 -0.27142813726E+03  0.27142813731E+03  0.50400001928E-02 0.  1.
    10030    2    1    2    0    0  0.00000000000E+00  0.00000000000E+00  0.15415138151E+04  0.20843700896E+04  0.14029732102E+04 0.  0.
        2    1    3    3  502    0  0.24815299512E+02  0.90384674090E+02  0.18035969668E+04  0.18060307880E+04  0.25500000920E-02 0. -1.
       -2    1    3    3    0  502 -0.24815299512E+02 -0.90384674090E+02 -0.26208315176E+03  0.27833930165E+03  0.25500000920E-02 0.  1.
</event>
<event>
 5   0  0.2143942E-04  0.1399569E+04  0.7818609E-02  0.8954131E-01
        1   -1    0    0  501    0  0.00000000000E+00  0.00000000000E+00  0.25876537849E+03  0.25876537854E+03  0.50400001928E-02 0. -1.
       -1   -1    0    0    0  501  0.00000000000E+00  0.00000000000E+00 -0.18924405041E+04  0.18924405041E+04  0.50400001928E-02 0.  1.
    10030    2    1    2    0    0  0.00000000000E+00  0.00000000000E+00 -0.16336751256E+04  0.21512058827E+04  0.13995686241E+04 0.  0.
        4    1    3    3  502    0  0.31695322820E+02  0.42712542548E+03 -0.16674464252E+04  0.17215748361E+04  0.12699999809E+01 0.  1.
       -4    1    3    3    0  502 -0.31695322820E+02 -0.42712542548E+03  0.33771299563E+02  0.42963104654E+03  0.12699999809E+01 0. -1.
</event>
<event>
 5   0  0.2143942E-04  0.1397287E+04  0.7818609E-02  0.8955785E-01
       -1   -1    0    0    0  501  0.00000000000E+00  0.00000000000E+00  0.38415916309E+03  0.38415916312E+03  0.50400001928E-02 0.  1.
        1   -1    0    0  501    0  0.00000000000E+00  0.00000000000E+00 -0.12705746260E+04  0.12705746260E+04  0.50400001928E-02 0. -1.
    10030    2    1    2    0    0  0.00000000000E+00  0.00000000000E+00 -0.88641546288E+03  0.16547337891E+04  0.13972872074E+04 0.  0.
        4    1    3    3  502    0  0.36658795421E+03 -0.30129606160E+03 -0.10504567755E+04  0.11526608760E+04  0.12699999809E+01 0. -1.
       -4    1    3    3    0  502 -0.36658795421E+03  0.30129606160E+03  0.16404131265E+03  0.50207291310E+03  0.12699999809E+01 0.  1.
</event>
<event>
 5   0  0.3917598E-04  0.1493641E+04  0.7818609E-02  0.8888693E-01
        2   -1    0    0  501    0  0.00000000000E+00  0.00000000000E+00  0.48080626921E+03  0.48080626922E+03  0.25500000920E-02 0. -1.
       -2   -1    0    0    0  501  0.00000000000E+00  0.00000000000E+00 -0.11600117759E+04  0.11600117759E+04  0.25500000920E-02 0.  1.
    10030    2    1    2    0    0  0.00000000000E+00  0.00000000000E+00 -0.67920550670E+03  0.16408180451E+04  0.14936411004E+04 0.  0.
        3    1    3    3  502    0  0.16451563465E+03  0.20134146924E+03  0.42947982819E+03  0.50205250154E+03  0.10100000352E+00 0. -1.
       -3    1    3    3    0  502 -0.16451563465E+03 -0.20134146924E+03 -0.11086853349E+04  0.11387655436E+04  0.10100000352E+00 0.  1.
</event>
<event>
 5   0  0.4208622E-04  0.1408647E+04  0.7818609E-02  0.8947583E-01
        2   -1    0    0  501    0  0.00000000000E+00  0.00000000000E+00  0.81863523436E+03  0.81863523436E+03  0.25500000920E-02 0.  1.
       -2   -1    0    0    0  501  0.00000000000E+00  0.00000000000E+00 -0.60597393846E+03  0.60597393847E+03  0.25500000920E-02 0. -1.
    10030    2    1    2    0    0  0.00000000000E+00  0.00000000000E+00  0.21266129589E+03  0.14246091728E+04  0.14086470348E+04 0.  0.
        4    1    3    3  502    0 -0.58694986024E+03  0.36890291137E+03 -0.19459270380E+02  0.69352705251E+03  0.12699999809E+01 0.  1.
       -4    1    3    3    0  502  0.58694986024E+03 -0.36890291137E+03  0.23212056627E+03  0.73108212032E+03  0.12699999809E+01 0. -1.
</event>
<event>
 5   0  0.4208622E-04  0.1397237E+04  0.7818609E-02  0.8955821E-01
       -2   -1    0    0    0  501  0.00000000000E+00  0.00000000000E+00  0.20890974194E+03  0.20890974195E+03  0.25500000920E-02 0.  1.
        2   -1    0    0  501    0  0.00000000000E+00  0.00000000000E+00 -0.23362619178E+04  0.23362619178E+04  0.25500000920E-02 0. -1.
    10030    2    1    2    0    0  0.00000000000E+00  0.00000000000E+00 -0.21273521759E+04  0.25451716597E+04  0.13972370942E+04 0.  0.
        4    1    3    3  502    0  0.34501470368E+03  0.57875814158E+03 -0.13999040765E+04  0.15536180897E+04  0.12699999809E+01 0. -1.
       -4    1    3    3    0  502 -0.34501470368E+03 -0.57875814158E+03 -0.72744809932E+03  0.99155357006E+03  0.12699999809E+01 0.  1.
</event>
<event>
 5   0  0.2217251E-04  0.1414823E+04  0.7818609E-02  0.8943158E-01
       -1   -1    0    0    0  501  0.00000000000E+00  0.00000000000E+00  0.36539271661E+03  0.36539271664E+03  0.50400001928E-02 0. -1.
        1   -1    0    0  501    0  0.00000000000E+00  0.00000000000E+00 -0.13695698942E+04  0.13695698942E+04  0.50400001928E-02 0.  1.
    10030    2    1    2    0    0  0.00000000000E+00  0.00000000000E+00 -0.10041771776E+04  0.17349626108E+04  0.14148227652E+04 0.  0.
        5    1    3    3  502    0  0.87611801979E+02 -0.72960431081E+02 -0.13582096368E+04  0.13629947028E+04  0.46999998093E+01 0.  1.
       -5    1    3    3    0  502 -0.87611801979E+02  0.72960431081E+02  0.35403245928E+03  0.37196790799E+03  0.46999998093E+01 0. -1.
</event>
<event>
 5   0  0.2215876E-04  0.1332186E+04  0.7818609E-02  0.9004424E-01
       -1   -1    0    0    0  501  0.00000000000E+00  0.00000000000E+00  0.48867053351E+03  0.48867053354E+03  0.50400001928E-02 0.  1.
        1   -1    0    0  501    0  0.00000000000E+00  0.00000000000E+00 -0.90793266837E+03  0.90793266838E+03  0.50400001928E-02 0. -1.
    10030    2    1    2    0    0  0.00000000000E+00  0.00000000000E+00 -0.41926213486E+03  0.13966032019E+04  0.13321860853E+04 0.  0.
        3    1    3    3  502    0 -0.45678110848E+03 -0.25152131514E+03 -0.64412052399E+03  0.82873591250E+03  0.10100000352E+00 0. -1.
       -3    1    3    3    0  502  0.45678110848E+03  0.25152131514E+03  0.22485838913E+03  0.56786728942E+03  0.10100000352E+00 0.  1.
</event>
<event>
 5   0  0.4208622E-04  0.1401440E+04  0.7818609E-02  0.8952777E-01
        2   -1    0    0  501    0  0.00000000000E+00  0.00000000000E+00  0.63865468614E+03  0.63865468614E+03  0.25500000920E-02 0. -1.
       -2   -1    0    0    0  501  0.00000000000E+00  0.00000000000E+00 -0.76881678667E+03  0.76881678667E+03  0.25500000920E-02 0.  1.
    10030    2    1    2    0    0  0.00000000000E+00  0.00000000000E+00 -0.13016210053E+03  0.14074714728E+04  0.14014398932E+04 0.  0.
        4    1    3    3  502    0 -0.20702499733E+03 -0.51677034155E+03 -0.49246620083E+03  0.74326005360E+03  0.12699999809E+01 0.  1.
       -4    1    3    3    0  502  0.20702499733E+03  0.51677034155E+03  0.36230410030E+03  0.66421141921E+03  0.12699999809E+01 0. -1.
</event>
<event>
 5   0  0.3975164E-04  0.1401360E+04  0.7818609E-02  0.8952835E-01
       -2   -1    0    0    0  501  0.00000000000E+00  0.00000000000E+00  0.72832731323E+03  0.72832731323E+03  0.25500000920E-02 0.  1.
        2   -1    0    0  501    0  0.00000000000E+00  0.00000000000E+00 -0.67408192196E+03  0.67408192197E+03  0.25500000920E-02 0. -1.
    10030    2    1    2    0    0  0.00000000000E+00  0.00000000000E+00  0.54245391265E+02  0.14024092352E+04  0.14013597327E+04 0.  0.
        5    1    3    3  502    0  0.30228370933E+02 -0.14165257176E+03  0.71316580799E+03  0.72774086403E+03  0.46999998093E+01 0.  1.
       -5    1    3    3    0  502 -0.30228370933E+02  0.14165257176E+03 -0.65892041672E+03  0.67466837118E+03  0.46999998093E+01 0. -1.
</event>
<event>
 5   0  0.2217251E-04  0.1397742E+04  0.7818609E-02  0.8955455E-01
        1   -1    0    0  501    0  0.00000000000E+00  0.00000000000E+00  0.53253437122E+03  0.53253437125E+03  0.50400001928E-02 0. -1.
       -1   -1    0    0    0  501  0.00000000000E+00  0.00000000000E+00 -0.91716290579E+03  0.91716290580E+03  0.50400001928E-02 0.  1.
    10030    2    1    2    0    0  0.00000000000E+00  0.00000000000E+00 -0.38462853457E+03  0.14496972771E+04  0.13977421384E+04 0.  0.
        5    1    3    3  502    0  0.69564366451E+02 -0.40936809496E+03 -0.77532717193E+03  0.87953155247E+03  0.46999998093E+01 0.  1.
       -5    1    3    3    0  502 -0.69564366451E+02  0.40936809496E+03  0.39069863736E+03  0.57016572458E+03  0.46999998093E+01 0. -1.
</event>
<event>
 5   0  0.2215876E-04  0.1330338E+04  0.7818609E-02  0.9005847E-01
       -1   -1    0    0    0  501  0.00000000000E+00  0.00000000000E+00  0.35647474627E+03  0.35647474631E+03  0.50400001928E-02 0.  1.
        1   -1    0    0  501    0  0.00000000000E+00  0.00000000000E+00 -0.12411805531E+04  0.12411805531E+04  0.50400001928E-02 0. -1.
    10030    2    1    2    0    0  0.00000000000E+00  0.00000000000E+00 -0.88470580682E+03  0.15976552994E+04  0.13303375854E+04 0.  0.
        3    1    3    3  502    0  0.35087527259E+03  0.88392078444E+02 -0.11126482571E+04  0.11700054575E+04  0.10100000352E+00 0. -1.
       -3    1    3    3    0  502 -0.35087527259E+03 -0.88392078444E+02  0.22794245025E+03  0.42764984190E+03  0.10100000352E+00 0.  1.
</event>
<event>
 5   0  0.3932568E-04  0.1397317E+04  0.7818609E-02  0.8955763E-01
       -2   -1    0    0    0  501  0.00000000000E+00  0.00000000000E+00  0.48043088219E+03  0.48043088220E+03  0.25500000920E-02 0. -1.
        2   -1    0    0  501    0  0.00000000000E+00  0.00000000000E+00 -0.10160119892E+04  0.10160119892E+04  0.25500000920E-02 0.  1.
    10030    2    1    2    0    0  0.00000000000E+00  0.00000000000E+00 -0.53558110699E+03  0.14964428714E+04  0.13973167662E+04 0.  0.
        2    1    3    3  502    0  0.27974247861E+03 -0.14993999073E+03  0.39876607808E+03  0.50965894497E+03  0.25500000920E-02 0. -1.
       -2    1    3    3    0  502 -0.27974247861E+03  0.14993999073E+03 -0.93434718507E+03  0.98678392641E+03  0.25500000920E-02 0.  1.
</event>
<event>
 5   0  0.3975164E-04  0.1403758E+04  0.7818609E-02  0.8951103E-01
       -2   -1    0    0    0  501  0.00000000000E+00  0.00000000000E+00  0.81225104973E+03  0.81225104974E+03  0.25500000920E-02 0.  1.
        2   -1    0    0  501    0  0.00000000000E+00  0.00000000000E+00 -0.60650497306E+03  0.60650497306E+03  0.25500000920E-02 0. -1.
    10030    2    1    2    0    0  0.00000000000E+00  0.00000000000E+00  0.20574607668E+03  0.14187560228E+04  0.14037582428E+04 0.  0.
        5    1    3    3  502    0 -0.19065205201E+03 -0.65942859549E+03  0.25078530153E+03  0.73082804746E+03  0.46999998093E+01 0. -1.
       -5    1    3    3    0  502  0.19065205201E+03  0.65942859549E+03 -0.45039224847E+02  0.68792797534E+03  0.46999998093E+01 0.  1.
</event>
<event>
 5   0  0.4310348E-04  0.1404387E+04  0.7818609E-02  0.8950649E-01
       -2   -1    0    0    0  501  0.00000000000E+00  0.00000000000E+00  0.98803489162E+03  0.98803489162E+03  0.25500000920E-02 0. -1.
        2   -1    0    0  501    0  0.00000000000E+00  0.00000000000E+00 -0.49904658411E+03  0.49904658411E+03  0.25500000920E-02 0.  1.
    10030    2    1    2    0    0  0.00000000000E+00  0.00000000000E+00  0.48898830751E+03  0.14870814757E+04  0.14043866101E+04 0.  0.
        1    1    3    3  502    0  0.67453581904E+03  0.14601682653E+03  0.10742723561E+03  0.69846982453E+03  0.50400001928E-02 0.  1.
       -1    1    3    3    0  502 -0.67453581904E+03 -0.14601682653E+03  0.38156107190E+03  0.78861165120E+03  0.50400001928E-02 0. -1.
</event>
<event>
 5   0  0.4208622E-04  0.1395986E+04  0.7818609E-02  0.8956729E-01
       -2   -1    0    0    0  501  0.00000000000E+00  0.00000000000E+00  0.99994994342E+03  0.99994994342E+03  0.25500000920E-02 0.  1.
        2   -1    0    0  501    0  0.00000000000E+00  0.00000000000E+00 -0.48721861705E+03  0.48721861706E+03  0.25500000920E-02 0. -1.
    10030    2    1    2    0    0  0.00000000000E+00  0.00000000000E+00  0.51273132636E+03  0.14871685605E+04  0.13959860007E+04 0.  0.
        4    1    3    3  502    0 -0.39003695801E+03  0.83992050528E+02 -0.35376393504E+03  0.53322980768E+03  0.12699999809E+01 0. -1.
       -4    1    3    3    0  502  0.39003695801E+03 -0.83992050528E+02  0.86649526140E+03  0.95393875280E+03  0.12699999809E+01 0.  1.
</event>
<event>
 5   0  0.3975164E-04  0.1394132E+04  0.7818609E-02  0.8958077E-01
        2   -1    0    0  501    0  0.00000000000E+00  0.00000000000E+00  0.13777476896E+04  0.13777476896E+04  0.25500000920E-02 0.  1.
       -2   -1    0    0    0  501  0.00000000000E+00  0.00000000000E+00 -0.35267764787E+03  0.35267764788E+03  0.25500000920E-02 0. -1.
    10030    2    1    2    0    0  0.00000000000E+00  0.00000000000E+00  0.10250700417E+04  0.17304253374E+04  0.13941317219E+04 0.  0.
        5    1    3    3  502    0  0.25957181475E+03  0.24195874149E+03 -0.23215317126E+03  0.42407398473E+03  0.46999998093E+01 0. -1.
       -5    1    3    3    0  502 -0.25957181475E+03 -0.24195874149E+03  0.12572232129E+04  0.13063513527E+04  0.46999998093E+01 0.  1.
</event>
<event>
 5   0  0.3917598E-04  0.1375272E+04  0.7818609E-02  0.8971915E-01
        2   -1    0    0  501    0  0.00000000000E+00  0.00000000000E+00  0.38056250881E+03  0.38056250882E+03  0.25500000920E-02 0. -1.
       -2   -1    0    0    0  501  0.00000000000E+00  0.00000000000E+00 -0.12424851635E+04  0.12424851635E+04  0.25500000920E-02 0.  1.
    10030    2    1    2    0    0  0.00000000000E+00  0.00000000000E+00 -0.86192265465E+03  0.16230476723E+04  0.13752720036E+04 0.  0.
        3    1    3    3  502    0 -0.58182300813E+03 -0.60404235812E+02 -0.85758165776E+03  0.10380814007E+04  0.10100000352E+00 0.  1.
       -3    1    3    3    0  502  0.58182300813E+03  0.60404235812E+02 -0.43409968976E+01  0.58496627163E+03  0.10100000352E+00 0. -1.
</event>
<event>
 5   0  0.2143942E-04  0.1399226E+04  0.7818609E-02  0.8954379E-01
        1   -1    0    0  501    0  0.00000000000E+00  0.00000000000E+00  0.98075636975E+03  0.98075636977E+03  0.50400001928E-02 0. -1.
       -1   -1    0    0    0  501  0.00000000000E+00  0.00000000000E+00 -0.49906225716E+03  0.49906225719E+03  0.50400001928E-02 0.  1.
    10030    2    1    2    0    0  0.00000000000E+00  0.00000000000E+00  0.48169411260E+03  0.14798186270E+04  0.13992261971E+04 0.  0.
        4    1    3    3  502    0  0.30089134381E+03 -0.29773679354E+03  0.82995286810E+03  0.93166848995E+03  0.12699999809E+01 0. -1.
       -4    1    3    3    0  502 -0.30089134381E+03  0.29773679354E+03 -0.34825875550E+03  0.54815013700E+03  0.12699999809E+01 0.  1.
</event>
<event>
 5   0  0.3975164E-04  0.1415112E+04  0.7818609E-02  0.8942952E-01
        2   -1    0    0  501    0  0.00000000000E+00  0.00000000000E+00  0.17645578082E+04  0.17645578082E+04  0.25500000920E-02 0. -1.
       -2   -1    0    0    0  501  0.00000000000E+00  0.00000000000E+00 -0.28371739713E+03  0.28371739714E+03  0.25500000920E-02 0.  1.
    10030    2    1    2    0    0  0.00000000000E+00  0.00000000000E+00  0.14808404111E+04  0.20482752054E+04  0.14151123608E+04 0.  0.
        5    1    3    3  502    0  0.49450572977E+03 -0.34486921102E+03  0.12764441088E+04  0.14116665125E+04  0.46999998093E+01 0.  1.
       -5    1    3    3    0  502 -0.49450572977E+03  0.34486921102E+03  0.20439630226E+03  0.63660869288E+03  0.46999998093E+01 0. -1.
</event>
<event>
 5   0  0.2217251E-04  0.1382792E+04  0.7818609E-02  0.8966369E-01
       -1   -1    0    0    0  501  0.00000000000E+00  0.00000000000E+00  0.23785405036E+03  0.23785405041E+03  0.50400001928E-02 0.  1.
        1   -1    0    0  501    0  0.00000000000E+00  0.00000000000E+00 -0.20097561493E+04  0.20097561493E+04  0.50400001928E-02 0. -1.
    10030    2    1    2    0    0  0.00000000000E+00  0.00000000000E+00 -0.17719020989E+04  0.22476101997E+04  0.13827923060E+04 0.  0.
        5    1    3    3  502    0 -0.37012843075E+03  0.34945710257E+03 -0.12548782040E+03  0.52429438758E+03  0.46999998093E+01 0.  1.
       -5    1    3    3    0  502  0.37012843075E+03 -0.34945710257E+03 -0.16464142785E+04  0.17233158121E+04  0.46999998093E+01 0. -1.
</event>
<event>
 5   0  0.2217251E-04  0.1391833E+04  0.7818609E-02  0.8959751E-01
        1   -1    0    0  501    0  0.00000000000E+00  0.00000000000E+00  0.11548375471E+04  0.11548375471E+04  0.50400001928E-02 0. -1.
       -1   -1    0    0    0  501  0.00000000000E+00  0.00000000000E+00 -0.41936630877E+03  0.41936630880E+03  0.50400001928E-02 0.  1.
    10030    2    1    2    0    0  0.00000000000E+00  0.00000000000E+00  0.73547123832E+03  0.15742038559E+04  0.13918332650E+04 0.  0.
        5    1    3    3  502    0  0.26032626493E+03 -0.14541412027E+03 -0.34343152335E+03  0.45484319475E+03  0.46999998093E+01 0.  1.
       -5    1    3    3    0  502 -0.26032626493E+03  0.14541412027E+03  0.10789027617E+04  0.11193606611E+04  0.46999998093E+01 0. -1.
</event>
<event>
 5   0  0.2217251E-04  0.1402025E+04  0.7818609E-02  0.8952354E-01
       -1   -1    0    0    0  501  0.00000000000E+00  0.00000000000E+00  0.36477114063E+03  0.36477114066E+03  0.50400001928E-02 0.  1.
        1   -1    0    0  501    0  0.00000000000E+00  0.00000000000E+00 -0.13471971860E+04  0.13471971860E+04  0.50400001928E-02 0. -1.
    10030    2    1    2    0    0  0.00000000000E+00  0.00000000000E+00 -0.98242604539E+03  0.17119683267E+04  0.14020251841E+04 0.  0.
        5    1    3    3  502    0 -0.17884538354E+03  0.48548745295E+03  0.86331344774E+02  0.52455593531E+03  0.46999998093E+01 0.  1.
       -5    1    3    3    0  502  0.17884538354E+03 -0.48548745295E+03 -0.10687573902E+04  0.11874123914E+04  0.46999998093E+01 0. -1.
</event>
<event>
 5   0  0.2223112E-04  0.1403561E+04  0.7818609E-02  0.8951245E-01
        1   -1    0    0  501    0  0.00000000000E+00  0.00000000000E+00  0.53748990493E+03  0.53748990495E+03  0.50400001928E-02 0. -1.
       -1   -1    0    0    0  501  0.00000000000E+00  0.00000000000E+00 -0.91628858789E+03  0.91628858790E+03  0.50400001928E-02 0.  1.
    10030    2    1    2    0    0  0.00000000000E+00  0.00000000000E+00 -0.37879868296E+03  0.14537784929E+04  0.14035609941E+04 0.  0.
        1    1    3    3  502    0 -0.21361302436E+02 -0.57917534421E+03 -0.59927918563E+03  0.83368814729E+03  0.50400001928E-02 0.  1.
       -1    1    3    3    0  502  0.21361302436E+02  0.57917534421E+03  0.22048050267E+03  0.62009034556E+03  0.50400001928E-02 0. -1.
</event>
<event>
 5   0  0.3917598E-04  0.1407204E+04  0.7818609E-02  0.8948621E-01
       -2   -1    0    0    0  501  0.00000000000E+00  0.00000000000E+00  0.35691774199E+03  0.35691774200E+03  0.25500000920E-02 0. -1.
        2   -1    0    0  501    0  0.00000000000E+00  0.00000000000E+00 -0.13870295014E+04  0.13870295014E+04  0.25500000920E-02 0.  1.
    10030    2    1    2    0    0  0.00000000000E+00  0.00000000000E+00 -0.10301117594E+04  0.17439472434E+04  0.14072035215E+04 0.  0.
        3    1    3    3  502    0  0.31649988611E+03 -0.23471880467E+03 -0.12374628682E+04  0.12986837397E+04  0.10100000352E+00 0.  1.
       -3    1    3    3    0  502 -0.31649988611E+03  0.23471880467E+03  0.20735110888E+03  0.44526350370E+03  0.10100000352E+00 0. -1.
</event>
<event>
 5   0  0.1497625E-04  0.1401318E+04  0.7818609E-02  0.8952865E-01
        4   -1    0    0  501    0  0.00000000000E+00  0.00000000000E+00  0.77685525044E+03  0.77685628854E+03  0.12699999809E+01 0.  1.
       -4   -1    0    0    0  501  0.00000000000E+00  0.00000000000E+00 -0.63193404856E+03  0.63193532472E+03  0.12699999809E+01 0. -1.
    10030    2    1    2    0    0  0.00000000000E+00  0.00000000000E+00  0.14492120188E+03  0.14087916133E+04  0.14013178279E+04 0.  0.
        5    1    3    3  502    0  0.15711841058E+03  0.57641438831E+03 -0.29549840183E+03  0.66654417519E+03  0.46999998093E+01 0. -1.
       -5    1    3    3    0  502 -0.15711841058E+03 -0.57641438831E+03  0.44041960371E+03  0.74224743807E+03  0.46999998093E+01 0.  1.
</event>
<event>
 5   0  0.2143942E-04  0.1391988E+04  0.7818609E-02  0.8959639E-01
        1   -1    0    0  501    0  0.00000000000E+00  0.00000000000E+00  0.14111372682E+04  0.14111372683E+04  0.50400001928E-02 0. -1.
       -1   -1    0    0    0  501  0.00000000000E+00  0.00000000000E+00 -0.34327463043E+03  0.34327463046E+03  0.50400001928E-02 0.  1.
    10030    2    1    2    0    0  0.00000000000E+00  0.00000000000E+00  0.10678626378E+04  0.17544118987E+04  0.13919879659E+04 0.  0.
        4    1    3    3  502    0  0.34121872431E+03  0.27839549223E+03  0.12132100697E+04  0.12906643847E+04  0.12699999809E+01 0. -1.
       -4    1    3    3    0  502 -0.34121872431E+03 -0.27839549223E+03 -0.14534743185E+03  0.46374751401E+03  0.12699999809E+01 0.  1.
</event>
<event>
 5   0  0.3932568E-04  0.1398965E+04  0.7818609E-02  0.8954568E-01
       -2   -1    0    0    0  501  0.00000000000E+00  0.00000000000E+00  0.28342628520E+03  0.28342628521E+03  0.25500000920E-02 0.  1.
        2   -1    0    0  501    0  0.00000000000E+00  0.00000000000E+00 -0.17262898809E+04  0.17262898809E+04  0.25500000920E-02 0. -1.
    10030    2    1    2    0    0  0.00000000000E+00  0.00000000000E+00 -0.14428635957E+04  0.20097161661E+04  0.13989652292E+04 0.  0.
        2    1    3    3  502    0  0.76939687809E+02  0.18801276856E+02  0.27696365846E+03  0.28806608909E+03  0.25500000920E-02 0.  1.
       -2    1    3    3    0  502 -0.76939687809E+02 -0.18801276856E+02 -0.17198272542E+04  0.17216500770E+04  0.25500000920E-02 0. -1.
</event>
<event>
 5   0  0.3932568E-04  0.1400522E+04  0.7818609E-02  0.8953440E-01
       -2   -1    0    0    0  501  0.00000000000E+00  0.00000000000E+00  0.22572871152E+03  0.22572871154E+03  0.25500000920E-02 0.  1.
        2   -1    0    0  501    0  0.00000000000E+00  0.00000000000E+00 -0.21723678577E+04  0.21723678577E+04  0.25500000920E-02 0. -1.
    10030    2    1    2    0    0  0.00000000000E+00  0.00000000000E+00 -0.19466391462E+04  0.23980965692E+04  0.14005224703E+04 0.  0.
        2    1    3    3  502    0  0.55081229168E+03  0.39104151954E+03 -0.12893195808E+04  0.14555592163E+04  0.25500000920E-02 0.  1.
       -2    1    3    3    0  502 -0.55081229168E+03 -0.39104151954E+03 -0.65731956535E+03  0.94253735293E+03  0.25500000920E-02 0. -1.
</event>
<event>
 5   0  0.2223112E-04  0.1403607E+04  0.7818609E-02  0.8951211E-01
       -1   -1    0    0    0  501  0.00000000000E+00  0.00000000000E+00  0.36483771968E+03  0.36483771972E+03  0.50400001928E-02 0. -1.
        1   -1    0    0  501    0  0.00000000000E+00  0.00000000000E+00 -0.13499932784E+04  0.13499932784E+04  0.50400001928E-02 0.  1.
    10030    2    1    2    0    0  0.00000000000E+00  0.00000000000E+00 -0.98515555868E+03  0.17148309981E+04  0.14036074512E+04 0.  0.
        1    1    3    3  502    0  0.10390860552E+03 -0.57580045241E+02 -0.13376202031E+04  0.13428850538E+04  0.50400001928E-02 0.  1.
       -1    1    3    3    0  502 -0.10390860552E+03  0.57580045241E+02  0.35246464441E+03  0.37194594432E+03  0.50400001928E-02 0. -1.
</event>
<event>
 5   0  0.3975164E-04  0.1371101E+04  0.7818609E-02  0.8975007E-01
       -2   -1    0    0    0  501  0.00000000000E+00  0.00000000000E+00  0.18629194342E+03  0.18629194344E+03  0.25500000920E-02 0.  1.
        2   -1    0    0  501    0  0.00000000000E+00  0.00000000000E+00 -0.25228126575E+04  0.25228126575E+04  0.25500000920E-02 0. -1.
    10030    2    1    2    0    0  0.00000000000E+00  0.00000000000E+00 -0.23365207141E+04  0.27091046010E+04  0.13711012696E+04 0.  0.
        5    1    3    3  502    0 -0.51210523531E+03  0.27297708937E+03 -0.18893527946E+04  0.19764727005E+04  0.46999998093E+01 0. -1.
       -5    1    3    3    0  502  0.51210523531E+03 -0.27297708937E+03 -0.44716791951E+03  0.73263190048E+03  0.46999998093E+01 0.  1.
</event>
<event>
 5   0  0.2215876E-04  0.1398024E+04  0.7818609E-02  0.8955250E-01
        1   -1    0    0  501    0  0.00000000000E+00  0.00000000000E+00  0.40309361507E+03  0.40309361511E+03  0.50400001928E-02 0.  1.
       -1   -1    0    0    0  501  0.00000000000E+00  0.00000000000E+00 -0.12121686822E+04  0.12121686822E+04  0.50400001928E-02 0. -1.
    10030    2    1    2    0    0  0.00000000000E+00  0.00000000000E+00 -0.80907506710E+03  0.16152622973E+04  0.13980235423E+04 0.  0.
        3    1    3    3  502    0 -0.34787294892E+03  0.22784650492E+03 -0.10537061103E+04  0.11327957431E+04  0.10100000352E+00 0. -1.
       -3    1    3    3    0  502  0.34787294892E+03 -0.22784650492E+03  0.24463104325E+03  0.48246655419E+03  0.10100000352E+00 0.  1.
</event>
<event>
 5   0  0.4208622E-04  0.1398782E+04  0.7818609E-02  0.8954701E-01
       -2   -1    0    0    0  501  0.00000000000E+00  0.00000000000E+00  0.37007844595E+03  0.37007844596E+03  0.25500000920E-02 0. -1.
        2   -1    0    0  501    0  0.00000000000E+00  0.00000000000E+00 -0.13217411588E+04  0.13217411588E+04  0.25500000920E-02 0.  1.
    10030    2    1    2    0    0  0.00000000000E+00  0.00000000000E+00 -0.95166271284E+03  0.16918196048E+04  0.13987822046E+04 0.  0.
        4    1    3    3  502    0  0.48259719923E+03  0.37840043695E+03 -0.88251546645E+03  0.10746730241E+04  0.12699999809E+01 0.  1.
       -4    1    3    3    0  502 -0.48259719923E+03 -0.37840043695E+03 -0.69147246396E+02  0.61714658062E+03  0.12699999809E+01 0. -1.
</event>
<event>
 5   0  0.1497625E-04  0.1404526E+04  0.7818609E-02  0.8950549E-01
        4   -1    0    0  501    0  0.00000000000E+00  0.00000000000E+00  0.86966793195E+03  0.86966885926E+03  0.12699999809E+01 0. -1.
       -4   -1    0    0    0  501  0.00000000000E+00  0.00000000000E+00 -0.56708053322E+03  0.56708195532E+03  0.12699999809E+01 0.  1.
    10030    2    1    2    0    0  0.00000000000E+00  0.00000000000E+00  0.30258739873E+03  0.14367508146E+04  0.14045261725E+04 0.  0.
        5    1    3    3  502    0 -0.65051431298E+03 -0.16345984402E+03  0.36406435900E+03  0.76318604513E+03  0.46999998093E+01 0. -1.
       -5    1    3    3    0  502  0.65051431298E+03  0.16345984402E+03 -0.61476960264E+02  0.67356476945E+03  0.46999998093E+01 0.  1.
</event>
<event>
 5   0  0.2223112E-04  0.1393370E+04  0.7818609E-02  0.8958631E-01
        1   -1    0    0  501    0  0.00000000000E+00  0.00000000000E+00  0.20752259647E+04  0.20752259647E+04  0.50400001928E-02 0.  1.
       -1   -1    0    0    0  501  0.00000000000E+00  0.00000000000E+00 -0.23388791620E+03  0.23388791626E+03  0.50400001928E-02 0. -1.
    10030    2    1    2    0    0  0.00000000000E+00  0.00000000000E+00  0.18413380485E+04  0.23091138810E+04  0.13933704125E+04 0.  0.
        1    1    3    3  502    0  0.33117658699E+03  0.64985142005E+02 -0.89374799781E+02  0.34912584452E+03  0.50400001928E-02 0. -1.
       -1    1    3    3    0  502 -0.33117658699E+03 -0.64985142005E+02  0.19307128483E+04  0.19599880364E+04  0.50400001928E-02 0.  1.
</event>
<event>
 5   0  0.2223112E-04  0.1435034E+04  0.7818609E-02  0.8928842E-01
       -1   -1    0    0    0  501  0.00000000000E+00  0.00000000000E+00  0.12917431833E+04  0.12917431833E+04  0.50400001928E-02 0. -1.
        1   -1    0    0  501    0  0.00000000000E+00  0.00000000000E+00 -0.39855502772E+03  0.39855502775E+03  0.50400001928E-02 0.  1.
    10030    2    1    2    0    0  0.00000000000E+00  0.00000000000E+00  0.89318815555E+03  0.16902982110E+04  0.14350341323E+04 0.  0.
        1    1    3    3  502    0 -0.40773926669E+03  0.30656917199E+03 -0.14773344538E+03  0.53109428327E+03  0.50400001928E-02 0.  1.
       -1    1    3    3    0  502  0.40773926669E+03 -0.30656917199E+03  0.10409216009E+04  0.11592039278E+04  0.50400001928E-02 0. -1.
</event>
<event>
 5   0  0.2215876E-04  0.1393991E+04  0.7818609E-02  0.8958180E-01
       -1   -1    0    0    0  501  0.00000000000E+00  0.00000000000E+00  0.48305792314E+03  0.48305792317E+03  0.50400001928E-02 0.  1.
        1   -1    0    0  501    0  0.00000000000E+00  0.00000000000E+00 -0.10056814717E+04  0.10056814717E+04  0.50400001928E-02 0. -1.
    10030    2    1    2    0    0  0.00000000000E+00  0.00000000000E+00 -0.52262354856E+03  0.14887393949E+04  0.13939905352E+04 0.  0.
        3    1    3    3  502    0  0.64661551916E+03  0.20168269149E+03 -0.43684534117E+03  0.80599094286E+03  0.10100000352E+00 0. -1.
       -3    1    3    3    0  502 -0.64661551916E+03 -0.20168269149E+03 -0.85778207392E+02  0.68274845202E+03  0.10100000352E+00 0.  1.
</event>
<event>
 5   0  0.4208622E-04  0.1401093E+04  0.7818609E-02  0.8953027E-01
       -2   -1    0    0    0  501  0.00000000000E+00  0.00000000000E+00  0.98405496546E+03  0.98405496547E+03  0.25500000920E-02 0. -1.
        2   -1    0    0  501    0  0.00000000000E+00  0.00000000000E+00 -0.49871779927E+03  0.49871779928E+03  0.25500000920E-02 0.  1.
    10030    2    1    2    0    0  0.00000000000E+00  0.00000000000E+00  0.48533716619E+03  0.14827727647E+04  0.14010934683E+04 0.  0.
        4    1    3    3  502    0  0.49642828827E+03  0.46594281204E+03  0.68064474405E+02  0.68423543832E+03  0.12699999809E+01 0.  1.
       -4    1    3    3    0  502 -0.49642828827E+03 -0.46594281204E+03  0.41727269178E+03  0.79853732642E+03  0.12699999809E+01 0. -1.
</event>
<event>
 5   0  0.4310348E-04  0.1397826E+04  0.7818609E-02  0.8955394E-01
       -2   -1    0    0    0  501  0.00000000000E+00  0.00000000000E+00  0.31307076216E+03  0.31307076217E+03  0.25500000920E-02 0.  1.
        2   -1    0    0  501    0  0.00000000000E+00  0.00000000000E+00 -0.15602836358E+04  0.15602836358E+04  0.25500000920E-02 0. -1.
    10030    2    1    2    0    0  0.00000000000E+00  0.00000000000E+00 -0.12472128736E+04  0.18733543980E+04  0.13978257217E+04 0.  0.
        1    1    3    3  502    0 -0.17915734772E+03 -0.20159640880E+02 -0.15285836266E+04  0.15391788947E+04  0.50400001928E-02 0. -1.
       -1    1    3    3    0  502  0.17915734772E+03  0.20159640880E+02  0.28137075294E+03  0.33417550328E+03  0.50400001928E-02 0.  1.
</event>
<event>
 5   0  0.1497625E-04  0.1403738E+04  0.7818609E-02  0.8951117E-01
        4   -1    0    0  501    0  0.00000000000E+00  0.00000000000E+00  0.10834686045E+04  0.10834693488E+04  0.12699999809E+01 0. -1.
       -4   -1    0    0    0  501  0.00000000000E+00  0.00000000000E+00 -0.45466752706E+03  0.45466930077E+03  0.12699999809E+01 0.  1.
    10030    2    1    2    0    0  0.00000000000E+00  0.00000000000E+00  0.62880107740E+03  0.15381386496E+04  0.14037377641E+04 0.  0.
        5    1    3    3  502    0  0.52493533268E+03 -0.21096703918E+03 -0.14074091980E+03  0.58300453825E+03  0.46999998093E+01 0.  1.
       -5    1    3    3    0  502 -0.52493533268E+03  0.21096703918E+03  0.76954199720E+03  0.95513411130E+03  0.46999998093E+01 0. -1.
</event>
<event>
 5   0  0.2155352E-04  0.1401574E+04  0.7818609E-02  0.8952680E-01
       -1   -1    0    0    0  501  0.00000000000E+00  0.00000000000E+00  0.57512825247E+03  0.57512825249E+03  0.50400001928E-02 0. -1.
        1   -1    0    0  501    0  0.00000000000E+00  0.00000000000E+00 -0.85390076746E+03  0.85390076747E+03  0.50400001928E-02 0.  1.
    10030    2    1    2    0    0  0.00000000000E+00  0.00000000000E+00 -0.27877251499E+03  0.14290290200E+04  0.14015740526E+04 0.  0.
        2    1    3    3  502    0 -0.57125179661E+03  0.37274823494E+03 -0.30325986418E+03  0.74648269036E+03  0.25500000920E-02 0.  1.
       -2    1    3    3    0  502  0.57125179661E+03 -0.37274823494E+03  0.24487349197E+02  0.68254632960E+03  0.25500000920E-02 0. -1.
</event>
<event>
 5   0  0.1497625E-04  0.1390818E+04  0.7818609E-02  0.8960492E-01
        3   -1    0    0  501    0  0.00000000000E+00  0.00000000000E+00  0.76041032802E+03  0.76041033473E+03  0.10100000352E+00 0. -1.
       -3   -1    0    0    0  501  0.00000000000E+00  0.00000000000E+00 -0.63596432373E+03  0.63596433175E+03  0.10100000352E+00 0.  1.
    10030    2    1    2    0    0  0.00000000000E+00  0.00000000000E+00  0.12444600429E+03  0.13963746665E+04  0.13908182488E+04 0.  0.
        2    1    3    3  502    0 -0.16550581058E+03  0.38507487399E+03  0.61934439793E+03  0.74783842852E+03  0.25500000920E-02 0. -1.
       -2    1    3    3    0  502  0.16550581058E+03 -0.38507487399E+03 -0.49489839364E+03  0.64853623796E+03  0.25500000920E-02 0.  1.
</event>
<event>
 5   0  0.4208622E-04  0.1411695E+04  0.7818609E-02  0.8945396E-01
       -2   -1    0    0    0  501  0.00000000000E+00  0.00000000000E+00  0.25466736693E+03  0.25466736694E+03  0.25500000920E-02 0.  1.
        2   -1    0    0  501    0  0.00000000000E+00  0.00000000000E+00 -0.19563588175E+04  0.19563588175E+04  0.25500000920E-02 0. -1.
    10030    2    1    2    0    0  0.00000000000E+00  0.00000000000E+00 -0.17016914505E+04  0.22110261844E+04  0.14116950787E+04 0.  0.
        4    1    3    3  502    0  0.64207313753E+02  0.27519949021E+03 -0.18638913265E+04  0.18851922524E+04  0.12699999809E+01 0. -1.
       -4    1    3    3    0  502 -0.64207313753E+02 -0.27519949021E+03  0.16219987601E+03  0.32583393198E+03  0.12699999809E+01 0.  1.
</event>
<event>
 5   0  0.2215876E-04  0.1409246E+04  0.7818609E-02  0.8947153E-01
       -1   -1    0    0    0  501  0.00000000000E+00  0.00000000000E+00  0.53133803744E+03  0.53133803746E+03  0.50400001928E-02 0. -1.
        1   -1    0    0  501    0  0.00000000000E+00  0.00000000000E+00 -0.93442176343E+03  0.93442176344E+03  0.50400001928E-02 0.  1.
    10030    2    1    2    0    0  0.00000000000E+00  0.00000000000E+00 -0.40308372599E+03  0.14657598009E+04  0.14092463602E+04 0.  0.
        3    1    3    3  502    0  0.64208783936E+03  0.17834925638E+03  0.36567799474E+02  0.66739977889E+03  0.10100000352E+00 0. -1.
       -3    1    3    3    0  502 -0.64208783936E+03 -0.17834925638E+03 -0.43965152546E+03  0.79836002201E+03  0.10100000352E+00 0.  1.
</event>
<event>
 5   0  0.4208622E-04  0.1407411E+04  0.7818609E-02  0.8948472E-01
        2   -1    0    0  501    0  0.00000000000E+00  0.00000000000E+00  0.75169987439E+03  0.75169987440E+03  0.25500000920E-02 0.  1.
       -2   -1    0    0    0  501  0.00000000000E+00  0.00000000000E+00 -0.65877513337E+03  0.65877513338E+03  0.25500000920E-02 0. -1.
    10030    2    1    2    0    0  0.00000000000E+00  0.00000000000E+00  0.92924741022E+02  0.14104750078E+04  0.14074106508E+04 0.  0.
        4    1    3    3  502    0 -0.57866262585E+02 -0.56556495073E+03 -0.36915416690E+03  0.67785590628E+03  0.12699999809E+01 0. -1.
       -4    1    3    3    0  502  0.57866262585E+02  0.56556495073E+03  0.46207890792E+03  0.73261910150E+03  0.12699999809E+01 0.  1.
</event>
<event>
 5   0  0.2215876E-04  0.1399158E+04  0.7818609E-02  0.8954429E-01
       -1   -1    0    0    0  501  0.00000000000E+00  0.00000000000E+00  0.41465939813E+03  0.41465939816E+03  0.50400001928E-02 0.  1.
        1   -1    0    0  501    0  0.00000000000E+00  0.00000000000E+00 -0.11802711011E+04  0.11802711011E+04  0.50400001928E-02 0. -1.
    10030    2    1    2    0    0  0.00000000000E+00  0.00000000000E+00 -0.76561170296E+03  0.15949304993E+04  0.13991576101E+04 0.  0.
        3    1    3    3  502    0  0.14718193755E+03  0.63932485805E+03 -0.10589232056E+03  0.66453893085E+03  0.10100000352E+00 0. -1.
       -3    1    3    3    0  502 -0.14718193755E+03 -0.63932485805E+03 -0.65971938240E+03  0.93039156841E+03  0.10100000352E+00 0.  1.
</event>
<event>
 5   0  0.2215876E-04  0.1395671E+04  0.7818609E-02  0.8956958E-01
       -1   -1    0    0    0  501  0.00000000000E+00  0.00000000000E+00  0.39089796986E+03  0.39089796990E+03  0.50400001928E-02 0. -1.
        1   -1    0    0  501    0  0.00000000000E+00  0.00000000000E+00 -0.12457840675E+04  0.12457840675E+04  0.50400001928E-02 0.  1.
    10030    2    1    2    0    0  0.00000000000E+00  0.00000000000E+00 -0.85488609766E+03  0.16366820374E+04  0.13956711116E+04 0.  0.
        3    1    3    3  502    0  0.28099580061E+03 -0.40778918918E+03 -0.10039982897E+04  0.11194924022E+04  0.10100000352E+00 0.  1.
       -3    1    3    3    0  502 -0.28099580061E+03  0.40778918918E+03  0.14911219200E+03  0.51718963522E+03  0.10100000352E+00 0. -1.
</event>
<event>
 5   0  0.4310348E-04  0.1416914E+04  0.7818609E-02  0.8941665E-01
       -2   -1    0    0    0  501  0.00000000000E+00  0.00000000000E+00  0.59193149265E+03  0.59193149266E+03  0.25500000920E-02 0.  1.
        2   -1    0    0  501    0  0.00000000000E+00  0.00000000000E+00 -0.84792176033E+03  0.84792176033E+03  0.25500000920E-02 0. -1.
    10030    2    1    2    0    0  0.00000000000E+00  0.00000000000E+00 -0.25599026768E+03  0.14398532530E+04  0.14169143845E+04 0.  0.
        1    1    3    3  502    0 -0.34427119232E+03 -0.36066176714E+03 -0.63944436431E+03  0.81085674395E+03  0.50400001928E-02 0. -1.
       -1    1    3    3    0  502  0.34427119232E+03  0.36066176714E+03  0.38345409663E+03  0.62899650904E+03  0.50400001928E-02 0.  1.
</event>
<event>
 5   0  0.4310348E-04  0.1339697E+04  0.7818609E-02  0.8998664E-01
        2   -1    0    0  501    0  0.00000000000E+00  0.00000000000E+00  0.74948586501E+03  0.74948586502E+03  0.25500000920E-02 0.  1.
       -2   -1    0    0    0  501  0.00000000000E+00  0.00000000000E+00 -0.59867341804E+03  0.59867341804E+03  0.25500000920E-02 0. -1.
    10030    2    1    2    0    0  0.00000000000E+00  0.00000000000E+00  0.15081244698E+03  0.13481592831E+04  0.13396973757E+04 0.  0.
        1    1    3    3  502    0 -0.18026140716E+03 -0.39743261186E+03  0.58679949376E+03  0.73128688063E+03  0.50400001928E-02 0.  1.
       -1    1    3    3    0  502  0.18026140716E+03  0.39743261186E+03 -0.43598704679E+03  0.61687240243E+03  0.50400001928E-02 0. -1.
</event>
<event>
 5   0  0.3932568E-04  0.1378689E+04  0.7818609E-02  0.8969391E-01
       -2   -1    0    0    0  501  0.00000000000E+00  0.00000000000E+00  0.42969098271E+03  0.42969098272E+03  0.25500000920E-02 0.  1.
        2   -1    0    0  501    0  0.00000000000E+00  0.00000000000E+00 -0.11059008965E+04  0.11059008965E+04  0.25500000920E-02 0. -1.
    10030    2    1    2    0    0  0.00000000000E+00  0.00000000000E+00 -0.67620991379E+03  0.15355918792E+04  0.13786887147E+04 0.  0.
        2    1    3    3  502    0  0.41802266091E+03  0.54118219422E+03 -0.43504148235E+03  0.81048269799E+03  0.25500000920E-02 0. -1.
       -2    1    3    3    0  502 -0.41802266091E+03 -0.54118219422E+03 -0.24116843144E+03  0.72510918123E+03  0.25500000920E-02 0.  1.
</event>
<event>
 5   0  0.4208622E-04  0.1399695E+04  0.7818609E-02  0.8954039E-01
       -2   -1    0    0    0  501  0.00000000000E+00  0.00000000000E+00  0.14836348219E+04  0.14836348219E+04  0.25500000920E-02 0.  1.
        2   -1    0    0  501    0  0.00000000000E+00  0.00000000000E+00 -0.33012600437E+03  0.33012600438E+03  0.25500000920E-02 0. -1.
    10030    2    1    2    0    0  0.00000000000E+00  0.00000000000E+00  0.11535088175E+04  0.18137608263E+04  0.13996948749E+04 0.  0.
        4    1    3    3  502    0 -0.31016301114E+03  0.56704129320E+03  0.92457662039E+03  0.11280870807E+04  0.12699999809E+01 0.  1.
       -4    1    3    3    0  502  0.31016301114E+03 -0.56704129320E+03  0.22893219716E+03  0.68567374565E+03  0.12699999809E+01 0. -1.
</event>
<event>
 5   0  0.2223112E-04  0.1397131E+04  0.7818609E-02  0.8955898E-01
       -1   -1    0    0    0  501  0.00000000000E+00  0.00000000000E+00  0.46225564234E+03  0.46225564237E+03  0.50400001928E-02 0. -1.
        1   -1    0    0  501    0  0.00000000000E+00  0.00000000000E+00 -0.10556787159E+04  0.10556787159E+04  0.50400001928E-02 0.  1.
    10030    2    1    2    0    0  0.00000000000E+00  0.00000000000E+00 -0.59342307357E+03  0.15179343583E+04  0.13971305493E+04 0.  0.
        1    1    3    3  502    0  0.67612832932E+03 -0.17302821473E+03 -0.26402422599E+03  0.74618836277E+03  0.50400001928E-02 0.  1.
       -1    1    3    3    0  502 -0.67612832932E+03  0.17302821473E+03 -0.32939884758E+03  0.77174599552E+03  0.50400001928E-02 0. -1.
</event>
<event>
 5   0  0.2215876E-04  0.1391266E+04  0.7818609E-02  0.8960165E-01
        1   -1    0    0  501    0  0.00000000000E+00  0.00000000000E+00  0.63628810092E+03  0.63628810094E+03  0.50400001928E-02 0.  1.
       -1   -1    0    0    0  501  0.00000000000E+00  0.00000000000E+00 -0.76051267231E+03  0.76051267232E+03  0.50400001928E-02 0. -1.
    10030    2    1    2    0    0  0.00000000000E+00  0.00000000000E+00 -0.12422457139E+03  0.13968007733E+04  0.13912658467E+04 0.  0.
        3    1    3    3  502    0 -0.56801583244E+03  0.34873825407E+03 -0.26201442770E+03  0.71617869717E+03  0.10100000352E+00 0. -1.
       -3    1    3    3    0  502  0.56801583244E+03 -0.34873825407E+03  0.13778985632E+03  0.68062207609E+03  0.10100000352E+00 0.  1.
</event>
<event>
 5   0  0.3932568E-04  0.1400796E+04  0.7818609E-02  0.8953243E-01
        2   -1    0    0  501    0  0.00000000000E+00  0.00000000000E+00  0.27987656718E+03  0.27987656719E+03  0.25500000920E-02 0. -1.
       -2   -1    0    0    0  501  0.00000000000E+00  0.00000000000E+00 -0.17527623028E+04  0.17527623028E+04  0.25500000920E-02 0.  1.
    10030    2    1    2    0    0  0.00000000000E+00  0.00000000000E+00 -0.14728857357E+04  0.20326388700E+04  0.14007956259E+04 0.  0.
        2    1    3    3  502    0 -0.43845655045E+02 -0.52607649309E+03 -0.14043691988E+04  0.15003105561E+04  0.25500000920E-02 0.  1.
       -2    1    3    3    0  502  0.43845655045E+02  0.52607649309E+03 -0.68516536863E+02  0.53232831399E+03  0.25500000920E-02 0. -1.
</event>
<event>
 5   0  0.2155352E-04  0.1389242E+04  0.7818609E-02  0.8961643E-01
        1   -1    0    0  501    0  0.00000000000E+00  0.00000000000E+00  0.44461220903E+03  0.44461220906E+03  0.50400001928E-02 0. -1.
       -1   -1    0    0    0  501  0.00000000000E+00  0.00000000000E+00 -0.10852119932E+04  0.10852119932E+04  0.50400001928E-02 0.  1.
    10030    2    1    2    0    0  0.00000000000E+00  0.00000000000E+00 -0.64059978421E+03  0.15298242023E+04  0.13892422418E+04 0.  0.
        2    1    3    3  502    0  0.69203356070E+03  0.59009464656E+02 -0.33163392307E+03  0.76965812215E+03  0.25500000920E-02 0. -1.
       -2    1    3    3    0  502 -0.69203356070E+03 -0.59009464656E+02 -0.30896586114E+03  0.76016608015E+03  0.25500000920E-02 0.  1.
</event>
<event>
 5   0  0.2143942E-04  0.1406013E+04  0.7818609E-02  0.8949477E-01
       -1   -1    0    0    0  501  0.00000000000E+00  0.00000000000E+00  0.58194390511E+03  0.58194390514E+03  0.50400001928E-02 0. -1.
        1   -1    0    0  501    0  0.00000000000E+00  0.00000000000E+00 -0.84925414082E+03  0.84925414083E+03  0.50400001928E-02 0.  1.
    10030    2    1    2    0    0  0.00000000000E+00  0.00000000000E+00 -0.26731023570E+03  0.14311980460E+04  0.14060131879E+04 0.  0.
        4    1    3    3  502    0  0.58974702051E+03 -0.20042778204E+03  0.19813402257E+03  0.65362951878E+03  0.12699999809E+01 0.  1.
       -4    1    3    3    0  502 -0.58974702051E+03  0.20042778204E+03 -0.46544425828E+03  0.77756852719E+03  0.12699999809E+01 0. -1.
</event>
<event>
 5   0  0.2143942E-04  0.1407080E+04  0.7818609E-02  0.8948710E-01
       -1   -1    0    0    0  501  0.00000000000E+00  0.00000000000E+00  0.47866241259E+03  0.47866241262E+03  0.50400001928E-02 0. -1.
        1   -1    0    0  501    0  0.00000000000E+00  0.00000000000E+00 -0.10340661204E+04  0.10340661204E+04  0.50400001928E-02 0.  1.
    10030    2    1    2    0    0  0.00000000000E+00  0.00000000000E+00 -0.55540370779E+03  0.15127285330E+04  0.14070800745E+04 0.  0.
        4    1    3    3  502    0 -0.20302873937E+03  0.43690360031E+03  0.27349371115E+03  0.55399083739E+03  0.12699999809E+01 0. -1.
       -4    1    3    3    0  502  0.20302873937E+03 -0.43690360031E+03 -0.82889741894E+03  0.95873769562E+03  0.12699999809E+01 0.  1.
</event>
<event>
 5   0  0.3932568E-04  0.1400121E+04  0.7818609E-02  0.8953731E-01
       -2   -1    0    0    0  501  0.00000000000E+00  0.00000000000E+00  0.42491977350E+03  0.42491977351E+03  0.25500000920E-02 0.  1.
        2   -1    0    0  501    0  0.00000000000E+00  0.00000000000E+00 -0.11533584521E+04  0.11533584521E+04  0.25500000920E-02 0. -1.
    10030    2    1    2    0    0  0.00000000000E+00  0.00000000000E+00 -0.72843867856E+03  0.15782782256E+04  0.14001211551E+04 0.  0.
        2    1    3    3  502    0  0.32162052135E+02 -0.40602915091E+03 -0.10060467376E+04  0.10853681897E+04  0.25500000920E-02 0. -1.
       -2    1    3    3    0  502 -0.32162052135E+02  0.40602915091E+03  0.27760805905E+03  0.49291003585E+03  0.25500000920E-02 0.  1.
</event>
<event>
 5   0  0.2223112E-04  0.1398317E+04  0.7818609E-02  0.8955038E-01
       -1   -1    0    0    0  501  0.00000000000E+00  0.00000000000E+00  0.42723496551E+03  0.42723496554E+03  0.50400001928E-02 0. -1.
        1   -1    0    0  501    0  0.00000000000E+00  0.00000000000E+00 -0.11441542808E+04  0.11441542808E+04  0.50400001928E-02 0.  1.
    10030    2    1    2    0    0  0.00000000000E+00  0.00000000000E+00 -0.71691931530E+03  0.15713892464E+04  0.13983171525E+04 0.  0.
        1    1    3    3  502    0 -0.94179743553E+02 -0.44513290938E+03 -0.95502218629E+03  0.10578660158E+04  0.50400001928E-02 0.  1.
       -1    1    3    3    0  502  0.94179743553E+02  0.44513290938E+03  0.23810287099E+03  0.51352323054E+03  0.50400001928E-02 0. -1.
</event>
<event>
 5   0  0.3932568E-04  0.1392060E+04  0.7818609E-02  0.8959586E-01
       -2   -1    0    0    0  501  0.00000000000E+00  0.00000000000E+00  0.25936040506E+03  0.25936040507E+03  0.25500000920E-02 0.  1.
        2   -1    0    0  501    0  0.00000000000E+00  0.00000000000E+00 -0.18678941971E+04  0.18678941971E+04  0.25500000920E-02 0. -1.
    10030    2    1    2    0    0  0.00000000000E+00  0.00000000000E+00 -0.16085337920E+04  0.21272546021E+04  0.13920600498E+04 0.  0.
        2    1    3    3  502    0  0.37892594589E+03  0.51613376692E+02 -0.16929646258E+04  0.17356203610E+04  0.25500000920E-02 0. -1.
       -2    1    3    3    0  502 -0.37892594589E+03 -0.51613376692E+02  0.84430833847E+02  0.39163424114E+03  0.25500000920E-02 0.  1.
</event>
<event>
 5   0  0.3932568E-04  0.1409800E+04  0.7818609E-02  0.8946755E-01
        2   -1    0    0  501    0  0.00000000000E+00  0.00000000000E+00  0.13514107846E+04  0.13514107846E+04  0.25500000920E-02 0. -1.
       -2   -1    0    0    0  501  0.00000000000E+00  0.00000000000E+00 -0.36767799136E+03  0.36767799137E+03  0.25500000920E-02 0.  1.
    10030    2    1    2    0    0  0.00000000000E+00  0.00000000000E+00  0.98373279321E+03  0.17190887759E+04  0.14097999898E+04 0.  0.
        2    1    3    3  502    0  0.61766625393E+03  0.99716263113E+02  0.88779874533E+03  0.10861130450E+04  0.25500000920E-02 0. -1.
       -2    1    3    3    0  502 -0.61766625393E+03 -0.99716263113E+02  0.95934047880E+02  0.63297573091E+03  0.25500000920E-02 0.  1.
</event>
<event>
 5   0  0.3932568E-04  0.1419321E+04  0.7818609E-02  0.8939951E-01
       -2   -1    0    0    0  501  0.00000000000E+00  0.00000000000E+00  0.83036976148E+03  0.83036976149E+03  0.25500000920E-02 0.  1.
        2   -1    0    0  501    0  0.00000000000E+00  0.00000000000E+00 -0.60649814149E+03  0.60649814150E+03  0.25500000920E-02 0. -1.
    10030    2    1    2    0    0  0.00000000000E+00  0.00000000000E+00  0.22387161999E+03  0.14368679030E+04  0.14193205658E+04 0.  0.
        2    1    3    3  502    0 -0.23724222768E+03  0.38347444768E+03 -0.44281815167E+03  0.63200034974E+03  0.25500000920E-02 0. -1.
       -2    1    3    3    0  502  0.23724222768E+03 -0.38347444768E+03  0.66668977166E+03  0.80486755324E+03  0.25500000920E-02 0.  1.
</event>
<event>
 5   0  0.4310348E-04  0.1412036E+04  0.7818609E-02  0.8945152E-01
        2   -1    0    0  501    0  0.00000000000E+00  0.00000000000E+00  0.15698801815E+04  0.15698801815E+04  0.25500000920E-02 0.  1.
       -2   -1    0    0    0  501  0.00000000000E+00  0.00000000000E+00 -0.31751539055E+03  0.31751539056E+03  0.25500000920E-02 0. -1.
    10030    2    1    2    0    0  0.00000000000E+00  0.00000000000E+00  0.12523647909E+04  0.18873955720E+04  0.14120355788E+04 0.  0.
        1    1    3    3  502    0 -0.62772198726E+03  0.10500982728E+03  0.10346793109E+04  0.12147523342E+04  0.50400001928E-02 0. -1.
       -1    1    3    3    0  502  0.62772198726E+03 -0.10500982728E+03  0.21768548002E+03  0.67264323779E+03  0.50400001928E-02 0.  1.
</event>
<event>
 5   0  0.2155352E-04  0.1402365E+04  0.7818609E-02  0.8952108E-01
        1   -1    0    0  501    0  0.00000000000E+00  0.00000000000E+00  0.78744013435E+03  0.78744013437E+03  0.50400001928E-02 0. -1.
       -1   -1    0    0    0  501  0.00000000000E+00  0.00000000000E+00 -0.62437412288E+03  0.62437412290E+03  0.50400001928E-02 0.  1.
    10030    2    1    2    0    0  0.00000000000E+00  0.00000000000E+00  0.16306601147E+03  0.14118142573E+04  0.14023654919E+04 0.  0.
        2    1    3    3  502    0 -0.37535785398E+03 -0.15755008090E+03 -0.49322669209E+03  0.63952178722E+03  0.25500000920E-02 0.  1.
       -2    1    3    3    0  502  0.37535785398E+03  0.15755008090E+03  0.65629270356E+03  0.77229247005E+03  0.25500000920E-02 0. -1.
</event>
<event>
 5   0  0.4208622E-04  0.1385939E+04  0.7818609E-02  0.8964060E-01
        2   -1    0    0  501    0  0.00000000000E+00  0.00000000000E+00  0.12160834200E+04  0.12160834200E+04  0.25500000920E-02 0. -1.
       -2   -1    0    0    0  501  0.00000000000E+00  0.00000000000E+00 -0.39487951006E+03  0.39487951007E+03  0.25500000920E-02 0.  1.
    10030    2    1    2    0    0  0.00000000000E+00  0.00000000000E+00  0.82120390993E+03  0.16109629301E+04  0.13859385630E+04 0.  0.
        4    1    3    3  502    0 -0.78601112006E+01 -0.25873893116E+03  0.11577733744E+04  0.11863593112E+04  0.12699999809E+01 0. -1.
       -4    1    3    3    0  502  0.78601112006E+01  0.25873893116E+03 -0.33656946448E+03  0.42460361888E+03  0.12699999809E+01 0.  1.
</event>
<event>
 5   0  0.3975164E-04  0.1404894E+04  0.7818609E-02  0.8950283E-01
       -2   -1    0    0    0  501  0.00000000000E+00  0.00000000000E+00  0.33718609054E+03  0.33718609055E+03  0.25500000920E-02 0.  1.
        2   -1    0    0  501    0  0.00000000000E+00  0.00000000000E+00 -0.14633815873E+04  0.14633815873E+04  0.25500000920E-02 0. -1.
    10030    2    1    2    0    0  0.00000000000E+00  0.00000000000E+00 -0.11261954968E+04  0.18005676779E+04  0.14048941831E+04 0.  0.
        5    1    3    3  502    0 -0.15339068767E+03 -0.60099056387E+03 -0.98563359370E+03  0.11645660273E+04  0.46999998093E+01 0. -1.
       -5    1    3    3    0  502  0.15339068767E+03  0.60099056387E+03 -0.14056190308E+03  0.63600165056E+03  0.46999998093E+01 0.  1.
</event>
<event>
 5   0  0.2215876E-04  0.1399168E+04  0.7818609E-02  0.8954421E-01
        1   -1    0    0  501    0  0.00000000000E+00  0.00000000000E+00  0.45188740490E+03  0.45188740493E+03  0.50400001928E-02 0. -1.
       -1   -1    0    0    0  501  0.00000000000E+00  0.00000000000E+00 -0.10830529101E+04  0.10830529101E+04  0.50400001928E-02 0.  1.
    10030    2    1    2    0    0  0.00000000000E+00  0.00000000000E+00 -0.63116550518E+03  0.15349403150E+04  0.13991682800E+04 0.  0.
        3    1    3    3  502    0 -0.58408098657E+03  0.19205858110E+03  0.50540092061E+02  0.61692090948E+03  0.10100000352E+00 0. -1.
       -3    1    3    3    0  502  0.58408098657E+03 -0.19205858110E+03 -0.68170559724E+03  0.91801940555E+03  0.10100000352E+00 0.  1.
</event>
<event>
 5   0  0.3975164E-04  0.1400041E+04  0.7818609E-02  0.8953789E-01
       -2   -1    0    0    0  501  0.00000000000E+00  0.00000000000E+00  0.87017732778E+03  0.87017732779E+03  0.25500000920E-02 0. -1.
        2   -1    0    0  501    0  0.00000000000E+00  0.00000000000E+00 -0.56313678113E+03  0.56313678114E+03  0.25500000920E-02 0.  1.
    10030    2    1    2    0    0  0.00000000000E+00  0.00000000000E+00  0.30704054665E+03  0.14333141089E+04  0.14000412271E+04 0.  0.
        5    1    3    3  502    0  0.23609114792E+03  0.37113777091E+03  0.71100225901E+03  0.83607928896E+03  0.46999998093E+01 0. -1.
       -5    1    3    3    0  502 -0.23609114792E+03 -0.37113777091E+03 -0.40396171236E+03  0.59723481996E+03  0.46999998093E+01 0.  1.
</event>
<event>
 5   0  0.2217251E-04  0.1399981E+04  0.7818609E-02  0.8953832E-01
        1   -1    0    0  501    0  0.00000000000E+00  0.00000000000E+00  0.16072884078E+04  0.16072884078E+04  0.50400001928E-02 0.  1.
       -1   -1    0    0    0  501  0.00000000000E+00  0.00000000000E+00 -0.30485314463E+03  0.30485314467E+03  0.50400001928E-02 0. -1.
    10030    2    1    2    0    0  0.00000000000E+00  0.00000000000E+00  0.13024352631E+04  0.19121415524E+04  0.13999813220E+04 0.  0.
        5    1    3    3  502    0  0.28179383070E+03 -0.45764391734E+03  0.38691706524E+02  0.53885513476E+03  0.46999998093E+01 0. -1.
       -5    1    3    3    0  502 -0.28179383070E+03  0.45764391734E+03  0.12637435566E+04  0.13732864177E+04  0.46999998093E+01 0.  1.
</event>
<event>
 5   0  0.3975164E-04  0.1401731E+04  0.7818609E-02  0.8952567E-01
        2   -1    0    0  501    0  0.00000000000E+00  0.00000000000E+00  0.15357988304E+04  0.15357988304E+04  0.25500000920E-02 0. -1.
       -2   -1    0    0    0  501  0.00000000000E+00  0.00000000000E+00 -0.31984156737E+03  0.31984156738E+03  0.25500000920E-02 0.  1.
    10030    2    1    2    0    0  0.00000000000E+00  0.00000000000E+00  0.12159572631E+04  0.18556403978E+04  0.14017307945E+04 0.  0.
        5    1    3    3  502    0  0.23048161468E+03  0.12786234553E+03  0.14676671540E+04  0.14911537543E+04  0.46999998093E+01 0. -1.
       -5    1    3    3    0  502 -0.23048161468E+03 -0.12786234553E+03 -0.25170989091E+03  0.36448664350E+03  0.46999998093E+01 0.  1.
</event>
<event>
 5   0  0.3932568E-04  0.1399956E+04  0.7818609E-02  0.8953850E-01
        2   -1    0    0  501    0  0.00000000000E+00  0.00000000000E+00  0.18973455040E+04  0.18973455040E+04  0.25500000920E-02 0.  1.
       -2   -1    0    0    0  501  0.00000000000E+00  0.00000000000E+00 -0.25823927306E+03  0.25823927307E+03  0.25500000920E-02 0. -1.
    10030    2    1    2    0    0  0.00000000000E+00  0.00000000000E+00  0.16391062309E+04  0.21555847771E+04  0.13999558903E+04 0.  0.
        2    1    3    3  502    0 -0.32401874423E+03 -0.12776432082E+03 -0.11534040218E+03  0.36689954575E+03  0.25500000920E-02 0. -1.
       -2    1    3    3    0  502  0.32401874423E+03  0.12776432082E+03  0.17544466331E+04  0.17886852313E+04  0.25500000920E-02 0.  1.
</event>
<event>
 5   0  0.2223112E-04  0.1401178E+04  0.7818609E-02  0.8952966E-01
        1   -1    0    0  501    0  0.00000000000E+00  0.00000000000E+00  0.99199577725E+03  0.99199577726E+03  0.50400001928E-02 0.  1.
       -1   -1    0    0    0  501  0.00000000000E+00  0.00000000000E+00 -0.49478547183E+03  0.49478547186E+03  0.50400001928E-02 0. -1.
    10030    2    1    2    0    0  0.00000000000E+00  0.00000000000E+00  0.49721030542E+03  0.14867812491E+04  0.14011782167E+04 0.  0.
        1    1    3    3  502    0  0.64499839841E+03  0.13457009337E+03  0.50125475992E+03  0.82788186256E+03  0.50400001928E-02 0. -1.
       -1    1    3    3    0  502 -0.64499839841E+03 -0.13457009337E+03 -0.40444545039E+01  0.65889938657E+03  0.50400001928E-02 0.  1.
</event>
<event>
 5   0  0.2215876E-04  0.1445625E+04  0.7818609E-02  0.8921440E-01
        1   -1    0    0  501    0  0.00000000000E+00  0.00000000000E+00  0.81360213575E+03  0.81360213576E+03  0.50400001928E-02 0. -1.
       -1   -1    0    0    0  501  0.00000000000E+00  0.00000000000E+00 -0.64215363840E+03  0.64215363842E+03  0.50400001928E-02 0.  1.
    10030    2    1    2    0    0  0.00000000000E+00  0.00000000000E+00  0.17144849734E+03  0.14557557742E+04  0.14456245318E+04 0.  0.
        3    1    3    3  502    0  0.54699533557E+03 -0.22894365589E+03 -0.33049853030E+03  0.67885814678E+03  0.10100000352E+00 0.  1.
       -3    1    3    3    0  502 -0.54699533557E+03  0.22894365589E+03  0.50194702764E+03  0.77689762741E+03  0.10100000352E+00 0. -1.
</event>
<event>
 5   0  0.4208622E-04  0.1395992E+04  0.7818609E-02  0.8956725E-01
       -2   -1    0    0    0  501  0.00000000000E+00  0.00000000000E+00  0.69823339996E+03  0.69823339997E+03  0.25500000920E-02 0.  1.
        2   -1    0    0  501    0  0.00000000000E+00  0.00000000000E+00 -0.69775821340E+03  0.69775821341E+03  0.25500000920E-02 0. -1.
    10030    2    1    2    0    0  0.00000000000E+00  0.00000000000E+00  0.47518656053E+00  0.13959916134E+04  0.13959915325E+04 0.  0.
        4    1    3    3  502    0 -0.27469584668E+03  0.58761510003E+03 -0.25753589359E+03  0.69790806225E+03  0.12699999809E+01 0. -1.
       -4    1    3    3    0  502  0.27469584668E+03 -0.58761510003E+03  0.25801108015E+03  0.69808355112E+03  0.12699999809E+01 0.  1.
</event>
<event>
 5   0  0.4208622E-04  0.1398509E+04  0.7818609E-02  0.8954899E-01
       -2   -1    0    0    0  501  0.00000000000E+00  0.00000000000E+00  0.94636900623E+03  0.94636900623E+03  0.25500000920E-02 0. -1.
        2   -1    0    0  501    0  0.00000000000E+00  0.00000000000E+00 -0.51666614323E+03  0.51666614324E+03  0.25500000920E-02 0.  1.
    10030    2    1    2    0    0  0.00000000000E+00  0.00000000000E+00  0.42970286300E+03  0.14630351495E+04  0.13985089553E+04 0.  0.
        4    1    3    3  502    0 -0.71342233949E+02  0.14325361230E+03  0.92695183741E+03  0.94066605847E+03  0.12699999809E+01 0. -1.
       -4    1    3    3    0  502  0.71342233949E+02 -0.14325361230E+03 -0.49724897441E+03  0.52236909100E+03  0.12699999809E+01 0.  1.
</event>
<event>
 5   0  0.4310348E-04  0.1398185E+04  0.7818609E-02  0.8955134E-01
        2   -1    0    0  501    0  0.00000000000E+00  0.00000000000E+00  0.12572440636E+04  0.12572440636E+04  0.25500000920E-02 0.  1.
       -2   -1    0    0    0  501  0.00000000000E+00  0.00000000000E+00 -0.38873120243E+03  0.38873120244E+03  0.25500000920E-02 0. -1.
    10030    2    1    2    0    0  0.00000000000E+00  0.00000000000E+00  0.86851286118E+03  0.16459752661E+04  0.13981845323E+04 0.  0.
        1    1    3    3  502    0  0.51179851408E+03 -0.28471294034E+03  0.88365792735E+03  0.10601181585E+04  0.50400001928E-02 0.  1.
       -1    1    3    3    0  502 -0.51179851408E+03  0.28471294034E+03 -0.15145066169E+02  0.58585710755E+03  0.50400001928E-02 0. -1.
</event>
<event>
 5   0  0.1497625E-04  0.1390869E+04  0.7818609E-02  0.8960455E-01
       -4   -1    0    0    0  501  0.00000000000E+00  0.00000000000E+00  0.18289709695E+04  0.18289714104E+04  0.12699999809E+01 0.  1.
        4   -1    0    0  501    0  0.00000000000E+00  0.00000000000E+00 -0.26442472974E+03  0.26442777955E+03  0.12699999809E+01 0. -1.
    10030    2    1    2    0    0  0.00000000000E+00  0.00000000000E+00  0.15645462398E+04  0.20933991900E+04  0.13908685172E+04 0.  0.
        1    1    3    3  502    0  0.54362041118E+03 -0.62024665337E+01  0.12955978088E+03  0.55888045134E+03  0.50400001928E-02 0. -1.
       -1    1    3    3    0  502 -0.54362041118E+03  0.62024665337E+01  0.14349864589E+04  0.15345187386E+04  0.50400001928E-02 0.  1.
</event>
<event>
 5   0  0.2215876E-04  0.1398929E+04  0.7818609E-02  0.8954594E-01
       -1   -1    0    0    0  501  0.00000000000E+00  0.00000000000E+00  0.36549794962E+03  0.36549794965E+03  0.50400001928E-02 0.  1.
        1   -1    0    0  501    0  0.00000000000E+00  0.00000000000E+00 -0.13385856046E+04  0.13385856046E+04  0.50400001928E-02 0. -1.
    10030    2    1    2    0    0  0.00000000000E+00  0.00000000000E+00 -0.97308765500E+03  0.17040835543E+04  0.13989285813E+04 0.  0.
        3    1    3    3  502    0 -0.22195538257E+03  0.65174680582E+03 -0.33630186258E+03  0.76624868269E+03  0.10100000352E+00 0. -1.
       -3    1    3    3    0  502  0.22195538257E+03 -0.65174680582E+03 -0.63678579242E+03  0.93783487159E+03  0.10100000352E+00 0.  1.
</event>
<event>
 5   0  0.2223112E-04  0.1372648E+04  0.7818609E-02  0.8973859E-01
        1   -1    0    0  501    0  0.00000000000E+00  0.00000000000E+00  0.15143789071E+04  0.15143789071E+04  0.50400001928E-02 0. -1.
       -1   -1    0    0    0  501  0.00000000000E+00  0.00000000000E+00 -0.31104523540E+03  0.31104523544E+03  0.50400001928E-02 0.  1.
    10030    2    1    2    0    0  0.00000000000E+00  0.00000000000E+00  0.12033336717E+04  0.18254241425E+04  0.13726475785E+04 0.  0.
        1    1    3    3  502    0 -0.58427649335E+03 -0.23835187528E+03  0.96060418002E+03  0.11493263365E+04  0.50400001928E-02 0. -1.
       -1    1    3    3    0  502  0.58427649335E+03  0.23835187528E+03  0.24272949164E+03  0.67609780599E+03  0.50400001928E-02 0.  1.
</event>
<event>
 5   0  0.3932568E-04  0.1412157E+04  0.7818609E-02  0.8945066E-01
       -2   -1    0    0    0  501  0.00000000000E+00  0.00000000000E+00  0.63052902763E+03  0.63052902764E+03  0.25500000920E-02 0. -1.
        2   -1    0    0  501    0  0.00000000000E+00  0.00000000000E+00 -0.79067986399E+03  0.79067986399E+03  0.25500000920E-02 0.  1.
    10030    2    1    2    0    0  0.00000000000E+00  0.00000000000E+00 -0.16015083636E+03  0.14212088916E+04  0.14121566568E+04 0.  0.
        2    1    3    3  502    0  0.46233888988E+03  0.50646668956E+03 -0.24932252773E+03  0.72967628409E+03  0.25500000920E-02 0. -1.
       -2    1    3    3    0  502 -0.46233888988E+03 -0.50646668956E+03  0.89171691375E+02  0.69153260753E+03  0.25500000920E-02 0.  1.
</event>
<event>
 5   0  0.2217251E-04  0.1381511E+04  0.7818609E-02  0.8967312E-01
        1   -1    0    0  501    0  0.00000000000E+00  0.00000000000E+00  0.64908178111E+03  0.64908178112E+03  0.50400001928E-02 0. -1.
       -1   -1    0    0    0  501  0.00000000000E+00  0.00000000000E+00 -0.73510452071E+03  0.73510452073E+03  0.50400001928E-02 0.  1.
    10030    2    1    2    0    0  0.00000000000E+00  0.00000000000E+00 -0.86022739609E+02  0.13841863019E+04  0.13815106972E+04 0.  0.
        5    1    3    3  502    0 -0.18204068630E+03 -0.14184176963E+03  0.60929711810E+03  0.65155427034E+03  0.46999998093E+01 0. -1.
       -5    1    3    3    0  502  0.18204068630E+03  0.14184176963E+03 -0.69531985771E+03  0.73263203151E+03  0.46999998093E+01 0.  1.
</event>
<event>
 5   0  0.2215876E-04  0.1403566E+04  0.7818609E-02  0.8951241E-01
       -1   -1    0    0    0  501  0.00000000000E+00  0.00000000000E+00  0.29425891821E+03  0.29425891825E+03  0.50400001928E-02 0.  1.
        1   -1    0    0  501    0  0.00000000000E+00  0.00000000000E+00 -0.16736945987E+04  0.16736945987E+04  0.50400001928E-02 0. -1.
    10030    2    1    2    0    0  0.00000000000E+00  0.00000000000E+00 -0.13794356805E+04  0.19679535170E+04  0.14035662608E+04 0.  0.
        3    1    3    3  502    0  0.59751201700E+03 -0.25848416221E+03 -0.10571263802E+04  0.12415115249E+04  0.10100000352E+00 0.  1.
       -3    1    3    3    0  502 -0.59751201700E+03  0.25848416221E+03 -0.32230930033E+03  0.72644199208E+03  0.10100000352E+00 0. -1.
</event>
<event>
 5   0  0.2155352E-04  0.1398270E+04  0.7818609E-02  0.8955071E-01
       -1   -1    0    0    0  501  0.00000000000E+00  0.00000000000E+00  0.88753937057E+03  0.88753937058E+03  0.50400001928E-02 0.  1.
        1   -1    0    0  501    0  0.00000000000E+00  0.00000000000E+00 -0.55072486874E+03  0.55072486876E+03  0.50400001928E-02 0. -1.
    10030    2    1    2    0    0  0.00000000000E+00  0.00000000000E+00  0.33681450183E+03  0.14382642393E+04  0.13982703650E+04 0.  0.
        2    1    3    3  502    0  0.66464410569E+03  0.21358286365E+03  0.12963867552E+03  0.71005324665E+03  0.25500000920E-02 0. -1.
       -2    1    3    3    0  502 -0.66464410569E+03 -0.21358286365E+03  0.20717582631E+03  0.72821099270E+03  0.25500000920E-02 0.  1.
</event>
<event>
 5   0  0.3932568E-04  0.1436120E+04  0.7818609E-02  0.8928080E-01
       -2   -1    0    0    0  501  0.00000000000E+00  0.00000000000E+00  0.44973338477E+03  0.44973338477E+03  0.25500000920E-02 0.  1.
        2   -1    0    0  501    0  0.00000000000E+00  0.00000000000E+00 -0.11464789354E+04  0.11464789354E+04  0.25500000920E-02 0. -1.
    10030    2    1    2    0    0  0.00000000000E+00  0.00000000000E+00 -0.69674555063E+03  0.15962123202E+04  0.14361195663E+04 0.  0.
        2    1    3    3  502    0 -0.21070237838E+03 -0.68627531101E+03 -0.36561167121E+03  0.80563092597E+03  0.25500000920E-02 0.  1.
       -2    1    3    3    0  502  0.21070237838E+03  0.68627531101E+03 -0.33113387942E+03  0.79058139420E+03  0.25500000920E-02 0. -1.
</event>
<event>
 5   0  0.3975164E-04  0.1396627E+04  0.7818609E-02  0.8956264E-01
       -2   -1    0    0    0  501  0.00000000000E+00  0.00000000000E+00  0.53634399747E+03  0.53634399748E+03  0.25500000920E-02 0.  1.
        2   -1    0    0  501    0  0.00000000000E+00  0.00000000000E+00 -0.90919568911E+03  0.90919568911E+03  0.25500000920E-02 0. -1.
    10030    2    1    2    0    0  0.00000000000E+00  0.00000000000E+00 -0.37285169164E+03  0.14455396866E+04  0.13966268655E+04 0.  0.
        5    1    3    3  502    0 -0.44966218229E+03 -0.39600701969E+03 -0.55759626574E+03  0.81850676442E+03  0.46999998093E+01 0. -1.
       -5    1    3    3    0  502  0.44966218229E+03  0.39600701969E+03  0.18474457410E+03  0.62703292217E+03  0.46999998093E+01 0.  1.
</event>
<event>
 5   0  0.2217251E-04  0.1402874E+04  0.7818609E-02  0.8951741E-01
       -1   -1    0    0    0  501  0.00000000000E+00  0.00000000000E+00  0.37698617181E+03  0.37698617184E+03  0.50400001928E-02 0.  1.
        1   -1    0    0  501    0  0.00000000000E+00  0.00000000000E+00 -0.13051237584E+04  0.13051237585E+04  0.50400001928E-02 0. -1.
    10030    2    1    2    0    0  0.00000000000E+00  0.00000000000E+00 -0.92813758664E+03  0.16821099303E+04  0.14028736358E+04 0.  0.
        5    1    3    3  502    0 -0.59904722545E+03  0.34770227772E+03 -0.33142879920E+03  0.76786821212E+03  0.46999998093E+01 0.  1.
       -5    1    3    3    0  502  0.59904722545E+03 -0.34770227772E+03 -0.59670878744E+03  0.91424171818E+03  0.46999998093E+01 0. -1.
</event>
<event>
 5   0  0.2223112E-04  0.1404462E+04  0.7818609E-02  0.8950595E-01
        1   -1    0    0  501    0  0.00000000000E+00  0.00000000000E+00  0.28064894541E+04  0.28064894541E+04  0.50400001928E-02 0. -1.
       -1   -1    0    0    0  501  0.00000000000E+00  0.00000000000E+00 -0.17571016472E+03  0.17571016480E+03  0.50400001928E-02 0.  1.
    10030    2    1    2    0    0  0.00000000000E+00  0.00000000000E+00  0.26307792894E+04  0.29821996189E+04  0.14044624942E+04 0.  0.
        1    1    3    3  502    0  0.50600405476E+02  0.83349296879E+02  0.27920453159E+04  0.27937474031E+04  0.50400001928E-02 0. -1.
       -1    1    3    3    0  502 -0.50600405476E+02 -0.83349296879E+02 -0.16126602649E+03  0.18845221583E+03  0.50400001928E-02 0.  1.
</event>
<event>
 5   0  0.2217251E-04  0.1426968E+04  0.7818609E-02  0.8934526E-01
       -1   -1    0    0    0  501  0.00000000000E+00  0.00000000000E+00  0.55681356540E+03  0.55681356543E+03  0.50400001928E-02 0.  1.
        1   -1    0    0  501    0  0.00000000000E+00  0.00000000000E+00 -0.91423689345E+03  0.91423689346E+03  0.50400001928E-02 0. -1.
    10030    2    1    2    0    0  0.00000000000E+00  0.00000000000E+00 -0.35742332804E+03  0.14710504589E+04  0.14269681206E+04 0.  0.
        5    1    3    3  502    0 -0.14037817954E+03 -0.22617524743E+02 -0.89946673437E+03  0.91064816584E+03  0.46999998093E+01 0. -1.
       -5    1    3    3    0  502  0.14037817954E+03  0.22617524743E+02  0.54204340632E+03  0.56040229305E+03  0.46999998093E+01 0.  1.
</event>
<event>
 5   0  0.3975164E-04  0.1391802E+04  0.7818609E-02  0.8959774E-01
        2   -1    0    0  501    0  0.00000000000E+00  0.00000000000E+00  0.15142172289E+04  0.15142172289E+04  0.25500000920E-02 0.  1.
       -2   -1    0    0    0  501  0.00000000000E+00  0.00000000000E+00 -0.31982077088E+03  0.31982077089E+03  0.25500000920E-02 0. -1.
    10030    2    1    2    0    0  0.00000000000E+00  0.00000000000E+00  0.11943964580E+04  0.18340379998E+04  0.13918018845E+04 0.  0.
        5    1    3    3  502    0  0.70094079771E+02 -0.86446206173E+02  0.15023930265E+04  0.15065168511E+04  0.46999998093E+01 0.  1.
       -5    1    3    3    0  502 -0.70094079771E+02  0.86446206173E+02 -0.30799656853E+03  0.32752114864E+03  0.46999998093E+01 0. -1.
</event>
<event>
 5   0  0.1497625E-04  0.1415335E+04  0.7818609E-02  0.8942793E-01
       -3   -1    0    0    0  501  0.00000000000E+00  0.00000000000E+00  0.36102349099E+03  0.36102350512E+03  0.10100000352E+00 0. -1.
        3   -1    0    0  501    0  0.00000000000E+00  0.00000000000E+00 -0.13871479402E+04  0.13871479439E+04  0.10100000352E+00 0.  1.
    10030    2    1    2    0    0  0.00000000000E+00  0.00000000000E+00 -0.10261244493E+04  0.17481714490E+04  0.14153346000E+04 0.  0.
        3    1    3    3  502    0 -0.17982995736E+03 -0.18936546103E+03 -0.13254541531E+04  0.13509355327E+04  0.10100000352E+00 0.  1.
       -3    1    3    3    0  502  0.17982995736E+03  0.18936546103E+03  0.29932970385E+03  0.39723591631E+03  0.10100000352E+00 0. -1.
</event>
<event>
 5   0  0.3932568E-04  0.1394651E+04  0.7818609E-02  0.8957700E-01
       -2   -1    0    0    0  501  0.00000000000E+00  0.00000000000E+00  0.75478550794E+03  0.75478550794E+03  0.25500000920E-02 0.  1.
        2   -1    0    0  501    0  0.00000000000E+00  0.00000000000E+00 -0.64423949088E+03  0.64423949088E+03  0.25500000920E-02 0. -1.
    10030    2    1    2    0    0  0.00000000000E+00  0.00000000000E+00  0.11054601706E+03  0.13990249988E+04  0.13946506822E+04 0.  0.
        2    1    3    3  502    0  0.40286844216E+03  0.11266436578E+03 -0.50438941131E+03  0.65528995052E+03  0.25500000920E-02 0. -1.
       -2    1    3    3    0  502 -0.40286844216E+03 -0.11266436578E+03  0.61493542837E+03  0.74373504831E+03  0.25500000920E-02 0.  1.
</event>
<event>
 5   0  0.3932568E-04  0.1394738E+04  0.7818609E-02  0.8957636E-01
       -2   -1    0    0    0  501  0.00000000000E+00  0.00000000000E+00  0.14408135889E+04  0.14408135889E+04  0.25500000920E-02 0. -1.
        2   -1    0    0  501    0  0.00000000000E+00  0.00000000000E+00 -0.33753413113E+03  0.33753413114E+03  0.25500000920E-02 0.  1.
    10030    2    1    2    0    0  0.00000000000E+00  0.00000000000E+00  0.11032794577E+04  0.17783477200E+04  0.13947383451E+04 0.  0.
        2    1    3    3  502    0  0.47053022920E+03 -0.65160749654E+02  0.12026338755E+04  0.12930478949E+04  0.25500000920E-02 0. -1.
       -2    1    3    3    0  502 -0.47053022920E+03  0.65160749654E+02 -0.99354417827E+02  0.48529982509E+03  0.25500000920E-02 0.  1.
</event>
<event>
 5   0  0.3975164E-04  0.1397451E+04  0.7818609E-02  0.8955666E-01
        2   -1    0    0  501    0  0.00000000000E+00  0.00000000000E+00  0.10261244590E+04  0.10261244590E+04  0.25500000920E-02 0.  1.
       -2   -1    0    0    0  501  0.00000000000E+00  0.00000000000E+00 -0.47578753444E+03  0.47578753444E+03  0.25500000920E-02 0. -1.
    10030    2    1    2    0    0  0.00000000000E+00  0.00000000000E+00  0.55033692456E+03  0.15019119934E+04  0.13974508598E+04 0.  0.
        5    1    3    3  502    0  0.38209327557E+03 -0.22105233693E+03  0.85725884325E+03  0.96424800816E+03  0.46999998093E+01 0.  1.
       -5    1    3    3    0  502 -0.38209327557E+03  0.22105233693E+03 -0.30692191870E+03  0.53766398529E+03  0.46999998093E+01 0. -1.
</event>
<event>
 5   0  0.4310348E-04  0.1391249E+04  0.7818609E-02  0.8960178E-01
       -2   -1    0    0    0  501  0.00000000000E+00  0.00000000000E+00  0.53773333240E+03  0.53773333240E+03  0.25500000920E-02 0. -1.
        2   -1    0    0  501    0  0.00000000000E+00  0.00000000000E+00 -0.89987594120E+03  0.89987594121E+03  0.25500000920E-02 0.  1.
    10030    2    1    2    0    0  0.00000000000E+00  0.00000000000E+00 -0.36214260880E+03  0.14376092736E+04  0.13912487752E+04 0.  0.
        1    1    3    3  502    0 -0.11744222873E+03  0.23933537107E+03  0.48284909092E+03  0.55155901005E+03  0.50400001928E-02 0. -1.
       -1    1    3    3    0  502  0.11744222873E+03 -0.23933537107E+03 -0.84499169972E+03  0.88605026356E+03  0.50400001928E-02 0.  1.
</event>
<event>
 5   0  0.3932568E-04  0.1403206E+04  0.7818609E-02  0.8951501E-01
       -2   -1    0    0    0  501  0.00000000000E+00  0.00000000000E+00  0.54321873331E+03  0.54321873332E+03  0.25500000920E-02 0. -1.
        2   -1    0    0  501    0  0.00000000000E+00  0.00000000000E+00 -0.90616655790E+03  0.90616655790E+03  0.25500000920E-02 0.  1.
    10030    2    1    2    0    0  0.00000000000E+00  0.00000000000E+00 -0.36294782459E+03  0.14493852912E+04  0.14032058292E+04 0.  0.
        2    1    3    3  502    0 -0.16363448114E+03  0.16129787923E+03  0.50325534386E+03  0.55322616568E+03  0.25500000920E-02 0. -1.
       -2    1    3    3    0  502  0.16363448114E+03 -0.16129787923E+03 -0.86620316845E+03  0.89615912554E+03  0.25500000920E-02 0.  1.
</event>
<event>
 5   0  0.4310348E-04  0.1410582E+04  0.7818609E-02  0.8946194E-01
       -2   -1    0    0    0  501  0.00000000000E+00  0.00000000000E+00  0.31668441910E+03  0.31668441911E+03  0.25500000920E-02 0. -1.
        2   -1    0    0  501    0  0.00000000000E+00  0.00000000000E+00 -0.15707610561E+04  0.15707610561E+04  0.25500000920E-02 0.  1.
    10030    2    1    2    0    0  0.00000000000E+00  0.00000000000E+00 -0.12540766370E+04  0.18874454752E+04  0.14105822239E+04 0.  0.
        1    1    3    3  502    0  0.23374026917E+03  0.10855084268E+03  0.25142491084E+03  0.36004483706E+03  0.50400001928E-02 0. -1.
       -1    1    3    3    0  502 -0.23374026917E+03 -0.10855084268E+03 -0.15055015478E+04  0.15274006381E+04  0.50400001928E-02 0.  1.
</event>
<event>
 5   0  0.2143942E-04  0.1411224E+04  0.7818609E-02  0.8945734E-01
        1   -1    0    0  501    0  0.00000000000E+00  0.00000000000E+00  0.87600860429E+03  0.87600860431E+03  0.50400001928E-02 0.  1.
       -1   -1    0    0    0  501  0.00000000000E+00  0.00000000000E+00 -0.56835986643E+03  0.56835986645E+03  0.50400001928E-02 0. -1.
    10030    2    1    2    0    0  0.00000000000E+00  0.00000000000E+00  0.30764873786E+03  0.14443684708E+04  0.14112237716E+04 0.  0.
        4    1    3    3  502    0  0.38945736003E+03 -0.10659852572E+03  0.74607404136E+03  0.84833269951E+03  0.12699999809E+01 0.  1.
       -4    1    3    3    0  502 -0.38945736003E+03  0.10659852572E+03 -0.43842530349E+03  0.59603577125E+03  0.12699999809E+01 0. -1.
</event>
<event>
 5   0  0.2143942E-04  0.1400262E+04  0.7818609E-02  0.8953629E-01
       -1   -1    0    0    0  501  0.00000000000E+00  0.00000000000E+00  0.62932007999E+03  0.62932008001E+03  0.50400001928E-02 0.  1.
        1   -1    0    0  501    0  0.00000000000E+00  0.00000000000E+00 -0.77890916158E+03  0.77890916160E+03  0.50400001928E-02 0. -1.
    10030    2    1    2    0    0  0.00000000000E+00  0.00000000000E+00 -0.14958908159E+03  0.14082292416E+04  0.14002616554E+04 0.  0.
        4    1    3    3  502    0  0.43330254889E+03  0.53745210411E+03 -0.19197232366E+03  0.71656182500E+03  0.12699999809E+01 0. -1.
       -4    1    3    3    0  502 -0.43330254889E+03 -0.53745210411E+03  0.42383242070E+02  0.69166741661E+03  0.12699999809E+01 0.  1.
</event>
<event>
 5   0  0.2143942E-04  0.1401113E+04  0.7818609E-02  0.8953014E-01
        1   -1    0    0  501    0  0.00000000000E+00  0.00000000000E+00  0.11343376807E+04  0.11343376807E+04  0.50400001928E-02 0.  1.
       -1   -1    0    0    0  501  0.00000000000E+00  0.00000000000E+00 -0.43265705128E+03  0.43265705131E+03  0.50400001928E-02 0. -1.
    10030    2    1    2    0    0  0.00000000000E+00  0.00000000000E+00  0.70168062945E+03  0.15669947321E+04  0.14011126952E+04 0.  0.
        4    1    3    3  502    0  0.38673031907E+03 -0.58278398186E+03  0.30638402779E+03  0.76359039713E+03  0.12699999809E+01 0.  1.
       -4    1    3    3    0  502 -0.38673031907E+03  0.58278398186E+03  0.39529660167E+03  0.80340433493E+03  0.12699999809E+01 0. -1.
</event>
<event>
 5   0  0.4208622E-04  0.1400178E+04  0.7818609E-02  0.8953689E-01
       -2   -1    0    0    0  501  0.00000000000E+00  0.00000000000E+00  0.35809410611E+03  0.35809410612E+03  0.25500000920E-02 0.  1.
        2   -1    0    0  501    0  0.00000000000E+00  0.00000000000E+00 -0.13687039441E+04  0.13687039441E+04  0.25500000920E-02 0. -1.
    10030    2    1    2    0    0  0.00000000000E+00  0.00000000000E+00 -0.10106098380E+04  0.17267980502E+04  0.14001782964E+04 0.  0.
        4    1    3    3  502    0 -0.16977762073E+03  0.25590225810E+03 -0.12812002229E+04  0.13174923265E+04  0.12699999809E+01 0. -1.
       -4    1    3    3    0  502  0.16977762073E+03 -0.25590225810E+03  0.27059038491E+03  0.40930572377E+03  0.12699999809E+01 0.  1.
</event>
<event>
 5   0  0.2217251E-04  0.1435950E+04  0.7818609E-02  0.8928199E-01
       -1   -1    0    0    0  501  0.00000000000E+00  0.00000000000E+00  0.25524989081E+03  0.25524989085E+03  0.50400001928E-02 0.  1.
        1   -1    0    0  501    0  0.00000000000E+00  0.00000000000E+00 -0.20195427958E+04  0.20195427958E+04  0.50400001928E-02 0. -1.
    10030    2    1    2    0    0  0.00000000000E+00  0.00000000000E+00 -0.17642929050E+04  0.22747926867E+04  0.14359499687E+04 0.  0.
        5    1    3    3  502    0 -0.46668043751E+03  0.45084652256E+03 -0.13689098188E+04  0.15149222421E+04  0.46999998093E+01 0.  1.
       -5    1    3    3    0  502  0.46668043751E+03 -0.45084652256E+03 -0.39538308622E+03  0.75987044457E+03  0.46999998093E+01 0. -1.
</event>
<event>
 5   0  0.2155352E-04  0.1404522E+04  0.7818609E-02  0.8950552E-01
        1   -1    0    0  501    0  0.00000000000E+00  0.00000000000E+00  0.10877141812E+04  0.10877141812E+04  0.50400001928E-02 0.  1.
       -1   -1    0    0    0  501  0.00000000000E+00  0.00000000000E+00 -0.45340077641E+03  0.45340077643E+03  0.50400001928E-02 0. -1.
    10030    2    1    2    0    0  0.00000000000E+00  0.00000000000E+00  0.63431340483E+03  0.15411149577E+04  0.14045219177E+04 0.  0.
        2    1    3    3  502    0 -0.32292461518E+03 -0.62151752285E+03  0.26114182538E+03  0.74750210118E+03  0.25500000920E-02 0. -1.
       -2    1    3    3    0  502  0.32292461518E+03  0.62151752285E+03  0.37317157944E+03  0.79361285650E+03  0.25500000920E-02 0.  1.
</event>
<event>
 5   0  0.2143942E-04  0.1399472E+04  0.7818609E-02  0.8954201E-01
        1   -1    0    0  501    0  0.00000000000E+00  0.00000000000E+00  0.10045161042E+04  0.10045161042E+04  0.50400001928E-02 0. -1.
       -1   -1    0    0    0  501  0.00000000000E+00  0.00000000000E+00 -0.48742910496E+03  0.48742910499E+03  0.50400001928E-02 0.  1.
    10030    2    1    2    0    0  0.00000000000E+00  0.00000000000E+00  0.51708699922E+03  0.14919452092E+04  0.13994718798E+04 0.  0.
        4    1    3    3  502    0  0.56261931563E+03 -0.31093992774E+03 -0.36135077327E+02  0.64384119913E+03  0.12699999809E+01 0.  1.
       -4    1    3    3    0  502 -0.56261931563E+03  0.31093992774E+03  0.55322207655E+03  0.84810401005E+03  0.12699999809E+01 0. -1.
</event>
<event>
 5   0  0.2143942E-04  0.1387288E+04  0.7818609E-02  0.8963072E-01
        1   -1    0    0  501    0  0.00000000000E+00  0.00000000000E+00  0.78379304627E+03  0.78379304629E+03  0.50400001928E-02 0. -1.
       -1   -1    0    0    0  501  0.00000000000E+00  0.00000000000E+00 -0.61386324225E+03  0.61386324227E+03  0.50400001928E-02 0.  1.
    10030    2    1    2    0    0  0.00000000000E+00  0.00000000000E+00  0.16992980402E+03  0.13976562886E+04  0.13872876279E+04 0.  0.
        4    1    3    3  502    0 -0.68229252864E+03  0.69986458352E+02 -0.19341163113E+02  0.68614640747E+03  0.12699999809E+01 0. -1.
       -4    1    3    3    0  502  0.68229252864E+03 -0.69986458352E+02  0.18927096714E+03  0.71150988109E+03  0.12699999809E+01 0.  1.
</event>
<event>
 5   0  0.3917598E-04  0.1382215E+04  0.7818609E-02  0.8966794E-01
        2   -1    0    0  501    0  0.00000000000E+00  0.00000000000E+00  0.17410628631E+04  0.17410628631E+04  0.25500000920E-02 0.  1.
       -2   -1    0    0    0  501  0.00000000000E+00  0.00000000000E+00 -0.27433215988E+03  0.27433215990E+03  0.25500000920E-02 0. -1.
    10030    2    1    2    0    0  0.00000000000E+00  0.00000000000E+00  0.14667307032E+04  0.20153950230E+04  0.13822149409E+04 0.  0.
        3    1    3    3  502    0 -0.33442647163E+03  0.31671302568E+03  0.14846449282E+04  0.15544512789E+04  0.10100000352E+00 0.  1.
       -3    1    3    3    0  502  0.33442647163E+03 -0.31671302568E+03 -0.17914224953E+02  0.46094374409E+03  0.10100000352E+00 0. -1.
</event>
<event>
 5   0  0.2155352E-04  0.1398110E+04  0.7818609E-02  0.8955187E-01
        1   -1    0    0  501    0  0.00000000000E+00  0.00000000000E+00  0.27150355382E+04  0.27150355382E+04  0.50400001928E-02 0.  1.
       -1   -1    0    0    0  501  0.00000000000E+00  0.00000000000E+00 -0.17998961371E+03  0.17998961378E+03  0.50400001928E-02 0. -1.
    10030    2    1    2    0    0  0.00000000000E+00  0.00000000000E+00  0.25350459245E+04  0.28950251520E+04  0.13981104360E+04 0.  0.
        2    1    3    3  502    0 -0.10431347028E+03  0.16401212525E+03 -0.12290821853E+03  0.22997327562E+03  0.25500000920E-02 0. -1.
       -2    1    3    3    0  502  0.10431347028E+03 -0.16401212525E+03  0.26579541430E+04  0.26650518763E+04  0.25500000920E-02 0.  1.
</event>
<event>
 5   0  0.3917598E-04  0.1401217E+04  0.7818609E-02  0.8952938E-01
       -2   -1    0    0    0  501  0.00000000000E+00  0.00000000000E+00  0.36643386976E+03  0.36643386977E+03  0.25500000920E-02 0. -1.
        2   -1    0    0  501    0  0.00000000000E+00  0.00000000000E+00 -0.13395382343E+04  0.13395382343E+04  0.25500000920E-02 0.  1.
    10030    2    1    2    0    0  0.00000000000E+00  0.00000000000E+00 -0.97310436450E+03  0.17059721040E+04  0.14012168696E+04 0.  0.
        3    1    3    3  502    0  0.62059353963E+03  0.25240530329E+03 -0.23701836050E+03  0.71064934530E+03  0.10100000352E+00 0. -1.
       -3    1    3    3    0  502 -0.62059353963E+03 -0.25240530329E+03 -0.73608600401E+03  0.99532275873E+03  0.10100000352E+00 0.  1.
</event>
<event>
 5   0  0.2217251E-04  0.1412307E+04  0.7818609E-02  0.8944958E-01
       -1   -1    0    0    0  501  0.00000000000E+00  0.00000000000E+00  0.42518230315E+03  0.42518230318E+03  0.50400001928E-02 0. -1.
        1   -1    0    0  501    0  0.00000000000E+00  0.00000000000E+00 -0.11727982120E+04  0.11727982120E+04  0.50400001928E-02 0.  1.
    10030    2    1    2    0    0  0.00000000000E+00  0.00000000000E+00 -0.74761590884E+03  0.15979805152E+04  0.14123073956E+04 0.  0.
        5    1    3    3  502    0  0.59951867232E+03 -0.32153932408E+03 -0.15966205504E+03  0.69880200143E+03  0.46999998093E+01 0. -1.
       -5    1    3    3    0  502 -0.59951867232E+03  0.32153932408E+03 -0.58795385380E+03  0.89917851375E+03  0.46999998093E+01 0.  1.
</event>
<event>
 5   0  0.3975164E-04  0.1386202E+04  0.7818609E-02  0.8963867E-01
       -2   -1    0    0    0  501  0.00000000000E+00  0.00000000000E+00  0.41875544877E+03  0.41875544878E+03  0.25500000920E-02 0. -1.
        2   -1    0    0  501    0  0.00000000000E+00  0.00000000000E+00 -0.11471828543E+04  0.11471828543E+04  0.25500000920E-02 0.  1.
    10030    2    1    2    0    0  0.00000000000E+00  0.00000000000E+00 -0.72842740553E+03  0.15659383031E+04  0.13862021079E+04 0.  0.
        5    1    3    3  502    0 -0.31682077253E+03  0.51319685714E+03  0.21562703103E+02  0.60351756913E+03  0.46999998093E+01 0. -1.
       -5    1    3    3    0  502  0.31682077253E+03 -0.51319685714E+03 -0.74999010863E+03  0.96242073395E+03  0.46999998093E+01 0.  1.
</event>
<event>
 5   0  0.2215876E-04  0.1401691E+04  0.7818609E-02  0.8952596E-01
        1   -1    0    0  501    0  0.00000000000E+00  0.00000000000E+00  0.97268965343E+03  0.97268965344E+03  0.50400001928E-02 0.  1.
       -1   -1    0    0    0  501  0.00000000000E+00  0.00000000000E+00 -0.50497523353E+03  0.50497523356E+03  0.50400001928E-02 0. -1.
    10030    2    1    2    0    0  0.00000000000E+00  0.00000000000E+00  0.46771441990E+03  0.14776648870E+04  0.14016906719E+04 0.  0.
        3    1    3    3  502    0  0.29534476154E+03  0.14993408838E+03  0.88497123147E+03  0.94492478524E+03  0.10100000352E+00 0.  1.
       -3    1    3    3    0  502 -0.29534476154E+03 -0.14993408838E+03 -0.41725681157E+03  0.53274010176E+03  0.10100000352E+00 0. -1.
</event>
<event>
 5   0  0.2217251E-04  0.1390996E+04  0.7818609E-02  0.8960362E-01
       -1   -1    0    0    0  501  0.00000000000E+00  0.00000000000E+00  0.46388855259E+03  0.46388855262E+03  0.50400001928E-02 0.  1.
        1   -1    0    0  501    0  0.00000000000E+00  0.00000000000E+00 -0.10427448578E+04  0.10427448578E+04  0.50400001928E-02 0. -1.
    10030    2    1    2    0    0  0.00000000000E+00  0.00000000000E+00 -0.57885630524E+03  0.15066334105E+04  0.13909959063E+04 0.  0.
        5    1    3    3  502    0  0.33134152673E+03  0.15007504466E+03 -0.93148534250E+03  0.99999837982E+03  0.46999998093E+01 0. -1.
       -5    1    3    3    0  502 -0.33134152673E+03 -0.15007504466E+03  0.35262903725E+03  0.50663503065E+03  0.46999998093E+01 0.  1.
</event>
<event>
 5   0  0.3975164E-04  0.1398877E+04  0.7818609E-02  0.8954632E-01
        2   -1    0    0  501    0  0.00000000000E+00  0.00000000000E+00  0.72545383693E+03  0.72545383694E+03  0.25500000920E-02 0. -1.
       -2   -1    0    0    0  501  0.00000000000E+00  0.00000000000E+00 -0.67435638602E+03  0.67435638602E+03  0.25500000920E-02 0.  1.
    10030    2    1    2    0    0  0.00000000000E+00  0.00000000000E+00  0.51097450916E+02  0.13998102230E+04  0.13988773037E+04 0.  0.
        5    1    3    3  502    0  0.31807557515E+03  0.33891933328E+03  0.54853860019E+03  0.71899587751E+03  0.46999998093E+01 0. -1.
       -5    1    3    3    0  502 -0.31807557515E+03 -0.33891933328E+03 -0.49744114928E+03  0.68081434545E+03  0.46999998093E+01 0.  1.
</event>
<event>
 5   0  0.2215876E-04  0.1400656E+04  0.7818609E-02  0.8953344E-01
       -1   -1    0    0    0  501  0.00000000000E+00  0.00000000000E+00  0.28397234211E+03  0.28397234215E+03  0.50400001928E-02 0. -1.
        1   -1    0    0  501    0  0.00000000000E+00  0.00000000000E+00 -0.17271387401E+04  0.17271387401E+04  0.50400001928E-02 0.  1.
    10030    2    1    2    0    0  0.00000000000E+00  0.00000000000E+00 -0.14431663980E+04  0.20111110823E+04  0.14006564650E+04 0.  0.
        3    1    3    3  502    0 -0.51430346756E+02  0.34618062809E+03 -0.15925722784E+04  0.16305743099E+04  0.10100000352E+00 0.  1.
       -3    1    3    3    0  502  0.51430346756E+02 -0.34618062809E+03  0.14940588042E+03  0.38053677239E+03  0.10100000352E+00 0. -1.
</event>
<event>
 5   0  0.2155352E-04  0.1400949E+04  0.7818609E-02  0.8953132E-01
       -1   -1    0    0    0  501  0.00000000000E+00  0.00000000000E+00  0.30323326988E+03  0.30323326993E+03  0.50400001928E-02 0.  1.
        1   -1    0    0  501    0  0.00000000000E+00  0.00000000000E+00 -0.16181096614E+04  0.16181096614E+04  0.50400001928E-02 0. -1.
    10030    2    1    2    0    0  0.00000000000E+00  0.00000000000E+00 -0.13148763915E+04  0.19213429314E+04  0.14009492264E+04 0.  0.
        2    1    3    3  502    0  0.12059845103E+03  0.63113166150E+03 -0.10399582525E+04  0.12224501329E+04  0.25500000920E-02 0. -1.
       -2    1    3    3    0  502 -0.12059845103E+03 -0.63113166150E+03 -0.27491813905E+03  0.69889279845E+03  0.25500000920E-02 0.  1.
</event>
<event>
 5   0  0.3932568E-04  0.1399704E+04  0.7818609E-02  0.8954033E-01
       -2   -1    0    0    0  501  0.00000000000E+00  0.00000000000E+00  0.32750251598E+03  0.32750251599E+03  0.25500000920E-02 0. -1.
        2   -1    0    0  501    0  0.00000000000E+00  0.00000000000E+00 -0.14955397575E+04  0.14955397575E+04  0.25500000920E-02 0.  1.
    10030    2    1    2    0    0  0.00000000000E+00  0.00000000000E+00 -0.11680372415E+04  0.18230422734E+04  0.13997043021E+04 0.  0.
        2    1    3    3  502    0 -0.12908243469E+03  0.64279874820E+03 -0.26514343627E+03  0.70721534729E+03  0.25500000920E-02 0. -1.
       -2    1    3    3    0  502  0.12908243469E+03 -0.64279874820E+03 -0.90289380521E+03  0.11158269262E+04  0.25500000920E-02 0.  1.
</event>
<event>
 5   0  0.3932568E-04  0.1409011E+04  0.7818609E-02  0.8947322E-01
        2   -1    0    0  501    0  0.00000000000E+00  0.00000000000E+00  0.38078920978E+03  0.38078920978E+03  0.25500000920E-02 0. -1.
       -2   -1    0    0    0  501  0.00000000000E+00  0.00000000000E+00 -0.13034193146E+04  0.13034193146E+04  0.25500000920E-02 0.  1.
    10030    2    1    2    0    0  0.00000000000E+00  0.00000000000E+00 -0.92263010486E+03  0.16842085244E+04  0.14090110160E+04 0.  0.
        2    1    3    3  502    0 -0.46286511902E+03 -0.91368092577E+02 -0.10866997406E+04  0.11846976716E+04  0.25500000920E-02 0.  1.
       -2    1    3    3    0  502  0.46286511902E+03  0.91368092577E+02  0.16406963575E+03  0.49951085286E+03  0.25500000920E-02 0. -1.
</event>
<event>
 5   0  0.4208622E-04  0.1413761E+04  0.7818609E-02  0.8943918E-01
       -2   -1    0    0    0  501  0.00000000000E+00  0.00000000000E+00  0.13464272141E+04  0.13464272141E+04  0.25500000920E-02 0.  1.
        2   -1    0    0  501    0  0.00000000000E+00  0.00000000000E+00 -0.37111545643E+03  0.37111545644E+03  0.25500000920E-02 0. -1.
    10030    2    1    2    0    0  0.00000000000E+00  0.00000000000E+00  0.97531175768E+03  0.17175426706E+04  0.14137608710E+04 0.  0.
        4    1    3    3  502    0  0.11493409326E+03  0.45388141355E+03  0.11310352946E+04  0.12241162665E+04  0.12699999809E+01 0.  1.
       -4    1    3    3    0  502 -0.11493409326E+03 -0.45388141355E+03 -0.15572353693E+03  0.49342640405E+03  0.12699999809E+01 0. -1.
</event>
<event>
 5   0  0.4310348E-04  0.1400730E+04  0.7818609E-02  0.8953290E-01
       -2   -1    0    0    0  501  0.00000000000E+00  0.00000000000E+00  0.43059144937E+03  0.43059144938E+03  0.25500000920E-02 0. -1.
        2   -1    0    0  501    0  0.00000000000E+00  0.00000000000E+00 -0.11391570207E+04  0.11391570207E+04  0.25500000920E-02 0.  1.
    10030    2    1    2    0    0  0.00000000000E+00  0.00000000000E+00 -0.70856557135E+03  0.15697484701E+04  0.14007301990E+04 0.  0.
        1    1    3    3  502    0 -0.54492620329E+03  0.32213401451E+03 -0.69010157883E+03  0.93645879753E+03  0.50400001928E-02 0.  1.
       -1    1    3    3    0  502  0.54492620329E+03 -0.32213401451E+03 -0.18463992517E+02  0.63328967257E+03  0.50400001928E-02 0. -1.
</event>
<event>
 5   0  0.1497625E-04  0.1421986E+04  0.7818609E-02  0.8938056E-01
        4   -1    0    0  501    0  0.00000000000E+00  0.00000000000E+00  0.78447807156E+03  0.78447909957E+03  0.12699999809E+01 0.  1.
       -4   -1    0    0    0  501  0.00000000000E+00  0.00000000000E+00 -0.64438931476E+03  0.64439056625E+03  0.12699999809E+01 0. -1.
    10030    2    1    2    0    0  0.00000000000E+00  0.00000000000E+00  0.14008875680E+03  0.14288696658E+04  0.14219858164E+04 0.  0.
        5    1    3    3  502    0  0.42028416112E+01  0.42031302082E+03  0.64623823435E+03  0.77092583618E+03  0.46999998093E+01 0.  1.
       -5    1    3    3    0  502 -0.42028416112E+01 -0.42031302082E+03 -0.50614947755E+03  0.65794382965E+03  0.46999998093E+01 0. -1.
</event>
<event>
 5   0  0.3932568E-04  0.1372875E+04  0.7818609E-02  0.8973690E-01
        2   -1    0    0  501    0  0.00000000000E+00  0.00000000000E+00  0.13870144340E+04  0.13870144340E+04  0.25500000920E-02 0.  1.
       -2   -1    0    0    0  501  0.00000000000E+00  0.00000000000E+00 -0.33972012678E+03  0.33972012679E+03  0.25500000920E-02 0. -1.
    10030    2    1    2    0    0  0.00000000000E+00  0.00000000000E+00  0.10472943072E+04  0.17267345608E+04  0.13728754049E+04 0.  0.
        2    1    3    3  502    0  0.16000051510E+03  0.94868635544E+01  0.13631487099E+04  0.13725394605E+04  0.25500000920E-02 0.  1.
       -2    1    3    3    0  502 -0.16000051510E+03 -0.94868635544E+01 -0.31585440263E+03  0.35419510030E+03  0.25500000920E-02 0. -1.
</event>
<event>
 5   0  0.3917598E-04  0.1403437E+04  0.7818609E-02  0.8951335E-01
       -2   -1    0    0    0  501  0.00000000000E+00  0.00000000000E+00  0.50226672279E+03  0.50226672280E+03  0.25500000920E-02 0.  1.
        2   -1    0    0  501    0  0.00000000000E+00  0.00000000000E+00 -0.98037269417E+03  0.98037269417E+03  0.25500000920E-02 0. -1.
    10030    2    1    2    0    0  0.00000000000E+00  0.00000000000E+00 -0.47810597138E+03  0.14826394170E+04  0.14034366109E+04 0.  0.
        3    1    3    3  502    0 -0.43185082987E+03 -0.54059440533E+03 -0.11553085253E+03  0.70148758964E+03  0.10100000352E+00 0. -1.
       -3    1    3    3    0  502  0.43185082987E+03  0.54059440533E+03 -0.36257511885E+03  0.78115182733E+03  0.10100000352E+00 0.  1.
</event>
<event>
 5   0  0.1497625E-04  0.1393236E+04  0.7818609E-02  0.8958729E-01
        3   -1    0    0  501    0  0.00000000000E+00  0.00000000000E+00  0.54990615210E+03  0.54990616138E+03  0.10100000352E+00 0.  1.
       -3   -1    0    0    0  501  0.00000000000E+00  0.00000000000E+00 -0.88247208102E+03  0.88247208680E+03  0.10100000352E+00 0. -1.
    10030    2    1    2    0    0  0.00000000000E+00  0.00000000000E+00 -0.33256592892E+03  0.14323782482E+04  0.13932362861E+04 0.  0.
        5    1    3    3  502    0  0.47393875335E+03 -0.82127239171E+02  0.35174998262E+03  0.59591355548E+03  0.46999998093E+01 0.  1.
       -5    1    3    3    0  502 -0.47393875335E+03  0.82127239171E+02 -0.68431591154E+03  0.83646469269E+03  0.46999998093E+01 0. -1.
</event>
<event>
 5   0  0.1497625E-04  0.1390636E+04  0.7818609E-02  0.8960625E-01
       -3   -1    0    0    0  501  0.00000000000E+00  0.00000000000E+00  0.11245552462E+04  0.11245552507E+04  0.10100000352E+00 0.  1.
        3   -1    0    0  501    0  0.00000000000E+00  0.00000000000E+00 -0.42991847932E+03  0.42991849118E+03  0.10100000352E+00 0. -1.
    10030    2    1    2    0    0  0.00000000000E+00  0.00000000000E+00  0.69463676689E+03  0.15544737419E+04  0.13906359611E+04 0.  0.
        3    1    3    3  502    0 -0.29683121181E+03 -0.18257011581E+03  0.10198924173E+04  0.10777853072E+04  0.10100000352E+00 0.  1.
       -3    1    3    3    0  502  0.29683121181E+03  0.18257011581E+03 -0.32525565036E+03  0.47668843471E+03  0.10100000352E+00 0. -1.
</event>
<event>
 5   0  0.2215876E-04  0.1389065E+04  0.7818609E-02  0.8961772E-01
        1   -1    0    0  501    0  0.00000000000E+00  0.00000000000E+00  0.90296218986E+03  0.90296218988E+03  0.50400001928E-02 0.  1.
       -1   -1    0    0    0  501  0.00000000000E+00  0.00000000000E+00 -0.53421444211E+03  0.53421444213E+03  0.50400001928E-02 0. -1.
    10030    2    1    2    0    0  0.00000000000E+00  0.00000000000E+00  0.36874774776E+03  0.14371766320E+04  0.13890650705E+04 0.  0.
        3    1    3    3  502    0  0.38604746014E+03 -0.13508146860E+03  0.76515013316E+03  0.86760266316E+03  0.10100000352E+00 0.  1.
       -3    1    3    3    0  502 -0.38604746014E+03  0.13508146860E+03 -0.39640238540E+03  0.56957396885E+03  0.10100000352E+00 0. -1.
</event>
<event>
 5   0  0.3975164E-04  0.1409575E+04  0.7818609E-02  0.8946917E-01
        2   -1    0    0  501    0  0.00000000000E+00  0.00000000000E+00  0.99720905142E+03  0.99720905142E+03  0.25500000920E-02 0. -1.
       -2   -1    0    0    0  501  0.00000000000E+00  0.00000000000E+00 -0.49811552616E+03  0.49811552616E+03  0.25500000920E-02 0.  1.
    10030    2    1    2    0    0  0.00000000000E+00  0.00000000000E+00  0.49909352526E+03  0.14953245776E+04  0.14095748456E+04 0.  0.
        5    1    3    3  502    0  0.49636903533E+03 -0.18477928100E+03 -0.24368688472E+03  0.58303601064E+03  0.46999998093E+01 0.  1.
       -5    1    3    3    0  502 -0.49636903533E+03  0.18477928100E+03  0.74278040998E+03  0.91228856694E+03  0.46999998093E+01 0. -1.
</event>
<event>
 5   0  0.2143942E-04  0.1379257E+04  0.7818609E-02  0.8968972E-01
        1   -1    0    0  501    0  0.00000000000E+00  0.00000000000E+00  0.11541994952E+04  0.11541994952E+04  0.50400001928E-02 0.  1.
       -1   -1    0    0    0  501  0.00000000000E+00  0.00000000000E+00 -0.41204960977E+03  0.41204960980E+03  0.50400001928E-02 0. -1.
    10030    2    1    2    0    0  0.00000000000E+00  0.00000000000E+00  0.74214988544E+03  0.15662491050E+04  0.13792569762E+04 0.  0.
        4    1    3    3  502    0 -0.59992296301E+03 -0.17422361813E+03  0.39369736035E+02  0.62594969421E+03  0.12699999809E+01 0.  1.
       -4    1    3    3    0  502  0.59992296301E+03  0.17422361813E+03  0.70278014940E+03  0.94029941081E+03  0.12699999809E+01 0. -1.
</event>
<event>
 5   0  0.3917598E-04  0.1401037E+04  0.7818609E-02  0.8953068E-01
        2   -1    0    0  501    0  0.00000000000E+00  0.00000000000E+00  0.11073898666E+04  0.11073898666E+04  0.25500000920E-02 0.  1.
       -2   -1    0    0    0  501  0.00000000000E+00  0.00000000000E+00 -0.44313798609E+03  0.44313798610E+03  0.25500000920E-02 0. -1.
    10030    2    1    2    0    0  0.00000000000E+00  0.00000000000E+00  0.66425188047E+03  0.15505278527E+04  0.14010374946E+04 0.  0.
        3    1    3    3  502    0  0.44116906212E+03  0.39327976424E+03  0.74832067192E+03  0.95356329237E+03  0.10100000352E+00 0.  1.
       -3    1    3    3    0  502 -0.44116906212E+03 -0.39327976424E+03 -0.84068791457E+02  0.59696456028E+03  0.10100000352E+00 0. -1.
</event>
<event>
 5   0  0.3932568E-04  0.1397587E+04  0.7818609E-02  0.8955567E-01
       -2   -1    0    0    0  501  0.00000000000E+00  0.00000000000E+00  0.27437547651E+03  0.27437547652E+03  0.25500000920E-02 0.  1.
        2   -1    0    0  501    0  0.00000000000E+00  0.00000000000E+00 -0.17797241150E+04  0.17797241150E+04  0.25500000920E-02 0. -1.
    10030    2    1    2    0    0  0.00000000000E+00  0.00000000000E+00 -0.15053486385E+04  0.20540995915E+04  0.13975874243E+04 0.  0.
        2    1    3    3  502    0  0.58290968783E+03  0.18384997012E+03 -0.12505002125E+04  0.13918819265E+04  0.25500000920E-02 0. -1.
       -2    1    3    3    0  502 -0.58290968783E+03 -0.18384997012E+03 -0.25484842594E+03  0.66221766504E+03  0.25500000920E-02 0.  1.
</event>
<event>
 5   0  0.2217251E-04  0.1345472E+04  0.7818609E-02  0.8994263E-01
        1   -1    0    0  501    0  0.00000000000E+00  0.00000000000E+00  0.99624200578E+03  0.99624200579E+03  0.50400001928E-02 0.  1.
       -1   -1    0    0    0  501  0.00000000000E+00  0.00000000000E+00 -0.45428115318E+03  0.45428115320E+03  0.50400001928E-02 0. -1.
    10030    2    1    2    0    0  0.00000000000E+00  0.00000000000E+00  0.54196085260E+03  0.14505231590E+04  0.13454723591E+04 0.  0.
        5    1    3    3  502    0  0.50053191582E+03  0.44419184039E+03  0.34499408107E+03  0.75291539750E+03  0.46999998093E+01 0.  1.
       -5    1    3    3    0  502 -0.50053191582E+03 -0.44419184039E+03  0.19696677153E+03  0.69760776150E+03  0.46999998093E+01 0. -1.
</event>
<event>
 5   0  0.4208622E-04  0.1405489E+04  0.7818609E-02  0.8949855E-01
       -2   -1    0    0    0  501  0.00000000000E+00  0.00000000000E+00  0.86703854406E+03  0.86703854407E+03  0.25500000920E-02 0.  1.
        2   -1    0    0  501    0  0.00000000000E+00  0.00000000000E+00 -0.56958215384E+03  0.56958215385E+03  0.25500000920E-02 0. -1.
    10030    2    1    2    0    0  0.00000000000E+00  0.00000000000E+00  0.29745639022E+03  0.14366206979E+04  0.14054887853E+04 0.  0.
        4    1    3    3  502    0 -0.33778916184E+03  0.13798382454E+03 -0.46516388240E+03  0.59120225311E+03  0.12699999809E+01 0. -1.
       -4    1    3    3    0  502  0.33778916184E+03 -0.13798382454E+03  0.76262027263E+03  0.84541844480E+03  0.12699999809E+01 0.  1.
</event>
<event>
 5   0  0.3975164E-04  0.1399635E+04  0.7818609E-02  0.8954083E-01
       -2   -1    0    0    0  501  0.00000000000E+00  0.00000000000E+00  0.66298325684E+03  0.66298325685E+03  0.25500000920E-02 0.  1.
        2   -1    0    0  501    0  0.00000000000E+00  0.00000000000E+00 -0.73869827780E+03  0.73869827781E+03  0.25500000920E-02 0. -1.
    10030    2    1    2    0    0  0.00000000000E+00  0.00000000000E+00 -0.75715020960E+02  0.14016815347E+04  0.13996350811E+04 0.  0.
        5    1    3    3  502    0 -0.19095643096E+03  0.29333050416E+03 -0.64472650604E+03  0.73362217850E+03  0.46999998093E+01 0. -1.
       -5    1    3    3    0  502  0.19095643096E+03 -0.29333050416E+03  0.56901148508E+03  0.66805935616E+03  0.46999998093E+01 0.  1.
</event>
<event>
 5   0  0.2143942E-04  0.1401308E+04  0.7818609E-02  0.8952872E-01
        1   -1    0    0  501    0  0.00000000000E+00  0.00000000000E+00  0.92231285347E+03  0.92231285349E+03  0.50400001928E-02 0. -1.
       -1   -1    0    0    0  501  0.00000000000E+00  0.00000000000E+00 -0.53226634400E+03  0.53226634403E+03  0.50400001928E-02 0.  1.
    10030    2    1    2    0    0  0.00000000000E+00  0.00000000000E+00  0.39004650947E+03  0.14545791975E+04  0.14013080897E+04 0.  0.
        4    1    3    3  502    0 -0.66461065376E+03  0.20575972444E+03  0.28106020971E+03  0.75036047316E+03  0.12699999809E+01 0. -1.
       -4    1    3    3    0  502  0.66461065376E+03 -0.20575972444E+03  0.10898629976E+03  0.70421872436E+03  0.12699999809E+01 0.  1.
</event>
<event>
 5   0  0.3917598E-04  0.1381527E+04  0.7818609E-02  0.8967300E-01
       -2   -1    0    0    0  501  0.00000000000E+00  0.00000000000E+00  0.35816489992E+03  0.35816489992E+03  0.25500000920E-02 0.  1.
        2   -1    0    0  501    0  0.00000000000E+00  0.00000000000E+00 -0.13322198005E+04  0.13322198005E+04  0.25500000920E-02 0. -1.
    10030    2    1    2    0    0  0.00000000000E+00  0.00000000000E+00 -0.97405490058E+03  0.16903847004E+04  0.13815272296E+04 0.  0.
        3    1    3    3  502    0 -0.18921267023E+03  0.35770041397E+03  0.19795258692E+03  0.45048446988E+03  0.10100000352E+00 0.  1.
       -3    1    3    3    0  502  0.18921267023E+03 -0.35770041397E+03 -0.11720074875E+04  0.12399002305E+04  0.10100000352E+00 0. -1.
</event>
<event>
 5   0  0.1497625E-04  0.1396211E+04  0.7818609E-02  0.8956566E-01
       -3   -1    0    0    0  501  0.00000000000E+00  0.00000000000E+00  0.12342032626E+04  0.12342032667E+04  0.10100000352E+00 0.  1.
        3   -1    0    0  501    0  0.00000000000E+00  0.00000000000E+00 -0.39487097614E+03  0.39487098906E+03  0.10100000352E+00 0. -1.
    10030    2    1    2    0    0  0.00000000000E+00  0.00000000000E+00  0.83933228646E+03  0.16290742558E+04  0.13962106731E+04 0.  0.
        2    1    3    3  502    0 -0.25753971165E+03 -0.45592594457E+03  0.95835575033E+03  0.10920810017E+04  0.25500000920E-02 0.  1.
       -2    1    3    3    0  502  0.25753971165E+03  0.45592594457E+03 -0.11902346388E+03  0.53699325412E+03  0.25500000920E-02 0. -1.
</event>
<event>
 5   0  0.2215876E-04  0.1328013E+04  0.7818609E-02  0.9007641E-01
        1   -1    0    0  501    0  0.00000000000E+00  0.00000000000E+00  0.88884272430E+03  0.88884272431E+03  0.50400001928E-02 0. -1.
       -1   -1    0    0    0  501  0.00000000000E+00  0.00000000000E+00 -0.49604360139E+03  0.49604360142E+03  0.50400001928E-02 0.  1.
    10030    2    1    2    0    0  0.00000000000E+00  0.00000000000E+00  0.39279912290E+03  0.13848863257E+04  0.13280131717E+04 0.  0.
        3    1    3    3  502    0 -0.55564128147E+03  0.30610262199E+03 -0.81343982486E+01  0.63443063254E+03  0.10100000352E+00 0.  1.
       -3    1    3    3    0  502  0.55564128147E+03 -0.30610262199E+03  0.40093352115E+03  0.75045569319E+03  0.10100000352E+00 0. -1.
</event>
<event>
 5   0  0.2215876E-04  0.1419899E+04  0.7818609E-02  0.8939539E-01
       -1   -1    0    0    0  501  0.00000000000E+00  0.00000000000E+00  0.42758227339E+03  0.42758227342E+03  0.50400001928E-02 0. -1.
        1   -1    0    0  501    0  0.00000000000E+00  0.00000000000E+00 -0.11787862544E+04  0.11787862544E+04  0.50400001928E-02 0.  1.
    10030    2    1    2    0    0  0.00000000000E+00  0.00000000000E+00 -0.75120398099E+03  0.16063685278E+04  0.14198987380E+04 0.  0.
        3    1    3    3  502    0  0.16707656437E+03  0.68830806810E+03 -0.32081120721E+03  0.77756184052E+03  0.10100000352E+00 0. -1.
       -3    1    3    3    0  502 -0.16707656437E+03 -0.68830806810E+03 -0.43039277378E+03  0.82880668729E+03  0.10100000352E+00 0.  1.
</event>
<event>
 5   0  0.2223112E-04  0.1386400E+04  0.7818609E-02  0.8963722E-01
        1   -1    0    0  501    0  0.00000000000E+00  0.00000000000E+00  0.74824297488E+03  0.74824297490E+03  0.50400001928E-02 0. -1.
       -1   -1    0    0    0  501  0.00000000000E+00  0.00000000000E+00 -0.64220598953E+03  0.64220598955E+03  0.50400001928E-02 0.  1.
    10030    2    1    2    0    0  0.00000000000E+00  0.00000000000E+00  0.10603698535E+03  0.13904489645E+04  0.13863998271E+04 0.  0.
        1    1    3    3  502    0 -0.48664992828E+03 -0.44528501091E+03  0.26675879738E+03  0.71152452497E+03  0.50400001928E-02 0.  1.
       -1    1    3    3    0  502  0.48664992828E+03  0.44528501091E+03 -0.16072181203E+03  0.67892443948E+03  0.50400001928E-02 0. -1.
</event>
<event>
 5   0  0.3917598E-04  0.1399080E+04  0.7818609E-02  0.8954485E-01
        2   -1    0    0  501    0  0.00000000000E+00  0.00000000000E+00  0.19035346126E+04  0.19035346126E+04  0.25500000920E-02 0. -1.
       -2   -1    0    0    0  501  0.00000000000E+00  0.00000000000E+00 -0.25707752082E+03  0.25707752083E+03  0.25500000920E-02 0.  1.
    10030    2    1    2    0    0  0.00000000000E+00  0.00000000000E+00  0.16464570918E+04  0.21606121334E+04  0.13990796389E+04 0.  0.
        3    1    3    3  502    0 -0.61390487666E+03  0.30964501900E+03  0.10221792231E+04  0.12319129879E+04  0.10100000352E+00 0.  1.
       -3    1    3    3    0  502  0.61390487666E+03 -0.30964501900E+03  0.62427786861E+03  0.92869914549E+03  0.10100000352E+00 0. -1.
</event>
<event>
 5   0  0.1497625E-04  0.1408801E+04  0.7818609E-02  0.8947473E-01
        3   -1    0    0  501    0  0.00000000000E+00  0.00000000000E+00  0.73760359850E+03  0.73760360542E+03  0.10100000352E+00 0. -1.
       -3   -1    0    0    0  501  0.00000000000E+00  0.00000000000E+00 -0.67269184853E+03  0.67269185611E+03  0.10100000352E+00 0.  1.
    10030    2    1    2    0    0  0.00000000000E+00  0.00000000000E+00  0.64911749977E+02  0.14102954615E+04  0.14088008211E+04 0.  0.
        1    1    3    3  502    0  0.30378845068E+03  0.63520065672E+03  0.52791000185E+02  0.70608369673E+03  0.50400001928E-02 0. -1.
       -1    1    3    3    0  502 -0.30378845068E+03 -0.63520065672E+03  0.12120749792E+02  0.70421176479E+03  0.50400001928E-02 0.  1.
</event>
<event>
 5   0  0.3917598E-04  0.1395189E+04  0.7818609E-02  0.8957308E-01
        2   -1    0    0  501    0  0.00000000000E+00  0.00000000000E+00  0.21664525590E+04  0.21664525590E+04  0.25500000920E-02 0.  1.
       -2   -1    0    0    0  501  0.00000000000E+00  0.00000000000E+00 -0.22462450891E+03  0.22462450893E+03  0.25500000920E-02 0. -1.
    10030    2    1    2    0    0  0.00000000000E+00  0.00000000000E+00  0.19418280501E+04  0.23910770680E+04  0.13951893666E+04 0.  0.
        3    1    3    3  502    0 -0.69696019144E+03  0.28489345479E+01  0.92016967682E+03  0.11543283195E+04  0.10100000352E+00 0.  1.
       -3    1    3    3    0  502  0.69696019144E+03 -0.28489345479E+01  0.10216583733E+04  0.12367487485E+04  0.10100000352E+00 0. -1.
</event>
<event>
 5   0  0.3975164E-04  0.1397912E+04  0.7818609E-02  0.8955332E-01
       -2   -1    0    0    0  501  0.00000000000E+00  0.00000000000E+00  0.65954411009E+03  0.65954411009E+03  0.25500000920E-02 0. -1.
        2   -1    0    0  501    0  0.00000000000E+00  0.00000000000E+00 -0.74072270514E+03  0.74072270515E+03  0.25500000920E-02 0.  1.
    10030    2    1    2    0    0  0.00000000000E+00  0.00000000000E+00 -0.81178595057E+02  0.14002668152E+04  0.13979117245E+04 0.  0.
        5    1    3    3  502    0 -0.47146475075E+03  0.45916498076E+03 -0.27637004356E+03  0.71380248090E+03  0.46999998093E+01 0.  1.
       -5    1    3    3    0  502  0.47146475075E+03 -0.45916498076E+03  0.19519144851E+03  0.68646433434E+03  0.46999998093E+01 0. -1.
</event>
<event>
 5   0  0.2155352E-04  0.1400543E+04  0.7818609E-02  0.8953426E-01
       -1   -1    0    0    0  501  0.00000000000E+00  0.00000000000E+00  0.61767871818E+03  0.61767871820E+03  0.50400001928E-02 0. -1.
        1   -1    0    0  501    0  0.00000000000E+00  0.00000000000E+00 -0.79390764748E+03  0.79390764750E+03  0.50400001928E-02 0.  1.
    10030    2    1    2    0    0  0.00000000000E+00  0.00000000000E+00 -0.17622892930E+03  0.14115863657E+04  0.14005425493E+04 0.  0.
        2    1    3    3  502    0 -0.21181870727E+01 -0.30816067824E+03 -0.72189116923E+03  0.78491677938E+03  0.25500000920E-02 0.  1.
       -2    1    3    3    0  502  0.21181870727E+01  0.30816067824E+03  0.54566223993E+03  0.62666958632E+03  0.25500000920E-02 0. -1.
</event>
<event>
 5   0  0.2143942E-04  0.1396140E+04  0.7818609E-02  0.8956618E-01
        1   -1    0    0  501    0  0.00000000000E+00  0.00000000000E+00  0.53516643379E+03  0.53516643382E+03  0.50400001928E-02 0.  1.
       -1   -1    0    0    0  501  0.00000000000E+00  0.00000000000E+00 -0.91056045134E+03  0.91056045135E+03  0.50400001928E-02 0. -1.
    10030    2    1    2    0    0  0.00000000000E+00  0.00000000000E+00 -0.37539401755E+03  0.14457268852E+04  0.13961395196E+04 0.  0.
        4    1    3    3  502    0  0.41720832235E+03 -0.54058782439E+03 -0.33776416749E+03  0.76182952545E+03  0.12699999809E+01 0. -1.
       -4    1    3    3    0  502 -0.41720832235E+03  0.54058782439E+03 -0.37629850059E+02  0.68389735972E+03  0.12699999809E+01 0.  1.
</event>
<event>
 5   0  0.3932568E-04  0.1404261E+04  0.7818609E-02  0.8950740E-01
       -2   -1    0    0    0  501  0.00000000000E+00  0.00000000000E+00  0.31645675530E+03  0.31645675531E+03  0.25500000920E-02 0. -1.
        2   -1    0    0  501    0  0.00000000000E+00  0.00000000000E+00 -0.15578349180E+04  0.15578349180E+04  0.25500000920E-02 0.  1.
    10030    2    1    2    0    0  0.00000000000E+00  0.00000000000E+00 -0.12413781627E+04  0.18742916733E+04  0.14042612057E+04 0.  0.
        2    1    3    3  502    0 -0.52469974212E+03  0.46630562889E+03 -0.64122050985E+03  0.95074418283E+03  0.25500000920E-02 0. -1.
       -2    1    3    3    0  502  0.52469974212E+03 -0.46630562889E+03 -0.60015765289E+03  0.92354749052E+03  0.25500000920E-02 0.  1.
</event>
<event>
 5   0  0.3917598E-04  0.1391276E+04  0.7818609E-02  0.8960158E-01
        2   -1    0    0  501    0  0.00000000000E+00  0.00000000000E+00  0.76406340744E+03  0.76406340744E+03  0.25500000920E-02 0. -1.
       -2   -1    0    0    0  501  0.00000000000E+00  0.00000000000E+00 -0.63333995954E+03  0.63333995955E+03  0.25500000920E-02 0.  1.
    10030    2    1    2    0    0  0.00000000000E+00  0.00000000000E+00  0.13072344789E+03  0.13974033670E+04  0.13912755120E+04 0.  0.
        3    1    3    3  502    0 -0.32726063437E+02  0.16817103372E+03 -0.61181802003E+03  0.63535328098E+03  0.10100000352E+00 0.  1.
       -3    1    3    3    0  502  0.32726063437E+02 -0.16817103372E+03  0.74254146792E+03  0.76205008602E+03  0.10100000352E+00 0. -1.
</event>
<event>
 5   0  0.2223112E-04  0.1398430E+04  0.7818609E-02  0.8954956E-01
        1   -1    0    0  501    0  0.00000000000E+00  0.00000000000E+00  0.91197734046E+03  0.91197734047E+03  0.50400001928E-02 0. -1.
       -1   -1    0    0    0  501  0.00000000000E+00  0.00000000000E+00 -0.53608980735E+03  0.53608980738E+03  0.50400001928E-02 0.  1.
    10030    2    1    2    0    0  0.00000000000E+00  0.00000000000E+00  0.37588753311E+03  0.14480671479E+04  0.13984302010E+04 0.  0.
        1    1    3    3  502    0  0.20826584218E+03  0.64053937536E+03  0.38232024015E+03  0.77448958576E+03  0.50400001928E-02 0. -1.
       -1    1    3    3    0  502 -0.20826584218E+03 -0.64053937536E+03 -0.64327070369E+01  0.67357756209E+03  0.50400001928E-02 0.  1.
</event>
<event>
 5   0  0.3975164E-04  0.1403779E+04  0.7818609E-02  0.8951087E-01
       -2   -1    0    0    0  501  0.00000000000E+00  0.00000000000E+00  0.28475693883E+03  0.28475693884E+03  0.25500000920E-02 0.  1.
        2   -1    0    0  501    0  0.00000000000E+00  0.00000000000E+00 -0.17300689881E+04  0.17300689881E+04  0.25500000920E-02 0. -1.
    10030    2    1    2    0    0  0.00000000000E+00  0.00000000000E+00 -0.14453120493E+04  0.20148259270E+04  0.14037793972E+04 0.  0.
        5    1    3    3  502    0  0.54962889780E+03  0.86323028999E+02 -0.13367901527E+04  0.14479549693E+04  0.46999998093E+01 0. -1.
       -5    1    3    3    0  502 -0.54962889780E+03 -0.86323028999E+02 -0.10852189658E+03  0.56687095769E+03  0.46999998093E+01 0.  1.
</event>
<event>
 5   0  0.2143942E-04  0.1401702E+04  0.7818609E-02  0.8952587E-01
       -1   -1    0    0    0  501  0.00000000000E+00  0.00000000000E+00  0.14865277989E+04  0.14865277989E+04  0.50400001928E-02 0. -1.
        1   -1    0    0  501    0  0.00000000000E+00  0.00000000000E+00 -0.33042923923E+03  0.33042923927E+03  0.50400001928E-02 0.  1.
    10030    2    1    2    0    0  0.00000000000E+00  0.00000000000E+00  0.11560985597E+04  0.18169570382E+04  0.14017021791E+04 0.  0.
        4    1    3    3  502    0 -0.20438356053E+02 -0.70031596632E+03  0.55448539550E+03  0.89348522417E+03  0.12699999809E+01 0.  1.
       -4    1    3    3    0  502  0.20438356053E+02  0.70031596632E+03  0.60161316420E+03  0.92347181404E+03  0.12699999809E+01 0. -1.
</event>
<event>
 5   0  0.2217251E-04  0.1399733E+04  0.7818609E-02  0.8954012E-01
        1   -1    0    0  501    0  0.00000000000E+00  0.00000000000E+00  0.11673535590E+04  0.11673535590E+04  0.50400001928E-02 0. -1.
       -1   -1    0    0    0  501  0.00000000000E+00  0.00000000000E+00 -0.41959250813E+03  0.41959250816E+03  0.50400001928E-02 0.  1.
    10030    2    1    2    0    0  0.00000000000E+00  0.00000000000E+00  0.74776105085E+03  0.15869460672E+04  0.13997325569E+04 0.  0.
        5    1    3    3  502    0  0.44186648555E+03 -0.41401615256E+03 -0.23959506906E+02  0.60601279986E+03  0.46999998093E+01 0.  1.
       -5    1    3    3    0  502 -0.44186648555E+03  0.41401615256E+03  0.77172055776E+03  0.98093326730E+03  0.46999998093E+01 0. -1.
</event>
<event>
 5   0  0.3932568E-04  0.1416661E+04  0.7818609E-02  0.8941846E-01
       -2   -1    0    0    0  501  0.00000000000E+00  0.00000000000E+00  0.49972051081E+03  0.49972051081E+03  0.25500000920E-02 0. -1.
        2   -1    0    0  501    0  0.00000000000E+00  0.00000000000E+00 -0.10040252731E+04  0.10040252731E+04  0.25500000920E-02 0.  1.
    10030    2    1    2    0    0  0.00000000000E+00  0.00000000000E+00 -0.50430476229E+03  0.15037457839E+04  0.14166608943E+04 0.  0.
        2    1    3    3  502    0 -0.59053393943E+02 -0.33612959656E+03  0.40669737032E+03  0.53091728174E+03  0.25500000920E-02 0. -1.
       -2    1    3    3    0  502  0.59053393943E+02  0.33612959656E+03 -0.91100213261E+03  0.97282850218E+03  0.25500000920E-02 0.  1.
</event>
<event>
 5   0  0.2223112E-04  0.1426842E+04  0.7818609E-02  0.8934615E-01
        1   -1    0    0  501    0  0.00000000000E+00  0.00000000000E+00  0.90732044520E+03  0.90732044521E+03  0.50400001928E-02 0.  1.
       -1   -1    0    0    0  501  0.00000000000E+00  0.00000000000E+00 -0.56095891960E+03  0.56095891963E+03  0.50400001928E-02 0. -1.
    10030    2    1    2    0    0  0.00000000000E+00  0.00000000000E+00  0.34636152559E+03  0.14682793648E+04  0.14268419628E+04 0.  0.
        1    1    3    3  502    0 -0.68461812944E+03 -0.19031913727E+02  0.37874526024E+03  0.78263156663E+03  0.50400001928E-02 0. -1.
       -1    1    3    3    0  502  0.68461812944E+03  0.19031913727E+02 -0.32383734653E+02  0.68564779821E+03  0.50400001928E-02 0.  1.
</event>
<event>
 5   0  0.2155352E-04  0.1410056E+04  0.7818609E-02  0.8946571E-01
        1   -1    0    0  501    0  0.00000000000E+00  0.00000000000E+00  0.12786475544E+04  0.12786475544E+04  0.50400001928E-02 0. -1.
       -1   -1    0    0    0  501  0.00000000000E+00  0.00000000000E+00 -0.38874239982E+03  0.38874239986E+03  0.50400001928E-02 0.  1.
    10030    2    1    2    0    0  0.00000000000E+00  0.00000000000E+00  0.88990515460E+03  0.16673899543E+04  0.14100560540E+04 0.  0.
        2    1    3    3  502    0 -0.72630156228E+02 -0.67385856998E+03  0.21534059052E+03  0.71114842463E+03  0.25500000920E-02 0. -1.
       -2    1    3    3    0  502  0.72630156228E+02  0.67385856998E+03  0.67456456407E+03  0.95624152965E+03  0.25500000920E-02 0.  1.
</event>
<event>
 5   0  0.3975164E-04  0.1385731E+04  0.7818609E-02  0.8964212E-01
        2   -1    0    0  501    0  0.00000000000E+00  0.00000000000E+00  0.77780862073E+03  0.77780862073E+03  0.25500000920E-02 0.  1.
       -2   -1    0    0    0  501  0.00000000000E+00  0.00000000000E+00 -0.61719923511E+03  0.61719923512E+03  0.25500000920E-02 0. -1.
    10030    2    1    2    0    0  0.00000000000E+00  0.00000000000E+00  0.16060938561E+03  0.13950078559E+04  0.13857314109E+04 0.  0.
        5    1    3    3  502    0  0.16444517686E+03 -0.37462905800E+03 -0.48259103608E+03  0.63269688272E+03  0.46999998093E+01 0. -1.
       -5    1    3    3    0  502 -0.16444517686E+03  0.37462905800E+03  0.64320042170E+03  0.76231097313E+03  0.46999998093E+01 0.  1.
</event>
<event>
 5   0  0.4208622E-04  0.1401148E+04  0.7818609E-02  0.8952988E-01
       -2   -1    0    0    0  501  0.00000000000E+00  0.00000000000E+00  0.83354628800E+03  0.83354628800E+03  0.25500000920E-02 0. -1.
        2   -1    0    0  501    0  0.00000000000E+00  0.00000000000E+00 -0.58881464353E+03  0.58881464353E+03  0.25500000920E-02 0.  1.
    10030    2    1    2    0    0  0.00000000000E+00  0.00000000000E+00  0.24473164447E+03  0.14223609315E+04  0.14011484724E+04 0.  0.
        4    1    3    3  502    0  0.65715327161E+03 -0.20991890647E+03  0.24622229782E+03  0.73249123034E+03  0.12699999809E+01 0.  1.
       -4    1    3    3    0  502 -0.65715327161E+03  0.20991890647E+03 -0.14906533507E+01  0.68986970119E+03  0.12699999809E+01 0. -1.
</event>
<event>
 5   0  0.2155352E-04  0.1404371E+04  0.7818609E-02  0.8950661E-01
        1   -1    0    0  501    0  0.00000000000E+00  0.00000000000E+00  0.12277517380E+04  0.12277517380E+04  0.50400001928E-02 0. -1.
       -1   -1    0    0    0  501  0.00000000000E+00  0.00000000000E+00 -0.40159959913E+03  0.40159959916E+03  0.50400001928E-02 0.  1.
    10030    2    1    2    0    0  0.00000000000E+00  0.00000000000E+00  0.82615213886E+03  0.16293513372E+04  0.14043711843E+04 0.  0.
        2    1    3    3  502    0 -0.18631754922E+03 -0.53033342542E+03  0.90132154885E+03  0.10622374055E+04  0.25500000920E-02 0. -1.
       -2    1    3    3    0  502  0.18631754922E+03  0.53033342542E+03 -0.75169409986E+02  0.56711393165E+03  0.25500000920E-02 0.  1.
</event>
<event>
 5   0  0.2215876E-04  0.1389827E+04  0.7818609E-02  0.8961216E-01
        1   -1    0    0  501    0  0.00000000000E+00  0.00000000000E+00  0.60686803198E+03  0.60686803200E+03  0.50400001928E-02 0.  1.
       -1   -1    0    0    0  501  0.00000000000E+00  0.00000000000E+00 -0.79573235164E+03  0.79573235166E+03  0.50400001928E-02 0. -1.
    10030    2    1    2    0    0  0.00000000000E+00  0.00000000000E+00 -0.18886431966E+03  0.14026003837E+04  0.13898266457E+04 0.  0.
        3    1    3    3  502    0  0.63566958814E+03 -0.14183900176E+03 -0.33896139877E+03  0.73422678225E+03  0.10100000352E+00 0. -1.
       -3    1    3    3    0  502 -0.63566958814E+03  0.14183900176E+03  0.15009707911E+03  0.66837360141E+03  0.10100000352E+00 0.  1.
</event>
<event>
 5   0  0.2155352E-04  0.1395697E+04  0.7818609E-02  0.8956939E-01
       -1   -1    0    0    0  501  0.00000000000E+00  0.00000000000E+00  0.28120948859E+03  0.28120948863E+03  0.50400001928E-02 0. -1.
        1   -1    0    0  501    0  0.00000000000E+00  0.00000000000E+00 -0.17317793579E+04  0.17317793579E+04  0.50400001928E-02 0.  1.
    10030    2    1    2    0    0  0.00000000000E+00  0.00000000000E+00 -0.14505698693E+04  0.20129888465E+04  0.13956973707E+04 0.  0.
        2    1    3    3  502    0  0.13777071456E+03  0.12958202731E+03  0.24353825875E+03  0.30835556599E+03  0.25500000920E-02 0. -1.
       -2    1    3    3    0  502 -0.13777071456E+03 -0.12958202731E+03 -0.16941081280E+04  0.17046332805E+04  0.25500000920E-02 0.  1.
</event>
<event>
 5   0  0.3917598E-04  0.1399265E+04  0.7818609E-02  0.8954351E-01
        2   -1    0    0  501    0  0.00000000000E+00  0.00000000000E+00  0.20668624558E+04  0.20668624558E+04  0.25500000920E-02 0.  1.
       -2   -1    0    0    0  501  0.00000000000E+00  0.00000000000E+00 -0.23682530122E+03  0.23682530124E+03  0.25500000920E-02 0. -1.
    10030    2    1    2    0    0  0.00000000000E+00  0.00000000000E+00  0.18300371545E+04  0.23036877570E+04  0.13992645550E+04 0.  0.
        3    1    3    3  502    0  0.11243003614E+03  0.12973455297E+03  0.20316483055E+04  0.20388885243E+04  0.10100000352E+00 0.  1.
       -3    1    3    3    0  502 -0.11243003614E+03 -0.12973455297E+03 -0.20161115092E+03  0.26479923270E+03  0.10100000352E+00 0. -1.
</event>
<event>
 5   0  0.1497625E-04  0.1401572E+04  0.7818609E-02  0.8952681E-01
       -3   -1    0    0    0  501  0.00000000000E+00  0.00000000000E+00  0.40932549388E+03  0.40932550634E+03  0.10100000352E+00 0.  1.
        3   -1    0    0  501    0  0.00000000000E+00  0.00000000000E+00 -0.11997812159E+04  0.11997812202E+04  0.10100000352E+00 0. -1.
    10030    2    1    2    0    0  0.00000000000E+00  0.00000000000E+00 -0.79045572204E+03  0.16091067265E+04  0.14015720491E+04 0.  0.
        4    1    3    3  502    0 -0.20211142420E+03 -0.13267279882E+03 -0.11503843232E+04  0.11755155479E+04  0.12699999809E+01 0. -1.
       -4    1    3    3    0  502  0.20211142420E+03  0.13267279882E+03  0.35992860117E+03  0.43359117863E+03  0.12699999809E+01 0.  1.
</event>
<event>
 5   0  0.2143942E-04  0.1400794E+04  0.7818609E-02  0.8953244E-01
       -1   -1    0    0    0  501  0.00000000000E+00  0.00000000000E+00  0.95759798944E+03  0.95759798946E+03  0.50400001928E-02 0.  1.
        1   -1    0    0  501    0  0.00000000000E+00  0.00000000000E+00 -0.51227731773E+03  0.51227731775E+03  0.50400001928E-02 0. -1.
    10030    2    1    2    0    0  0.00000000000E+00  0.00000000000E+00  0.44532067172E+03  0.14698753072E+04  0.14007936743E+04 0.  0.
        4    1    3    3  502    0 -0.71439403439E+02  0.67185822329E+03  0.29013736691E+02  0.67626952496E+03  0.12699999809E+01 0. -1.
       -4    1    3    3    0  502  0.71439403439E+02 -0.67185822329E+03  0.41630693502E+03  0.79360578225E+03  0.12699999809E+01 0.  1.
</event>
<event>
 5   0  0.2215876E-04  0.1400948E+04  0.7818609E-02  0.8953132E-01
       -1   -1    0    0    0  501  0.00000000000E+00  0.00000000000E+00  0.22788730675E+03  0.22788730680E+03  0.50400001928E-02 0. -1.
        1   -1    0    0  501    0  0.00000000000E+00  0.00000000000E+00 -0.21530999347E+04  0.21530999347E+04  0.50400001928E-02 0.  1.
    10030    2    1    2    0    0  0.00000000000E+00  0.00000000000E+00 -0.19252126279E+04  0.23809872415E+04  0.14009484578E+04 0.  0.
        3    1    3    3  502    0 -0.16910883493E+03  0.62915285824E+03 -0.52521295645E+03  0.83682720851E+03  0.10100000352E+00 0. -1.
       -3    1    3    3    0  502  0.16910883493E+03 -0.62915285824E+03 -0.13999996715E+04  0.15441600330E+04  0.10100000352E+00 0.  1.
</event>
<event>
 5   0  0.4310348E-04  0.1395669E+04  0.7818609E-02  0.8956960E-01
        2   -1    0    0  501    0  0.00000000000E+00  0.00000000000E+00  0.61531339122E+03  0.61531339123E+03  0.25500000920E-02 0. -1.
       -2   -1    0    0    0  501  0.00000000000E+00  0.00000000000E+00 -0.79142240442E+03  0.79142240443E+03  0.25500000920E-02 0.  1.
    10030    2    1    2    0    0  0.00000000000E+00  0.00000000000E+00 -0.17610901320E+03  0.14067357957E+04  0.13956687337E+04 0.  0.
        1    1    3    3  502    0  0.28720987426E+02  0.21964669497E+03  0.57893540845E+03  0.61986754465E+03  0.50400001928E-02 0. -1.
       -1    1    3    3    0  502 -0.28720987426E+02 -0.21964669497E+03 -0.75504442166E+03  0.78686825100E+03  0.50400001928E-02 0.  1.
</event>
<event>
 5   0  0.2223112E-04  0.1407405E+04  0.7818609E-02  0.8948476E-01
       -1   -1    0    0    0  501  0.00000000000E+00  0.00000000000E+00  0.58712323816E+03  0.58712323818E+03  0.50400001928E-02 0.  1.
        1   -1    0    0  501    0  0.00000000000E+00  0.00000000000E+00 -0.84343019369E+03  0.84343019370E+03  0.50400001928E-02 0. -1.
    10030    2    1    2    0    0  0.00000000000E+00  0.00000000000E+00 -0.25630695553E+03  0.14305534319E+04  0.14074053666E+04 0.  0.
        1    1    3    3  502    0  0.10153409277E+03  0.29364512811E+03  0.51362724189E+03  0.60029124339E+03  0.50400001928E-02 0.  1.
       -1    1    3    3    0  502 -0.10153409277E+03 -0.29364512811E+03 -0.76993419741E+03  0.83026218849E+03  0.50400001928E-02 0. -1.
</event>
<event>
 5   0  0.3917598E-04  0.1395230E+04  0.7818609E-02  0.8957278E-01
        2   -1    0    0  501    0  0.00000000000E+00  0.00000000000E+00  0.13302266209E+04  0.13302266209E+04  0.25500000920E-02 0. -1.
       -2   -1    0    0    0  501  0.00000000000E+00  0.00000000000E+00 -0.36585258328E+03  0.36585258329E+03  0.25500000920E-02 0.  1.
    10030    2    1    2    0    0  0.00000000000E+00  0.00000000000E+00  0.96437403760E+03  0.16960792042E+04  0.13952302256E+04 0.  0.
        3    1    3    3  502    0  0.59036475052E+02 -0.66642636920E+03  0.72243074433E+03  0.98463983339E+03  0.10100000352E+00 0. -1.
       -3    1    3    3    0  502 -0.59036475052E+02  0.66642636920E+03  0.24194329327E+03  0.71143937079E+03  0.10100000352E+00 0.  1.
</event>
<event>
 5   0  0.3917598E-04  0.1398979E+04  0.7818609E-02  0.8954558E-01
       -2   -1    0    0    0  501  0.00000000000E+00  0.00000000000E+00  0.39033340351E+03  0.39033340351E+03  0.25500000920E-02 0.  1.
        2   -1    0    0  501    0  0.00000000000E+00  0.00000000000E+00 -0.12535061514E+04  0.12535061514E+04  0.25500000920E-02 0. -1.
    10030    2    1    2    0    0  0.00000000000E+00  0.00000000000E+00 -0.86317274787E+03  0.16438395549E+04  0.13989786594E+04 0.  0.
        3    1    3    3  502    0 -0.59140828741E+03  0.12359374750E+02  0.70767330335E+01  0.59157975533E+03  0.10100000352E+00 0. -1.
       -3    1    3    3    0  502  0.59140828741E+03 -0.12359374750E+02 -0.87024948090E+03  0.10522597996E+04  0.10100000352E+00 0.  1.
</event>
<event>
 5   0  0.4208622E-04  0.1376897E+04  0.7818609E-02  0.8970713E-01
        2   -1    0    0  501    0  0.00000000000E+00  0.00000000000E+00  0.61637831357E+03  0.61637831358E+03  0.25500000920E-02 0.  1.
       -2   -1    0    0    0  501  0.00000000000E+00  0.00000000000E+00 -0.76894559316E+03  0.76894559316E+03  0.25500000920E-02 0. -1.
    10030    2    1    2    0    0  0.00000000000E+00  0.00000000000E+00 -0.15256727959E+03  0.13853239067E+04  0.13768970738E+04 0.  0.
        4    1    3    3  502    0  0.67931211653E+03 -0.50865348951E+02  0.23862165171E+02  0.68163278326E+03  0.12699999809E+01 0.  1.
       -4    1    3    3    0  502 -0.67931211653E+03  0.50865348951E+02 -0.17642944476E+03  0.70369112348E+03  0.12699999809E+01 0. -1.
</event>
<event>
 5   0  0.2215876E-04  0.1397737E+04  0.7818609E-02  0.8955458E-01
       -1   -1    0    0    0  501  0.00000000000E+00  0.00000000000E+00  0.12982569779E+04  0.12982569780E+04  0.50400001928E-02 0.  1.
        1   -1    0    0  501    0  0.00000000000E+00  0.00000000000E+00 -0.37621008473E+03  0.37621008476E+03  0.50400001928E-02 0. -1.
    10030    2    1    2    0    0  0.00000000000E+00  0.00000000000E+00  0.92204689322E+03  0.16744670627E+04  0.13977372682E+04 0.  0.
        3    1    3    3  502    0  0.53677003997E+03  0.44113179012E+03  0.55145359769E+03  0.88702898073E+03  0.10100000352E+00 0. -1.
       -3    1    3    3    0  502 -0.53677003997E+03 -0.44113179012E+03  0.37059329553E+03  0.78743808198E+03  0.10100000352E+00 0.  1.
</event>
<event>
 5   0  0.4208622E-04  0.1401481E+04  0.7818609E-02  0.8952747E-01
        2   -1    0    0  501    0  0.00000000000E+00  0.00000000000E+00  0.10139659457E+04  0.10139659457E+04  0.25500000920E-02 0. -1.
       -2   -1    0    0    0  501  0.00000000000E+00  0.00000000000E+00 -0.48427384109E+03  0.48427384110E+03  0.25500000920E-02 0.  1.
    10030    2    1    2    0    0  0.00000000000E+00  0.00000000000E+00  0.52969210457E+03  0.14982397868E+04  0.14014809071E+04 0.  0.
        4    1    3    3  502    0 -0.20471387112E+03 -0.30942235314E+03 -0.37065835962E+03  0.52444179287E+03  0.12699999809E+01 0.  1.
       -4    1    3    3    0  502  0.20471387112E+03  0.30942235314E+03  0.90035046419E+03  0.97379799390E+03  0.12699999809E+01 0. -1.
</event>
<event>
 5   0  0.2217251E-04  0.1411820E+04  0.7818609E-02  0.8945307E-01
        1   -1    0    0  501    0  0.00000000000E+00  0.00000000000E+00  0.98303113866E+03  0.98303113867E+03  0.50400001928E-02 0.  1.
       -1   -1    0    0    0  501  0.00000000000E+00  0.00000000000E+00 -0.50691058980E+03  0.50691058982E+03  0.50400001928E-02 0. -1.
    10030    2    1    2    0    0  0.00000000000E+00  0.00000000000E+00  0.47612054886E+03  0.14899417285E+04  0.14118199521E+04 0.  0.
        5    1    3    3  502    0 -0.61169635095E+03  0.35211027237E+03  0.25021883326E+03  0.74885621063E+03  0.46999998093E+01 0.  1.
       -5    1    3    3    0  502  0.61169635095E+03 -0.35211027237E+03  0.22590171560E+03  0.74108551787E+03  0.46999998093E+01 0. -1.
</event>
<event>
 5   0  0.4310348E-04  0.1399156E+04  0.7818609E-02  0.8954429E-01
        2   -1    0    0  501    0  0.00000000000E+00  0.00000000000E+00  0.18559740053E+04  0.18559740053E+04  0.25500000920E-02 0.  1.
       -2   -1    0    0    0  501  0.00000000000E+00  0.00000000000E+00 -0.26369422338E+03  0.26369422339E+03  0.25500000920E-02 0. -1.
    10030    2    1    2    0    0  0.00000000000E+00  0.00000000000E+00  0.15922797820E+04  0.21196682287E+04  0.13991563515E+04 0.  0.
        1    1    3    3  502    0  0.61587208698E+03 -0.10476136091E+03  0.31914042422E+03  0.70151548854E+03  0.50400001928E-02 0. -1.
       -1    1    3    3    0  502 -0.61587208698E+03  0.10476136091E+03  0.12731393577E+04  0.14181527402E+04  0.50400001928E-02 0.  1.
</event>
<event>
 5   0  0.2155352E-04  0.1399231E+04  0.7818609E-02  0.8954375E-01
        1   -1    0    0  501    0  0.00000000000E+00  0.00000000000E+00  0.14414358783E+04  0.14414358783E+04  0.50400001928E-02 0.  1.
       -1   -1    0    0    0  501  0.00000000000E+00  0.00000000000E+00 -0.33956556729E+03  0.33956556733E+03  0.50400001928E-02 0. -1.
    10030    2    1    2    0    0  0.00000000000E+00  0.00000000000E+00  0.11018703110E+04  0.17810014456E+04  0.13992312057E+04 0.  0.
        2    1    3    3  502    0  0.68673253285E+03  0.12466882474E+03  0.48965197872E+03  0.85258603542E+03  0.25500000920E-02 0. -1.
       -2    1    3    3    0  502 -0.68673253285E+03 -0.12466882474E+03  0.61221833230E+03  0.92841541023E+03  0.25500000920E-02 0.  1.
</event>
<event>
 5   0  0.3975164E-04  0.1400335E+04  0.7818609E-02  0.8953576E-01
       -2   -1    0    0    0  501  0.00000000000E+00  0.00000000000E+00  0.95800191580E+03  0.95800191580E+03  0.25500000920E-02 0.  1.
        2   -1    0    0  501    0  0.00000000000E+00  0.00000000000E+00 -0.51172615114E+03  0.51172615115E+03  0.25500000920E-02 0. -1.
    10030    2    1    2    0    0  0.00000000000E+00  0.00000000000E+00  0.44627576465E+03  0.14697280669E+04  0.14003351501E+04 0.  0.
        5    1    3    3  502    0 -0.42216923725E+03 -0.10911204379E+03 -0.35180366964E+03  0.56028583326E+03  0.46999998093E+01 0. -1.
       -5    1    3    3    0  502  0.42216923725E+03  0.10911204379E+03  0.79807943429E+03  0.90944223369E+03  0.46999998093E+01 0.  1.
</event>
<event>
 5   0  0.2215876E-04  0.1402429E+04  0.7818609E-02  0.8952062E-01
        1   -1    0    0  501    0  0.00000000000E+00  0.00000000000E+00  0.53310290106E+03  0.53310290108E+03  0.50400001928E-02 0. -1.
       -1   -1    0    0    0  501  0.00000000000E+00  0.00000000000E+00 -0.92233894117E+03  0.92233894118E+03  0.50400001928E-02 0.  1.
    10030    2    1    2    0    0  0.00000000000E+00  0.00000000000E+00 -0.38923604011E+03  0.14554418423E+04  0.14024287010E+04 0.  0.
        3    1    3    3  502    0  0.56892487248E+02  0.26706103195E+03 -0.86489862361E+03  0.90697739179E+03  0.10100000352E+00 0.  1.
       -3    1    3    3    0  502 -0.56892487248E+02 -0.26706103195E+03  0.47566258350E+03  0.54846445048E+03  0.10100000352E+00 0. -1.
</event>
<event>
 5   0  0.2215876E-04  0.1418683E+04  0.7818609E-02  0.8940405E-01
       -1   -1    0    0    0  501  0.00000000000E+00  0.00000000000E+00  0.13355664922E+04  0.13355664922E+04  0.50400001928E-02 0.  1.
        1   -1    0    0  501    0  0.00000000000E+00  0.00000000000E+00 -0.37674302996E+03  0.37674302999E+03  0.50400001928E-02 0. -1.
    10030    2    1    2    0    0  0.00000000000E+00  0.00000000000E+00  0.95882346221E+03  0.17123095222E+04  0.14186830048E+04 0.  0.
        3    1    3    3  502    0 -0.64164024647E+03 -0.30218544929E+03  0.49405071174E+03  0.86435199290E+03  0.10100000352E+00 0. -1.
       -3    1    3    3    0  502  0.64164024647E+03  0.30218544929E+03  0.46477275046E+03  0.84795752926E+03  0.10100000352E+00 0.  1.
</event>
<event>
 5   0  0.1497625E-04  0.1344044E+04  0.7818609E-02  0.8995349E-01
       -3   -1    0    0    0  501  0.00000000000E+00  0.00000000000E+00  0.23626584587E+03  0.23626586746E+03  0.10100000352E+00 0. -1.
        3   -1    0    0  501    0  0.00000000000E+00  0.00000000000E+00 -0.19114637642E+04  0.19114637669E+04  0.10100000352E+00 0.  1.
    10030    2    1    2    0    0  0.00000000000E+00  0.00000000000E+00 -0.16751979184E+04  0.21477296344E+04  0.13440440903E+04 0.  0.
        3    1    3    3  502    0  0.39963833849E+03 -0.14765532272E+03 -0.71193621266E+01  0.42610279445E+03  0.10100000352E+00 0. -1.
       -3    1    3    3    0  502 -0.39963833849E+03  0.14765532272E+03 -0.16680785562E+04  0.17216268399E+04  0.10100000352E+00 0.  1.
</event>
<event>
 5   0  0.2215876E-04  0.1385263E+04  0.7818609E-02  0.8964556E-01
        1   -1    0    0  501    0  0.00000000000E+00  0.00000000000E+00  0.96055567356E+03  0.96055567357E+03  0.50400001928E-02 0.  1.
       -1   -1    0    0    0  501  0.00000000000E+00  0.00000000000E+00 -0.49943825698E+03  0.49943825700E+03  0.50400001928E-02 0. -1.
    10030    2    1    2    0    0  0.00000000000E+00  0.00000000000E+00  0.46111741658E+03  0.14599939306E+04  0.13852627929E+04 0.  0.
        3    1    3    3  502    0 -0.49833332412E+03  0.22562971417E+03 -0.21720563778E+03  0.58857724143E+03  0.10100000352E+00 0. -1.
       -3    1    3    3    0  502  0.49833332412E+03 -0.22562971417E+03  0.67832305436E+03  0.87141668914E+03  0.10100000352E+00 0.  1.
</event>
<event>
 5   0  0.2155352E-04  0.1403511E+04  0.7818609E-02  0.8951281E-01
        1   -1    0    0  501    0  0.00000000000E+00  0.00000000000E+00  0.13434563913E+04  0.13434563913E+04  0.50400001928E-02 0. -1.
       -1   -1    0    0    0  501  0.00000000000E+00  0.00000000000E+00 -0.36656236162E+03  0.36656236165E+03  0.50400001928E-02 0.  1.
    10030    2    1    2    0    0  0.00000000000E+00  0.00000000000E+00  0.97689402968E+03  0.17100187530E+04  0.14035106662E+04 0.  0.
        2    1    3    3  502    0 -0.60844771057E+03 -0.16794964405E+03  0.86208640996E+03  0.10684608920E+04  0.25500000920E-02 0. -1.
       -2    1    3    3    0  502  0.60844771057E+03  0.16794964405E+03  0.11480761971E+03  0.64155786098E+03  0.25500000920E-02 0.  1.
</event>
<event>
 5   0  0.2217251E-04  0.1396378E+04  0.7818609E-02  0.8956445E-01
        1   -1    0    0  501    0  0.00000000000E+00  0.00000000000E+00  0.11062970026E+04  0.11062970026E+04  0.50400001928E-02 0. -1.
       -1   -1    0    0    0  501  0.00000000000E+00  0.00000000000E+00 -0.44063011582E+03  0.44063011585E+03  0.50400001928E-02 0.  1.
    10030    2    1    2    0    0  0.00000000000E+00  0.00000000000E+00  0.66566688677E+03  0.15469271185E+04  0.13963778520E+04 0.  0.
        5    1    3    3  502    0 -0.46023545485E+03 -0.48078296861E+03  0.99200854330E+02  0.67292780913E+03  0.46999998093E+01 0.  1.
       -5    1    3    3    0  502  0.46023545485E+03  0.48078296861E+03  0.56646603244E+03  0.87399930933E+03  0.46999998093E+01 0. -1.
</event>
<event>
 5   0  0.3975164E-04  0.1397579E+04  0.7818609E-02  0.8955573E-01
       -2   -1    0    0    0  501  0.00000000000E+00  0.00000000000E+00  0.62841860768E+03  0.62841860768E+03  0.25500000920E-02 0.  1.
        2   -1    0    0  501    0  0.00000000000E+00  0.00000000000E+00 -0.77704065343E+03  0.77704065344E+03  0.25500000920E-02 0. -1.
    10030    2    1    2    0    0  0.00000000000E+00  0.00000000000E+00 -0.14862204575E+03  0.14054592611E+04  0.13975790576E+04 0.  0.
        5    1    3    3  502    0 -0.41164647387E+03  0.27995807383E+03 -0.56743840708E+03  0.75487600199E+03  0.46999998093E+01 0. -1.
       -5    1    3    3    0  502  0.41164647387E+03 -0.27995807383E+03  0.41881636132E+03  0.65058325913E+03  0.46999998093E+01 0.  1.
</event>
<event>
 5   0  0.1497625E-04  0.1411055E+04  0.7818609E-02  0.8945855E-01
       -3   -1    0    0    0  501  0.00000000000E+00  0.00000000000E+00  0.10435958446E+04  0.10435958495E+04  0.10100000352E+00 0. -1.
        3   -1    0    0  501    0  0.00000000000E+00  0.00000000000E+00 -0.47697464902E+03  0.47697465971E+03  0.10100000352E+00 0.  1.
    10030    2    1    2    0    0  0.00000000000E+00  0.00000000000E+00  0.56662119561E+03  0.15205705092E+04  0.14110546036E+04 0.  0.
        2    1    3    3  502    0  0.19788464484E+03 -0.67117904966E+03  0.18615124297E+03  0.72408006093E+03  0.25500000920E-02 0.  1.
       -2    1    3    3    0  502 -0.19788464484E+03  0.67117904966E+03  0.38046995263E+03  0.79649044830E+03  0.25500000920E-02 0. -1.
</event>
<event>
 5   0  0.4310348E-04  0.1396861E+04  0.7818609E-02  0.8956094E-01
       -2   -1    0    0    0  501  0.00000000000E+00  0.00000000000E+00  0.77590308939E+03  0.77590308940E+03  0.25500000920E-02 0.  1.
        2   -1    0    0  501    0  0.00000000000E+00  0.00000000000E+00 -0.62869322750E+03  0.62869322751E+03  0.25500000920E-02 0. -1.
    10030    2    1    2    0    0  0.00000000000E+00  0.00000000000E+00  0.14720986189E+03  0.14045963169E+04  0.13968607912E+04 0.  0.
        1    1    3    3  502    0 -0.64130384985E+02 -0.63808728574E+03  0.35179005896E+03  0.73145357754E+03  0.50400001928E-02 0. -1.
       -1    1    3    3    0  502  0.64130384985E+02  0.63808728574E+03 -0.20458019706E+03  0.67314273936E+03  0.50400001928E-02 0.  1.
</event>
<event>
 5   0  0.2223112E-04  0.1403970E+04  0.7818609E-02  0.8950950E-01
        1   -1    0    0  501    0  0.00000000000E+00  0.00000000000E+00  0.67357586184E+03  0.67357586186E+03  0.50400001928E-02 0. -1.
       -1   -1    0    0    0  501  0.00000000000E+00  0.00000000000E+00 -0.73159277688E+03  0.73159277690E+03  0.50400001928E-02 0.  1.
    10030    2    1    2    0    0  0.00000000000E+00  0.00000000000E+00 -0.58016915040E+02  0.14051686388E+04  0.14039704202E+04 0.  0.
        1    1    3    3  502    0 -0.34240849947E+03  0.61090698696E+03 -0.77343648528E+02  0.70457999349E+03  0.50400001928E-02 0. -1.
       -1    1    3    3    0  502  0.34240849947E+03 -0.61090698696E+03  0.19326733488E+02  0.70058864527E+03  0.50400001928E-02 0.  1.
</event>
<event>
 5   0  0.4208622E-04  0.1405275E+04  0.7818609E-02  0.8950009E-01
       -2   -1    0    0    0  501  0.00000000000E+00  0.00000000000E+00  0.42706746455E+03  0.42706746456E+03  0.25500000920E-02 0.  1.
        2   -1    0    0  501    0  0.00000000000E+00  0.00000000000E+00 -0.11560213695E+04  0.11560213695E+04  0.25500000920E-02 0. -1.
    10030    2    1    2    0    0  0.00000000000E+00  0.00000000000E+00 -0.72895390495E+03  0.15830888341E+04  0.14052745145E+04 0.  0.
        4    1    3    3  502    0 -0.55116501286E+03 -0.19708102321E+03  0.73386351992E+02  0.58992454659E+03  0.12699999809E+01 0.  1.
       -4    1    3    3    0  502  0.55116501286E+03  0.19708102321E+03 -0.80234025694E+03  0.99316428747E+03  0.12699999809E+01 0. -1.
</event>
<event>
 5   0  0.3917598E-04  0.1405129E+04  0.7818609E-02  0.8950114E-01
       -2   -1    0    0    0  501  0.00000000000E+00  0.00000000000E+00  0.25244840901E+03  0.25244840903E+03  0.25500000920E-02 0. -1.
        2   -1    0    0  501    0  0.00000000000E+00  0.00000000000E+00 -0.19552395809E+04  0.19552395809E+04  0.25500000920E-02 0.  1.
    10030    2    1    2    0    0  0.00000000000E+00  0.00000000000E+00 -0.17027911719E+04  0.22076879900E+04  0.14051293484E+04 0.  0.
        3    1    3    3  502    0 -0.27047369740E+03  0.58052815255E+03 -0.39758177544E+03  0.75381710995E+03  0.10100000352E+00 0. -1.
       -3    1    3    3    0  502  0.27047369740E+03 -0.58052815255E+03 -0.13052093965E+04  0.14538708800E+04  0.10100000352E+00 0.  1.
</event>
<event>
 5   0  0.2215876E-04  0.1403681E+04  0.7818609E-02  0.8951159E-01
       -1   -1    0    0    0  501  0.00000000000E+00  0.00000000000E+00  0.63366798627E+03  0.63366798629E+03  0.50400001928E-02 0.  1.
        1   -1    0    0  501    0  0.00000000000E+00  0.00000000000E+00 -0.77734675923E+03  0.77734675924E+03  0.50400001928E-02 0. -1.
    10030    2    1    2    0    0  0.00000000000E+00  0.00000000000E+00 -0.14367877296E+03  0.14110147455E+04  0.14036805272E+04 0.  0.
        3    1    3    3  502    0 -0.36437192696E+03 -0.59255233013E+03 -0.16557132267E+03  0.71505177308E+03  0.10100000352E+00 0. -1.
       -3    1    3    3    0  502  0.36437192696E+03  0.59255233013E+03  0.21892549713E+02  0.69596297245E+03  0.10100000352E+00 0.  1.
</event>
<event>
 5   0  0.2217251E-04  0.1394974E+04  0.7818609E-02  0.8957465E-01
        1   -1    0    0  501    0  0.00000000000E+00  0.00000000000E+00  0.83416881305E+03  0.83416881306E+03  0.50400001928E-02 0.  1.
       -1   -1    0    0    0  501  0.00000000000E+00  0.00000000000E+00 -0.58320080025E+03  0.58320080028E+03  0.50400001928E-02 0. -1.
    10030    2    1    2    0    0  0.00000000000E+00  0.00000000000E+00  0.25096801279E+03  0.14173696133E+04  0.13949737192E+04 0.  0.
        5    1    3    3  502    0  0.20640976063E+03 -0.64387387822E+03  0.29936676845E+03  0.73947353732E+03  0.46999998093E+01 0.  1.
       -5    1    3    3    0  502 -0.20640976063E+03  0.64387387822E+03 -0.48398755656E+02  0.67789607602E+03  0.46999998093E+01 0. -1.
</event>
<event>
 5   0  0.1497625E-04  0.1401532E+04  0.7818609E-02  0.8952710E-01
        3   -1    0    0  501    0  0.00000000000E+00  0.00000000000E+00  0.47229088029E+03  0.47229089109E+03  0.10100000352E+00 0. -1.
       -3   -1    0    0    0  501  0.00000000000E+00  0.00000000000E+00 -0.10397683801E+04  0.10397683850E+04  0.10100000352E+00 0.  1.
    10030    2    1    2    0    0  0.00000000000E+00  0.00000000000E+00 -0.56747749983E+03  0.15120592761E+04  0.14015322121E+04 0.  0.
        5    1    3    3  502    0 -0.36441325668E+03  0.45695513694E+01  0.36198775733E+03  0.51368777375E+03  0.46999998093E+01 0. -1.
       -5    1    3    3    0  502  0.36441325668E+03 -0.45695513694E+01 -0.92946525716E+03  0.99837150235E+03  0.46999998093E+01 0.  1.
</event>
<event>
 5   0  0.2143942E-04  0.1398534E+04  0.7818609E-02  0.8954880E-01
        1   -1    0    0  501    0  0.00000000000E+00  0.00000000000E+00  0.89094093063E+03  0.89094093064E+03  0.50400001928E-02 0. -1.
       -1   -1    0    0    0  501  0.00000000000E+00  0.00000000000E+00 -0.54882951695E+03  0.54882951697E+03  0.50400001928E-02 0.  1.
    10030    2    1    2    0    0  0.00000000000E+00  0.00000000000E+00  0.34211141368E+03  0.14397704476E+04  0.13985344910E+04 0.  0.
        4    1    3    3  502    0 -0.58236464121E+03  0.12241964392E+03  0.54908556291E+03  0.80971088226E+03  0.12699999809E+01 0. -1.
       -4    1    3    3    0  502  0.58236464121E+03 -0.12241964392E+03 -0.20697414923E+03  0.63005956536E+03  0.12699999809E+01 0.  1.
</event>
<event>
 5   0  0.3975164E-04  0.1398487E+04  0.7818609E-02  0.8954914E-01
        2   -1    0    0  501    0  0.00000000000E+00  0.00000000000E+00  0.19205442687E+04  0.19205442687E+04  0.25500000920E-02 0. -1.
       -2   -1    0    0    0  501  0.00000000000E+00  0.00000000000E+00 -0.25458500326E+03  0.25458500328E+03  0.25500000920E-02 0.  1.
    10030    2    1    2    0    0  0.00000000000E+00  0.00000000000E+00  0.16659592654E+04  0.21751292720E+04  0.13984874242E+04 0.  0.
        5    1    3    3  502    0 -0.45212412097E+03  0.20210680591E+03  0.65237583405E+02  0.49954120355E+03  0.46999998093E+01 0.  1.
       -5    1    3    3    0  502  0.45212412097E+03 -0.20210680591E+03  0.16007216820E+04  0.16755880684E+04  0.46999998093E+01 0. -1.
</event>
<event>
 5   0  0.3932568E-04  0.1400989E+04  0.7818609E-02  0.8953103E-01
        2   -1    0    0  501    0  0.00000000000E+00  0.00000000000E+00  0.11819725414E+04  0.11819725414E+04  0.25500000920E-02 0. -1.
       -2   -1    0    0    0  501  0.00000000000E+00  0.00000000000E+00 -0.41514715802E+03  0.41514715803E+03  0.25500000920E-02 0.  1.
    10030    2    1    2    0    0  0.00000000000E+00  0.00000000000E+00  0.76682538335E+03  0.15971196994E+04  0.14009889956E+04 0.  0.
        2    1    3    3  502    0  0.16633372134E+03  0.42541745803E+03  0.98884058099E+03  0.10892440567E+04  0.25500000920E-02 0. -1.
       -2    1    3    3    0  502 -0.16633372134E+03 -0.42541745803E+03 -0.22201519764E+03  0.50787564269E+03  0.25500000920E-02 0.  1.
</event>
<event>
 5   0  0.3917598E-04  0.1400450E+04  0.7818609E-02  0.8953493E-01
        2   -1    0    0  501    0  0.00000000000E+00  0.00000000000E+00  0.21128241282E+04  0.21128241282E+04  0.25500000920E-02 0. -1.
       -2   -1    0    0    0  501  0.00000000000E+00  0.00000000000E+00 -0.23206621766E+03  0.23206621768E+03  0.25500000920E-02 0.  1.
    10030    2    1    2    0    0  0.00000000000E+00  0.00000000000E+00  0.18807579106E+04  0.23448903459E+04  0.14004500763E+04 0.  0.
        3    1    3    3  502    0  0.23646998736E+03  0.62352289674E+03  0.58276485739E+03  0.88561489762E+03  0.10100000352E+00 0.  1.
       -3    1    3    3    0  502 -0.23646998736E+03 -0.62352289674E+03  0.12979930532E+04  0.14592754483E+04  0.10100000352E+00 0. -1.
</event>
<event>
 5   0  0.3932568E-04  0.1433660E+04  0.7818609E-02  0.8929808E-01
       -2   -1    0    0    0  501  0.00000000000E+00  0.00000000000E+00  0.35978262010E+03  0.35978262011E+03  0.25500000920E-02 0. -1.
        2   -1    0    0  501    0  0.00000000000E+00  0.00000000000E+00 -0.14282102071E+04  0.14282102071E+04  0.25500000920E-02 0.  1.
    10030    2    1    2    0    0  0.00000000000E+00  0.00000000000E+00 -0.10684275870E+04  0.17879928272E+04  0.14336599462E+04 0.  0.
        2    1    3    3  502    0  0.37190262950E+03  0.23535006851E+03 -0.12398685881E+04  0.13156653588E+04  0.25500000920E-02 0.  1.
       -2    1    3    3    0  502 -0.37190262950E+03 -0.23535006851E+03  0.17144100109E+03  0.47232746843E+03  0.25500000920E-02 0. -1.
</event>
<event>
 5   0  0.3917598E-04  0.1386220E+04  0.7818609E-02  0.8963854E-01
        2   -1    0    0  501    0  0.00000000000E+00  0.00000000000E+00  0.82676897978E+03  0.82676897979E+03  0.25500000920E-02 0. -1.
       -2   -1    0    0    0  501  0.00000000000E+00  0.00000000000E+00 -0.58105848921E+03  0.58105848921E+03  0.25500000920E-02 0.  1.
    10030    2    1    2    0    0  0.00000000000E+00  0.00000000000E+00  0.24571049058E+03  0.14078274690E+04  0.13862195127E+04 0.  0.
        3    1    3    3  502    0  0.51241386111E+02  0.27136790229E+03 -0.52277015560E+03  0.59123164989E+03  0.10100000352E+00 0.  1.
       -3    1    3    3    0  502 -0.51241386111E+02 -0.27136790229E+03  0.76848064618E+03  0.81659581911E+03  0.10100000352E+00 0. -1.
</event>
<event>
 5   0  0.3975164E-04  0.1389159E+04  0.7818609E-02  0.8961703E-01
       -2   -1    0    0    0  501  0.00000000000E+00  0.00000000000E+00  0.16871145244E+04  0.16871145244E+04  0.25500000920E-02 0. -1.
        2   -1    0    0  501    0  0.00000000000E+00  0.00000000000E+00 -0.28595612117E+03  0.28595612118E+03  0.25500000920E-02 0.  1.
    10030    2    1    2    0    0  0.00000000000E+00  0.00000000000E+00  0.14011584032E+04  0.19730706456E+04  0.13891590627E+04 0.  0.
        5    1    3    3  502    0 -0.55911680706E+03 -0.40532633463E+03  0.80608237560E+03  0.10614574545E+04  0.46999998093E+01 0.  1.
       -5    1    3    3    0  502  0.55911680706E+03  0.40532633463E+03  0.59507602762E+03  0.91161319107E+03  0.46999998093E+01 0. -1.
</event>
<event>
 5   0  0.4208622E-04  0.1400574E+04  0.7818609E-02  0.8953403E-01
        2   -1    0    0  501    0  0.00000000000E+00  0.00000000000E+00  0.49989696763E+03  0.49989696764E+03  0.25500000920E-02 0. -1.
       -2   -1    0    0    0  501  0.00000000000E+00  0.00000000000E+00 -0.98100530067E+03  0.98100530067E+03  0.25500000920E-02 0.  1.
    10030    2    1    2    0    0  0.00000000000E+00  0.00000000000E+00 -0.48110833303E+03  0.14809022683E+04  0.14005735611E+04 0.  0.
        4    1    3    3  502    0 -0.33468118972E+03  0.57708823370E+03 -0.46574238763E+03  0.81360918921E+03  0.12699999809E+01 0. -1.
       -4    1    3    3    0  502  0.33468118972E+03 -0.57708823370E+03 -0.15365945403E+02  0.66729307910E+03  0.12699999809E+01 0.  1.
</event>
<event>
 5   0  0.4208622E-04  0.1400827E+04  0.7818609E-02  0.8953220E-01
       -2   -1    0    0    0  501  0.00000000000E+00  0.00000000000E+00  0.38053112904E+03  0.38053112905E+03  0.25500000920E-02 0.  1.
        2   -1    0    0  501    0  0.00000000000E+00  0.00000000000E+00 -0.12891947712E+04  0.12891947712E+04  0.25500000920E-02 0. -1.
    10030    2    1    2    0    0  0.00000000000E+00  0.00000000000E+00 -0.90866364211E+03  0.16697259002E+04  0.14008265301E+04 0.  0.
        4    1    3    3  502    0  0.20884469384E+03  0.61219399311E+03 -0.77456614054E+03  0.10091342380E+04  0.12699999809E+01 0. -1.
       -4    1    3    3    0  502 -0.20884469384E+03 -0.61219399311E+03 -0.13409750157E+03  0.66059166220E+03  0.12699999809E+01 0.  1.
</event>
<event>
 5   0  0.2223112E-04  0.1395290E+04  0.7818609E-02  0.8957235E-01
       -1   -1    0    0    0  501  0.00000000000E+00  0.00000000000E+00  0.50229784390E+03  0.50229784393E+03  0.50400001928E-02 0. -1.
        1   -1    0    0  501    0  0.00000000000E+00  0.00000000000E+00 -0.96896349989E+03  0.96896349990E+03  0.50400001928E-02 0.  1.
    10030    2    1    2    0    0  0.00000000000E+00  0.00000000000E+00 -0.46666565598E+03  0.14712613438E+04  0.13952896142E+04 0.  0.
        1    1    3    3  502    0 -0.15793261331E+03  0.10212910584E+03 -0.94172715013E+03  0.96032447116E+03  0.50400001928E-02 0.  1.
       -1    1    3    3    0  502  0.15793261331E+03 -0.10212910584E+03  0.47506149414E+03  0.51093687266E+03  0.50400001928E-02 0. -1.
</event>
<event>
 5   0  0.3932568E-04  0.1428288E+04  0.7818609E-02  0.8933593E-01
        2   -1    0    0  501    0  0.00000000000E+00  0.00000000000E+00  0.16130527762E+04  0.16130527762E+04  0.25500000920E-02 0.  1.
       -2   -1    0    0    0  501  0.00000000000E+00  0.00000000000E+00 -0.31617192489E+03  0.31617192490E+03  0.25500000920E-02 0. -1.
    10030    2    1    2    0    0  0.00000000000E+00  0.00000000000E+00  0.12968808513E+04  0.19292247011E+04  0.14282884880E+04 0.  0.
        2    1    3    3  502    0  0.47166032318E+03  0.47754629180E+03  0.31899623485E+03  0.74315040142E+03  0.25500000920E-02 0. -1.
       -2    1    3    3    0  502 -0.47166032318E+03 -0.47754629180E+03  0.97788461649E+03  0.11860742997E+04  0.25500000920E-02 0.  1.
</event>
<event>
 5   0  0.2217251E-04  0.1395666E+04  0.7818609E-02  0.8956962E-01
        1   -1    0    0  501    0  0.00000000000E+00  0.00000000000E+00  0.31123397180E+03  0.31123397184E+03  0.50400001928E-02 0.  1.
       -1   -1    0    0    0  501  0.00000000000E+00  0.00000000000E+00 -0.15646450575E+04  0.15646450575E+04  0.50400001928E-02 0. -1.
    10030    2    1    2    0    0  0.00000000000E+00  0.00000000000E+00 -0.12534110857E+04  0.18758790293E+04  0.13956657132E+04 0.  0.
        5    1    3    3  502    0  0.10182975616E+03 -0.62005830365E+03 -0.21879047012E+03  0.66538181443E+03  0.46999998093E+01 0. -1.
       -5    1    3    3    0  502 -0.10182975616E+03  0.62005830365E+03 -0.10346206156E+04  0.12104972149E+04  0.46999998093E+01 0.  1.
</event>
<event>
 5   0  0.2143942E-04  0.1405925E+04  0.7818609E-02  0.8949541E-01
        1   -1    0    0  501    0  0.00000000000E+00  0.00000000000E+00  0.97314816268E+03  0.97314816269E+03  0.50400001928E-02 0. -1.
       -1   -1    0    0    0  501  0.00000000000E+00  0.00000000000E+00 -0.50779128200E+03  0.50779128203E+03  0.50400001928E-02 0.  1.
    10030    2    1    2    0    0  0.00000000000E+00  0.00000000000E+00  0.46535688067E+03  0.14809394447E+04  0.14059248246E+04 0.  0.
        4    1    3    3  502    0  0.23854897848E+03  0.25551606908E+03 -0.40974827294E+03  0.53859942144E+03  0.12699999809E+01 0.  1.
       -4    1    3    3    0  502 -0.23854897848E+03 -0.25551606908E+03  0.87510515362E+03  0.94234002328E+03  0.12699999809E+01 0. -1.
</event>
<event>
 5   0  0.2217251E-04  0.1411031E+04  0.7818609E-02  0.8945873E-01
       -1   -1    0    0    0  501  0.00000000000E+00  0.00000000000E+00  0.43559821866E+03  0.43559821869E+03  0.50400001928E-02 0.  1.
        1   -1    0    0  501    0  0.00000000000E+00  0.00000000000E+00 -0.11426854993E+04  0.11426854993E+04  0.50400001928E-02 0. -1.
    10030    2    1    2    0    0  0.00000000000E+00  0.00000000000E+00 -0.70708728067E+03  0.15782837180E+04  0.14110305001E+04 0.  0.
        5    1    3    3  502    0  0.44986562845E+03 -0.53248540833E+03 -0.23198901302E+03  0.73468414023E+03  0.46999998093E+01 0. -1.
       -5    1    3    3    0  502 -0.44986562845E+03  0.53248540833E+03 -0.47509826766E+03  0.84359957780E+03  0.46999998093E+01 0.  1.
</event>
<event>
 5   0  0.4310348E-04  0.1399892E+04  0.7818609E-02  0.8953897E-01
        2   -1    0    0  501    0  0.00000000000E+00  0.00000000000E+00  0.99840826242E+03  0.99840826243E+03  0.25500000920E-02 0.  1.
       -2   -1    0    0    0  501  0.00000000000E+00  0.00000000000E+00 -0.49070514938E+03  0.49070514939E+03  0.25500000920E-02 0. -1.
    10030    2    1    2    0    0  0.00000000000E+00  0.00000000000E+00  0.50770311304E+03  0.14891134118E+04  0.13998915323E+04 0.  0.
        1    1    3    3  502    0 -0.67494611889E+03  0.17832591218E+03  0.19990770495E+03  0.72616491576E+03  0.50400001928E-02 0. -1.
       -1    1    3    3    0  502  0.67494611889E+03 -0.17832591218E+03  0.30779540809E+03  0.76294849605E+03  0.50400001928E-02 0.  1.
</event>
<event>
 5   0  0.3917598E-04  0.1418071E+04  0.7818609E-02  0.8940841E-01
        2   -1    0    0  501    0  0.00000000000E+00  0.00000000000E+00  0.37531278532E+03  0.37531278532E+03  0.25500000920E-02 0.  1.
       -2   -1    0    0    0  501  0.00000000000E+00  0.00000000000E+00 -0.13394989364E+04  0.13394989364E+04  0.25500000920E-02 0. -1.
    10030    2    1    2    0    0  0.00000000000E+00  0.00000000000E+00 -0.96418615110E+03  0.17148117217E+04  0.14180706284E+04 0.  0.
        3    1    3    3  502    0  0.66043866946E+03 -0.25681195995E+03 -0.51170006294E+03  0.87405296379E+03  0.10100000352E+00 0.  1.
       -3    1    3    3    0  502 -0.66043866946E+03  0.25681195995E+03 -0.45248608816E+03  0.84075875795E+03  0.10100000352E+00 0. -1.
</event>
<event>
 5   0  0.3975164E-04  0.1394313E+04  0.7818609E-02  0.8957945E-01
       -2   -1    0    0    0  501  0.00000000000E+00  0.00000000000E+00  0.53229596928E+03  0.53229596929E+03  0.25500000920E-02 0. -1.
        2   -1    0    0  501    0  0.00000000000E+00  0.00000000000E+00 -0.91307716864E+03  0.91307716864E+03  0.25500000920E-02 0.  1.
    10030    2    1    2    0    0  0.00000000000E+00  0.00000000000E+00 -0.38078119936E+03  0.14453731379E+04  0.13943131593E+04 0.  0.
        5    1    3    3  502    0 -0.61009936596E+03 -0.32885375091E+03 -0.11254614906E+03  0.70217857522E+03  0.46999998093E+01 0. -1.
       -5    1    3    3    0  502  0.61009936596E+03  0.32885375091E+03 -0.26823505030E+03  0.74319456271E+03  0.46999998093E+01 0.  1.
</event>
<event>
 5   0  0.2217251E-04  0.1383648E+04  0.7818609E-02  0.8965741E-01
       -1   -1    0    0    0  501  0.00000000000E+00  0.00000000000E+00  0.35292924216E+03  0.35292924219E+03  0.50400001928E-02 0. -1.
        1   -1    0    0  501    0  0.00000000000E+00  0.00000000000E+00 -0.13561376905E+04  0.13561376905E+04  0.50400001928E-02 0.  1.
    10030    2    1    2    0    0  0.00000000000E+00  0.00000000000E+00 -0.10032084483E+04  0.17090669327E+04  0.13836482897E+04 0.  0.
        5    1    3    3  502    0 -0.64712903978E+03 -0.23740769668E+03 -0.42894667382E+03  0.81188407272E+03  0.46999998093E+01 0.  1.
       -5    1    3    3    0  502  0.64712903978E+03  0.23740769668E+03 -0.57426177451E+03  0.89718285997E+03  0.46999998093E+01 0. -1.
</event>
<event>
 5   0  0.3917598E-04  0.1390882E+04  0.7818609E-02  0.8960445E-01
        2   -1    0    0  501    0  0.00000000000E+00  0.00000000000E+00  0.96836259545E+03  0.96836259545E+03  0.25500000920E-02 0.  1.
       -2   -1    0    0    0  501  0.00000000000E+00  0.00000000000E+00 -0.49943928501E+03  0.49943928502E+03  0.25500000920E-02 0. -1.
    10030    2    1    2    0    0  0.00000000000E+00  0.00000000000E+00  0.46892331044E+03  0.14678018805E+04  0.13908821982E+04 0.  0.
        3    1    3    3  502    0 -0.34261026153E+03  0.41923218589E+03 -0.22614011361E+03  0.58675103594E+03  0.10100000352E+00 0. -1.
       -3    1    3    3    0  502  0.34261026153E+03 -0.41923218589E+03  0.69506342405E+03  0.88105084453E+03  0.10100000352E+00 0.  1.
</event>
<event>
 5   0  0.4310348E-04  0.1412776E+04  0.7818609E-02  0.8944622E-01
       -2   -1    0    0    0  501  0.00000000000E+00  0.00000000000E+00  0.31230537671E+03  0.31230537672E+03  0.25500000920E-02 0. -1.
        2   -1    0    0  501    0  0.00000000000E+00  0.00000000000E+00 -0.15977447353E+04  0.15977447353E+04  0.25500000920E-02 0.  1.
    10030    2    1    2    0    0  0.00000000000E+00  0.00000000000E+00 -0.12854393586E+04  0.19100501120E+04  0.14127763750E+04 0.  0.
        1    1    3    3  502    0  0.67156639986E+03  0.17656252959E+03 -0.46743820691E+03  0.83706286118E+03  0.50400001928E-02 0. -1.
       -1    1    3    3    0  502 -0.67156639986E+03 -0.17656252959E+03 -0.81800115168E+03  0.10729872508E+04  0.50400001928E-02 0.  1.
</event>
<event>
 5   0  0.3975164E-04  0.1399898E+04  0.7818609E-02  0.8953892E-01
        2   -1    0    0  501    0  0.00000000000E+00  0.00000000000E+00  0.18615396239E+04  0.18615396239E+04  0.25500000920E-02 0. -1.
       -2   -1    0    0    0  501  0.00000000000E+00  0.00000000000E+00 -0.26318477412E+03  0.26318477413E+03  0.25500000920E-02 0.  1.
    10030    2    1    2    0    0  0.00000000000E+00  0.00000000000E+00  0.15983548498E+04  0.21247243980E+04  0.13998984041E+04 0.  0.
        5    1    3    3  502    0  0.19121380544E+03 -0.60208883154E+02  0.18170108023E+04  0.18280421698E+04  0.46999998093E+01 0. -1.
       -5    1    3    3    0  502 -0.19121380544E+03  0.60208883154E+02 -0.21865595248E+03  0.29668222824E+03  0.46999998093E+01 0.  1.
</event>
<event>
 5   0  0.2217251E-04  0.1409859E+04  0.7818609E-02  0.8946713E-01
        1   -1    0    0  501    0  0.00000000000E+00  0.00000000000E+00  0.12377148756E+04  0.12377148756E+04  0.50400001928E-02 0. -1.
       -1   -1    0    0    0  501  0.00000000000E+00  0.00000000000E+00 -0.40148609110E+03  0.40148609113E+03  0.50400001928E-02 0.  1.
    10030    2    1    2    0    0  0.00000000000E+00  0.00000000000E+00  0.83622878451E+03  0.16392009668E+04  0.14098585849E+04 0.  0.
        5    1    3    3  502    0  0.18150630117E+03  0.61922476999E+03  0.74803300453E+03  0.98790653353E+03  0.46999998093E+01 0. -1.
       -5    1    3    3    0  502 -0.18150630117E+03 -0.61922476999E+03  0.88195779981E+02  0.65129443322E+03  0.46999998093E+01 0.  1.
</event>
<event>
 5   0  0.3917598E-04  0.1400799E+04  0.7818609E-02  0.8953240E-01
        2   -1    0    0  501    0  0.00000000000E+00  0.00000000000E+00  0.51484542529E+03  0.51484542529E+03  0.25500000920E-02 0.  1.
       -2   -1    0    0    0  501  0.00000000000E+00  0.00000000000E+00 -0.95282859832E+03  0.95282859832E+03  0.25500000920E-02 0. -1.
    10030    2    1    2    0    0  0.00000000000E+00  0.00000000000E+00 -0.43798317303E+03  0.14676740236E+04  0.14007989791E+04 0.  0.
        3    1    3    3  502    0 -0.20043914556E+03  0.63642388713E+03 -0.44210922851E+03  0.80041976195E+03  0.10100000352E+00 0. -1.
       -3    1    3    3    0  502  0.20043914556E+03 -0.63642388713E+03  0.41260554804E+01  0.66725426167E+03  0.10100000352E+00 0.  1.
</event>
<event>
 5   0  0.4310348E-04  0.1397895E+04  0.7818609E-02  0.8955344E-01
       -2   -1    0    0    0  501  0.00000000000E+00  0.00000000000E+00  0.69450662619E+03  0.69450662620E+03  0.25500000920E-02 0.  1.
        2   -1    0    0  501    0  0.00000000000E+00  0.00000000000E+00 -0.70341654148E+03  0.70341654148E+03  0.25500000920E-02 0. -1.
    10030    2    1    2    0    0  0.00000000000E+00  0.00000000000E+00 -0.89099152839E+01  0.13979231677E+04  0.13978947729E+04 0.  0.
        1    1    3    3  502    0  0.68005841511E+02  0.47541194336E+03  0.50338026699E+03  0.69572480450E+03  0.50400001928E-02 0.  1.
       -1    1    3    3    0  502 -0.68005841511E+02 -0.47541194336E+03 -0.51229018227E+03  0.70219836318E+03  0.50400001928E-02 0. -1.
</event>
<event>
 5   0  0.4208622E-04  0.1405629E+04  0.7818609E-02  0.8949754E-01
        2   -1    0    0  501    0  0.00000000000E+00  0.00000000000E+00  0.15364571484E+04  0.15364571484E+04  0.25500000920E-02 0.  1.
       -2   -1    0    0    0  501  0.00000000000E+00  0.00000000000E+00 -0.32148510073E+03  0.32148510074E+03  0.25500000920E-02 0. -1.
    10030    2    1    2    0    0  0.00000000000E+00  0.00000000000E+00  0.12149720477E+04  0.18579422491E+04  0.14056288004E+04 0.  0.
        4    1    3    3  502    0  0.57052719616E+03  0.39212545132E+03  0.76765052228E+03  0.10337081737E+04  0.12699999809E+01 0.  1.
       -4    1    3    3    0  502 -0.57052719616E+03 -0.39212545132E+03  0.44732152537E+03  0.82423407543E+03  0.12699999809E+01 0. -1.
</event>
<event>
 5   0  0.4310348E-04  0.1399316E+04  0.7818609E-02  0.8954314E-01
        2   -1    0    0  501    0  0.00000000000E+00  0.00000000000E+00  0.16433112494E+04  0.16433112494E+04  0.25500000920E-02 0.  1.
       -2   -1    0    0    0  501  0.00000000000E+00  0.00000000000E+00 -0.29788733079E+03  0.29788733080E+03  0.25500000920E-02 0. -1.
    10030    2    1    2    0    0  0.00000000000E+00  0.00000000000E+00  0.13454239186E+04  0.19411985802E+04  0.13993164071E+04 0.  0.
        1    1    3    3  502    0  0.61681669763E+03  0.30514027249E+03  0.84790206204E+03  0.10920216716E+04  0.50400001928E-02 0.  1.
       -1    1    3    3    0  502 -0.61681669763E+03 -0.30514027249E+03  0.49752185660E+03  0.84917690865E+03  0.50400001928E-02 0. -1.
</event>
<event>
 5   0  0.3917598E-04  0.1395122E+04  0.7818609E-02  0.8957357E-01
        2   -1    0    0  501    0  0.00000000000E+00  0.00000000000E+00  0.71414946111E+03  0.71414946112E+03  0.25500000920E-02 0.  1.
       -2   -1    0    0    0  501  0.00000000000E+00  0.00000000000E+00 -0.68135833218E+03  0.68135833218E+03  0.25500000920E-02 0. -1.
    10030    2    1    2    0    0  0.00000000000E+00  0.00000000000E+00  0.32791128936E+02  0.13955077933E+04  0.13951224832E+04 0.  0.
        3    1    3    3  502    0  0.15898592774E+03 -0.11824146170E+03 -0.65261955793E+03  0.68203362533E+03  0.10100000352E+00 0. -1.
       -3    1    3    3    0  502 -0.15898592774E+03  0.11824146170E+03  0.68541068687E+03  0.71347416797E+03  0.10100000352E+00 0.  1.
</event>
<event>
 5   0  0.3932568E-04  0.1389427E+04  0.7818609E-02  0.8961507E-01
        2   -1    0    0  501    0  0.00000000000E+00  0.00000000000E+00  0.13999739379E+04  0.13999739379E+04  0.25500000920E-02 0. -1.
       -2   -1    0    0    0  501  0.00000000000E+00  0.00000000000E+00 -0.34474003948E+03  0.34474003949E+03  0.25500000920E-02 0.  1.
    10030    2    1    2    0    0  0.00000000000E+00  0.00000000000E+00  0.10552338984E+04  0.17447139774E+04  0.13894273218E+04 0.  0.
        2    1    3    3  502    0  0.47185912545E+03  0.14384446267E+03  0.11418680847E+04  0.12438669489E+04  0.25500000920E-02 0. -1.
       -2    1    3    3    0  502 -0.47185912545E+03 -0.14384446267E+03 -0.86634186278E+02  0.50084702849E+03  0.25500000920E-02 0.  1.
</event>
<event>
 5   0  0.4310348E-04  0.1403453E+04  0.7818609E-02  0.8951323E-01
       -2   -1    0    0    0  501  0.00000000000E+00  0.00000000000E+00  0.29624152102E+03  0.29624152103E+03  0.25500000920E-02 0. -1.
        2   -1    0    0  501    0  0.00000000000E+00  0.00000000000E+00 -0.16622250394E+04  0.16622250394E+04  0.25500000920E-02 0.  1.
    10030    2    1    2    0    0  0.00000000000E+00  0.00000000000E+00 -0.13659835184E+04  0.19584665604E+04  0.14034529903E+04 0.  0.
        1    1    3    3  502    0  0.55133408835E+03  0.24387610770E+03 -0.11841460633E+04  0.13287764041E+04  0.50400001928E-02 0.  1.
       -1    1    3    3    0  502 -0.55133408835E+03 -0.24387610770E+03 -0.18183745510E+03  0.62969015634E+03  0.50400001928E-02 0. -1.
</event>
<event>
 5   0  0.3932568E-04  0.1398076E+04  0.7818609E-02  0.8955212E-01
       -2   -1    0    0    0  501  0.00000000000E+00  0.00000000000E+00  0.12275714026E+04  0.12275714026E+04  0.25500000920E-02 0. -1.
        2   -1    0    0  501    0  0.00000000000E+00  0.00000000000E+00 -0.39806576909E+03  0.39806576910E+03  0.25500000920E-02 0.  1.
    10030    2    1    2    0    0  0.00000000000E+00  0.00000000000E+00  0.82950563350E+03  0.16256371717E+04  0.13980760416E+04 0.  0.
        2    1    3    3  502    0  0.53772477330E+03 -0.29239321058E+03  0.22135966376E+02  0.61247997716E+03  0.25500000920E-02 0.  1.
       -2    1    3    3    0  502 -0.53772477330E+03  0.29239321058E+03  0.80736966713E+03  0.10131571945E+04  0.25500000920E-02 0. -1.
</event>
<event>
 5   0  0.2223112E-04  0.1402075E+04  0.7818609E-02  0.8952318E-01
        1   -1    0    0  501    0  0.00000000000E+00  0.00000000000E+00  0.76814532346E+03  0.76814532348E+03  0.50400001928E-02 0. -1.
       -1   -1    0    0    0  501  0.00000000000E+00  0.00000000000E+00 -0.63979281762E+03  0.63979281764E+03  0.50400001928E-02 0.  1.
    10030    2    1    2    0    0  0.00000000000E+00  0.00000000000E+00  0.12835250584E+03  0.14079381411E+04  0.14020754058E+04 0.  0.
        1    1    3    3  502    0 -0.19887857398E+03 -0.11940095570E+03  0.72848960696E+03  0.76453017134E+03  0.50400001928E-02 0. -1.
       -1    1    3    3    0  502  0.19887857398E+03  0.11940095570E+03 -0.60013710112E+03  0.64340796978E+03  0.50400001928E-02 0.  1.
</event>
<event>
 5   0  0.2155352E-04  0.1402226E+04  0.7818609E-02  0.8952209E-01
        1   -1    0    0  501    0  0.00000000000E+00  0.00000000000E+00  0.98255687147E+03  0.98255687148E+03  0.50400001928E-02 0. -1.
       -1   -1    0    0    0  501  0.00000000000E+00  0.00000000000E+00 -0.50028593033E+03  0.50028593035E+03  0.50400001928E-02 0.  1.
    10030    2    1    2    0    0  0.00000000000E+00  0.00000000000E+00  0.48227094114E+03  0.14828428018E+04  0.14022259141E+04 0.  0.
        2    1    3    3  502    0 -0.53855101432E+03  0.70930218791E+02  0.70989331949E+03  0.89387740548E+03  0.25500000920E-02 0. -1.
       -2    1    3    3    0  502  0.53855101432E+03 -0.70930218791E+02 -0.22762237835E+03  0.58896539635E+03  0.25500000920E-02 0.  1.
</event>
<event>
 5   0  0.2143942E-04  0.1399407E+04  0.7818609E-02  0.8954248E-01
        1   -1    0    0  501    0  0.00000000000E+00  0.00000000000E+00  0.49914339957E+03  0.49914339959E+03  0.50400001928E-02 0. -1.
       -1   -1    0    0    0  501  0.00000000000E+00  0.00000000000E+00 -0.98085058864E+03  0.98085058866E+03  0.50400001928E-02 0.  1.
    10030    2    1    2    0    0  0.00000000000E+00  0.00000000000E+00 -0.48170718908E+03  0.14799939883E+04  0.13994071564E+04 0.  0.
        4    1    3    3  502    0 -0.41387161803E+03 -0.55819754888E+03 -0.15422658512E+03  0.71180170851E+03  0.12699999809E+01 0. -1.
       -4    1    3    3    0  502  0.41387161803E+03  0.55819754888E+03 -0.32748060396E+03  0.76819227974E+03  0.12699999809E+01 0.  1.
</event>
<event>
 5   0  0.2217251E-04  0.1405106E+04  0.7818609E-02  0.8950131E-01
        1   -1    0    0  501    0  0.00000000000E+00  0.00000000000E+00  0.14454835230E+04  0.14454835230E+04  0.50400001928E-02 0.  1.
       -1   -1    0    0    0  501  0.00000000000E+00  0.00000000000E+00 -0.34146409855E+03  0.34146409859E+03  0.50400001928E-02 0. -1.
    10030    2    1    2    0    0  0.00000000000E+00  0.00000000000E+00  0.11040194244E+04  0.17869476216E+04  0.14051060148E+04 0.  0.
        5    1    3    3  502    0  0.86133681080E+02 -0.52104841935E+03  0.11412145810E+04  0.12574988176E+04  0.46999998093E+01 0.  1.
       -5    1    3    3    0  502 -0.86133681080E+02  0.52104841935E+03 -0.37195156622E+02  0.52944880395E+03  0.46999998093E+01 0. -1.
</event>
<event>
 5   0  0.3917598E-04  0.1396016E+04  0.7818609E-02  0.8956708E-01
       -2   -1    0    0    0  501  0.00000000000E+00  0.00000000000E+00  0.58850396923E+03  0.58850396923E+03  0.25500000920E-02 0.  1.
        2   -1    0    0  501    0  0.00000000000E+00  0.00000000000E+00 -0.82788722015E+03  0.82788722015E+03  0.25500000920E-02 0. -1.
    10030    2    1    2    0    0  0.00000000000E+00  0.00000000000E+00 -0.23938325092E+03  0.14163911894E+04  0.13960156376E+04 0.  0.
        3    1    3    3  502    0  0.44381262165E+02  0.52716380354E+03  0.34230433726E+03  0.63011399104E+03  0.10100000352E+00 0.  1.
       -3    1    3    3    0  502 -0.44381262165E+02 -0.52716380354E+03 -0.58168758818E+03  0.78627719835E+03  0.10100000352E+00 0. -1.
</event>
<event>
 5   0  0.3917598E-04  0.1371966E+04  0.7818609E-02  0.8974365E-01
        2   -1    0    0  501    0  0.00000000000E+00  0.00000000000E+00  0.55832946300E+03  0.55832946300E+03  0.25500000920E-02 0. -1.
       -2   -1    0    0    0  501  0.00000000000E+00  0.00000000000E+00 -0.84282272067E+03  0.84282272068E+03  0.25500000920E-02 0.  1.
    10030    2    1    2    0    0  0.00000000000E+00  0.00000000000E+00 -0.28449325768E+03  0.14011521837E+04  0.13719661177E+04 0.  0.
        3    1    3    3  502    0  0.21798152749E+02 -0.67684276429E+03 -0.30458216172E+02  0.67787830779E+03  0.10100000352E+00 0. -1.
       -3    1    3    3    0  502 -0.21798152749E+02  0.67684276429E+03 -0.25403504150E+03  0.72327387589E+03  0.10100000352E+00 0.  1.
</event>
<event>
 5   0  0.2215876E-04  0.1390417E+04  0.7818609E-02  0.8960785E-01
        1   -1    0    0  501    0  0.00000000000E+00  0.00000000000E+00  0.84909194531E+03  0.84909194532E+03  0.50400001928E-02 0.  1.
       -1   -1    0    0    0  501  0.00000000000E+00  0.00000000000E+00 -0.56921381760E+03  0.56921381762E+03  0.50400001928E-02 0. -1.
    10030    2    1    2    0    0  0.00000000000E+00  0.00000000000E+00  0.27987812771E+03  0.14183057629E+04  0.13904170133E+04 0.  0.
        3    1    3    3  502    0  0.13501331005E+03 -0.25121586067E+03  0.78667250560E+03  0.83677454778E+03  0.10100000352E+00 0.  1.
       -3    1    3    3    0  502 -0.13501331005E+03  0.25121586067E+03 -0.50679437789E+03  0.58153121516E+03  0.10100000352E+00 0. -1.
</event>
<event>
 5   0  0.2143942E-04  0.1402728E+04  0.7818609E-02  0.8951846E-01
        1   -1    0    0  501    0  0.00000000000E+00  0.00000000000E+00  0.17310231037E+04  0.17310231037E+04  0.50400001928E-02 0.  1.
       -1   -1    0    0    0  501  0.00000000000E+00  0.00000000000E+00 -0.28417387716E+03  0.28417387721E+03  0.50400001928E-02 0. -1.
    10030    2    1    2    0    0  0.00000000000E+00  0.00000000000E+00  0.14468492265E+04  0.20151969809E+04  0.14027281232E+04 0.  0.
        4    1    3    3  502    0  0.16467602965E+03 -0.38452671255E+03  0.15321970157E+04  0.15882721099E+04  0.12699999809E+01 0.  1.
       -4    1    3    3    0  502 -0.16467602965E+03  0.38452671255E+03 -0.85347789195E+02  0.42692487094E+03  0.12699999809E+01 0. -1.
</event>
<event>
 5   0  0.2217251E-04  0.1396894E+04  0.7818609E-02  0.8956070E-01
        1   -1    0    0  501    0  0.00000000000E+00  0.00000000000E+00  0.14930929123E+04  0.14930929123E+04  0.50400001928E-02 0. -1.
       -1   -1    0    0    0  501  0.00000000000E+00  0.00000000000E+00 -0.32672324097E+03  0.32672324101E+03  0.50400001928E-02 0.  1.
    10030    2    1    2    0    0  0.00000000000E+00  0.00000000000E+00  0.11663696713E+04  0.18198161533E+04  0.13968939193E+04 0.  0.
        5    1    3    3  502    0 -0.56979671101E+03  0.12377426682E+03  0.82312188287E+02  0.58888517331E+03  0.46999998093E+01 0.  1.
       -5    1    3    3    0  502  0.56979671101E+03 -0.12377426682E+03  0.10840574830E+04  0.12309309800E+04  0.46999998093E+01 0. -1.
</event>
<event>
 5   0  0.4208622E-04  0.1400202E+04  0.7818609E-02  0.8953672E-01
       -2   -1    0    0    0  501  0.00000000000E+00  0.00000000000E+00  0.12542743131E+04  0.12542743131E+04  0.25500000920E-02 0.  1.
        2   -1    0    0  501    0  0.00000000000E+00  0.00000000000E+00 -0.39077705036E+03  0.39077705037E+03  0.25500000920E-02 0. -1.
    10030    2    1    2    0    0  0.00000000000E+00  0.00000000000E+00  0.86349726272E+03  0.16450513635E+04  0.14002022946E+04 0.  0.
        4    1    3    3  502    0  0.15733448374E+03 -0.62811424571E+03  0.74448919882E+03  0.98668506905E+03  0.12699999809E+01 0.  1.
       -4    1    3    3    0  502 -0.15733448374E+03  0.62811424571E+03  0.11900806391E+03  0.65836629441E+03  0.12699999809E+01 0. -1.
</event>
<event>
 5   0  0.4208622E-04  0.1410439E+04  0.7818609E-02  0.8946296E-01
       -2   -1    0    0    0  501  0.00000000000E+00  0.00000000000E+00  0.55856395555E+03  0.55856395556E+03  0.25500000920E-02 0. -1.
        2   -1    0    0  501    0  0.00000000000E+00  0.00000000000E+00 -0.89038111018E+03  0.89038111019E+03  0.25500000920E-02 0.  1.
    10030    2    1    2    0    0  0.00000000000E+00  0.00000000000E+00 -0.33181715463E+03  0.14489450657E+04  0.14104393569E+04 0.  0.
        4    1    3    3  502    0 -0.37434522077E+03  0.85728702342E+02 -0.77353700764E+03  0.86362310634E+03  0.12699999809E+01 0.  1.
       -4    1    3    3    0  502  0.37434522077E+03 -0.85728702342E+02  0.44171985301E+03  0.58532195941E+03  0.12699999809E+01 0. -1.
</event>
<event>
 5   0  0.3917598E-04  0.1405634E+04  0.7818609E-02  0.8949751E-01
       -2   -1    0    0    0  501  0.00000000000E+00  0.00000000000E+00  0.48007426630E+03  0.48007426631E+03  0.25500000920E-02 0. -1.
        2   -1    0    0  501    0  0.00000000000E+00  0.00000000000E+00 -0.10289066591E+04  0.10289066591E+04  0.25500000920E-02 0.  1.
    10030    2    1    2    0    0  0.00000000000E+00  0.00000000000E+00 -0.54883239278E+03  0.15089809254E+04  0.14056338207E+04 0.  0.
        3    1    3    3  502    0 -0.11106875827E+03  0.22525827073E+03 -0.97908771275E+03  0.10107869791E+04  0.10100000352E+00 0.  1.
       -3    1    3    3    0  502  0.11106875827E+03 -0.22525827073E+03  0.43025531997E+03  0.49819394633E+03  0.10100000352E+00 0. -1.
</event>
<event>
 5   0  0.2223112E-04  0.1398930E+04  0.7818609E-02  0.8954593E-01
        1   -1    0    0  501    0  0.00000000000E+00  0.00000000000E+00  0.63380566491E+03  0.63380566493E+03  0.50400001928E-02 0. -1.
       -1   -1    0    0    0  501  0.00000000000E+00  0.00000000000E+00 -0.77192654038E+03  0.77192654039E+03  0.50400001928E-02 0.  1.
    10030    2    1    2    0    0  0.00000000000E+00  0.00000000000E+00 -0.13812087547E+03  0.14057322053E+04  0.13989301830E+04 0.  0.
        1    1    3    3  502    0 -0.54185677988E+03 -0.34883118207E+03 -0.34233763356E+03  0.72971708138E+03  0.50400001928E-02 0.  1.
       -1    1    3    3    0  502  0.54185677988E+03  0.34883118207E+03  0.20421675810E+03  0.67601512394E+03  0.50400001928E-02 0. -1.
</event>
<event>
 5   0  0.4208622E-04  0.1408497E+04  0.7818609E-02  0.8947691E-01
        2   -1    0    0  501    0  0.00000000000E+00  0.00000000000E+00  0.15445625416E+04  0.15445625416E+04  0.25500000920E-02 0.  1.
       -2   -1    0    0    0  501  0.00000000000E+00  0.00000000000E+00 -0.32110448981E+03  0.32110448982E+03  0.25500000920E-02 0. -1.
    10030    2    1    2    0    0  0.00000000000E+00  0.00000000000E+00  0.12234580518E+04  0.18656670315E+04  0.14084970244E+04 0.  0.
        4    1    3    3  502    0 -0.53801837216E+03  0.40964390445E+03  0.35117885859E+03  0.76197119424E+03  0.12699999809E+01 0. -1.
       -4    1    3    3    0  502  0.53801837216E+03 -0.40964390445E+03  0.87227919323E+03  0.11036958372E+04  0.12699999809E+01 0.  1.
</event>
<event>
 5   0  0.2143942E-04  0.1392859E+04  0.7818609E-02  0.8959004E-01
        1   -1    0    0  501    0  0.00000000000E+00  0.00000000000E+00  0.15225790984E+04  0.15225790984E+04  0.50400001928E-02 0. -1.
       -1   -1    0    0    0  501  0.00000000000E+00  0.00000000000E+00 -0.31854747622E+03  0.31854747626E+03  0.50400001928E-02 0.  1.
    10030    2    1    2    0    0  0.00000000000E+00  0.00000000000E+00  0.12040316222E+04  0.18411265747E+04  0.13928585416E+04 0.  0.
        4    1    3    3  502    0  0.37905963108E+03  0.11146255110E+03  0.13600868407E+04  0.14163149125E+04  0.12699999809E+01 0. -1.
       -4    1    3    3    0  502 -0.37905963108E+03 -0.11146255110E+03 -0.15605521850E+03  0.42481166220E+03  0.12699999809E+01 0.  1.
</event>
<event>
 5   0  0.4310348E-04  0.1403981E+04  0.7818609E-02  0.8950942E-01
       -2   -1    0    0    0  501  0.00000000000E+00  0.00000000000E+00  0.46423553989E+03  0.46423553989E+03  0.25500000920E-02 0.  1.
        2   -1    0    0  501    0  0.00000000000E+00  0.00000000000E+00 -0.10615100280E+04  0.10615100280E+04  0.25500000920E-02 0. -1.
    10030    2    1    2    0    0  0.00000000000E+00  0.00000000000E+00 -0.59727448808E+03  0.15257455679E+04  0.14039810268E+04 0.  0.
        1    1    3    3  502    0  0.54007104381E+03 -0.14842626742E+03 -0.75852174814E+03  0.94290101901E+03  0.50400001928E-02 0. -1.
       -1    1    3    3    0  502 -0.54007104381E+03  0.14842626742E+03  0.16124726007E+03  0.58284454885E+03  0.50400001928E-02 0.  1.
</event>
<event>
 5   0  0.3975164E-04  0.1495714E+04  0.7818609E-02  0.8887308E-01
       -2   -1    0    0    0  501  0.00000000000E+00  0.00000000000E+00  0.49097266849E+03  0.49097266850E+03  0.25500000920E-02 0. -1.
        2   -1    0    0  501    0  0.00000000000E+00  0.00000000000E+00 -0.11391470044E+04  0.11391470044E+04  0.25500000920E-02 0.  1.
    10030    2    1    2    0    0  0.00000000000E+00  0.00000000000E+00 -0.64817433589E+03  0.16301196729E+04  0.14957139360E+04 0.  0.
        5    1    3    3  502    0  0.11032464819E+02  0.46328450662E+03  0.31560966451E+03  0.56070116791E+03  0.46999998093E+01 0. -1.
       -5    1    3    3    0  502 -0.11032464819E+02 -0.46328450662E+03 -0.96378400040E+03  0.10694185050E+04  0.46999998093E+01 0.  1.
</event>
<event>
 5   0  0.2223112E-04  0.1405949E+04  0.7818609E-02  0.8949524E-01
       -1   -1    0    0    0  501  0.00000000000E+00  0.00000000000E+00  0.27376236475E+03  0.27376236480E+03  0.50400001928E-02 0. -1.
        1   -1    0    0  501    0  0.00000000000E+00  0.00000000000E+00 -0.18051171986E+04  0.18051171986E+04  0.50400001928E-02 0.  1.
    10030    2    1    2    0    0  0.00000000000E+00  0.00000000000E+00 -0.15313548339E+04  0.20788795634E+04  0.14059490076E+04 0.  0.
        1    1    3    3  502    0 -0.49741639509E+03  0.34050366587E+02 -0.14984440401E+04  0.15792140574E+04  0.50400001928E-02 0.  1.
       -1    1    3    3    0  502  0.49741639509E+03 -0.34050366587E+02 -0.32910793737E+02  0.49966550605E+03  0.50400001928E-02 0. -1.
</event>
<event>
 5   0  0.2223112E-04  0.1400465E+04  0.7818609E-02  0.8953482E-01
        1   -1    0    0  501    0  0.00000000000E+00  0.00000000000E+00  0.76653844366E+03  0.76653844368E+03  0.50400001928E-02 0. -1.
       -1   -1    0    0    0  501  0.00000000000E+00  0.00000000000E+00 -0.63966183841E+03  0.63966183843E+03  0.50400001928E-02 0.  1.
    10030    2    1    2    0    0  0.00000000000E+00  0.00000000000E+00  0.12687660525E+03  0.14062002821E+04  0.14004647659E+04 0.  0.
        1    1    3    3  502    0 -0.11105432176E+03  0.66984214010E+03  0.23532300414E+03  0.71860870530E+03  0.50400001928E-02 0. -1.
       -1    1    3    3    0  502  0.11105432176E+03 -0.66984214010E+03 -0.10844639889E+03  0.68759157680E+03  0.50400001928E-02 0.  1.
</event>
<event>
 5   0  0.2143942E-04  0.1374395E+04  0.7818609E-02  0.8972564E-01
       -1   -1    0    0    0  501  0.00000000000E+00  0.00000000000E+00  0.61063837988E+03  0.61063837990E+03  0.50400001928E-02 0. -1.
        1   -1    0    0  501    0  0.00000000000E+00  0.00000000000E+00 -0.77335480292E+03  0.77335480294E+03  0.50400001928E-02 0.  1.
    10030    2    1    2    0    0  0.00000000000E+00  0.00000000000E+00 -0.16271642304E+03  0.13839931828E+04  0.13743945925E+04 0.  0.
        4    1    3    3  502    0 -0.21586148348E+03  0.11088089199E+03 -0.72876955830E+03  0.76811290463E+03  0.12699999809E+01 0.  1.
       -4    1    3    3    0  502  0.21586148348E+03 -0.11088089199E+03  0.56605313525E+03  0.61588027821E+03  0.12699999809E+01 0. -1.
</event>
<event>
 5   0  0.4208622E-04  0.1401341E+04  0.7818609E-02  0.8952848E-01
       -2   -1    0    0    0  501  0.00000000000E+00  0.00000000000E+00  0.27591552668E+03  0.27591552669E+03  0.25500000920E-02 0. -1.
        2   -1    0    0  501    0  0.00000000000E+00  0.00000000000E+00 -0.17793097488E+04  0.17793097488E+04  0.25500000920E-02 0.  1.
    10030    2    1    2    0    0  0.00000000000E+00  0.00000000000E+00 -0.15033942221E+04  0.20552252755E+04  0.14013410527E+04 0.  0.
        4    1    3    3  502    0 -0.56813887995E+03 -0.32365892906E+03 -0.38241135202E+03  0.75748065607E+03  0.12699999809E+01 0.  1.
       -4    1    3    3    0  502  0.56813887995E+03  0.32365892906E+03 -0.11209828701E+04  0.12977446194E+04  0.12699999809E+01 0. -1.
</event>
<event>
 5   0  0.2223112E-04  0.1399964E+04  0.7818609E-02  0.8953844E-01
        1   -1    0    0  501    0  0.00000000000E+00  0.00000000000E+00  0.12879362222E+04  0.12879362222E+04  0.50400001928E-02 0. -1.
       -1   -1    0    0    0  501  0.00000000000E+00  0.00000000000E+00 -0.38043429532E+03  0.38043429535E+03  0.50400001928E-02 0.  1.
    10030    2    1    2    0    0  0.00000000000E+00  0.00000000000E+00  0.90750192685E+03  0.16683705175E+04  0.13999644412E+04 0.  0.
        1    1    3    3  502    0  0.61610518728E+03  0.31468551343E+03  0.58078295821E+03  0.90328368674E+03  0.50400001928E-02 0.  1.
       -1    1    3    3    0  502 -0.61610518728E+03 -0.31468551343E+03  0.32671896864E+03  0.76508683079E+03  0.50400001928E-02 0. -1.
</event>
<event>
 5   0  0.4310348E-04  0.1397454E+04  0.7818609E-02  0.8955663E-01
       -2   -1    0    0    0  501  0.00000000000E+00  0.00000000000E+00  0.54679786217E+03  0.54679786218E+03  0.25500000920E-02 0.  1.
        2   -1    0    0  501    0  0.00000000000E+00  0.00000000000E+00 -0.89287019295E+03  0.89287019295E+03  0.25500000920E-02 0. -1.
    10030    2    1    2    0    0  0.00000000000E+00  0.00000000000E+00 -0.34607233078E+03  0.14396680551E+04  0.13974541319E+04 0.  0.
        1    1    3    3  502    0 -0.26938224291E+03 -0.35878035668E+03  0.37880273628E+03  0.58718110508E+03  0.50400001928E-02 0.  1.
       -1    1    3    3    0  502  0.26938224291E+03  0.35878035668E+03 -0.72487506706E+03  0.85248695004E+03  0.50400001928E-02 0. -1.
</event>
<event>
 5   0  0.1497625E-04  0.1401595E+04  0.7818609E-02  0.8952665E-01
        3   -1    0    0  501    0  0.00000000000E+00  0.00000000000E+00  0.10846524435E+04  0.10846524482E+04  0.10100000352E+00 0. -1.
       -3   -1    0    0    0  501  0.00000000000E+00  0.00000000000E+00 -0.45278769238E+03  0.45278770365E+03  0.10100000352E+00 0.  1.
    10030    2    1    2    0    0  0.00000000000E+00  0.00000000000E+00  0.63186475109E+03  0.15374401518E+04  0.14015952186E+04 0.  0.
        5    1    3    3  502    0  0.52521285170E+03  0.42708543412E+03  0.51472863370E+03  0.85042234447E+03  0.46999998093E+01 0. -1.
       -5    1    3    3    0  502 -0.52521285170E+03 -0.42708543412E+03  0.11713611739E+03  0.68701780735E+03  0.46999998093E+01 0.  1.
</event>
<event>
 5   0  0.1497625E-04  0.1425869E+04  0.7818609E-02  0.8935304E-01
        3   -1    0    0  501    0  0.00000000000E+00  0.00000000000E+00  0.12429198514E+04  0.12429198555E+04  0.10100000352E+00 0. -1.
       -3   -1    0    0    0  501  0.00000000000E+00  0.00000000000E+00 -0.40893647279E+03  0.40893648526E+03  0.10100000352E+00 0.  1.
    10030    2    1    2    0    0  0.00000000000E+00  0.00000000000E+00  0.83398337859E+03  0.16518563407E+04  0.14258685405E+04 0.  0.
        2    1    3    3  502    0 -0.55750740535E+03  0.39098128624E+02 -0.95805442718E+02  0.56702897064E+03  0.25500000920E-02 0.  1.
       -2    1    3    3    0  502  0.55750740535E+03 -0.39098128624E+02  0.92978882130E+03  0.10848273701E+04  0.25500000920E-02 0. -1.
</event>
<event>
 5   0  0.3917598E-04  0.1406643E+04  0.7818609E-02  0.8949024E-01
        2   -1    0    0  501    0  0.00000000000E+00  0.00000000000E+00  0.12556895871E+04  0.12556895871E+04  0.25500000920E-02 0. -1.
       -2   -1    0    0    0  501  0.00000000000E+00  0.00000000000E+00 -0.39393596976E+03  0.39393596977E+03  0.25500000920E-02 0.  1.
    10030    2    1    2    0    0  0.00000000000E+00  0.00000000000E+00  0.86175361735E+03  0.16496255569E+04  0.14066432316E+04 0.  0.
        3    1    3    3  502    0  0.69860894297E+02  0.35993158742E+03  0.11347450176E+04  0.11925089339E+04  0.10100000352E+00 0. -1.
       -3    1    3    3    0  502 -0.69860894297E+02 -0.35993158742E+03 -0.27299140029E+03  0.45711662298E+03  0.10100000352E+00 0.  1.
</event>
<event>
 5   0  0.2223112E-04  0.1390458E+04  0.7818609E-02  0.8960755E-01
       -1   -1    0    0    0  501  0.00000000000E+00  0.00000000000E+00  0.89643947696E+03  0.89643947698E+03  0.50400001928E-02 0.  1.
        1   -1    0    0  501    0  0.00000000000E+00  0.00000000000E+00 -0.53918087868E+03  0.53918087870E+03  0.50400001928E-02 0. -1.
    10030    2    1    2    0    0  0.00000000000E+00  0.00000000000E+00  0.35725859829E+03  0.14356203557E+04  0.13904575145E+04 0.  0.
        1    1    3    3  502    0  0.47393139370E+03  0.14624640404E+03  0.68163285692E+03  0.84298418034E+03  0.50400001928E-02 0.  1.
       -1    1    3    3    0  502 -0.47393139370E+03 -0.14624640404E+03 -0.32437425864E+03  0.59263617534E+03  0.50400001928E-02 0. -1.
</event>
<event>
 5   0  0.1497625E-04  0.1395803E+04  0.7818609E-02  0.8956862E-01
       -3   -1    0    0    0  501  0.00000000000E+00  0.00000000000E+00  0.12602862225E+04  0.12602862265E+04  0.10100000352E+00 0. -1.
        3   -1    0    0  501    0  0.00000000000E+00  0.00000000000E+00 -0.38647306865E+03  0.38647308185E+03  0.10100000352E+00 0.  1.
    10030    2    1    2    0    0  0.00000000000E+00  0.00000000000E+00  0.87381315382E+03  0.16467593084E+04  0.13958032784E+04 0.  0.
        2    1    3    3  502    0  0.19207590489E+03 -0.65677147595E+03  0.27503492896E+03  0.73748636395E+03  0.25500000920E-02 0.  1.
       -2    1    3    3    0  502 -0.19207590489E+03  0.65677147595E+03  0.59877822485E+03  0.90927294440E+03  0.25500000920E-02 0. -1.
</event>
<event>
 5   0  0.3975164E-04  0.1389468E+04  0.7818609E-02  0.8961477E-01
       -2   -1    0    0    0  501  0.00000000000E+00  0.00000000000E+00  0.77343235079E+03  0.77343235080E+03  0.25500000920E-02 0. -1.
        2   -1    0    0  501    0  0.00000000000E+00  0.00000000000E+00 -0.62404373658E+03  0.62404373658E+03  0.25500000920E-02 0.  1.
    10030    2    1    2    0    0  0.00000000000E+00  0.00000000000E+00  0.14938861422E+03  0.13974760874E+04  0.13894684080E+04 0.  0.
        5    1    3    3  502    0 -0.19444455048E+03 -0.63188410293E+03 -0.13995383287E+03  0.67579240014E+03  0.46999998093E+01 0. -1.
       -5    1    3    3    0  502  0.19444455048E+03  0.63188410293E+03  0.28934244708E+03  0.72168368724E+03  0.46999998093E+01 0.  1.
</event>
<event>
 5   0  0.2223112E-04  0.1400299E+04  0.7818609E-02  0.8953602E-01
       -1   -1    0    0    0  501  0.00000000000E+00  0.00000000000E+00  0.33357052969E+03  0.33357052973E+03  0.50400001928E-02 0.  1.
        1   -1    0    0  501    0  0.00000000000E+00  0.00000000000E+00 -0.14695824701E+04  0.14695824701E+04  0.50400001928E-02 0. -1.
    10030    2    1    2    0    0  0.00000000000E+00  0.00000000000E+00 -0.11360119404E+04  0.18031529999E+04  0.14002991152E+04 0.  0.
        1    1    3    3  502    0 -0.39754617287E+03  0.57572479360E+03 -0.53375712198E+03  0.87999924024E+03  0.50400001928E-02 0. -1.
       -1    1    3    3    0  502  0.39754617287E+03 -0.57572479360E+03 -0.60225481844E+03  0.92315375961E+03  0.50400001928E-02 0.  1.
</event>
<event>
 5   0  0.2217251E-04  0.1397729E+04  0.7818609E-02  0.8955464E-01
       -1   -1    0    0    0  501  0.00000000000E+00  0.00000000000E+00  0.53465708568E+03  0.53465708571E+03  0.50400001928E-02 0. -1.
        1   -1    0    0  501    0  0.00000000000E+00  0.00000000000E+00 -0.91350483591E+03  0.91350483593E+03  0.50400001928E-02 0.  1.
    10030    2    1    2    0    0  0.00000000000E+00  0.00000000000E+00 -0.37884775023E+03  0.14481619216E+04  0.13977293491E+04 0.  0.
        5    1    3    3  502    0 -0.36526108040E+03 -0.58731042751E+03 -0.85605852484E+02  0.69692155017E+03  0.46999998093E+01 0. -1.
       -5    1    3    3    0  502  0.36526108040E+03  0.58731042751E+03 -0.29324189775E+03  0.75124037146E+03  0.46999998093E+01 0.  1.
</event>
<event>
 5   0  0.2215876E-04  0.1400435E+04  0.7818609E-02  0.8953504E-01
        1   -1    0    0  501    0  0.00000000000E+00  0.00000000000E+00  0.92348157186E+03  0.92348157188E+03  0.50400001928E-02 0.  1.
       -1   -1    0    0    0  501  0.00000000000E+00  0.00000000000E+00 -0.53093058809E+03  0.53093058811E+03  0.50400001928E-02 0. -1.
    10030    2    1    2    0    0  0.00000000000E+00  0.00000000000E+00  0.39255098377E+03  0.14544121600E+04  0.14004350953E+04 0.  0.
        3    1    3    3  502    0  0.23694023996E+03 -0.39906071355E+03 -0.34825639141E+03  0.58023499961E+03  0.10100000352E+00 0. -1.
       -3    1    3    3    0  502 -0.23694023996E+03  0.39906071355E+03  0.74080737518E+03  0.87417716038E+03  0.10100000352E+00 0.  1.
</event>
<event>
 5   0  0.4208622E-04  0.1401073E+04  0.7818609E-02  0.8953042E-01
       -2   -1    0    0    0  501  0.00000000000E+00  0.00000000000E+00  0.43695698452E+03  0.43695698453E+03  0.25500000920E-02 0. -1.
        2   -1    0    0  501    0  0.00000000000E+00  0.00000000000E+00 -0.11231122293E+04  0.11231122293E+04  0.25500000920E-02 0.  1.
    10030    2    1    2    0    0  0.00000000000E+00  0.00000000000E+00 -0.68615524473E+03  0.15600692138E+04  0.14010734927E+04 0.  0.
        4    1    3    3  502    0 -0.43717256512E+02  0.17139848702E+03  0.41167999306E+03  0.44807440170E+03  0.12699999809E+01 0. -1.
       -4    1    3    3    0  502  0.43717256512E+02 -0.17139848702E+03 -0.10978352378E+04  0.11119948121E+04  0.12699999809E+01 0.  1.
</event>
<event>
 5   0  0.2155352E-04  0.1393623E+04  0.7818609E-02  0.8958448E-01
       -1   -1    0    0    0  501  0.00000000000E+00  0.00000000000E+00  0.25705382555E+03  0.25705382560E+03  0.50400001928E-02 0.  1.
        1   -1    0    0  501    0  0.00000000000E+00  0.00000000000E+00 -0.18888891251E+04  0.18888891252E+04  0.50400001928E-02 0. -1.
    10030    2    1    2    0    0  0.00000000000E+00  0.00000000000E+00 -0.16318352996E+04  0.21459429508E+04  0.13936228697E+04 0.  0.
        2    1    3    3  502    0 -0.37940694137E+03 -0.10553713900E+03 -0.17010971457E+04  0.17460868289E+04  0.25500000920E-02 0. -1.
       -2    1    3    3    0  502  0.37940694137E+03  0.10553713900E+03  0.69261846105E+02  0.39985612187E+03  0.25500000920E-02 0.  1.
</event>
<event>
 5   0  0.1497625E-04  0.1398326E+04  0.7818609E-02  0.8955031E-01
        3   -1    0    0  501    0  0.00000000000E+00  0.00000000000E+00  0.28755797581E+03  0.28755799355E+03  0.10100000352E+00 0. -1.
       -3   -1    0    0    0  501  0.00000000000E+00  0.00000000000E+00 -0.16999311503E+04  0.16999311533E+04  0.10100000352E+00 0.  1.
    10030    2    1    2    0    0  0.00000000000E+00  0.00000000000E+00 -0.14123731745E+04  0.19874891469E+04  0.13983258293E+04 0.  0.
        3    1    3    3  502    0  0.59210484132E+03  0.32977470951E+03 -0.95026444818E+03  0.11671940858E+04  0.10100000352E+00 0. -1.
       -3    1    3    3    0  502 -0.59210484132E+03 -0.32977470951E+03 -0.46210872633E+03  0.82029506112E+03  0.10100000352E+00 0.  1.
</event>
<event>
 5   0  0.4310348E-04  0.1396398E+04  0.7818609E-02  0.8956430E-01
       -2   -1    0    0    0  501  0.00000000000E+00  0.00000000000E+00  0.74847209868E+03  0.74847209868E+03  0.25500000920E-02 0.  1.
        2   -1    0    0  501    0  0.00000000000E+00  0.00000000000E+00 -0.65130236483E+03  0.65130236483E+03  0.25500000920E-02 0. -1.
    10030    2    1    2    0    0  0.00000000000E+00  0.00000000000E+00  0.97169733850E+02  0.13997744635E+04  0.13963977197E+04 0.  0.
        1    1    3    3  502    0 -0.26386648393E+03  0.57933102107E+03 -0.23886926472E+03  0.67993270180E+03  0.50400001928E-02 0. -1.
       -1    1    3    3    0  502  0.26386648393E+03 -0.57933102107E+03  0.33603899857E+03  0.71984176171E+03  0.50400001928E-02 0.  1.
</event>
<event>
 5   0  0.4310348E-04  0.1369060E+04  0.7818609E-02  0.8976524E-01
        2   -1    0    0  501    0  0.00000000000E+00  0.00000000000E+00  0.69619161301E+03  0.69619161302E+03  0.25500000920E-02 0.  1.
       -2   -1    0    0    0  501  0.00000000000E+00  0.00000000000E+00 -0.67306379266E+03  0.67306379266E+03  0.25500000920E-02 0. -1.
    10030    2    1    2    0    0  0.00000000000E+00  0.00000000000E+00  0.23127820355E+02  0.13692554057E+04  0.13690600680E+04 0.  0.
        1    1    3    3  502    0  0.45025127966E+03  0.44689400617E+03 -0.24565151547E+03  0.68028312831E+03  0.50400001928E-02 0. -1.
       -1    1    3    3    0  502 -0.45025127966E+03 -0.44689400617E+03  0.26877933583E+03  0.68897227737E+03  0.50400001928E-02 0.  1.
</event>
<event>
 5   0  0.4208622E-04  0.1400051E+04  0.7818609E-02  0.8953782E-01
        2   -1    0    0  501    0  0.00000000000E+00  0.00000000000E+00  0.12743898323E+04  0.12743898323E+04  0.25500000920E-02 0. -1.
       -2   -1    0    0    0  501  0.00000000000E+00  0.00000000000E+00 -0.38452569683E+03  0.38452569684E+03  0.25500000920E-02 0.  1.
    10030    2    1    2    0    0  0.00000000000E+00  0.00000000000E+00  0.88986413549E+03  0.16589155292E+04  0.14000509110E+04 0.  0.
        4    1    3    3  502    0 -0.94883321145E+02 -0.25964627131E+03  0.12069734944E+04  0.12382268209E+04  0.12699999809E+01 0. -1.
       -4    1    3    3    0  502  0.94883321145E+02  0.25964627131E+03 -0.31710935894E+03  0.42068870827E+03  0.12699999809E+01 0.  1.
</event>
<event>
 5   0  0.3932568E-04  0.1398523E+04  0.7818609E-02  0.8954889E-01
       -2   -1    0    0    0  501  0.00000000000E+00  0.00000000000E+00  0.37083172464E+03  0.37083172465E+03  0.25500000920E-02 0. -1.
        2   -1    0    0  501    0  0.00000000000E+00  0.00000000000E+00 -0.13185670679E+04  0.13185670679E+04  0.25500000920E-02 0.  1.
    10030    2    1    2    0    0  0.00000000000E+00  0.00000000000E+00 -0.94773534327E+03  0.16893987926E+04  0.13985227919E+04 0.  0.
        2    1    3    3  502    0  0.33565333799E+03  0.32984452040E+03 -0.10986508627E+04  0.11951963392E+04  0.25500000920E-02 0.  1.
       -2    1    3    3    0  502 -0.33565333799E+03 -0.32984452040E+03  0.15091551946E+03  0.49420245342E+03  0.25500000920E-02 0. -1.
</event>
<event>
 5   0  0.3917598E-04  0.1403980E+04  0.7818609E-02  0.8950943E-01
        2   -1    0    0  501    0  0.00000000000E+00  0.00000000000E+00  0.18021179073E+04  0.18021179073E+04  0.25500000920E-02 0.  1.
       -2   -1    0    0    0  501  0.00000000000E+00  0.00000000000E+00 -0.27345048307E+03  0.27345048308E+03  0.25500000920E-02 0. -1.
    10030    2    1    2    0    0  0.00000000000E+00  0.00000000000E+00  0.15286674243E+04  0.20755683904E+04  0.14039800744E+04 0.  0.
        3    1    3    3  502    0  0.33193225511E+03  0.37943786614E+02 -0.14838335488E+03  0.36556310417E+03  0.10100000352E+00 0. -1.
       -3    1    3    3    0  502 -0.33193225511E+03 -0.37943786614E+02  0.16770507791E+04  0.17100052862E+04  0.10100000352E+00 0.  1.
</event>
<event>
 5   0  0.2215876E-04  0.1393418E+04  0.7818609E-02  0.8958597E-01
       -1   -1    0    0    0  501  0.00000000000E+00  0.00000000000E+00  0.12355157485E+04  0.12355157485E+04  0.50400001928E-02 0. -1.
        1   -1    0    0  501    0  0.00000000000E+00  0.00000000000E+00 -0.39287500989E+03  0.39287500992E+03  0.50400001928E-02 0.  1.
    10030    2    1    2    0    0  0.00000000000E+00  0.00000000000E+00  0.84264073857E+03  0.16283907584E+04  0.13934177578E+04 0.  0.
        3    1    3    3  502    0  0.47704791028E+03  0.47066529880E+03  0.64398276023E+03  0.92941612740E+03  0.10100000352E+00 0. -1.
       -3    1    3    3    0  502 -0.47704791028E+03 -0.47066529880E+03  0.19865797834E+03  0.69897463098E+03  0.10100000352E+00 0.  1.
</event>
<event>
 5   0  0.2143942E-04  0.1326399E+04  0.7818609E-02  0.9008888E-01
        1   -1    0    0  501    0  0.00000000000E+00  0.00000000000E+00  0.20323485486E+04  0.20323485486E+04  0.50400001928E-02 0. -1.
       -1   -1    0    0    0  501  0.00000000000E+00  0.00000000000E+00 -0.21641646399E+03  0.21641646405E+03  0.50400001928E-02 0.  1.
    10030    2    1    2    0    0  0.00000000000E+00  0.00000000000E+00  0.18159320846E+04  0.22487650127E+04  0.13263991655E+04 0.  0.
        4    1    3    3  502    0  0.63676286115E+03 -0.41327095144E+02  0.12143452807E+04  0.13717911444E+04  0.12699999809E+01 0. -1.
       -4    1    3    3    0  502 -0.63676286115E+03  0.41327095144E+02  0.60158680395E+03  0.87697386832E+03  0.12699999809E+01 0.  1.
</event>
<event>
 5   0  0.3917598E-04  0.1401713E+04  0.7818609E-02  0.8952580E-01
       -2   -1    0    0    0  501  0.00000000000E+00  0.00000000000E+00  0.57114414783E+03  0.57114414783E+03  0.25500000920E-02 0. -1.
        2   -1    0    0  501    0  0.00000000000E+00  0.00000000000E+00 -0.86002764816E+03  0.86002764816E+03  0.25500000920E-02 0.  1.
    10030    2    1    2    0    0  0.00000000000E+00  0.00000000000E+00 -0.28888350034E+03  0.14311717960E+04  0.14017128925E+04 0.  0.
        3    1    3    3  502    0 -0.31282704804E+02 -0.69816198227E+03 -0.90501668348E+02  0.70469803695E+03  0.10100000352E+00 0. -1.
       -3    1    3    3    0  502  0.31282704804E+02  0.69816198227E+03 -0.19838183199E+03  0.72647375904E+03  0.10100000352E+00 0.  1.
</event>
<event>
 5   0  0.3932568E-04  0.1398395E+04  0.7818609E-02  0.8954981E-01
       -2   -1    0    0    0  501  0.00000000000E+00  0.00000000000E+00  0.26267267384E+03  0.26267267385E+03  0.25500000920E-02 0. -1.
        2   -1    0    0  501    0  0.00000000000E+00  0.00000000000E+00 -0.18611643123E+04  0.18611643123E+04  0.25500000920E-02 0.  1.
    10030    2    1    2    0    0  0.00000000000E+00  0.00000000000E+00 -0.15984916385E+04  0.21238369861E+04  0.13983948032E+04 0.  0.
        2    1    3    3  502    0 -0.56149509194E+02 -0.69112863138E+03 -0.93564312263E+03  0.11645770071E+04  0.25500000920E-02 0.  1.
       -2    1    3    3    0  502  0.56149509194E+02  0.69112863138E+03 -0.66284851582E+03  0.95925997906E+03  0.25500000920E-02 0. -1.
</event>
<event>
 5   0  0.2223112E-04  0.1398767E+04  0.7818609E-02  0.8954711E-01
       -1   -1    0    0    0  501  0.00000000000E+00  0.00000000000E+00  0.26854216114E+03  0.26854216119E+03  0.50400001928E-02 0.  1.
        1   -1    0    0  501    0  0.00000000000E+00  0.00000000000E+00 -0.18214547835E+04  0.18214547835E+04  0.50400001928E-02 0. -1.
    10030    2    1    2    0    0  0.00000000000E+00  0.00000000000E+00 -0.15529126224E+04  0.20899969447E+04  0.13987671772E+04 0.  0.
        1    1    3    3  502    0  0.33414197767E+03  0.37878386870E+03 -0.53658549436E+02  0.50794420991E+03  0.50400001928E-02 0.  1.
       -1    1    3    3    0  502 -0.33414197767E+03 -0.37878386870E+03 -0.14992540729E+04  0.15820527348E+04  0.50400001928E-02 0. -1.
</event>
<event>
 5   0  0.4310348E-04  0.1399488E+04  0.7818609E-02  0.8954190E-01
       -2   -1    0    0    0  501  0.00000000000E+00  0.00000000000E+00  0.68027683604E+03  0.68027683604E+03  0.25500000920E-02 0.  1.
        2   -1    0    0  501    0  0.00000000000E+00  0.00000000000E+00 -0.71976780086E+03  0.71976780087E+03  0.25500000920E-02 0. -1.
    10030    2    1    2    0    0  0.00000000000E+00  0.00000000000E+00 -0.39490964825E+02  0.14000446369E+04  0.13994875666E+04 0.  0.
        1    1    3    3  502    0 -0.15977111001E+03 -0.42761620686E+02  0.66044133046E+03  0.68083633481E+03  0.50400001928E-02 0.  1.
       -1    1    3    3    0  502  0.15977111001E+03  0.42761620686E+02 -0.69993229528E+03  0.71920830210E+03  0.50400001928E-02 0. -1.
</event>
<event>
 5   0  0.2155352E-04  0.1396496E+04  0.7818609E-02  0.8956359E-01
       -1   -1    0    0    0  501  0.00000000000E+00  0.00000000000E+00  0.31900617815E+03  0.31900617819E+03  0.50400001928E-02 0. -1.
        1   -1    0    0  501    0  0.00000000000E+00  0.00000000000E+00 -0.15283418698E+04  0.15283418698E+04  0.50400001928E-02 0.  1.
    10030    2    1    2    0    0  0.00000000000E+00  0.00000000000E+00 -0.12093356916E+04  0.18473480480E+04  0.13964963284E+04 0.  0.
        2    1    3    3  502    0  0.18712204503E+02  0.63228396422E+03 -0.21354991786E+03  0.66763517390E+03  0.25500000920E-02 0. -1.
       -2    1    3    3    0  502 -0.18712204503E+02 -0.63228396422E+03 -0.99578577375E+03  0.11797128741E+04  0.25500000920E-02 0.  1.
</event>
<event>
 5   0  0.3975164E-04  0.1382862E+04  0.7818609E-02  0.8966318E-01
        2   -1    0    0  501    0  0.00000000000E+00  0.00000000000E+00  0.13080691985E+04  0.13080691985E+04  0.25500000920E-02 0.  1.
       -2   -1    0    0    0  501  0.00000000000E+00  0.00000000000E+00 -0.36548279899E+03  0.36548279900E+03  0.25500000920E-02 0. -1.
    10030    2    1    2    0    0  0.00000000000E+00  0.00000000000E+00  0.94258639950E+03  0.16735519975E+04  0.13828619482E+04 0.  0.
        5    1    3    3  502    0 -0.10492315950E+03  0.25702811300E+03  0.12376359082E+04  0.12683994054E+04  0.46999998093E+01 0.  1.
       -5    1    3    3    0  502  0.10492315950E+03 -0.25702811300E+03 -0.29504950874E+03  0.40515259209E+03  0.46999998093E+01 0. -1.
</event>
<event>
 5   0  0.2155352E-04  0.1395121E+04  0.7818609E-02  0.8957358E-01
        1   -1    0    0  501    0  0.00000000000E+00  0.00000000000E+00  0.57686261520E+03  0.57686261522E+03  0.50400001928E-02 0. -1.
       -1   -1    0    0    0  501  0.00000000000E+00  0.00000000000E+00 -0.84351197946E+03  0.84351197947E+03  0.50400001928E-02 0.  1.
    10030    2    1    2    0    0  0.00000000000E+00  0.00000000000E+00 -0.26664936425E+03  0.14203745947E+04  0.13951208212E+04 0.  0.
        2    1    3    3  502    0 -0.11948878200E+03 -0.53573415745E+03 -0.57158381635E+03  0.79246243797E+03  0.25500000920E-02 0.  1.
       -2    1    3    3    0  502  0.11948878200E+03  0.53573415745E+03  0.30493445210E+03  0.62791215672E+03  0.25500000920E-02 0. -1.
</event>
<event>
 5   0  0.2215876E-04  0.1407029E+04  0.7818609E-02  0.8948747E-01
        1   -1    0    0  501    0  0.00000000000E+00  0.00000000000E+00  0.15497238238E+04  0.15497238238E+04  0.50400001928E-02 0. -1.
       -1   -1    0    0    0  501  0.00000000000E+00  0.00000000000E+00 -0.31936809878E+03  0.31936809882E+03  0.50400001928E-02 0.  1.
    10030    2    1    2    0    0  0.00000000000E+00  0.00000000000E+00  0.12303557250E+04  0.18690919227E+04  0.14070285730E+04 0.  0.
        3    1    3    3  502    0  0.43658414381E+03  0.11796732226E+03 -0.10069150557E+03  0.46331500433E+03  0.10100000352E+00 0.  1.
       -3    1    3    3    0  502 -0.43658414381E+03 -0.11796732226E+03  0.13310472306E+04  0.14057769183E+04  0.10100000352E+00 0. -1.
</event>
<event>
 5   0  0.2217251E-04  0.1400887E+04  0.7818609E-02  0.8953176E-01
        1   -1    0    0  501    0  0.00000000000E+00  0.00000000000E+00  0.82646462134E+03  0.82646462136E+03  0.50400001928E-02 0. -1.
       -1   -1    0    0    0  501  0.00000000000E+00  0.00000000000E+00 -0.59363866712E+03  0.59363866714E+03  0.50400001928E-02 0.  1.
    10030    2    1    2    0    0  0.00000000000E+00  0.00000000000E+00  0.23282595423E+03  0.14201032885E+04  0.14008873706E+04 0.  0.
        5    1    3    3  502    0 -0.60503043483E+03  0.11332899003E+03  0.45520376652E+03  0.76559639896E+03  0.46999998093E+01 0. -1.
       -5    1    3    3    0  502  0.60503043483E+03 -0.11332899003E+03 -0.22237781229E+03  0.65450688954E+03  0.46999998093E+01 0.  1.
</event>
<event>
 5   0  0.4310348E-04  0.1395994E+04  0.7818609E-02  0.8956724E-01
        2   -1    0    0  501    0  0.00000000000E+00  0.00000000000E+00  0.63531519916E+03  0.63531519917E+03  0.25500000920E-02 0.  1.
       -2   -1    0    0    0  501  0.00000000000E+00  0.00000000000E+00 -0.76686276835E+03  0.76686276835E+03  0.25500000920E-02 0. -1.
    10030    2    1    2    0    0  0.00000000000E+00  0.00000000000E+00 -0.13154756919E+03  0.14021779675E+04  0.13959936567E+04 0.  0.
        1    1    3    3  502    0 -0.21553941256E+03 -0.21749784700E+03 -0.69579809133E+03  0.76019572199E+03  0.50400001928E-02 0. -1.
       -1    1    3    3    0  502  0.21553941256E+03  0.21749784700E+03  0.56425052214E+03  0.64198224553E+03  0.50400001928E-02 0.  1.
</event>
<event>
 5   0  0.2215876E-04  0.1402553E+04  0.7818609E-02  0.8951973E-01
        1   -1    0    0  501    0  0.00000000000E+00  0.00000000000E+00  0.47787457346E+03  0.47787457348E+03  0.50400001928E-02 0.  1.
       -1   -1    0    0    0  501  0.00000000000E+00  0.00000000000E+00 -0.10291164756E+04  0.10291164756E+04  0.50400001928E-02 0. -1.
    10030    2    1    2    0    0  0.00000000000E+00  0.00000000000E+00 -0.55124190212E+03  0.15069910491E+04  0.14025528109E+04 0.  0.
        3    1    3    3  502    0  0.11670818675E+02  0.62740451040E+03  0.60766546826E+02  0.63044842064E+03  0.10100000352E+00 0.  1.
       -3    1    3    3    0  502 -0.11670818675E+02 -0.62740451040E+03 -0.61200844895E+03  0.87654262843E+03  0.10100000352E+00 0. -1.
</event>
<event>
 5   0  0.3932568E-04  0.1402332E+04  0.7818609E-02  0.8952132E-01
        2   -1    0    0  501    0  0.00000000000E+00  0.00000000000E+00  0.86577894259E+03  0.86577894260E+03  0.25500000920E-02 0. -1.
       -2   -1    0    0    0  501  0.00000000000E+00  0.00000000000E+00 -0.56785120899E+03  0.56785120899E+03  0.25500000920E-02 0.  1.
    10030    2    1    2    0    0  0.00000000000E+00  0.00000000000E+00  0.29792773361E+03  0.14336301516E+04  0.14023317999E+04 0.  0.
        2    1    3    3  502    0  0.65653108051E+03 -0.79133237323E+02  0.38727269336E+03  0.76633887279E+03  0.25500000920E-02 0. -1.
       -2    1    3    3    0  502 -0.65653108051E+03  0.79133237323E+02 -0.89344959756E+02  0.66729127880E+03  0.25500000920E-02 0.  1.
</event>
<event>
 5   0  0.2143942E-04  0.1399779E+04  0.7818609E-02  0.8953979E-01
        1   -1    0    0  501    0  0.00000000000E+00  0.00000000000E+00  0.72733983754E+03  0.72733983756E+03  0.50400001928E-02 0. -1.
       -1   -1    0    0    0  501  0.00000000000E+00  0.00000000000E+00 -0.67347506582E+03  0.67347506584E+03  0.50400001928E-02 0.  1.
    10030    2    1    2    0    0  0.00000000000E+00  0.00000000000E+00  0.53864771723E+02  0.14008149034E+04  0.13997789040E+04 0.  0.
        4    1    3    3  502    0  0.41739836541E+03  0.28580473688E+03  0.51096162025E+03  0.71901956395E+03  0.12699999809E+01 0. -1.
       -4    1    3    3    0  502 -0.41739836541E+03 -0.28580473688E+03 -0.45709684853E+03  0.68179533945E+03  0.12699999809E+01 0.  1.
</event>
<event>
 5   0  0.2217251E-04  0.1417508E+04  0.7818609E-02  0.8941242E-01
        1   -1    0    0  501    0  0.00000000000E+00  0.00000000000E+00  0.13383139395E+04  0.13383139395E+04  0.50400001928E-02 0.  1.
       -1   -1    0    0    0  501  0.00000000000E+00  0.00000000000E+00 -0.37534709502E+03  0.37534709506E+03  0.50400001928E-02 0. -1.
    10030    2    1    2    0    0  0.00000000000E+00  0.00000000000E+00  0.96296684451E+03  0.17136610346E+04  0.14175080239E+04 0.  0.
        5    1    3    3  502    0 -0.17777587030E+03  0.52871410289E+01 -0.34791140120E+03  0.39076418337E+03  0.46999998093E+01 0. -1.
       -5    1    3    3    0  502  0.17777587030E+03 -0.52871410289E+01  0.13108782457E+04  0.13228968512E+04  0.46999998093E+01 0.  1.
</event>
<event>
 5   0  0.3975164E-04  0.1452565E+04  0.7818609E-02  0.8916624E-01
        2   -1    0    0  501    0  0.00000000000E+00  0.00000000000E+00  0.11897899158E+04  0.11897899158E+04  0.25500000920E-02 0. -1.
       -2   -1    0    0    0  501  0.00000000000E+00  0.00000000000E+00 -0.44334413049E+03  0.44334413050E+03  0.25500000920E-02 0.  1.
    10030    2    1    2    0    0  0.00000000000E+00  0.00000000000E+00  0.74644578532E+03  0.16331340463E+04  0.14525651458E+04 0.  0.
        5    1    3    3  502    0  0.17020153261E+03  0.68240137942E+03  0.16952689121E+03  0.72346503798E+03  0.46999998093E+01 0.  1.
       -5    1    3    3    0  502 -0.17020153261E+03 -0.68240137942E+03  0.57691889411E+03  0.90966900833E+03  0.46999998093E+01 0. -1.
</event>
<event>
 5   0  0.2217251E-04  0.1400428E+04  0.7818609E-02  0.8953509E-01
        1   -1    0    0  501    0  0.00000000000E+00  0.00000000000E+00  0.67028994972E+03  0.67028994974E+03  0.50400001928E-02 0. -1.
       -1   -1    0    0    0  501  0.00000000000E+00  0.00000000000E+00 -0.73147361182E+03  0.73147361184E+03  0.50400001928E-02 0.  1.
    10030    2    1    2    0    0  0.00000000000E+00  0.00000000000E+00 -0.61183662101E+02  0.14017635616E+04  0.14004276640E+04 0.  0.
        5    1    3    3  502    0  0.49765892458E+02 -0.17671729624E+03 -0.70693727231E+03  0.73040265869E+03  0.46999998093E+01 0.  1.
       -5    1    3    3    0  502 -0.49765892458E+02  0.17671729624E+03  0.64575361021E+03  0.67136090289E+03  0.46999998093E+01 0. -1.
</event>
<event>
 5   0  0.2155352E-04  0.1385971E+04  0.7818609E-02  0.8964036E-01
        1   -1    0    0  501    0  0.00000000000E+00  0.00000000000E+00  0.47271492836E+03  0.47271492839E+03  0.50400001928E-02 0.  1.
       -1   -1    0    0    0  501  0.00000000000E+00  0.00000000000E+00 -0.10158956386E+04  0.10158956386E+04  0.50400001928E-02 0. -1.
    10030    2    1    2    0    0  0.00000000000E+00  0.00000000000E+00 -0.54318071026E+03  0.14886105670E+04  0.13859711888E+04 0.  0.
        2    1    3    3  502    0 -0.57763120023E+03 -0.24600624020E+03 -0.58666088556E+03  0.85927170810E+03  0.25500000920E-02 0.  1.
       -2    1    3    3    0  502  0.57763120023E+03  0.24600624020E+03  0.43480175302E+02  0.62933885892E+03  0.25500000920E-02 0. -1.
</event>
<event>
 5   0  0.4310348E-04  0.1404229E+04  0.7818609E-02  0.8950763E-01
        2   -1    0    0  501    0  0.00000000000E+00  0.00000000000E+00  0.15606085084E+04  0.15606085084E+04  0.25500000920E-02 0. -1.
       -2   -1    0    0    0  501  0.00000000000E+00  0.00000000000E+00 -0.31587972728E+03  0.31587972729E+03  0.25500000920E-02 0.  1.
    10030    2    1    2    0    0  0.00000000000E+00  0.00000000000E+00  0.12447287811E+04  0.18764882357E+04  0.14042287421E+04 0.  0.
        1    1    3    3  502    0 -0.53363529644E+03 -0.85161141584E+01  0.12728441599E+02  0.53385500565E+03  0.50400001928E-02 0. -1.
       -1    1    3    3    0  502  0.53363529644E+03  0.85161141584E+01  0.12320003395E+04  0.13426332300E+04  0.50400001928E-02 0.  1.
</event>
<event>
 5   0  0.2143942E-04  0.1467116E+04  0.7818609E-02  0.8906620E-01
        1   -1    0    0  501    0  0.00000000000E+00  0.00000000000E+00  0.15662014195E+04  0.15662014195E+04  0.50400001928E-02 0. -1.
       -1   -1    0    0    0  501  0.00000000000E+00  0.00000000000E+00 -0.34357470219E+03  0.34357470223E+03  0.50400001928E-02 0.  1.
    10030    2    1    2    0    0  0.00000000000E+00  0.00000000000E+00  0.12226267173E+04  0.19097761218E+04  0.14671157914E+04 0.  0.
        4    1    3    3  502    0  0.95539291133E+02 -0.42134806255E+03  0.13830087450E+04  0.14489226161E+04  0.12699999809E+01 0. -1.
       -4    1    3    3    0  502 -0.95539291133E+02  0.42134806255E+03 -0.16038202764E+03  0.46085350563E+03  0.12699999809E+01 0.  1.
</event>
<event>
 5   0  0.4310348E-04  0.1401501E+04  0.7818609E-02  0.8952733E-01
        2   -1    0    0  501    0  0.00000000000E+00  0.00000000000E+00  0.88021824541E+03  0.88021824542E+03  0.25500000920E-02 0. -1.
       -2   -1    0    0    0  501  0.00000000000E+00  0.00000000000E+00 -0.55787447959E+03  0.55787447960E+03  0.25500000920E-02 0.  1.
    10030    2    1    2    0    0  0.00000000000E+00  0.00000000000E+00  0.32234376582E+03  0.14380927250E+04  0.14015010462E+04 0.  0.
        1    1    3    3  502    0  0.13006024634E+03 -0.68853116176E+03  0.15319279454E+03  0.71725787603E+03  0.50400001928E-02 0.  1.
       -1    1    3    3    0  502 -0.13006024634E+03  0.68853116176E+03  0.16915097128E+03  0.72083484898E+03  0.50400001928E-02 0. -1.
</event>
<event>
 5   0  0.4310348E-04  0.1405143E+04  0.7818609E-02  0.8950104E-01
       -2   -1    0    0    0  501  0.00000000000E+00  0.00000000000E+00  0.34697887516E+03  0.34697887517E+03  0.25500000920E-02 0.  1.
        2   -1    0    0  501    0  0.00000000000E+00  0.00000000000E+00 -0.14225839597E+04  0.14225839597E+04  0.25500000920E-02 0. -1.
    10030    2    1    2    0    0  0.00000000000E+00  0.00000000000E+00 -0.10756050845E+04  0.17695628349E+04  0.14051428143E+04 0.  0.
        1    1    3    3  502    0 -0.11638392476E+03  0.49876460252E+03 -0.11434625043E+04  0.12529237189E+04  0.50400001928E-02 0. -1.
       -1    1    3    3    0  502  0.11638392476E+03 -0.49876460252E+03  0.67857419780E+02  0.51663911594E+03  0.50400001928E-02 0.  1.
</event>
<event>
 5   0  0.2143942E-04  0.1399842E+04  0.7818609E-02  0.8953933E-01
       -1   -1    0    0    0  501  0.00000000000E+00  0.00000000000E+00  0.34880964500E+03  0.34880964504E+03  0.50400001928E-02 0.  1.
        1   -1    0    0  501    0  0.00000000000E+00  0.00000000000E+00 -0.14044602589E+04  0.14044602589E+04  0.50400001928E-02 0. -1.
    10030    2    1    2    0    0  0.00000000000E+00  0.00000000000E+00 -0.10556506139E+04  0.17532699039E+04  0.13998418259E+04 0.  0.
        4    1    3    3  502    0  0.46282284185E+03  0.20087719715E+03 -0.11354136310E+04  0.12424662400E+04  0.12699999809E+01 0. -1.
       -4    1    3    3    0  502 -0.46282284185E+03 -0.20087719715E+03  0.79763017088E+02  0.51080366392E+03  0.12699999809E+01 0.  1.
</event>
<event>
 5   0  0.2215876E-04  0.1395846E+04  0.7818609E-02  0.8956831E-01
       -1   -1    0    0    0  501  0.00000000000E+00  0.00000000000E+00  0.49168616666E+03  0.49168616669E+03  0.50400001928E-02 0. -1.
        1   -1    0    0  501    0  0.00000000000E+00  0.00000000000E+00 -0.99066523784E+03  0.99066523786E+03  0.50400001928E-02 0.  1.
    10030    2    1    2    0    0  0.00000000000E+00  0.00000000000E+00 -0.49897907118E+03  0.14823514045E+04  0.13958458271E+04 0.  0.
        3    1    3    3  502    0 -0.61058028394E+03  0.92817937337E+02 -0.59470925258E+03  0.85738122089E+03  0.10100000352E+00 0.  1.
       -3    1    3    3    0  502  0.61058028394E+03 -0.92817937337E+02  0.95730181402E+02  0.62497018366E+03  0.10100000352E+00 0. -1.
</event>
<event>
 5   0  0.4310348E-04  0.1397780E+04  0.7818609E-02  0.8955427E-01
        2   -1    0    0  501    0  0.00000000000E+00  0.00000000000E+00  0.22392662473E+04  0.22392662473E+04  0.25500000920E-02 0.  1.
       -2   -1    0    0    0  501  0.00000000000E+00  0.00000000000E+00 -0.21812831447E+03  0.21812831449E+03  0.25500000920E-02 0. -1.
    10030    2    1    2    0    0  0.00000000000E+00  0.00000000000E+00  0.20211379328E+04  0.24573945618E+04  0.13977802005E+04 0.  0.
        1    1    3    3  502    0 -0.34208595348E+03  0.14261301708E+03 -0.31131422143E+02  0.37192800066E+03  0.50400001928E-02 0. -1.
       -1    1    3    3    0  502  0.34208595348E+03 -0.14261301708E+03  0.20522693550E+04  0.20854665611E+04  0.50400001928E-02 0.  1.
</event>
<event>
 5   0  0.2143942E-04  0.1399827E+04  0.7818609E-02  0.8953944E-01
       -1   -1    0    0    0  501  0.00000000000E+00  0.00000000000E+00  0.33748657461E+03  0.33748657465E+03  0.50400001928E-02 0.  1.
        1   -1    0    0  501    0  0.00000000000E+00  0.00000000000E+00 -0.14515506674E+04  0.14515506674E+04  0.50400001928E-02 0. -1.
    10030    2    1    2    0    0  0.00000000000E+00  0.00000000000E+00 -0.11140640928E+04  0.17890372420E+04  0.13998269359E+04 0.  0.
        4    1    3    3  502    0  0.23979528129E+03 -0.34197710277E+03  0.16075325406E+03  0.44754143645E+03  0.12699999809E+01 0.  1.
       -4    1    3    3    0  502 -0.23979528129E+03  0.34197710277E+03 -0.12748173468E+04  0.13414958056E+04  0.12699999809E+01 0. -1.
</event>
<event>
 5   0  0.2223112E-04  0.1390968E+04  0.7818609E-02  0.8960382E-01
       -1   -1    0    0    0  501  0.00000000000E+00  0.00000000000E+00  0.10946758386E+04  0.10946758386E+04  0.50400001928E-02 0.  1.
        1   -1    0    0  501    0  0.00000000000E+00  0.00000000000E+00 -0.44186444028E+03  0.44186444031E+03  0.50400001928E-02 0. -1.
    10030    2    1    2    0    0  0.00000000000E+00  0.00000000000E+00  0.65281139827E+03  0.15365402789E+04  0.13909684780E+04 0.  0.
        1    1    3    3  502    0  0.50148054113E+03  0.83752891901E+02 -0.19781222158E+03  0.54555197284E+03  0.50400001928E-02 0. -1.
       -1    1    3    3    0  502 -0.50148054113E+03 -0.83752891901E+02  0.85062361986E+03  0.99098830604E+03  0.50400001928E-02 0.  1.
</event>
<event>
 5   0  0.2217251E-04  0.1395646E+04  0.7818609E-02  0.8956976E-01
        1   -1    0    0  501    0  0.00000000000E+00  0.00000000000E+00  0.70429821198E+03  0.70429821200E+03  0.50400001928E-02 0. -1.
       -1   -1    0    0    0  501  0.00000000000E+00  0.00000000000E+00 -0.69140757271E+03  0.69140757273E+03  0.50400001928E-02 0.  1.
    10030    2    1    2    0    0  0.00000000000E+00  0.00000000000E+00  0.12890639276E+02  0.13957057847E+04  0.13956462549E+04 0.  0.
        5    1    3    3  502    0 -0.38150315323E+03  0.58372690229E+03  0.32005651892E+02  0.69808896577E+03  0.46999998093E+01 0. -1.
       -5    1    3    3    0  502  0.38150315323E+03 -0.58372690229E+03 -0.19115012617E+02  0.69761681895E+03  0.46999998093E+01 0.  1.
</event>
<event>
 5   0  0.4208622E-04  0.1397216E+04  0.7818609E-02  0.8955836E-01
       -2   -1    0    0    0  501  0.00000000000E+00  0.00000000000E+00  0.12595266619E+04  0.12595266619E+04  0.25500000920E-02 0. -1.
        2   -1    0    0  501    0  0.00000000000E+00  0.00000000000E+00 -0.38748912319E+03  0.38748912320E+03  0.25500000920E-02 0.  1.
    10030    2    1    2    0    0  0.00000000000E+00  0.00000000000E+00  0.87203753872E+03  0.16470157851E+04  0.13972156338E+04 0.  0.
        4    1    3    3  502    0  0.66470544363E+03  0.59616703370E+02  0.67949919140E+03  0.95242230241E+03  0.12699999809E+01 0. -1.
       -4    1    3    3    0  502 -0.66470544363E+03 -0.59616703370E+02  0.19253834731E+03  0.69459348269E+03  0.12699999809E+01 0.  1.
</event>
<event>
 5   0  0.3932568E-04  0.1401989E+04  0.7818609E-02  0.8952380E-01
       -2   -1    0    0    0  501  0.00000000000E+00  0.00000000000E+00  0.41360632865E+03  0.41360632865E+03  0.25500000920E-02 0. -1.
        2   -1    0    0  501    0  0.00000000000E+00  0.00000000000E+00 -0.11880699770E+04  0.11880699770E+04  0.25500000920E-02 0.  1.
    10030    2    1    2    0    0  0.00000000000E+00  0.00000000000E+00 -0.77446364837E+03  0.16016763057E+04  0.14019889606E+04 0.  0.
        2    1    3    3  502    0  0.30402185651E+03  0.62231971613E+03 -0.51071034461E+03  0.86054411532E+03  0.25500000920E-02 0.  1.
       -2    1    3    3    0  502 -0.30402185651E+03 -0.62231971613E+03 -0.26375330376E+03  0.74113219035E+03  0.25500000920E-02 0. -1.
</event>
<event>
 5   0  0.2217251E-04  0.1398265E+04  0.7818609E-02  0.8955076E-01
        1   -1    0    0  501    0  0.00000000000E+00  0.00000000000E+00  0.86608357756E+03  0.86608357758E+03  0.50400001928E-02 0.  1.
       -1   -1    0    0    0  501  0.00000000000E+00  0.00000000000E+00 -0.56436344473E+03  0.56436344476E+03  0.50400001928E-02 0. -1.
    10030    2    1    2    0    0  0.00000000000E+00  0.00000000000E+00  0.30172013283E+03  0.14304470223E+04  0.13982645119E+04 0.  0.
        5    1    3    3  502    0  0.99224457364E+00  0.40558787116E+02 -0.56314197271E+03  0.56462108639E+03  0.46999998093E+01 0. -1.
       -5    1    3    3    0  502 -0.99224457364E+00 -0.40558787116E+02  0.86486210554E+03  0.86582593595E+03  0.46999998093E+01 0.  1.
</event>
<event>
 5   0  0.2223112E-04  0.1399510E+04  0.7818609E-02  0.8954173E-01
       -1   -1    0    0    0  501  0.00000000000E+00  0.00000000000E+00  0.84257418331E+03  0.84257418332E+03  0.50400001928E-02 0. -1.
        1   -1    0    0  501    0  0.00000000000E+00  0.00000000000E+00 -0.58114403728E+03  0.58114403730E+03  0.50400001928E-02 0.  1.
    10030    2    1    2    0    0  0.00000000000E+00  0.00000000000E+00  0.26143014603E+03  0.14237182206E+04  0.13995098608E+04 0.  0.
        1    1    3    3  502    0 -0.97865600036E+02 -0.36042360994E+03 -0.47127606230E+03  0.60131853555E+03  0.50400001928E-02 0.  1.
       -1    1    3    3    0  502  0.97865600036E+02  0.36042360994E+03  0.73270620833E+03  0.82239968508E+03  0.50400001928E-02 0. -1.
</event>
<event>
 5   0  0.3917598E-04  0.1399468E+04  0.7818609E-02  0.8954203E-01
       -2   -1    0    0    0  501  0.00000000000E+00  0.00000000000E+00  0.72253521464E+03  0.72253521465E+03  0.25500000920E-02 0.  1.
        2   -1    0    0  501    0  0.00000000000E+00  0.00000000000E+00 -0.67765277050E+03  0.67765277050E+03  0.25500000920E-02 0. -1.
    10030    2    1    2    0    0  0.00000000000E+00  0.00000000000E+00  0.44882444145E+02  0.14001879852E+04  0.13994684562E+04 0.  0.
        3    1    3    3  502    0  0.48555314340E+03  0.40555993677E+03  0.32157196601E+03  0.70968250430E+03  0.10100000352E+00 0. -1.
       -3    1    3    3    0  502 -0.48555314340E+03 -0.40555993677E+03 -0.27668952187E+03  0.69050548085E+03  0.10100000352E+00 0.  1.
</event>
<event>
 5   0  0.4208622E-04  0.1393889E+04  0.7818609E-02  0.8958254E-01
       -2   -1    0    0    0  501  0.00000000000E+00  0.00000000000E+00  0.80657655610E+03  0.80657655610E+03  0.25500000920E-02 0. -1.
        2   -1    0    0  501    0  0.00000000000E+00  0.00000000000E+00 -0.60221393398E+03  0.60221393399E+03  0.25500000920E-02 0.  1.
    10030    2    1    2    0    0  0.00000000000E+00  0.00000000000E+00  0.20436262212E+03  0.14087904901E+04  0.13938890069E+04 0.  0.
        4    1    3    3  502    0 -0.32967238609E+02  0.53153111512E+03  0.55656273378E+03  0.77030893458E+03  0.12699999809E+01 0. -1.
       -4    1    3    3    0  502  0.32967238609E+02 -0.53153111512E+03 -0.35220011166E+03  0.63848155551E+03  0.12699999809E+01 0.  1.
</event>
<event>
 5   0  0.4208622E-04  0.1399878E+04  0.7818609E-02  0.8953907E-01
       -2   -1    0    0    0  501  0.00000000000E+00  0.00000000000E+00  0.56792061236E+03  0.56792061236E+03  0.25500000920E-02 0.  1.
        2   -1    0    0  501    0  0.00000000000E+00  0.00000000000E+00 -0.86264654288E+03  0.86264654289E+03  0.25500000920E-02 0. -1.
    10030    2    1    2    0    0  0.00000000000E+00  0.00000000000E+00 -0.29472593053E+03  0.14305671553E+04  0.13998782131E+04 0.  0.
        4    1    3    3  502    0 -0.49124081857E+03 -0.36861491956E+03 -0.49045913040E+03  0.78596836594E+03  0.12699999809E+01 0. -1.
       -4    1    3    3    0  502  0.49124081857E+03  0.36861491956E+03  0.19573319988E+03  0.64459878932E+03  0.12699999809E+01 0.  1.
</event>
<event>
 5   0  0.2215876E-04  0.1410960E+04  0.7818609E-02  0.8945923E-01
        1   -1    0    0  501    0  0.00000000000E+00  0.00000000000E+00  0.75033903768E+03  0.75033903770E+03  0.50400001928E-02 0.  1.
       -1   -1    0    0    0  501  0.00000000000E+00  0.00000000000E+00 -0.66330265229E+03  0.66330265231E+03  0.50400001928E-02 0. -1.
    10030    2    1    2    0    0  0.00000000000E+00  0.00000000000E+00  0.87036385393E+02  0.14136416900E+04  0.14109597781E+04 0.  0.
        3    1    3    3  502    0  0.55557203636E+03 -0.23380979352E+03  0.41078631356E+03  0.72943314481E+03  0.10100000352E+00 0.  1.
       -3    1    3    3    0  502 -0.55557203636E+03  0.23380979352E+03 -0.32374992817E+03  0.68420854520E+03  0.10100000352E+00 0. -1.
</event>
<event>
 5   0  0.2215876E-04  0.1393835E+04  0.7818609E-02  0.8958293E-01
        1   -1    0    0  501    0  0.00000000000E+00  0.00000000000E+00  0.49814171971E+03  0.49814171974E+03  0.50400001928E-02 0.  1.
       -1   -1    0    0    0  501  0.00000000000E+00  0.00000000000E+00 -0.97501121264E+03  0.97501121265E+03  0.50400001928E-02 0. -1.
    10030    2    1    2    0    0  0.00000000000E+00  0.00000000000E+00 -0.47686949293E+03  0.14731529324E+04  0.13938346562E+04 0.  0.
        3    1    3    3  502    0  0.43082108602E+03  0.12557615594E+03  0.32512300485E+03  0.55414903915E+03  0.10100000352E+00 0.  1.
       -3    1    3    3    0  502 -0.43082108602E+03 -0.12557615594E+03 -0.80199249778E+03  0.91900389324E+03  0.10100000352E+00 0. -1.
</event>
<event>
 5   0  0.2223112E-04  0.1403130E+04  0.7818609E-02  0.8951556E-01
       -1   -1    0    0    0  501  0.00000000000E+00  0.00000000000E+00  0.55701367409E+03  0.55701367411E+03  0.50400001928E-02 0.  1.
        1   -1    0    0  501    0  0.00000000000E+00  0.00000000000E+00 -0.88362908469E+03  0.88362908470E+03  0.50400001928E-02 0. -1.
    10030    2    1    2    0    0  0.00000000000E+00  0.00000000000E+00 -0.32661541060E+03  0.14406427588E+04  0.14031300482E+04 0.  0.
        1    1    3    3  502    0  0.53238282813E+02  0.59850510242E+03 -0.53513722453E+03  0.80462073145E+03  0.50400001928E-02 0. -1.
       -1    1    3    3    0  502 -0.53238282813E+02 -0.59850510242E+03  0.20852181393E+03  0.63602202736E+03  0.50400001928E-02 0.  1.
</event>
<event>
 5   0  0.2155352E-04  0.1388116E+04  0.7818609E-02  0.8962466E-01
        1   -1    0    0  501    0  0.00000000000E+00  0.00000000000E+00  0.33801400107E+03  0.33801400111E+03  0.50400001928E-02 0. -1.
       -1   -1    0    0    0  501  0.00000000000E+00  0.00000000000E+00 -0.14251370297E+04  0.14251370297E+04  0.50400001928E-02 0.  1.
    10030    2    1    2    0    0  0.00000000000E+00  0.00000000000E+00 -0.10871230286E+04  0.17631510308E+04  0.13881156573E+04 0.  0.
        2    1    3    3  502    0  0.66289269458E+03  0.11958833528E+03 -0.33106532157E+03  0.75055468929E+03  0.25500000920E-02 0.  1.
       -2    1    3    3    0  502 -0.66289269458E+03 -0.11958833528E+03 -0.75605770708E+03  0.10125963415E+04  0.25500000920E-02 0. -1.
</event>
<event>
 5   0  0.3917598E-04  0.1393778E+04  0.7818609E-02  0.8958334E-01
        2   -1    0    0  501    0  0.00000000000E+00  0.00000000000E+00  0.95476810226E+03  0.95476810227E+03  0.25500000920E-02 0.  1.
       -2   -1    0    0    0  501  0.00000000000E+00  0.00000000000E+00 -0.50866236015E+03  0.50866236015E+03  0.25500000920E-02 0. -1.
    10030    2    1    2    0    0  0.00000000000E+00  0.00000000000E+00  0.44610574212E+03  0.14634304624E+04  0.13937784563E+04 0.  0.
        3    1    3    3  502    0 -0.26497262361E+02 -0.30012924334E+03  0.88284650098E+03  0.93284383587E+03  0.10100000352E+00 0.  1.
       -3    1    3    3    0  502  0.26497262361E+02  0.30012924334E+03 -0.43674075886E+03  0.53058662655E+03  0.10100000352E+00 0. -1.
</event>
<event>
 5   0  0.3917598E-04  0.1379470E+04  0.7818609E-02  0.8968814E-01
       -2   -1    0    0    0  501  0.00000000000E+00  0.00000000000E+00  0.29033745071E+03  0.29033745072E+03  0.25500000920E-02 0. -1.
        2   -1    0    0  501    0  0.00000000000E+00  0.00000000000E+00 -0.16385575469E+04  0.16385575469E+04  0.25500000920E-02 0.  1.
    10030    2    1    2    0    0  0.00000000000E+00  0.00000000000E+00 -0.13482200961E+04  0.19288949976E+04  0.13794703636E+04 0.  0.
        3    1    3    3  502    0  0.62097730423E+03  0.30017067913E+03 -0.68026280054E+03  0.96874802554E+03  0.10100000352E+00 0.  1.
       -3    1    3    3    0  502 -0.62097730423E+03 -0.30017067913E+03 -0.66795729561E+03  0.96014697205E+03  0.10100000352E+00 0. -1.
</event>
<event>
 5   0  0.2215876E-04  0.1432475E+04  0.7818609E-02  0.8930641E-01
       -1   -1    0    0    0  501  0.00000000000E+00  0.00000000000E+00  0.26353022567E+03  0.26353022572E+03  0.50400001928E-02 0. -1.
        1   -1    0    0  501    0  0.00000000000E+00  0.00000000000E+00 -0.19466307183E+04  0.19466307183E+04  0.50400001928E-02 0.  1.
    10030    2    1    2    0    0  0.00000000000E+00  0.00000000000E+00 -0.16831004927E+04  0.22101609441E+04  0.14324748271E+04 0.  0.
        3    1    3    3  502    0 -0.54825556442E+03 -0.34591213474E+03 -0.13114545658E+04  0.14629259917E+04  0.10100000352E+00 0.  1.
       -3    1    3    3    0  502  0.54825556442E+03  0.34591213474E+03 -0.37164592689E+03  0.74723495237E+03  0.10100000352E+00 0. -1.
</event>
<event>
 5   0  0.3932568E-04  0.1398483E+04  0.7818609E-02  0.8954918E-01
        2   -1    0    0  501    0  0.00000000000E+00  0.00000000000E+00  0.41885436499E+03  0.41885436500E+03  0.25500000920E-02 0. -1.
       -2   -1    0    0    0  501  0.00000000000E+00  0.00000000000E+00 -0.11673232213E+04  0.11673232213E+04  0.25500000920E-02 0.  1.
    10030    2    1    2    0    0  0.00000000000E+00  0.00000000000E+00 -0.74846885627E+03  0.15861775863E+04  0.13984826443E+04 0.  0.
        2    1    3    3  502    0  0.30207469226E+03 -0.88055761377E+02 -0.10824918101E+04  0.11272938640E+04  0.25500000920E-02 0.  1.
       -2    1    3    3    0  502 -0.30207469226E+03  0.88055761377E+02  0.33402295387E+03  0.45888372224E+03  0.25500000920E-02 0. -1.
</event>
<event>
 5   0  0.4310348E-04  0.1395648E+04  0.7818609E-02  0.8956975E-01
       -2   -1    0    0    0  501  0.00000000000E+00  0.00000000000E+00  0.11788465554E+04  0.11788465554E+04  0.25500000920E-02 0. -1.
        2   -1    0    0  501    0  0.00000000000E+00  0.00000000000E+00 -0.41308023180E+03  0.41308023181E+03  0.25500000920E-02 0.  1.
    10030    2    1    2    0    0  0.00000000000E+00  0.00000000000E+00  0.76576632360E+03  0.15919267872E+04  0.13956478186E+04 0.  0.
        1    1    3    3  502    0  0.38420800446E+03 -0.41095227097E+03  0.85381637190E+03  0.10224969226E+04  0.50400001928E-02 0. -1.
       -1    1    3    3    0  502 -0.38420800446E+03  0.41095227097E+03 -0.88050048307E+02  0.56942986464E+03  0.50400001928E-02 0.  1.
</event>
<event>
 5   0  0.4208622E-04  0.1413867E+04  0.7818609E-02  0.8943842E-01
       -2   -1    0    0    0  501  0.00000000000E+00  0.00000000000E+00  0.79001794589E+03  0.79001794589E+03  0.25500000920E-02 0. -1.
        2   -1    0    0  501    0  0.00000000000E+00  0.00000000000E+00 -0.63258692601E+03  0.63258692602E+03  0.25500000920E-02 0.  1.
    10030    2    1    2    0    0  0.00000000000E+00  0.00000000000E+00  0.15743101987E+03  0.14226048719E+04  0.14138670714E+04 0.  0.
        4    1    3    3  502    0  0.37217954033E+02  0.70595193507E+03  0.78396910407E+02  0.71126717849E+03  0.12699999809E+01 0.  1.
       -4    1    3    3    0  502 -0.37217954033E+02 -0.70595193507E+03  0.79034109466E+02  0.71133769343E+03  0.12699999809E+01 0. -1.
</event>
<event>
 5   0  0.2217251E-04  0.1397744E+04  0.7818609E-02  0.8955453E-01
       -1   -1    0    0    0  501  0.00000000000E+00  0.00000000000E+00  0.11724891510E+04  0.11724891510E+04  0.50400001928E-02 0. -1.
        1   -1    0    0  501    0  0.00000000000E+00  0.00000000000E+00 -0.41656863997E+03  0.41656864000E+03  0.50400001928E-02 0.  1.
    10030    2    1    2    0    0  0.00000000000E+00  0.00000000000E+00  0.75592051098E+03  0.15890577910E+04  0.13977441984E+04 0.  0.
        5    1    3    3  502    0  0.42629674509E+03 -0.45061861817E+03  0.74390992074E+03  0.96861246848E+03  0.46999998093E+01 0. -1.
       -5    1    3    3    0  502 -0.42629674509E+03  0.45061861817E+03  0.12010590235E+02  0.62044532249E+03  0.46999998093E+01 0.  1.
</event>
<event>
 5   0  0.4310348E-04  0.1402156E+04  0.7818609E-02  0.8952259E-01
        2   -1    0    0  501    0  0.00000000000E+00  0.00000000000E+00  0.73363842776E+03  0.73363842776E+03  0.25500000920E-02 0.  1.
       -2   -1    0    0    0  501  0.00000000000E+00  0.00000000000E+00 -0.66996264037E+03  0.66996264037E+03  0.25500000920E-02 0. -1.
    10030    2    1    2    0    0  0.00000000000E+00  0.00000000000E+00  0.63675787393E+02  0.14036010681E+04  0.14021559659E+04 0.  0.
        1    1    3    3  502    0 -0.38170462874E+03 -0.83282042350E+02 -0.55089265007E+03  0.67536437136E+03  0.50400001928E-02 0. -1.
       -1    1    3    3    0  502  0.38170462874E+03  0.83282042350E+02  0.61456843746E+03  0.72823669677E+03  0.50400001928E-02 0.  1.
</event>
<event>
 5   0  0.3975164E-04  0.1408441E+04  0.7818609E-02  0.8947731E-01
       -2   -1    0    0    0  501  0.00000000000E+00  0.00000000000E+00  0.89929345677E+03  0.89929345677E+03  0.25500000920E-02 0. -1.
        2   -1    0    0  501    0  0.00000000000E+00  0.00000000000E+00 -0.55146239723E+03  0.55146239723E+03  0.25500000920E-02 0.  1.
    10030    2    1    2    0    0  0.00000000000E+00  0.00000000000E+00  0.34783105954E+03  0.14507558540E+04  0.14084410183E+04 0.  0.
        5    1    3    3  502    0 -0.54583607143E+03 -0.17605186439E+03  0.59481560154E+03  0.82629230037E+03  0.46999998093E+01 0. -1.
       -5    1    3    3    0  502  0.54583607143E+03  0.17605186439E+03 -0.24698454200E+03  0.62446355363E+03  0.46999998093E+01 0.  1.
</event>
<event>
 5   0  0.2143942E-04  0.1398752E+04  0.7818609E-02  0.8954722E-01
       -1   -1    0    0    0  501  0.00000000000E+00  0.00000000000E+00  0.65852287463E+03  0.65852287465E+03  0.50400001928E-02 0. -1.
        1   -1    0    0  501    0  0.00000000000E+00  0.00000000000E+00 -0.74276343002E+03  0.74276343004E+03  0.50400001928E-02 0.  1.
    10030    2    1    2    0    0  0.00000000000E+00  0.00000000000E+00 -0.84240555397E+02  0.14012863047E+04  0.13987518853E+04 0.  0.
        4    1    3    3  502    0 -0.63013108187E+03 -0.24908978319E+03 -0.21568024047E+03  0.71107698561E+03  0.12699999809E+01 0. -1.
       -4    1    3    3    0  502  0.63013108187E+03  0.24908978319E+03  0.13143968507E+03  0.69020931908E+03  0.12699999809E+01 0.  1.
</event>
<event>
 5   0  0.3975164E-04  0.1406773E+04  0.7818609E-02  0.8948930E-01
        2   -1    0    0  501    0  0.00000000000E+00  0.00000000000E+00  0.70527272094E+03  0.70527272095E+03  0.25500000920E-02 0.  1.
       -2   -1    0    0    0  501  0.00000000000E+00  0.00000000000E+00 -0.70150575267E+03  0.70150575268E+03  0.25500000920E-02 0. -1.
    10030    2    1    2    0    0  0.00000000000E+00  0.00000000000E+00  0.37669682706E+01  0.14067784736E+04  0.14067734302E+04 0.  0.
        5    1    3    3  502    0 -0.68121611825E+03 -0.17330906258E+03  0.27168946330E+02  0.70345694437E+03  0.46999998093E+01 0. -1.
       -5    1    3    3    0  502  0.68121611825E+03  0.17330906258E+03 -0.23401978060E+02  0.70332152926E+03  0.46999998093E+01 0.  1.
</event>
<event>
 5   0  0.3932568E-04  0.1389557E+04  0.7818609E-02  0.8961413E-01
       -2   -1    0    0    0  501  0.00000000000E+00  0.00000000000E+00  0.66564375462E+03  0.66564375462E+03  0.25500000920E-02 0.  1.
        2   -1    0    0  501    0  0.00000000000E+00  0.00000000000E+00 -0.72518820537E+03  0.72518820538E+03  0.25500000920E-02 0. -1.
    10030    2    1    2    0    0  0.00000000000E+00  0.00000000000E+00 -0.59544450757E+02  0.13908319600E+04  0.13895567636E+04 0.  0.
        2    1    3    3  502    0  0.35277028475E+02 -0.64859789417E+03 -0.27656147556E+03  0.70598154851E+03  0.25500000920E-02 0. -1.
       -2    1    3    3    0  502 -0.35277028475E+02  0.64859789417E+03  0.21701702480E+03  0.68485041149E+03  0.25500000920E-02 0.  1.
</event>
<event>
 5   0  0.3932568E-04  0.1415027E+04  0.7818609E-02  0.8943013E-01
       -2   -1    0    0    0  501  0.00000000000E+00  0.00000000000E+00  0.62560287828E+03  0.62560287828E+03  0.25500000920E-02 0. -1.
        2   -1    0    0  501    0  0.00000000000E+00  0.00000000000E+00 -0.80014853118E+03  0.80014853118E+03  0.25500000920E-02 0.  1.
    10030    2    1    2    0    0  0.00000000000E+00  0.00000000000E+00 -0.17454565290E+03  0.14257514095E+04  0.14150268184E+04 0.  0.
        2    1    3    3  502    0 -0.87821287000E+02 -0.24099718764E+03  0.57710543941E+03  0.63154011045E+03  0.25500000920E-02 0. -1.
       -2    1    3    3    0  502  0.87821287000E+02  0.24099718764E+03 -0.75165109232E+03  0.79421129902E+03  0.25500000920E-02 0.  1.
</event>
<event>
 5   0  0.2215876E-04  0.1397432E+04  0.7818609E-02  0.8955680E-01
        1   -1    0    0  501    0  0.00000000000E+00  0.00000000000E+00  0.46149218552E+03  0.46149218555E+03  0.50400001928E-02 0. -1.
       -1   -1    0    0    0  501  0.00000000000E+00  0.00000000000E+00 -0.10578808045E+04  0.10578808045E+04  0.50400001928E-02 0.  1.
    10030    2    1    2    0    0  0.00000000000E+00  0.00000000000E+00 -0.59638861894E+03  0.15193729900E+04  0.13974315361E+04 0.  0.
        3    1    3    3  502    0  0.40658620394E+03  0.46199001092E+03 -0.65790624179E+03  0.90088164850E+03  0.10100000352E+00 0.  1.
       -3    1    3    3    0  502 -0.40658620394E+03 -0.46199001092E+03  0.61517622845E+02  0.61849134153E+03  0.10100000352E+00 0. -1.
</event>
<event>
 5   0  0.2155352E-04  0.1395132E+04  0.7818609E-02  0.8957350E-01
       -1   -1    0    0    0  501  0.00000000000E+00  0.00000000000E+00  0.81013586539E+03  0.81013586541E+03  0.50400001928E-02 0.  1.
        1   -1    0    0  501    0  0.00000000000E+00  0.00000000000E+00 -0.60063802505E+03  0.60063802507E+03  0.50400001928E-02 0. -1.
    10030    2    1    2    0    0  0.00000000000E+00  0.00000000000E+00  0.20949784034E+03  0.14107738905E+04  0.13951321174E+04 0.  0.
        2    1    3    3  502    0 -0.54035098141E+03  0.15770003654E+03  0.52137539873E+03  0.76725536234E+03  0.25500000920E-02 0.  1.
       -2    1    3    3    0  502  0.54035098141E+03 -0.15770003654E+03 -0.31187755839E+03  0.64351852814E+03  0.25500000920E-02 0. -1.
</event>
<event>
 5   0  0.4310348E-04  0.1410777E+04  0.7818609E-02  0.8946055E-01
       -2   -1    0    0    0  501  0.00000000000E+00  0.00000000000E+00  0.65128454779E+03  0.65128454780E+03  0.25500000920E-02 0. -1.
        2   -1    0    0  501    0  0.00000000000E+00  0.00000000000E+00 -0.76398648061E+03  0.76398648061E+03  0.25500000920E-02 0.  1.
    10030    2    1    2    0    0  0.00000000000E+00  0.00000000000E+00 -0.11270193282E+03  0.14152710284E+04  0.14107765089E+04 0.  0.
        1    1    3    3  502    0 -0.60686011063E+03  0.13793042930E+03  0.27677409937E+03  0.68110784705E+03  0.50400001928E-02 0. -1.
       -1    1    3    3    0  502  0.60686011063E+03 -0.13793042930E+03 -0.38947603219E+03  0.73416318137E+03  0.50400001928E-02 0.  1.
</event>
<event>
 5   0  0.2155352E-04  0.1400374E+04  0.7818609E-02  0.8953548E-01
        1   -1    0    0  501    0  0.00000000000E+00  0.00000000000E+00  0.96547869518E+03  0.96547869519E+03  0.50400001928E-02 0.  1.
       -1   -1    0    0    0  501  0.00000000000E+00  0.00000000000E+00 -0.50779124750E+03  0.50779124752E+03  0.50400001928E-02 0. -1.
    10030    2    1    2    0    0  0.00000000000E+00  0.00000000000E+00  0.45768744768E+03  0.14732699427E+04  0.14003737088E+04 0.  0.
        2    1    3    3  502    0 -0.43740686096E+03  0.38825840973E+02 -0.34491637728E+03  0.55839011028E+03  0.25500000920E-02 0. -1.
       -2    1    3    3    0  502  0.43740686096E+03 -0.38825840973E+02  0.80260382496E+03  0.91487983243E+03  0.25500000920E-02 0.  1.
</event>
<event>
 5   0  0.2217251E-04  0.1318970E+04  0.7818609E-02  0.9014656E-01
        1   -1    0    0  501    0  0.00000000000E+00  0.00000000000E+00  0.77917079859E+03  0.77917079861E+03  0.50400001928E-02 0.  1.
       -1   -1    0    0    0  501  0.00000000000E+00  0.00000000000E+00 -0.55818382218E+03  0.55818382220E+03  0.50400001928E-02 0. -1.
    10030    2    1    2    0    0  0.00000000000E+00  0.00000000000E+00  0.22098697641E+03  0.13373546208E+04  0.13189701051E+04 0.  0.
        5    1    3    3  502    0 -0.24241357162E+03  0.33470592778E+03 -0.41058219023E+03  0.58257379166E+03  0.46999998093E+01 0. -1.
       -5    1    3    3    0  502  0.24241357162E+03 -0.33470592778E+03  0.63156916664E+03  0.75478082915E+03  0.46999998093E+01 0.  1.
</event>
<event>
 5   0  0.3975164E-04  0.1401832E+04  0.7818609E-02  0.8952494E-01
        2   -1    0    0  501    0  0.00000000000E+00  0.00000000000E+00  0.76192756461E+03  0.76192756461E+03  0.25500000920E-02 0. -1.
       -2   -1    0    0    0  501  0.00000000000E+00  0.00000000000E+00 -0.64478979338E+03  0.64478979338E+03  0.25500000920E-02 0.  1.
    10030    2    1    2    0    0  0.00000000000E+00  0.00000000000E+00  0.11713777123E+03  0.14067173580E+04  0.14018318258E+04 0.  0.
        5    1    3    3  502    0  0.22627460538E+03  0.59342331839E+03  0.35609772679E+03  0.72813399376E+03  0.46999998093E+01 0. -1.
       -5    1    3    3    0  502 -0.22627460538E+03 -0.59342331839E+03 -0.23895995556E+03  0.67858336423E+03  0.46999998093E+01 0.  1.
</event>
<event>
 5   0  0.2155352E-04  0.1401336E+04  0.7818609E-02  0.8952852E-01
       -1   -1    0    0    0  501  0.00000000000E+00  0.00000000000E+00  0.36243224811E+03  0.36243224814E+03  0.50400001928E-02 0.  1.
        1   -1    0    0  501    0  0.00000000000E+00  0.00000000000E+00 -0.13545593233E+04  0.13545593233E+04  0.50400001928E-02 0. -1.
    10030    2    1    2    0    0  0.00000000000E+00  0.00000000000E+00 -0.99212707519E+03  0.17169915714E+04  0.14013364775E+04 0.  0.
        2    1    3    3  502    0  0.13778915369E+03 -0.26620085946E+03 -0.12720339373E+04  0.13068737836E+04  0.25500000920E-02 0. -1.
       -2    1    3    3    0  502 -0.13778915369E+03  0.26620085946E+03  0.27990686214E+03  0.41011778788E+03  0.25500000920E-02 0.  1.
</event>
<event>
 5   0  0.2215876E-04  0.1465150E+04  0.7818609E-02  0.8907964E-01
        1   -1    0    0  501    0  0.00000000000E+00  0.00000000000E+00  0.14630762913E+04  0.14630762913E+04  0.50400001928E-02 0.  1.
       -1   -1    0    0    0  501  0.00000000000E+00  0.00000000000E+00 -0.36680675529E+03  0.36680675532E+03  0.50400001928E-02 0. -1.
    10030    2    1    2    0    0  0.00000000000E+00  0.00000000000E+00  0.10962695360E+04  0.18298830466E+04  0.14651501864E+04 0.  0.
        3    1    3    3  502    0  0.45776055387E+03 -0.39830349634E+03  0.35497676451E+02  0.60782439496E+03  0.10100000352E+00 0.  1.
       -3    1    3    3    0  502 -0.45776055387E+03  0.39830349634E+03  0.10607718596E+04  0.12220586517E+04  0.10100000352E+00 0. -1.
</event>
<event>
 5   0  0.2217251E-04  0.1405361E+04  0.7818609E-02  0.8949947E-01
        1   -1    0    0  501    0  0.00000000000E+00  0.00000000000E+00  0.15049087140E+04  0.15049087140E+04  0.50400001928E-02 0.  1.
       -1   -1    0    0    0  501  0.00000000000E+00  0.00000000000E+00 -0.32809974552E+03  0.32809974556E+03  0.50400001928E-02 0. -1.
    10030    2    1    2    0    0  0.00000000000E+00  0.00000000000E+00  0.11768089685E+04  0.18330084596E+04  0.14053614000E+04 0.  0.
        5    1    3    3  502    0  0.57453945672E+03 -0.55989443458E+02  0.65858704048E+02  0.58102483940E+03  0.46999998093E+01 0. -1.
       -5    1    3    3    0  502 -0.57453945672E+03  0.55989443458E+02  0.11109502644E+04  0.12519836202E+04  0.46999998093E+01 0.  1.
</event>
<event>
 5   0  0.3932568E-04  0.1408033E+04  0.7818609E-02  0.8948024E-01
       -2   -1    0    0    0  501  0.00000000000E+00  0.00000000000E+00  0.21901903186E+03  0.21901903188E+03  0.25500000920E-02 0.  1.
        2   -1    0    0  501    0  0.00000000000E+00  0.00000000000E+00 -0.22629970108E+04  0.22629970108E+04  0.25500000920E-02 0. -1.
    10030    2    1    2    0    0  0.00000000000E+00  0.00000000000E+00 -0.20439779789E+04  0.24820160427E+04  0.14080332587E+04 0.  0.
        2    1    3    3  502    0 -0.54033430289E+03 -0.36957043822E+03 -0.14785930966E+04  0.16170284515E+04  0.25500000920E-02 0. -1.
       -2    1    3    3    0  502  0.54033430289E+03  0.36957043822E+03 -0.56538488231E+03  0.86498759115E+03  0.25500000920E-02 0.  1.
</event>
<event>
 5   0  0.3917598E-04  0.1401387E+04  0.7818609E-02  0.8952815E-01
        2   -1    0    0  501    0  0.00000000000E+00  0.00000000000E+00  0.15348560002E+04  0.15348560002E+04  0.25500000920E-02 0.  1.
       -2   -1    0    0    0  501  0.00000000000E+00  0.00000000000E+00 -0.31988119697E+03  0.31988119698E+03  0.25500000920E-02 0. -1.
    10030    2    1    2    0    0  0.00000000000E+00  0.00000000000E+00  0.12149748032E+04  0.18547371971E+04  0.14013872763E+04 0.  0.
        3    1    3    3  502    0  0.68018768271E+03 -0.14200002130E+03  0.72698621994E+03  0.10056481810E+04  0.10100000352E+00 0.  1.
       -3    1    3    3    0  502 -0.68018768271E+03  0.14200002130E+03  0.48798858325E+03  0.84908901615E+03  0.10100000352E+00 0. -1.
</event>
<event>
 5   0  0.2215876E-04  0.1389973E+04  0.7818609E-02  0.8961109E-01
        1   -1    0    0  501    0  0.00000000000E+00  0.00000000000E+00  0.68790649397E+03  0.68790649399E+03  0.50400001928E-02 0. -1.
       -1   -1    0    0    0  501  0.00000000000E+00  0.00000000000E+00 -0.70213949184E+03  0.70213949185E+03  0.50400001928E-02 0.  1.
    10030    2    1    2    0    0  0.00000000000E+00  0.00000000000E+00 -0.14232997863E+02  0.13900459858E+04  0.13899731165E+04 0.  0.
        3    1    3    3  502    0 -0.46704973745E+03 -0.22897036973E+03  0.45382351208E+03  0.69030332303E+03  0.10100000352E+00 0. -1.
       -3    1    3    3    0  502  0.46704973745E+03  0.22897036973E+03 -0.46805650994E+03  0.69974266282E+03  0.10100000352E+00 0.  1.
</event>
<event>
 5   0  0.4310348E-04  0.1396647E+04  0.7818609E-02  0.8956249E-01
       -2   -1    0    0    0  501  0.00000000000E+00  0.00000000000E+00  0.51212837076E+03  0.51212837076E+03  0.25500000920E-02 0.  1.
        2   -1    0    0  501    0  0.00000000000E+00  0.00000000000E+00 -0.95221378465E+03  0.95221378465E+03  0.25500000920E-02 0. -1.
    10030    2    1    2    0    0  0.00000000000E+00  0.00000000000E+00 -0.44008541389E+03  0.14643421554E+04  0.13966469764E+04 0.  0.
        1    1    3    3  502    0 -0.13832638063E+03 -0.57677938154E+03 -0.60648177668E+03  0.84830937047E+03  0.50400001928E-02 0. -1.
       -1    1    3    3    0  502  0.13832638063E+03  0.57677938154E+03  0.16639636279E+03  0.61603278495E+03  0.50400001928E-02 0.  1.
</event>
<event>
 5   0  0.4310348E-04  0.1395826E+04  0.7818609E-02  0.8956846E-01
       -2   -1    0    0    0  501  0.00000000000E+00  0.00000000000E+00  0.13245724370E+04  0.13245724370E+04  0.25500000920E-02 0.  1.
        2   -1    0    0  501    0  0.00000000000E+00  0.00000000000E+00 -0.36772791629E+03  0.36772791630E+03  0.25500000920E-02 0. -1.
    10030    2    1    2    0    0  0.00000000000E+00  0.00000000000E+00  0.95684452071E+03  0.16923003533E+04  0.13958255797E+04 0.  0.
        1    1    3    3  502    0 -0.30185022795E+03 -0.50342515288E+03  0.93614469981E+03  0.11049512857E+04  0.50400001928E-02 0.  1.
       -1    1    3    3    0  502  0.30185022795E+03  0.50342515288E+03  0.20699820905E+02  0.58734906766E+03  0.50400001928E-02 0. -1.
</event>
<event>
 5   0  0.3975164E-04  0.1399434E+04  0.7818609E-02  0.8954228E-01
       -2   -1    0    0    0  501  0.00000000000E+00  0.00000000000E+00  0.10788224503E+04  0.10788224503E+04  0.25500000920E-02 0. -1.
        2   -1    0    0  501    0  0.00000000000E+00  0.00000000000E+00 -0.45383171103E+03  0.45383171103E+03  0.25500000920E-02 0.  1.
    10030    2    1    2    0    0  0.00000000000E+00  0.00000000000E+00  0.62499073929E+03  0.15326541614E+04  0.13994339406E+04 0.  0.
        5    1    3    3  502    0  0.48773506743E+03  0.35948004695E+03 -0.70776762438E+02  0.61003511396E+03  0.46999998093E+01 0.  1.
       -5    1    3    3    0  502 -0.48773506743E+03 -0.35948004695E+03  0.69576750173E+03  0.92261904740E+03  0.46999998093E+01 0. -1.
</event>
<event>
 5   0  0.3917598E-04  0.1402030E+04  0.7818609E-02  0.8952350E-01
       -2   -1    0    0    0  501  0.00000000000E+00  0.00000000000E+00  0.23500338501E+03  0.23500338502E+03  0.25500000920E-02 0. -1.
        2   -1    0    0  501    0  0.00000000000E+00  0.00000000000E+00 -0.20911277034E+04  0.20911277034E+04  0.25500000920E-02 0.  1.
    10030    2    1    2    0    0  0.00000000000E+00  0.00000000000E+00 -0.18561243184E+04  0.23261310884E+04  0.14020300836E+04 0.  0.
        3    1    3    3  502    0  0.20058183942E+03 -0.35576418255E+03  0.17227830614E+02  0.40877626673E+03  0.10100000352E+00 0. -1.
       -3    1    3    3    0  502 -0.20058183942E+03  0.35576418255E+03 -0.18733521490E+04  0.19173548217E+04  0.10100000352E+00 0.  1.
</event>
<event>
 5   0  0.2223112E-04  0.1403749E+04  0.7818609E-02  0.8951110E-01
        1   -1    0    0  501    0  0.00000000000E+00  0.00000000000E+00  0.54422500539E+03  0.54422500542E+03  0.50400001928E-02 0.  1.
       -1   -1    0    0    0  501  0.00000000000E+00  0.00000000000E+00 -0.90519093863E+03  0.90519093864E+03  0.50400001928E-02 0. -1.
    10030    2    1    2    0    0  0.00000000000E+00  0.00000000000E+00 -0.36096593323E+03  0.14494159441E+04  0.14037486149E+04 0.  0.
        1    1    3    3  502    0 -0.17683689900E+02  0.15738034268E+03  0.52553537956E+03  0.54887951350E+03  0.50400001928E-02 0.  1.
       -1    1    3    3    0  502  0.17683689900E+02 -0.15738034268E+03 -0.88650131279E+03  0.90053643056E+03  0.50400001928E-02 0. -1.
</event>
<event>
 5   0  0.2223112E-04  0.1390166E+04  0.7818609E-02  0.8960968E-01
       -1   -1    0    0    0  501  0.00000000000E+00  0.00000000000E+00  0.57447588487E+03  0.57447588489E+03  0.50400001928E-02 0.  1.
        1   -1    0    0  501    0  0.00000000000E+00  0.00000000000E+00 -0.84101101983E+03  0.84101101984E+03  0.50400001928E-02 0. -1.
    10030    2    1    2    0    0  0.00000000000E+00  0.00000000000E+00 -0.26653513496E+03  0.14154869047E+04  0.13901662488E+04 0.  0.
        1    1    3    3  502    0 -0.56593972176E+02  0.18670168412E+02  0.57186985889E+03  0.57496659765E+03  0.50400001928E-02 0.  1.
       -1    1    3    3    0  502  0.56593972176E+02 -0.18670168412E+02 -0.83840499385E+03  0.84052030708E+03  0.50400001928E-02 0. -1.
</event>
<event>
 5   0  0.2223112E-04  0.1409590E+04  0.7818609E-02  0.8946906E-01
        1   -1    0    0  501    0  0.00000000000E+00  0.00000000000E+00  0.68146404150E+03  0.68146404152E+03  0.50400001928E-02 0.  1.
       -1   -1    0    0    0  501  0.00000000000E+00  0.00000000000E+00 -0.72892463208E+03  0.72892463210E+03  0.50400001928E-02 0. -1.
    10030    2    1    2    0    0  0.00000000000E+00  0.00000000000E+00 -0.47460590584E+02  0.14103886736E+04  0.14095899060E+04 0.  0.
        1    1    3    3  502    0  0.38621698200E+03  0.82747463445E+02 -0.60777780237E+03  0.72484795438E+03  0.50400001928E-02 0. -1.
       -1    1    3    3    0  502 -0.38621698200E+03 -0.82747463445E+02  0.56031721179E+03  0.68554071924E+03  0.50400001928E-02 0.  1.
</event>
<event>
 5   0  0.3975164E-04  0.1401672E+04  0.7818609E-02  0.8952609E-01
       -2   -1    0    0    0  501  0.00000000000E+00  0.00000000000E+00  0.30984752955E+03  0.30984752956E+03  0.25500000920E-02 0.  1.
        2   -1    0    0  501    0  0.00000000000E+00  0.00000000000E+00 -0.15852028676E+04  0.15852028676E+04  0.25500000920E-02 0. -1.
    10030    2    1    2    0    0  0.00000000000E+00  0.00000000000E+00 -0.12753553380E+04  0.18950503971E+04  0.14016721334E+04 0.  0.
        5    1    3    3  502    0  0.20013550419E+02 -0.68586339608E+03 -0.83049647731E+03  0.10772908749E+04  0.46999998093E+01 0.  1.
       -5    1    3    3    0  502 -0.20013550419E+02  0.68586339608E+03 -0.44485886070E+03  0.81775952224E+03  0.46999998093E+01 0. -1.
</event>
<event>
 5   0  0.4310348E-04  0.1398360E+04  0.7818609E-02  0.8955007E-01
       -2   -1    0    0    0  501  0.00000000000E+00  0.00000000000E+00  0.19102703536E+03  0.19102703537E+03  0.25500000920E-02 0.  1.
        2   -1    0    0  501    0  0.00000000000E+00  0.00000000000E+00 -0.25590742453E+04  0.25590742453E+04  0.25500000920E-02 0. -1.
    10030    2    1    2    0    0  0.00000000000E+00  0.00000000000E+00 -0.23680472100E+04  0.27501012807E+04  0.13983595623E+04 0.  0.
        1    1    3    3  502    0  0.45233295981E+03 -0.42249743547E+03 -0.54450083996E+03  0.82437270349E+03  0.50400001928E-02 0.  1.
       -1    1    3    3    0  502 -0.45233295981E+03  0.42249743547E+03 -0.18235463700E+04  0.19257285772E+04  0.50400001928E-02 0. -1.
</event>
<event>
 5   0  0.2217251E-04  0.1359342E+04  0.7818609E-02  0.8983787E-01
        1   -1    0    0  501    0  0.00000000000E+00  0.00000000000E+00  0.20329940707E+04  0.20329940707E+04  0.50400001928E-02 0. -1.
       -1   -1    0    0    0  501  0.00000000000E+00  0.00000000000E+00 -0.22722764165E+03  0.22722764171E+03  0.50400001928E-02 0.  1.
    10030    2    1    2    0    0  0.00000000000E+00  0.00000000000E+00  0.18057664290E+04  0.22602217124E+04  0.13593416763E+04 0.  0.
        5    1    3    3  502    0  0.53620569000E+03  0.23687002554E+03  0.33097472509E+03  0.67319410993E+03  0.46999998093E+01 0.  1.
       -5    1    3    3    0  502 -0.53620569000E+03 -0.23687002554E+03  0.14747917039E+04  0.15870276024E+04  0.46999998093E+01 0. -1.
</event>
<event>
 5   0  0.2217251E-04  0.1396766E+04  0.7818609E-02  0.8956163E-01
        1   -1    0    0  501    0  0.00000000000E+00  0.00000000000E+00  0.14516836846E+04  0.14516836846E+04  0.50400001928E-02 0. -1.
       -1   -1    0    0    0  501  0.00000000000E+00  0.00000000000E+00 -0.33598124052E+03  0.33598124056E+03  0.50400001928E-02 0.  1.
    10030    2    1    2    0    0  0.00000000000E+00  0.00000000000E+00  0.11157024441E+04  0.17876649252E+04  0.13967655283E+04 0.  0.
        5    1    3    3  502    0  0.13211115409E+03  0.20655142416E+03  0.13947659861E+04  0.14161606878E+04  0.46999998093E+01 0. -1.
       -5    1    3    3    0  502 -0.13211115409E+03 -0.20655142416E+03 -0.27906354202E+03  0.37150423731E+03  0.46999998093E+01 0.  1.
</event>
<event>
 5   0  0.4310348E-04  0.1401004E+04  0.7818609E-02  0.8953092E-01
       -2   -1    0    0    0  501  0.00000000000E+00  0.00000000000E+00  0.29413262458E+03  0.29413262459E+03  0.25500000920E-02 0. -1.
        2   -1    0    0  501    0  0.00000000000E+00  0.00000000000E+00 -0.16683063374E+04  0.16683063374E+04  0.25500000920E-02 0.  1.
    10030    2    1    2    0    0  0.00000000000E+00  0.00000000000E+00 -0.13741737129E+04  0.19624389620E+04  0.14010043849E+04 0.  0.
        1    1    3    3  502    0 -0.27178753822E+03 -0.40687203413E+03  0.15086375480E+02  0.48953132366E+03  0.50400001928E-02 0. -1.
       -1    1    3    3    0  502  0.27178753822E+03  0.40687203413E+03 -0.13892600883E+04  0.14729076384E+04  0.50400001928E-02 0.  1.
</event>
<event>
 5   0  0.2215876E-04  0.1401659E+04  0.7818609E-02  0.8952619E-01
       -1   -1    0    0    0  501  0.00000000000E+00  0.00000000000E+00  0.24688555560E+03  0.24688555565E+03  0.50400001928E-02 0.  1.
        1   -1    0    0  501    0  0.00000000000E+00  0.00000000000E+00 -0.19894315389E+04  0.19894315389E+04  0.50400001928E-02 0. -1.
    10030    2    1    2    0    0  0.00000000000E+00  0.00000000000E+00 -0.17425459833E+04  0.22363170946E+04  0.14016588898E+04 0.  0.
        3    1    3    3  502    0  0.59557270096E+03  0.30197797375E+03 -0.53182812213E+03  0.85366193570E+03  0.10100000352E+00 0.  1.
       -3    1    3    3    0  502 -0.59557270096E+03 -0.30197797375E+03 -0.12107178612E+04  0.13826551589E+04  0.10100000352E+00 0. -1.
</event>
<event>
 5   0  0.2155352E-04  0.1376479E+04  0.7818609E-02  0.8971023E-01
       -1   -1    0    0    0  501  0.00000000000E+00  0.00000000000E+00  0.63248764041E+03  0.63248764043E+03  0.50400001928E-02 0. -1.
        1   -1    0    0  501    0  0.00000000000E+00  0.00000000000E+00 -0.74890553116E+03  0.74890553118E+03  0.50400001928E-02 0.  1.
    10030    2    1    2    0    0  0.00000000000E+00  0.00000000000E+00 -0.11641789075E+03  0.13813931716E+04  0.13764788299E+04 0.  0.
        2    1    3    3  502    0 -0.36336645068E+03  0.20371693256E+01 -0.64479051886E+03  0.74013116456E+03  0.25500000920E-02 0.  1.
       -2    1    3    3    0  502  0.36336645068E+03 -0.20371693256E+01  0.52837262812E+03  0.64126200705E+03  0.25500000920E-02 0. -1.
</event>
<event>
 5   0  0.2143942E-04  0.1400234E+04  0.7818609E-02  0.8953649E-01
       -1   -1    0    0    0  501  0.00000000000E+00  0.00000000000E+00  0.30624112608E+03  0.30624112612E+03  0.50400001928E-02 0. -1.
        1   -1    0    0  501    0  0.00000000000E+00  0.00000000000E+00 -0.16005823414E+04  0.16005823414E+04  0.50400001928E-02 0.  1.
    10030    2    1    2    0    0  0.00000000000E+00  0.00000000000E+00 -0.12943412153E+04  0.19068234675E+04  0.14002344642E+04 0.  0.
        4    1    3    3  502    0 -0.23348641949E+03 -0.42304504617E+03 -0.13371010741E+04  0.14217327156E+04  0.12699999809E+01 0.  1.
       -4    1    3    3    0  502  0.23348641949E+03  0.42304504617E+03  0.42759858848E+02  0.48509075193E+03  0.12699999809E+01 0. -1.
</event>
<event>
 5   0  0.2143942E-04  0.1394158E+04  0.7818609E-02  0.8958058E-01
       -1   -1    0    0    0  501  0.00000000000E+00  0.00000000000E+00  0.26021903511E+03  0.26021903516E+03  0.50400001928E-02 0. -1.
        1   -1    0    0  501    0  0.00000000000E+00  0.00000000000E+00 -0.18673475146E+04  0.18673475146E+04  0.50400001928E-02 0.  1.
    10030    2    1    2    0    0  0.00000000000E+00  0.00000000000E+00 -0.16071284795E+04  0.21275665498E+04  0.13941583390E+04 0.  0.
        4    1    3    3  502    0  0.21883996915E+03 -0.59966341348E+03 -0.37618456867E+03  0.74094776076E+03  0.12699999809E+01 0. -1.
       -4    1    3    3    0  502 -0.21883996915E+03  0.59966341348E+03 -0.12309439108E+04  0.13866187890E+04  0.12699999809E+01 0.  1.
</event>
<event>
 5   0  0.2223112E-04  0.1395075E+04  0.7818609E-02  0.8957391E-01
        1   -1    0    0  501    0  0.00000000000E+00  0.00000000000E+00  0.11586286047E+04  0.11586286048E+04  0.50400001928E-02 0.  1.
       -1   -1    0    0    0  501  0.00000000000E+00  0.00000000000E+00 -0.41994341816E+03  0.41994341819E+03  0.50400001928E-02 0. -1.
    10030    2    1    2    0    0  0.00000000000E+00  0.00000000000E+00  0.73868518659E+03  0.15785720229E+04  0.13950748463E+04 0.  0.
        1    1    3    3  502    0  0.22697424220E+03 -0.18284477691E+03 -0.34773900508E+03  0.45373112605E+03  0.50400001928E-02 0. -1.
       -1    1    3    3    0  502 -0.22697424220E+03  0.18284477691E+03  0.10864241917E+04  0.11248408969E+04  0.50400001928E-02 0.  1.
</event>
<event>
 5   0  0.2215876E-04  0.1362225E+04  0.7818609E-02  0.8981625E-01
       -1   -1    0    0    0  501  0.00000000000E+00  0.00000000000E+00  0.56775862654E+03  0.56775862656E+03  0.50400001928E-02 0. -1.
        1   -1    0    0  501    0  0.00000000000E+00  0.00000000000E+00 -0.81709742385E+03  0.81709742386E+03  0.50400001928E-02 0.  1.
    10030    2    1    2    0    0  0.00000000000E+00  0.00000000000E+00 -0.24933879731E+03  0.13848560504E+04  0.13622248142E+04 0.  0.
        3    1    3    3  502    0  0.22609463780E+03  0.58210588040E+03  0.15178228374E+03  0.64265380501E+03  0.10100000352E+00 0.  1.
       -3    1    3    3    0  502 -0.22609463780E+03 -0.58210588040E+03 -0.40112108105E+03  0.74220224541E+03  0.10100000352E+00 0. -1.
</event>
<event>
 5   0  0.2143942E-04  0.1421076E+04  0.7818609E-02  0.8938702E-01
        1   -1    0    0  501    0  0.00000000000E+00  0.00000000000E+00  0.76604155960E+03  0.76604155961E+03  0.50400001928E-02 0. -1.
       -1   -1    0    0    0  501  0.00000000000E+00  0.00000000000E+00 -0.65905608503E+03  0.65905608505E+03  0.50400001928E-02 0.  1.
    10030    2    1    2    0    0  0.00000000000E+00  0.00000000000E+00  0.10698547457E+03  0.14250976447E+04  0.14210761433E+04 0.  0.
        4    1    3    3  502    0  0.25965903654E+02  0.15158323694E+03  0.74914958015E+03  0.76477343848E+03  0.12699999809E+01 0. -1.
       -4    1    3    3    0  502 -0.25965903654E+02 -0.15158323694E+03 -0.64216410558E+03  0.66032420618E+03  0.12699999809E+01 0.  1.
</event>
<event>
 5   0  0.3975164E-04  0.1392443E+04  0.7818609E-02  0.8959307E-01
       -2   -1    0    0    0  501  0.00000000000E+00  0.00000000000E+00  0.34038694612E+03  0.34038694613E+03  0.25500000920E-02 0.  1.
        2   -1    0    0  501    0  0.00000000000E+00  0.00000000000E+00 -0.14240392327E+04  0.14240392327E+04  0.25500000920E-02 0. -1.
    10030    2    1    2    0    0  0.00000000000E+00  0.00000000000E+00 -0.10836522866E+04  0.17644261788E+04  0.13924429835E+04 0.  0.
        5    1    3    3  502    0  0.54856101685E+03 -0.13285504731E+03 -0.25346115095E+02  0.56500811352E+03  0.46999998093E+01 0.  1.
       -5    1    3    3    0  502 -0.54856101685E+03  0.13285504731E+03 -0.10583061715E+04  0.11994180653E+04  0.46999998093E+01 0. -1.
</event>
<event>
 5   0  0.2155352E-04  0.1403784E+04  0.7818609E-02  0.8951084E-01
       -1   -1    0    0    0  501  0.00000000000E+00  0.00000000000E+00  0.31816520050E+03  0.31816520054E+03  0.50400001928E-02 0. -1.
        1   -1    0    0  501    0  0.00000000000E+00  0.00000000000E+00 -0.15484158272E+04  0.15484158272E+04  0.50400001928E-02 0.  1.
    10030    2    1    2    0    0  0.00000000000E+00  0.00000000000E+00 -0.12302506267E+04  0.18665810278E+04  0.14037835049E+04 0.  0.
        2    1    3    3  502    0 -0.31966705200E+02  0.21560994891E+03 -0.15022736618E+04  0.15180038456E+04  0.25500000920E-02 0.  1.
       -2    1    3    3    0  502  0.31966705200E+02 -0.21560994891E+03  0.27202303508E+03  0.34857718217E+03  0.25500000920E-02 0. -1.
</event>
<event>
 5   0  0.2215876E-04  0.1389960E+04  0.7818609E-02  0.8961118E-01
       -1   -1    0    0    0  501  0.00000000000E+00  0.00000000000E+00  0.70829045813E+03  0.70829045814E+03  0.50400001928E-02 0.  1.
        1   -1    0    0  501    0  0.00000000000E+00  0.00000000000E+00 -0.68192009744E+03  0.68192009746E+03  0.50400001928E-02 0. -1.
    10030    2    1    2    0    0  0.00000000000E+00  0.00000000000E+00  0.26370360685E+02  0.13902105556E+04  0.13899604286E+04 0.  0.
        3    1    3    3  502    0  0.22352126051E+03  0.54194265279E+03  0.38652690952E+03  0.70218705115E+03  0.10100000352E+00 0.  1.
       -3    1    3    3    0  502 -0.22352126051E+03 -0.54194265279E+03 -0.36015654883E+03  0.68802350446E+03  0.10100000352E+00 0. -1.
</event>
<event>
 5   0  0.2155352E-04  0.1403610E+04  0.7818609E-02  0.8951209E-01
        1   -1    0    0  501    0  0.00000000000E+00  0.00000000000E+00  0.11655825974E+04  0.11655825974E+04  0.50400001928E-02 0.  1.
       -1   -1    0    0    0  501  0.00000000000E+00  0.00000000000E+00 -0.42256167174E+03  0.42256167177E+03  0.50400001928E-02 0. -1.
    10030    2    1    2    0    0  0.00000000000E+00  0.00000000000E+00  0.74302092567E+03  0.15881442692E+04  0.14036103889E+04 0.  0.
        2    1    3    3  502    0 -0.95173578390E+02  0.94069344211E+00  0.11582461994E+04  0.11621502283E+04  0.25500000920E-02 0.  1.
       -2    1    3    3    0  502  0.95173578390E+02 -0.94069344211E+00 -0.41522527368E+03  0.42599404085E+03  0.25500000920E-02 0. -1.
</event>
<event>
 5   0  0.4310348E-04  0.1398050E+04  0.7818609E-02  0.8955231E-01
        2   -1    0    0  501    0  0.00000000000E+00  0.00000000000E+00  0.10170136903E+04  0.10170136903E+04  0.25500000920E-02 0. -1.
       -2   -1    0    0    0  501  0.00000000000E+00  0.00000000000E+00 -0.48046158326E+03  0.48046158327E+03  0.25500000920E-02 0.  1.
    10030    2    1    2    0    0  0.00000000000E+00  0.00000000000E+00  0.53655210699E+03  0.14974752735E+04  0.13980500818E+04 0.  0.
        1    1    3    3  502    0 -0.94229784815E+02 -0.69263462196E+03  0.26426316370E+03  0.74729980035E+03  0.50400001928E-02 0.  1.
       -1    1    3    3    0  502  0.94229784815E+02  0.69263462196E+03  0.27228894329E+03  0.75017547318E+03  0.50400001928E-02 0. -1.
</event>
<event>
 5   0  0.2223112E-04  0.1400957E+04  0.7818609E-02  0.8953126E-01
        1   -1    0    0  501    0  0.00000000000E+00  0.00000000000E+00  0.61986790533E+03  0.61986790535E+03  0.50400001928E-02 0. -1.
       -1   -1    0    0    0  501  0.00000000000E+00  0.00000000000E+00 -0.79157186684E+03  0.79157186685E+03  0.50400001928E-02 0.  1.
    10030    2    1    2    0    0  0.00000000000E+00  0.00000000000E+00 -0.17170396151E+03  0.14114397722E+04  0.14009568088E+04 0.  0.
        1    1    3    3  502    0 -0.42206830617E+03 -0.10409411618E+03 -0.63922763079E+03  0.77303894086E+03  0.50400001928E-02 0.  1.
       -1    1    3    3    0  502  0.42206830617E+03  0.10409411618E+03  0.46752366928E+03  0.63840083134E+03  0.50400001928E-02 0. -1.
</event>
<event>
 5   0  0.3932568E-04  0.1396339E+04  0.7818609E-02  0.8956473E-01
        2   -1    0    0  501    0  0.00000000000E+00  0.00000000000E+00  0.21466452770E+04  0.21466452770E+04  0.25500000920E-02 0.  1.
       -2   -1    0    0    0  501  0.00000000000E+00  0.00000000000E+00 -0.22707102893E+03  0.22707102895E+03  0.25500000920E-02 0. -1.
    10030    2    1    2    0    0  0.00000000000E+00  0.00000000000E+00  0.19195742481E+04  0.23737163060E+04  0.13963394313E+04 0.  0.
        2    1    3    3  502    0 -0.39072688802E+03  0.92759355138E+02  0.19306530379E+04  0.19719769146E+04  0.25500000920E-02 0.  1.
       -2    1    3    3    0  502  0.39072688802E+03 -0.92759355138E+02 -0.11078789796E+02  0.40173939137E+03  0.25500000920E-02 0. -1.
</event>
<event>
 5   0  0.1497625E-04  0.1403809E+04  0.7818609E-02  0.8951066E-01
       -3   -1    0    0    0  501  0.00000000000E+00  0.00000000000E+00  0.29312808776E+03  0.29312810516E+03  0.10100000352E+00 0.  1.
        3   -1    0    0  501    0  0.00000000000E+00  0.00000000000E+00 -0.16807323248E+04  0.16807323279E+04  0.10100000352E+00 0. -1.
    10030    2    1    2    0    0  0.00000000000E+00  0.00000000000E+00 -0.13876042371E+04  0.19738604330E+04  0.14038089223E+04 0.  0.
        4    1    3    3  502    0 -0.24886919090E+03 -0.54541293568E+03 -0.12070812963E+04  0.13477603694E+04  0.12699999809E+01 0. -1.
       -4    1    3    3    0  502  0.24886919090E+03  0.54541293568E+03 -0.18052294076E+03  0.62610006359E+03  0.12699999809E+01 0.  1.
</event>
<event>
 5   0  0.2223112E-04  0.1394679E+04  0.7818609E-02  0.8957679E-01
       -1   -1    0    0    0  501  0.00000000000E+00  0.00000000000E+00  0.74042299922E+03  0.74042299924E+03  0.50400001928E-02 0. -1.
        1   -1    0    0  501    0  0.00000000000E+00  0.00000000000E+00 -0.65676279191E+03  0.65676279193E+03  0.50400001928E-02 0.  1.
    10030    2    1    2    0    0  0.00000000000E+00  0.00000000000E+00  0.83660207313E+02  0.13971857912E+04  0.13946788536E+04 0.  0.
        1    1    3    3  502    0  0.40612752143E+03  0.66863877697E+02  0.60575573158E+03  0.73235943919E+03  0.50400001928E-02 0. -1.
       -1    1    3    3    0  502 -0.40612752143E+03 -0.66863877697E+02 -0.52209552427E+03  0.66482635198E+03  0.50400001928E-02 0.  1.
</event>
<event>
 5   0  0.2215876E-04  0.1409404E+04  0.7818609E-02  0.8947040E-01
        1   -1    0    0  501    0  0.00000000000E+00  0.00000000000E+00  0.57318748006E+03  0.57318748009E+03  0.50400001928E-02 0.  1.
       -1   -1    0    0    0  501  0.00000000000E+00  0.00000000000E+00 -0.86639151574E+03  0.86639151575E+03  0.50400001928E-02 0. -1.
    10030    2    1    2    0    0  0.00000000000E+00  0.00000000000E+00 -0.29320403568E+03  0.14395789958E+04  0.14094038026E+04 0.  0.
        3    1    3    3  502    0  0.57648057345E+03  0.64766892911E+02 -0.55526830675E+03  0.80302397515E+03  0.10100000352E+00 0. -1.
       -3    1    3    3    0  502 -0.57648057345E+03 -0.64766892911E+02  0.26206427108E+03  0.63655502069E+03  0.10100000352E+00 0.  1.
</event>
<event>
 5   0  0.3975164E-04  0.1395615E+04  0.7818609E-02  0.8956999E-01
       -2   -1    0    0    0  501  0.00000000000E+00  0.00000000000E+00  0.45612982726E+03  0.45612982726E+03  0.25500000920E-02 0.  1.
        2   -1    0    0  501    0  0.00000000000E+00  0.00000000000E+00 -0.10675369372E+04  0.10675369372E+04  0.25500000920E-02 0. -1.
    10030    2    1    2    0    0  0.00000000000E+00  0.00000000000E+00 -0.61140710992E+03  0.15236667644E+04  0.13956151887E+04 0.  0.
        5    1    3    3  502    0 -0.18900427594E+03 -0.66953839831E+03 -0.36458806497E+03  0.78546217621E+03  0.46999998093E+01 0. -1.
       -5    1    3    3    0  502  0.18900427594E+03  0.66953839831E+03 -0.24681904494E+03  0.73820458823E+03  0.46999998093E+01 0.  1.
</event>
<event>
 5   0  0.4208622E-04  0.1401341E+04  0.7818609E-02  0.8952848E-01
       -2   -1    0    0    0  501  0.00000000000E+00  0.00000000000E+00  0.30334172395E+03  0.30334172396E+03  0.25500000920E-02 0. -1.
        2   -1    0    0  501    0  0.00000000000E+00  0.00000000000E+00 -0.16184358745E+04  0.16184358745E+04  0.25500000920E-02 0.  1.
    10030    2    1    2    0    0  0.00000000000E+00  0.00000000000E+00 -0.13150941506E+04  0.19217775985E+04  0.14013409696E+04 0.  0.
        4    1    3    3  502    0 -0.28676705578E+03 -0.59844589061E+03 -0.34916937200E+03  0.74986244840E+03  0.12699999809E+01 0. -1.
       -4    1    3    3    0  502  0.28676705578E+03  0.59844589061E+03 -0.96592477857E+03  0.11719151501E+04  0.12699999809E+01 0.  1.
</event>
<event>
 5   0  0.2223112E-04  0.1405635E+04  0.7818609E-02  0.8949750E-01
       -1   -1    0    0    0  501  0.00000000000E+00  0.00000000000E+00  0.35926167793E+03  0.35926167796E+03  0.50400001928E-02 0.  1.
        1   -1    0    0  501    0  0.00000000000E+00  0.00000000000E+00 -0.13749094868E+04  0.13749094868E+04  0.50400001928E-02 0. -1.
    10030    2    1    2    0    0  0.00000000000E+00  0.00000000000E+00 -0.10156478089E+04  0.17341711648E+04  0.14056347880E+04 0.  0.
        1    1    3    3  502    0  0.19154508560E+03 -0.67356372733E+03 -0.58158676060E+03  0.91028609498E+03  0.50400001928E-02 0.  1.
       -1    1    3    3    0  502 -0.19154508560E+03  0.67356372733E+03 -0.43406104830E+03  0.82388506982E+03  0.50400001928E-02 0. -1.
</event>
<event>
 5   0  0.2217251E-04  0.1402526E+04  0.7818609E-02  0.8951992E-01
        1   -1    0    0  501    0  0.00000000000E+00  0.00000000000E+00  0.59222606241E+03  0.59222606243E+03  0.50400001928E-02 0.  1.
       -1   -1    0    0    0  501  0.00000000000E+00  0.00000000000E+00 -0.83037553915E+03  0.83037553917E+03  0.50400001928E-02 0. -1.
    10030    2    1    2    0    0  0.00000000000E+00  0.00000000000E+00 -0.23814947674E+03  0.14226016016E+04  0.14025263433E+04 0.  0.
        5    1    3    3  502    0  0.52793532199E+03 -0.31387093403E+03  0.22417307179E+03  0.65383967726E+03  0.46999998093E+01 0.  1.
       -5    1    3    3    0  502 -0.52793532199E+03  0.31387093403E+03 -0.46232254854E+03  0.76876192435E+03  0.46999998093E+01 0. -1.
</event>
<event>
 5   0  0.3917598E-04  0.1397687E+04  0.7818609E-02  0.8955494E-01
        2   -1    0    0  501    0  0.00000000000E+00  0.00000000000E+00  0.16145903906E+04  0.16145903906E+04  0.25500000920E-02 0. -1.
       -2   -1    0    0    0  501  0.00000000000E+00  0.00000000000E+00 -0.30248066263E+03  0.30248066265E+03  0.25500000920E-02 0.  1.
    10030    2    1    2    0    0  0.00000000000E+00  0.00000000000E+00  0.13121097280E+04  0.19170710532E+04  0.13976871914E+04 0.  0.
        3    1    3    3  502    0 -0.15354100673E+03 -0.11131069917E+03 -0.26651209676E+03  0.32709879305E+03  0.10100000352E+00 0.  1.
       -3    1    3    3    0  502  0.15354100673E+03  0.11131069917E+03  0.15786218247E+04  0.15899722602E+04  0.10100000352E+00 0. -1.
</event>
<event>
 5   0  0.2143942E-04  0.1332815E+04  0.7818609E-02  0.9003940E-01
       -1   -1    0    0    0  501  0.00000000000E+00  0.00000000000E+00  0.40408493278E+03  0.40408493281E+03  0.50400001928E-02 0.  1.
        1   -1    0    0  501    0  0.00000000000E+00  0.00000000000E+00 -0.10990240345E+04  0.10990240345E+04  0.50400001928E-02 0. -1.
    10030    2    1    2    0    0  0.00000000000E+00  0.00000000000E+00 -0.69493910172E+03  0.15031089673E+04  0.13328151457E+04 0.  0.
        4    1    3    3  502    0  0.17724924581E+03 -0.46450767354E+03 -0.84791585142E+03  0.98292806345E+03  0.12699999809E+01 0. -1.
       -4    1    3    3    0  502 -0.17724924581E+03  0.46450767354E+03  0.15297674970E+03  0.52018090388E+03  0.12699999809E+01 0.  1.
</event>
<event>
 5   0  0.3917598E-04  0.1390850E+04  0.7818609E-02  0.8960469E-01
        2   -1    0    0  501    0  0.00000000000E+00  0.00000000000E+00  0.13986468605E+04  0.13986468605E+04  0.25500000920E-02 0. -1.
       -2   -1    0    0    0  501  0.00000000000E+00  0.00000000000E+00 -0.34577415386E+03  0.34577415387E+03  0.25500000920E-02 0.  1.
    10030    2    1    2    0    0  0.00000000000E+00  0.00000000000E+00  0.10528727066E+04  0.17444210144E+04  0.13908500059E+04 0.  0.
        3    1    3    3  502    0 -0.58564989824E+03  0.28800145269E+03  0.22520266973E+03  0.69039618533E+03  0.10100000352E+00 0.  1.
       -3    1    3    3    0  502  0.58564989824E+03 -0.28800145269E+03  0.82767003691E+03  0.10540248290E+04  0.10100000352E+00 0. -1.
</event>
<event>
 5   0  0.1497625E-04  0.1398752E+04  0.7818609E-02  0.8954722E-01
       -3   -1    0    0    0  501  0.00000000000E+00  0.00000000000E+00  0.29186991428E+03  0.29186993176E+03  0.10100000352E+00 0. -1.
        3   -1    0    0  501    0  0.00000000000E+00  0.00000000000E+00 -0.16758393088E+04  0.16758393119E+04  0.10100000352E+00 0.  1.
    10030    2    1    2    0    0  0.00000000000E+00  0.00000000000E+00 -0.13839693946E+04  0.19677092436E+04  0.13987524379E+04 0.  0.
        2    1    3    3  502    0 -0.20808930993E+03  0.60528555524E+03 -0.29544963827E+03  0.70495549721E+03  0.25500000920E-02 0. -1.
       -2    1    3    3    0  502  0.20808930993E+03 -0.60528555524E+03 -0.10885197563E+04  0.12627537464E+04  0.25500000920E-02 0.  1.
</event>
<event>
 5   0  0.2155352E-04  0.1342065E+04  0.7818609E-02  0.8996857E-01
        1   -1    0    0  501    0  0.00000000000E+00  0.00000000000E+00  0.65366825968E+03  0.65366825970E+03  0.50400001928E-02 0. -1.
       -1   -1    0    0    0  501  0.00000000000E+00  0.00000000000E+00 -0.68885768827E+03  0.68885768829E+03  0.50400001928E-02 0.  1.
    10030    2    1    2    0    0  0.00000000000E+00  0.00000000000E+00 -0.35189428593E+02  0.13425259480E+04  0.13420646874E+04 0.  0.
        2    1    3    3  502    0  0.43161818035E+02 -0.39982349250E+03 -0.55495960672E+03  0.68534803771E+03  0.25500000920E-02 0.  1.
       -2    1    3    3    0  502 -0.43161818035E+02  0.39982349250E+03  0.51977017812E+03  0.65717791029E+03  0.25500000920E-02 0. -1.
</event>
<event>
 5   0  0.3975164E-04  0.1399680E+04  0.7818609E-02  0.8954050E-01
        2   -1    0    0  501    0  0.00000000000E+00  0.00000000000E+00  0.10005964049E+04  0.10005964049E+04  0.25500000920E-02 0. -1.
       -2   -1    0    0    0  501  0.00000000000E+00  0.00000000000E+00 -0.48948389960E+03  0.48948389961E+03  0.25500000920E-02 0.  1.
    10030    2    1    2    0    0  0.00000000000E+00  0.00000000000E+00  0.51111250529E+03  0.14900803045E+04  0.13996797208E+04 0.  0.
        5    1    3    3  502    0  0.63865745256E+02 -0.44653944924E+03 -0.31404974904E+03  0.54965957466E+03  0.46999998093E+01 0.  1.
       -5    1    3    3    0  502 -0.63865745256E+02  0.44653944924E+03  0.82516225434E+03  0.94042072985E+03  0.46999998093E+01 0. -1.
</event>
<event>
 5   0  0.2223112E-04  0.1395539E+04  0.7818609E-02  0.8957054E-01
       -1   -1    0    0    0  501  0.00000000000E+00  0.00000000000E+00  0.27091739676E+03  0.27091739680E+03  0.50400001928E-02 0. -1.
        1   -1    0    0  501    0  0.00000000000E+00  0.00000000000E+00 -0.17971600659E+04  0.17971600659E+04  0.50400001928E-02 0.  1.
    10030    2    1    2    0    0  0.00000000000E+00  0.00000000000E+00 -0.15262426691E+04  0.20680774627E+04  0.13955385006E+04 0.  0.
        1    1    3    3  502    0 -0.45916001856E+02  0.14504223563E+03  0.24603992752E+03  0.28927698716E+03  0.50400001928E-02 0. -1.
       -1    1    3    3    0  502  0.45916001856E+02 -0.14504223563E+03 -0.17722825966E+04  0.17788004755E+04  0.50400001928E-02 0.  1.
</event>
<event>
 5   0  0.2223112E-04  0.1400044E+04  0.7818609E-02  0.8953786E-01
       -1   -1    0    0    0  501  0.00000000000E+00  0.00000000000E+00  0.92038479046E+03  0.92038479048E+03  0.50400001928E-02 0.  1.
        1   -1    0    0  501    0  0.00000000000E+00  0.00000000000E+00 -0.53241983701E+03  0.53241983703E+03  0.50400001928E-02 0. -1.
    10030    2    1    2    0    0  0.00000000000E+00  0.00000000000E+00  0.38796495346E+03  0.14528046275E+04  0.14000444566E+04 0.  0.
        1    1    3    3  502    0 -0.58750374649E+02  0.21029195067E+03 -0.49618064028E+03  0.54209735182E+03  0.50400001928E-02 0. -1.
       -1    1    3    3    0  502  0.58750374649E+02 -0.21029195067E+03  0.88414559374E+03  0.91070727569E+03  0.50400001928E-02 0.  1.
</event>
<event>
 5   0  0.3975164E-04  0.1403040E+04  0.7818609E-02  0.8951621E-01
        2   -1    0    0  501    0  0.00000000000E+00  0.00000000000E+00  0.73886069480E+03  0.73886069480E+03  0.25500000920E-02 0.  1.
       -2   -1    0    0    0  501  0.00000000000E+00  0.00000000000E+00 -0.66606661623E+03  0.66606661624E+03  0.25500000920E-02 0. -1.
    10030    2    1    2    0    0  0.00000000000E+00  0.00000000000E+00  0.72794078569E+02  0.14049273110E+04  0.14030401888E+04 0.  0.
        5    1    3    3  502    0  0.69325642263E+03  0.81370923317E+02  0.10636704423E+03  0.70608904026E+03  0.46999998093E+01 0. -1.
       -5    1    3    3    0  502 -0.69325642263E+03 -0.81370923317E+02 -0.33572965664E+02  0.69883827078E+03  0.46999998093E+01 0.  1.
</event>
<event>
 5   0  0.2143942E-04  0.1405470E+04  0.7818609E-02  0.8949869E-01
       -1   -1    0    0    0  501  0.00000000000E+00  0.00000000000E+00  0.38750878021E+03  0.38750878024E+03  0.50400001928E-02 0.  1.
        1   -1    0    0  501    0  0.00000000000E+00  0.00000000000E+00 -0.12743872687E+04  0.12743872687E+04  0.50400001928E-02 0. -1.
    10030    2    1    2    0    0  0.00000000000E+00  0.00000000000E+00 -0.88687848845E+03  0.16618960489E+04  0.14054696810E+04 0.  0.
        4    1    3    3  502    0 -0.63647328864E+03  0.20536288106E+03 -0.18828638465E+03  0.69478452459E+03  0.12699999809E+01 0. -1.
       -4    1    3    3    0  502  0.63647328864E+03 -0.20536288106E+03 -0.69859210380E+03  0.96711152431E+03  0.12699999809E+01 0.  1.
</event>
<event>
 5   0  0.2223112E-04  0.1400069E+04  0.7818609E-02  0.8953768E-01
       -1   -1    0    0    0  501  0.00000000000E+00  0.00000000000E+00  0.43297631864E+03  0.43297631867E+03  0.50400001928E-02 0.  1.
        1   -1    0    0  501    0  0.00000000000E+00  0.00000000000E+00 -0.11318134421E+04  0.11318134421E+04  0.50400001928E-02 0. -1.
    10030    2    1    2    0    0  0.00000000000E+00  0.00000000000E+00 -0.69883712342E+03  0.15647897607E+04  0.14000691662E+04 0.  0.
        1    1    3    3  502    0 -0.44049591702E+03 -0.64443465815E+01 -0.95745628345E+03  0.10539453104E+04  0.50400001928E-02 0. -1.
       -1    1    3    3    0  502  0.44049591702E+03  0.64443465815E+01  0.25861916003E+03  0.51084445037E+03  0.50400001928E-02 0.  1.
</event>
<event>
 5   0  0.3975164E-04  0.1356974E+04  0.7818609E-02  0.8985566E-01
       -2   -1    0    0    0  501  0.00000000000E+00  0.00000000000E+00  0.27614096592E+03  0.27614096593E+03  0.25500000920E-02 0. -1.
        2   -1    0    0  501    0  0.00000000000E+00  0.00000000000E+00 -0.16670635400E+04  0.16670635400E+04  0.25500000920E-02 0.  1.
    10030    2    1    2    0    0  0.00000000000E+00  0.00000000000E+00 -0.13909225741E+04  0.19432045059E+04  0.13569738925E+04 0.  0.
        5    1    3    3  502    0 -0.25720521601E+03 -0.39699138963E+03  0.10416616801E+01  0.47305376189E+03  0.46999998093E+01 0. -1.
       -5    1    3    3    0  502  0.25720521601E+03  0.39699138963E+03 -0.13919642357E+04  0.14701507440E+04  0.46999998093E+01 0.  1.
</event>
<event>
 5   0  0.2217251E-04  0.1398249E+04  0.7818609E-02  0.8955087E-01
       -1   -1    0    0    0  501  0.00000000000E+00  0.00000000000E+00  0.30396470959E+03  0.30396470963E+03  0.50400001928E-02 0. -1.
        1   -1    0    0  501    0  0.00000000000E+00  0.00000000000E+00 -0.16079986563E+04  0.16079986563E+04  0.50400001928E-02 0.  1.
    10030    2    1    2    0    0  0.00000000000E+00  0.00000000000E+00 -0.13040339467E+04  0.19119633659E+04  0.13982486826E+04 0.  0.
        5    1    3    3  502    0  0.18788086746E+03  0.24120566986E+03 -0.15117110217E+04  0.15423267159E+04  0.46999998093E+01 0.  1.
       -5    1    3    3    0  502 -0.18788086746E+03 -0.24120566986E+03  0.20767707501E+03  0.36963664999E+03  0.46999998093E+01 0. -1.
</event>
<event>
 5   0  0.3917598E-04  0.1377725E+04  0.7818609E-02  0.8970102E-01
        2   -1    0    0  501    0  0.00000000000E+00  0.00000000000E+00  0.86520365296E+03  0.86520365297E+03  0.25500000920E-02 0. -1.
       -2   -1    0    0    0  501  0.00000000000E+00  0.00000000000E+00 -0.54846210123E+03  0.54846210124E+03  0.25500000920E-02 0.  1.
    10030    2    1    2    0    0  0.00000000000E+00  0.00000000000E+00  0.31674155173E+03  0.14136657542E+04  0.13777248107E+04 0.  0.
        3    1    3    3  502    0 -0.14599361644E+03 -0.63943672605E+00  0.84914684863E+03  0.86160601533E+03  0.10100000352E+00 0. -1.
       -3    1    3    3    0  502  0.14599361644E+03  0.63943672605E+00 -0.53240529690E+03  0.55205973887E+03  0.10100000352E+00 0.  1.
</event>
<event>
 5   0  0.2155352E-04  0.1406549E+04  0.7818609E-02  0.8949092E-01
        1   -1    0    0  501    0  0.00000000000E+00  0.00000000000E+00  0.54514765615E+03  0.54514765618E+03  0.50400001928E-02 0. -1.
       -1   -1    0    0    0  501  0.00000000000E+00  0.00000000000E+00 -0.90726796425E+03  0.90726796427E+03  0.50400001928E-02 0.  1.
    10030    2    1    2    0    0  0.00000000000E+00  0.00000000000E+00 -0.36212030810E+03  0.14524156204E+04  0.14065489743E+04 0.  0.
        2    1    3    3  502    0 -0.67520057692E+03  0.19449472604E+03 -0.21153502085E+03  0.73380588890E+03  0.25500000920E-02 0. -1.
       -2    1    3    3    0  502  0.67520057692E+03 -0.19449472604E+03 -0.15058528725E+03  0.71860973155E+03  0.25500000920E-02 0.  1.
</event>
<event>
 5   0  0.2143942E-04  0.1393101E+04  0.7818609E-02  0.8958828E-01
        1   -1    0    0  501    0  0.00000000000E+00  0.00000000000E+00  0.53578551073E+03  0.53578551075E+03  0.50400001928E-02 0. -1.
       -1   -1    0    0    0  501  0.00000000000E+00  0.00000000000E+00 -0.90555361737E+03  0.90555361739E+03  0.50400001928E-02 0.  1.
    10030    2    1    2    0    0  0.00000000000E+00  0.00000000000E+00 -0.36976810664E+03  0.14413391281E+04  0.13931008684E+04 0.  0.
        4    1    3    3  502    0  0.17106286130E+03  0.19158596878E+03  0.48500224144E+03  0.54881369612E+03  0.12699999809E+01 0. -1.
       -4    1    3    3    0  502 -0.17106286130E+03 -0.19158596878E+03 -0.85477034808E+03  0.89252543202E+03  0.12699999809E+01 0.  1.
</event>
<event>
 5   0  0.2223112E-04  0.1400936E+04  0.7818609E-02  0.8953141E-01
        1   -1    0    0  501    0  0.00000000000E+00  0.00000000000E+00  0.58922725881E+03  0.58922725884E+03  0.50400001928E-02 0. -1.
       -1   -1    0    0    0  501  0.00000000000E+00  0.00000000000E+00 -0.83271032305E+03  0.83271032306E+03  0.50400001928E-02 0.  1.
    10030    2    1    2    0    0  0.00000000000E+00  0.00000000000E+00 -0.24348306423E+03  0.14219375819E+04  0.14009362884E+04 0.  0.
        1    1    3    3  502    0  0.55683993581E+03  0.55226117832E+01  0.30954529667E+03  0.63711812410E+03  0.50400001928E-02 0. -1.
       -1    1    3    3    0  502 -0.55683993581E+03 -0.55226117832E+01 -0.55302836090E+03  0.78481945779E+03  0.50400001928E-02 0.  1.
</event>
<event>
 5   0  0.2143942E-04  0.1399664E+04  0.7818609E-02  0.8954062E-01
       -1   -1    0    0    0  501  0.00000000000E+00  0.00000000000E+00  0.30491748966E+03  0.30491748970E+03  0.50400001928E-02 0.  1.
        1   -1    0    0  501    0  0.00000000000E+00  0.00000000000E+00 -0.16062198373E+04  0.16062198373E+04  0.50400001928E-02 0. -1.
    10030    2    1    2    0    0  0.00000000000E+00  0.00000000000E+00 -0.13013023476E+04  0.19111373270E+04  0.13996635605E+04 0.  0.
        4    1    3    3  502    0  0.26093526897E+03 -0.16420752282E+03 -0.15084948896E+04  0.15396784632E+04  0.12699999809E+01 0. -1.
       -4    1    3    3    0  502 -0.26093526897E+03  0.16420752282E+03  0.20719254198E+03  0.37145886380E+03  0.12699999809E+01 0.  1.
</event>
<event>
 5   0  0.3932568E-04  0.1383330E+04  0.7818609E-02  0.8965974E-01
        2   -1    0    0  501    0  0.00000000000E+00  0.00000000000E+00  0.13568266396E+04  0.13568266396E+04  0.25500000920E-02 0.  1.
       -2   -1    0    0    0  501  0.00000000000E+00  0.00000000000E+00 -0.35258784790E+03  0.35258784791E+03  0.25500000920E-02 0. -1.
    10030    2    1    2    0    0  0.00000000000E+00  0.00000000000E+00  0.10042387917E+04  0.17094144875E+04  0.13833301628E+04 0.  0.
        2    1    3    3  502    0  0.11912473561E+03  0.68081483259E+03  0.46940079168E+03  0.83548587190E+03  0.25500000920E-02 0.  1.
       -2    1    3    3    0  502 -0.11912473561E+03 -0.68081483259E+03  0.53483800004E+03  0.87392861562E+03  0.25500000920E-02 0. -1.
</event>
<event>
 5   0  0.4310348E-04  0.1416040E+04  0.7818609E-02  0.8942289E-01
        2   -1    0    0  501    0  0.00000000000E+00  0.00000000000E+00  0.13210468767E+04  0.13210468767E+04  0.25500000920E-02 0.  1.
       -2   -1    0    0    0  501  0.00000000000E+00  0.00000000000E+00 -0.37946616172E+03  0.37946616173E+03  0.25500000920E-02 0. -1.
    10030    2    1    2    0    0  0.00000000000E+00  0.00000000000E+00  0.94158071502E+03  0.17005130385E+04  0.14160403777E+04 0.  0.
        1    1    3    3  502    0  0.68266959111E+03  0.59452552265E+02  0.25690927977E+03  0.73182973064E+03  0.50400001928E-02 0.  1.
       -1    1    3    3    0  502 -0.68266959111E+03 -0.59452552265E+02  0.68467143525E+03  0.96868330783E+03  0.50400001928E-02 0. -1.
</event>
<event>
 5   0  0.3917598E-04  0.1405582E+04  0.7818609E-02  0.8949788E-01
        2   -1    0    0  501    0  0.00000000000E+00  0.00000000000E+00  0.20833097156E+04  0.20833097156E+04  0.25500000920E-02 0. -1.
       -2   -1    0    0    0  501  0.00000000000E+00  0.00000000000E+00 -0.23708186517E+03  0.23708186518E+03  0.25500000920E-02 0.  1.
    10030    2    1    2    0    0  0.00000000000E+00  0.00000000000E+00  0.18462278504E+04  0.23203915808E+04  0.14055816634E+04 0.  0.
        3    1    3    3  502    0 -0.19601781927E+03  0.41451362119E+02  0.20351653704E+04  0.20450034954E+04  0.10100000352E+00 0. -1.
       -3    1    3    3    0  502  0.19601781927E+03 -0.41451362119E+02 -0.18893752003E+03  0.27538808538E+03  0.10100000352E+00 0.  1.
</event>
<event>
 5   0  0.4310348E-04  0.1398577E+04  0.7818609E-02  0.8954849E-01
       -2   -1    0    0    0  501  0.00000000000E+00  0.00000000000E+00  0.21270077014E+03  0.21270077016E+03  0.25500000920E-02 0.  1.
        2   -1    0    0  501    0  0.00000000000E+00  0.00000000000E+00 -0.22990265895E+04  0.22990265895E+04  0.25500000920E-02 0. -1.
    10030    2    1    2    0    0  0.00000000000E+00  0.00000000000E+00 -0.20863258193E+04  0.25117273596E+04  0.13985774575E+04 0.  0.
        1    1    3    3  502    0  0.15951167978E+03 -0.25191924035E+03 -0.21791381410E+04  0.21994431834E+04  0.50400001928E-02 0. -1.
       -1    1    3    3    0  502 -0.15951167978E+03  0.25191924035E+03  0.92812321635E+02  0.31228417622E+03  0.50400001928E-02 0.  1.
</event>
<event>
 5   0  0.4208622E-04  0.1397979E+04  0.7818609E-02  0.8955283E-01
       -2   -1    0    0    0  501  0.00000000000E+00  0.00000000000E+00  0.74130747935E+03  0.74130747936E+03  0.25500000920E-02 0. -1.
        2   -1    0    0  501    0  0.00000000000E+00  0.00000000000E+00 -0.65908745994E+03  0.65908745994E+03  0.25500000920E-02 0.  1.
    10030    2    1    2    0    0  0.00000000000E+00  0.00000000000E+00  0.82220019419E+02  0.14003949393E+04  0.13979792039E+04 0.  0.
        4    1    3    3  502    0 -0.25759594055E+03 -0.59944435548E+03 -0.21011340566E+03  0.68544763479E+03  0.12699999809E+01 0.  1.
       -4    1    3    3    0  502  0.25759594055E+03  0.59944435548E+03  0.29233342508E+03  0.71494730451E+03  0.12699999809E+01 0. -1.
</event>
<event>
 5   0  0.2215876E-04  0.1393660E+04  0.7818609E-02  0.8958421E-01
        1   -1    0    0  501    0  0.00000000000E+00  0.00000000000E+00  0.70391968133E+03  0.70391968135E+03  0.50400001928E-02 0. -1.
       -1   -1    0    0    0  501  0.00000000000E+00  0.00000000000E+00 -0.68981178058E+03  0.68981178060E+03  0.50400001928E-02 0.  1.
    10030    2    1    2    0    0  0.00000000000E+00  0.00000000000E+00  0.14107900744E+02  0.13937314619E+04  0.13936600572E+04 0.  0.
        3    1    3    3  502    0 -0.15255738297E+03  0.26375221147E+03 -0.61966236434E+03  0.69052186072E+03  0.10100000352E+00 0.  1.
       -3    1    3    3    0  502  0.15255738297E+03 -0.26375221147E+03  0.63377026508E+03  0.70320960123E+03  0.10100000352E+00 0. -1.
</event>
<event>
 5   0  0.2223112E-04  0.1395899E+04  0.7818609E-02  0.8956792E-01
        1   -1    0    0  501    0  0.00000000000E+00  0.00000000000E+00  0.14036773442E+04  0.14036773442E+04  0.50400001928E-02 0.  1.
       -1   -1    0    0    0  501  0.00000000000E+00  0.00000000000E+00 -0.34704092976E+03  0.34704092979E+03  0.50400001928E-02 0. -1.
    10030    2    1    2    0    0  0.00000000000E+00  0.00000000000E+00  0.10566364144E+04  0.17507182740E+04  0.13958989801E+04 0.  0.
        1    1    3    3  502    0  0.12009590930E+03 -0.65454790160E+03  0.26440941529E+03  0.71607843274E+03  0.50400001928E-02 0. -1.
       -1    1    3    3    0  502 -0.12009590930E+03  0.65454790160E+03  0.79222699915E+03  0.10346398413E+04  0.50400001928E-02 0.  1.
</event>
<event>
 5   0  0.1497625E-04  0.1402588E+04  0.7818609E-02  0.8951947E-01
        3   -1    0    0  501    0  0.00000000000E+00  0.00000000000E+00  0.53590789265E+03  0.53590790217E+03  0.10100000352E+00 0. -1.
       -3   -1    0    0    0  501  0.00000000000E+00  0.00000000000E+00 -0.91772004174E+03  0.91772004730E+03  0.10100000352E+00 0.  1.
    10030    2    1    2    0    0  0.00000000000E+00  0.00000000000E+00 -0.38181214909E+03  0.14536279495E+04  0.14025882141E+04 0.  0.
        4    1    3    3  502    0 -0.25456055480E+03  0.16527750614E+03  0.46431361298E+03  0.55471296559E+03  0.12699999809E+01 0. -1.
       -4    1    3    3    0  502  0.25456055480E+03 -0.16527750614E+03 -0.84612576207E+03  0.89891498387E+03  0.12699999809E+01 0.  1.
</event>
<event>
 5   0  0.2223112E-04  0.1401193E+04  0.7818609E-02  0.8952956E-01
        1   -1    0    0  501    0  0.00000000000E+00  0.00000000000E+00  0.14189956545E+04  0.14189956545E+04  0.50400001928E-02 0. -1.
       -1   -1    0    0    0  501  0.00000000000E+00  0.00000000000E+00 -0.34590338164E+03  0.34590338168E+03  0.50400001928E-02 0.  1.
    10030    2    1    2    0    0  0.00000000000E+00  0.00000000000E+00  0.10730922729E+04  0.17648990362E+04  0.14011929139E+04 0.  0.
        1    1    3    3  502    0  0.29099283113E+03  0.70683957171E+02  0.13343240611E+04  0.13675137109E+04  0.50400001928E-02 0. -1.
       -1    1    3    3    0  502 -0.29099283113E+03 -0.70683957171E+02 -0.26123178819E+03  0.39738532529E+03  0.50400001928E-02 0.  1.
</event>
<event>
 5   0  0.2143942E-04  0.1409712E+04  0.7818609E-02  0.8946818E-01
       -1   -1    0    0    0  501  0.00000000000E+00  0.00000000000E+00  0.46699437169E+03  0.46699437171E+03  0.50400001928E-02 0.  1.
        1   -1    0    0  501    0  0.00000000000E+00  0.00000000000E+00 -0.10638712693E+04  0.10638712693E+04  0.50400001928E-02 0. -1.
    10030    2    1    2    0    0  0.00000000000E+00  0.00000000000E+00 -0.59687689759E+03  0.15308656410E+04  0.14097118783E+04 0.  0.
        4    1    3    3  502    0  0.32329298274E+03  0.19374720529E+03 -0.94524804923E+03  0.10176206659E+04  0.12699999809E+01 0. -1.
       -4    1    3    3    0  502 -0.32329298274E+03 -0.19374720529E+03  0.34837115164E+03  0.51324497508E+03  0.12699999809E+01 0.  1.
</event>
<event>
 5   0  0.2215876E-04  0.1398921E+04  0.7818609E-02  0.8954600E-01
       -1   -1    0    0    0  501  0.00000000000E+00  0.00000000000E+00  0.64418928558E+03  0.64418928560E+03  0.50400001928E-02 0.  1.
        1   -1    0    0  501    0  0.00000000000E+00  0.00000000000E+00 -0.75947434233E+03  0.75947434235E+03  0.50400001928E-02 0. -1.
    10030    2    1    2    0    0  0.00000000000E+00  0.00000000000E+00 -0.11528505676E+03  0.14036636279E+04  0.13989213474E+04 0.  0.
        3    1    3    3  502    0  0.26262355643E+03  0.63539813281E+03 -0.18669932396E+03  0.71243144747E+03  0.10100000352E+00 0. -1.
       -3    1    3    3    0  502 -0.26262355643E+03 -0.63539813281E+03  0.71414267204E+02  0.69123218048E+03  0.10100000352E+00 0.  1.
</event>
<event>
 5   0  0.4208622E-04  0.1400987E+04  0.7818609E-02  0.8953104E-01
        2   -1    0    0  501    0  0.00000000000E+00  0.00000000000E+00  0.20188763115E+04  0.20188763115E+04  0.25500000920E-02 0.  1.
       -2   -1    0    0    0  501  0.00000000000E+00  0.00000000000E+00 -0.24305172349E+03  0.24305172351E+03  0.25500000920E-02 0. -1.
    10030    2    1    2    0    0  0.00000000000E+00  0.00000000000E+00  0.17758245880E+04  0.22619280350E+04  0.14009873191E+04 0.  0.
        4    1    3    3  502    0 -0.55770168381E+03 -0.37780476972E+03  0.57767927216E+03  0.88740214477E+03  0.12699999809E+01 0. -1.
       -4    1    3    3    0  502  0.55770168381E+03  0.37780476972E+03  0.11981453158E+04  0.13745258902E+04  0.12699999809E+01 0.  1.
</event>
<event>
 5   0  0.2155352E-04  0.1400949E+04  0.7818609E-02  0.8953132E-01
       -1   -1    0    0    0  501  0.00000000000E+00  0.00000000000E+00  0.71467989975E+03  0.71467989977E+03  0.50400001928E-02 0.  1.
        1   -1    0    0  501    0  0.00000000000E+00  0.00000000000E+00 -0.68655166189E+03  0.68655166191E+03  0.50400001928E-02 0. -1.
    10030    2    1    2    0    0  0.00000000000E+00  0.00000000000E+00  0.28128237864E+02  0.14012315617E+04  0.14009492110E+04 0.  0.
        2    1    3    3  502    0 -0.65256263238E+03 -0.66400613538E+02 -0.23178542478E+03  0.69568061192E+03  0.25500000920E-02 0. -1.
       -2    1    3    3    0  502  0.65256263238E+03  0.66400613538E+02  0.25991366264E+03  0.70555094975E+03  0.25500000920E-02 0.  1.
</event>
<event>
 5   0  0.2215876E-04  0.1396000E+04  0.7818609E-02  0.8956719E-01
       -1   -1    0    0    0  501  0.00000000000E+00  0.00000000000E+00  0.44372181596E+03  0.44372181598E+03  0.50400001928E-02 0.  1.
        1   -1    0    0  501    0  0.00000000000E+00  0.00000000000E+00 -0.10979941456E+04  0.10979941456E+04  0.50400001928E-02 0. -1.
    10030    2    1    2    0    0  0.00000000000E+00  0.00000000000E+00 -0.65427232968E+03  0.15417159616E+04  0.13959999373E+04 0.  0.
        3    1    3    3  502    0  0.23504249470E+03  0.65643984579E+03 -0.36284886146E+03  0.78601370976E+03  0.10100000352E+00 0. -1.
       -3    1    3    3    0  502 -0.23504249470E+03 -0.65643984579E+03 -0.29142346821E+03  0.75570225187E+03  0.10100000352E+00 0.  1.
</event>
<event>
 5   0  0.3975164E-04  0.1405799E+04  0.7818609E-02  0.8949631E-01
       -2   -1    0    0    0  501  0.00000000000E+00  0.00000000000E+00  0.27573966612E+03  0.27573966614E+03  0.25500000920E-02 0.  1.
        2   -1    0    0  501    0  0.00000000000E+00  0.00000000000E+00 -0.17917910096E+04  0.17917910096E+04  0.25500000920E-02 0. -1.
    10030    2    1    2    0    0  0.00000000000E+00  0.00000000000E+00 -0.15160513435E+04  0.20675306757E+04  0.14057992101E+04 0.  0.
        5    1    3    3  502    0  0.47699199731E+03 -0.44267339183E+03 -0.36734464856E+03  0.74729196313E+03  0.46999998093E+01 0. -1.
       -5    1    3    3    0  502 -0.47699199731E+03  0.44267339183E+03 -0.11487066949E+04  0.13202387126E+04  0.46999998093E+01 0.  1.
</event>
<event>
 5   0  0.2155352E-04  0.1400405E+04  0.7818609E-02  0.8953525E-01
        1   -1    0    0  501    0  0.00000000000E+00  0.00000000000E+00  0.67144078654E+03  0.67144078656E+03  0.50400001928E-02 0.  1.
       -1   -1    0    0    0  501  0.00000000000E+00  0.00000000000E+00 -0.73019671618E+03  0.73019671620E+03  0.50400001928E-02 0. -1.
    10030    2    1    2    0    0  0.00000000000E+00  0.00000000000E+00 -0.58755929640E+02  0.14016375028E+04  0.14004054520E+04 0.  0.
        2    1    3    3  502    0  0.46153679721E+03  0.12792661023E+03  0.48185750036E+03  0.67938802127E+03  0.25500000920E-02 0.  1.
       -2    1    3    3    0  502 -0.46153679721E+03 -0.12792661023E+03 -0.54061343000E+03  0.72224948148E+03  0.25500000920E-02 0. -1.
</event>
<event>
 5   0  0.2217251E-04  0.1398919E+04  0.7818609E-02  0.8954601E-01
       -1   -1    0    0    0  501  0.00000000000E+00  0.00000000000E+00  0.53752130551E+03  0.53752130554E+03  0.50400001928E-02 0.  1.
        1   -1    0    0  501    0  0.00000000000E+00  0.00000000000E+00 -0.91018441953E+03  0.91018441954E+03  0.50400001928E-02 0. -1.
    10030    2    1    2    0    0  0.00000000000E+00  0.00000000000E+00 -0.37266311402E+03  0.14477057251E+04  0.13989188932E+04 0.  0.
        5    1    3    3  502    0  0.65793233293E+03  0.22742326907E+03 -0.25671162824E+03  0.74196984312E+03  0.46999998093E+01 0. -1.
       -5    1    3    3    0  502 -0.65793233293E+03 -0.22742326907E+03 -0.11595148577E+03  0.70573588196E+03  0.46999998093E+01 0.  1.
</event>
<event>
 5   0  0.2217251E-04  0.1401149E+04  0.7818609E-02  0.8952987E-01
        1   -1    0    0  501    0  0.00000000000E+00  0.00000000000E+00  0.10573530740E+04  0.10573530740E+04  0.50400001928E-02 0.  1.
       -1   -1    0    0    0  501  0.00000000000E+00  0.00000000000E+00 -0.46418227929E+03  0.46418227932E+03  0.50400001928E-02 0. -1.
    10030    2    1    2    0    0  0.00000000000E+00  0.00000000000E+00  0.59317079468E+03  0.15215353533E+04  0.14011488999E+04 0.  0.
        5    1    3    3  502    0  0.18531030632E+00 -0.65578926279E+03  0.56417789462E+03  0.86508865343E+03  0.46999998093E+01 0.  1.
       -5    1    3    3    0  502 -0.18531030632E+00  0.65578926279E+03  0.28992900068E+02  0.65644669988E+03  0.46999998093E+01 0. -1.
</event>
<event>
 5   0  0.3932568E-04  0.1394588E+04  0.7818609E-02  0.8957745E-01
        2   -1    0    0  501    0  0.00000000000E+00  0.00000000000E+00  0.70578307565E+03  0.70578307565E+03  0.25500000920E-02 0.  1.
       -2   -1    0    0    0  501  0.00000000000E+00  0.00000000000E+00 -0.68890693630E+03  0.68890693631E+03  0.25500000920E-02 0. -1.
    10030    2    1    2    0    0  0.00000000000E+00  0.00000000000E+00  0.16876139345E+02  0.13946900120E+04  0.13945879052E+04 0.  0.
        2    1    3    3  502    0 -0.26203812265E+03  0.63813921582E+03 -0.93221819324E+02  0.69611489288E+03  0.25500000920E-02 0. -1.
       -2    1    3    3    0  502  0.26203812265E+03 -0.63813921582E+03  0.11009795867E+03  0.69857511908E+03  0.25500000920E-02 0.  1.
</event>
<event>
 5   0  0.3932568E-04  0.1401323E+04  0.7818609E-02  0.8952861E-01
       -2   -1    0    0    0  501  0.00000000000E+00  0.00000000000E+00  0.44831612167E+03  0.44831612168E+03  0.25500000920E-02 0. -1.
        2   -1    0    0  501    0  0.00000000000E+00  0.00000000000E+00 -0.10950458989E+04  0.10950458989E+04  0.25500000920E-02 0.  1.
    10030    2    1    2    0    0  0.00000000000E+00  0.00000000000E+00 -0.64672977723E+03  0.15433620206E+04  0.14013232753E+04 0.  0.
        2    1    3    3  502    0 -0.50795971531E+03 -0.19335863859E+03 -0.81035565920E+03  0.97574941962E+03  0.25500000920E-02 0.  1.
       -2    1    3    3    0  502  0.50795971531E+03  0.19335863859E+03  0.16362588197E+03  0.56761260095E+03  0.25500000920E-02 0. -1.
</event>
<event>
 5   0  0.3975164E-04  0.1377789E+04  0.7818609E-02  0.8970055E-01
        2   -1    0    0  501    0  0.00000000000E+00  0.00000000000E+00  0.11291330145E+04  0.11291330145E+04  0.25500000920E-02 0. -1.
       -2   -1    0    0    0  501  0.00000000000E+00  0.00000000000E+00 -0.42030083801E+03  0.42030083802E+03  0.25500000920E-02 0.  1.
    10030    2    1    2    0    0  0.00000000000E+00  0.00000000000E+00  0.70883217651E+03  0.15494338525E+04  0.13777888840E+04 0.  0.
        5    1    3    3  502    0  0.17524343674E+03  0.22119557270E+03 -0.35229608778E+03  0.45141152728E+03  0.46999998093E+01 0.  1.
       -5    1    3    3    0  502 -0.17524343674E+03 -0.22119557270E+03  0.10611282643E+04  0.10980223253E+04  0.46999998093E+01 0. -1.
</event>
<event>
 5   0  0.4208622E-04  0.1402402E+04  0.7818609E-02  0.8952082E-01
       -2   -1    0    0    0  501  0.00000000000E+00  0.00000000000E+00  0.86360573121E+03  0.86360573121E+03  0.25500000920E-02 0.  1.
        2   -1    0    0  501    0  0.00000000000E+00  0.00000000000E+00 -0.56933697194E+03  0.56933697194E+03  0.25500000920E-02 0. -1.
    10030    2    1    2    0    0  0.00000000000E+00  0.00000000000E+00  0.29426875927E+03  0.14329427032E+04  0.14024017569E+04 0.  0.
        4    1    3    3  502    0  0.61494666952E+02 -0.51954127092E+03 -0.32991248853E+03  0.61850512467E+03  0.12699999809E+01 0.  1.
       -4    1    3    3    0  502 -0.61494666952E+02  0.51954127092E+03  0.62418124780E+03  0.81443757849E+03  0.12699999809E+01 0. -1.
</event>
<event>
 5   0  0.2223112E-04  0.1401855E+04  0.7818609E-02  0.8952477E-01
       -1   -1    0    0    0  501  0.00000000000E+00  0.00000000000E+00  0.61231860422E+03  0.61231860424E+03  0.50400001928E-02 0.  1.
        1   -1    0    0  501    0  0.00000000000E+00  0.00000000000E+00 -0.80235870361E+03  0.80235870362E+03  0.50400001928E-02 0. -1.
    10030    2    1    2    0    0  0.00000000000E+00  0.00000000000E+00 -0.19004009939E+03  0.14146773079E+04  0.14018547164E+04 0.  0.
        1    1    3    3  502    0  0.40972465721E+02 -0.27443145677E+03 -0.74457505229E+03  0.79459636038E+03  0.50400001928E-02 0. -1.
       -1    1    3    3    0  502 -0.40972465721E+02  0.27443145677E+03  0.55453495291E+03  0.62008094749E+03  0.50400001928E-02 0.  1.
</event>
<event>
 5   0  0.4208622E-04  0.1425742E+04  0.7818609E-02  0.8935393E-01
        2   -1    0    0  501    0  0.00000000000E+00  0.00000000000E+00  0.11580299000E+04  0.11580299001E+04  0.25500000920E-02 0. -1.
       -2   -1    0    0    0  501  0.00000000000E+00  0.00000000000E+00 -0.43883608948E+03  0.43883608948E+03  0.25500000920E-02 0.  1.
    10030    2    1    2    0    0  0.00000000000E+00  0.00000000000E+00  0.71919381057E+03  0.15968659895E+04  0.14257423510E+04 0.  0.
        4    1    3    3  502    0  0.55634225800E+03  0.94530631830E+02 -0.12826455723E+03  0.57871077226E+03  0.12699999809E+01 0.  1.
       -4    1    3    3    0  502 -0.55634225800E+03 -0.94530631830E+02  0.84745836781E+03  0.10181552173E+04  0.12699999809E+01 0. -1.
</event>
<event>
 5   0  0.2143942E-04  0.1394865E+04  0.7818609E-02  0.8957544E-01
        1   -1    0    0  501    0  0.00000000000E+00  0.00000000000E+00  0.46915325832E+03  0.46915325835E+03  0.50400001928E-02 0.  1.
       -1   -1    0    0    0  501  0.00000000000E+00  0.00000000000E+00 -0.10367874309E+04  0.10367874310E+04  0.50400001928E-02 0. -1.
    10030    2    1    2    0    0  0.00000000000E+00  0.00000000000E+00 -0.56763417261E+03  0.15059406893E+04  0.13948651568E+04 0.  0.
        4    1    3    3  502    0  0.81411742036E+02 -0.40644451968E+03 -0.88936015887E+03  0.98121767432E+03  0.12699999809E+01 0. -1.
       -4    1    3    3    0  502 -0.81411742036E+02  0.40644451968E+03  0.32172598625E+03  0.52472301498E+03  0.12699999809E+01 0.  1.
</event>
<event>
 5   0  0.4310348E-04  0.1396221E+04  0.7818609E-02  0.8956558E-01
       -2   -1    0    0    0  501  0.00000000000E+00  0.00000000000E+00  0.22242661181E+03  0.22242661183E+03  0.25500000920E-02 0. -1.
        2   -1    0    0  501    0  0.00000000000E+00  0.00000000000E+00 -0.21910981520E+04  0.21910981520E+04  0.25500000920E-02 0.  1.
    10030    2    1    2    0    0  0.00000000000E+00  0.00000000000E+00 -0.19686715402E+04  0.24135247639E+04  0.13962213838E+04 0.  0.
        1    1    3    3  502    0 -0.23998676901E+03 -0.14587488239E+03 -0.20891410661E+04  0.21079334726E+04  0.50400001928E-02 0.  1.
       -1    1    3    3    0  502  0.23998676901E+03  0.14587488239E+03  0.12046952591E+03  0.30559129128E+03  0.50400001928E-02 0. -1.
</event>
<event>
 5   0  0.2215876E-04  0.1395662E+04  0.7818609E-02  0.8956965E-01
        1   -1    0    0  501    0  0.00000000000E+00  0.00000000000E+00  0.10169198152E+04  0.10169198152E+04  0.50400001928E-02 0. -1.
       -1   -1    0    0    0  501  0.00000000000E+00  0.00000000000E+00 -0.47886572030E+03  0.47886572033E+03  0.50400001928E-02 0.  1.
    10030    2    1    2    0    0  0.00000000000E+00  0.00000000000E+00  0.53805409486E+03  0.14957855355E+04  0.13956619072E+04 0.  0.
        3    1    3    3  502    0  0.15239361316E+03  0.58325928335E+03  0.64574424213E+03  0.88340298924E+03  0.10100000352E+00 0. -1.
       -3    1    3    3    0  502 -0.15239361316E+03 -0.58325928335E+03 -0.10769014727E+03  0.61238254627E+03  0.10100000352E+00 0.  1.
</event>
<event>
 5   0  0.3917598E-04  0.1402012E+04  0.7818609E-02  0.8952364E-01
        2   -1    0    0  501    0  0.00000000000E+00  0.00000000000E+00  0.67427640052E+03  0.67427640052E+03  0.25500000920E-02 0.  1.
       -2   -1    0    0    0  501  0.00000000000E+00  0.00000000000E+00 -0.72879504357E+03  0.72879504357E+03  0.25500000920E-02 0. -1.
    10030    2    1    2    0    0  0.00000000000E+00  0.00000000000E+00 -0.54518643051E+02  0.14030714441E+04  0.14020118383E+04 0.  0.
        3    1    3    3  502    0 -0.13373572162E+02 -0.66048242417E+02 -0.72554598863E+03  0.72866879621E+03  0.10100000352E+00 0. -1.
       -3    1    3    3    0  502  0.13373572162E+02  0.66048242417E+02  0.67102734558E+03  0.67440264788E+03  0.10100000352E+00 0.  1.
</event>
<event>
 5   0  0.2217251E-04  0.1393887E+04  0.7818609E-02  0.8958255E-01
        1   -1    0    0  501    0  0.00000000000E+00  0.00000000000E+00  0.64349466488E+03  0.64349466490E+03  0.50400001928E-02 0. -1.
       -1   -1    0    0    0  501  0.00000000000E+00  0.00000000000E+00 -0.75483170025E+03  0.75483170027E+03  0.50400001928E-02 0.  1.
    10030    2    1    2    0    0  0.00000000000E+00  0.00000000000E+00 -0.11133703537E+03  0.13983263652E+04  0.13938868993E+04 0.  0.
        5    1    3    3  502    0 -0.53015957955E+02  0.36892597471E+03  0.53509671504E+03  0.65212548720E+03  0.46999998093E+01 0. -1.
       -5    1    3    3    0  502  0.53015957955E+02 -0.36892597471E+03 -0.64643375041E+03  0.74620087797E+03  0.46999998093E+01 0.  1.
</event>
<event>
 5   0  0.4310348E-04  0.1399019E+04  0.7818609E-02  0.8954529E-01
       -2   -1    0    0    0  501  0.00000000000E+00  0.00000000000E+00  0.34019687126E+03  0.34019687127E+03  0.25500000920E-02 0.  1.
        2   -1    0    0  501    0  0.00000000000E+00  0.00000000000E+00 -0.14383252343E+04  0.14383252343E+04  0.25500000920E-02 0. -1.
    10030    2    1    2    0    0  0.00000000000E+00  0.00000000000E+00 -0.10981283631E+04  0.17785221056E+04  0.13990192916E+04 0.  0.
        1    1    3    3  502    0  0.28087128399E+03  0.24345648953E+03 -0.13023926446E+04  0.13543951939E+04  0.50400001928E-02 0. -1.
       -1    1    3    3    0  502 -0.28087128399E+03 -0.24345648953E+03  0.20426428157E+03  0.42412691168E+03  0.50400001928E-02 0.  1.
</event>
<event>
 5   0  0.3917598E-04  0.1400199E+04  0.7818609E-02  0.8953674E-01
       -2   -1    0    0    0  501  0.00000000000E+00  0.00000000000E+00  0.41898506023E+03  0.41898506024E+03  0.25500000920E-02 0. -1.
        2   -1    0    0  501    0  0.00000000000E+00  0.00000000000E+00 -0.11698260869E+04  0.11698260869E+04  0.25500000920E-02 0.  1.
    10030    2    1    2    0    0  0.00000000000E+00  0.00000000000E+00 -0.75084102664E+03  0.15888111471E+04  0.14001994908E+04 0.  0.
        3    1    3    3  502    0  0.37174908356E+03  0.46351605679E+03 -0.79555987600E+03  0.99295520671E+03  0.10100000352E+00 0.  1.
       -3    1    3    3    0  502 -0.37174908356E+03 -0.46351605679E+03  0.44718849358E+02  0.59585594041E+03  0.10100000352E+00 0. -1.
</event>
<event>
 5   0  0.1497625E-04  0.1398337E+04  0.7818609E-02  0.8955023E-01
        3   -1    0    0  501    0  0.00000000000E+00  0.00000000000E+00  0.13509552513E+04  0.13509552551E+04  0.10100000352E+00 0.  1.
       -3   -1    0    0    0  501  0.00000000000E+00  0.00000000000E+00 -0.36184501577E+03  0.36184502987E+03  0.10100000352E+00 0. -1.
    10030    2    1    2    0    0  0.00000000000E+00  0.00000000000E+00  0.98911023551E+03  0.17128002849E+04  0.13983367828E+04 0.  0.
        4    1    3    3  502    0  0.58370371801E+03 -0.63446600002E+02  0.29584062930E+02  0.58788802603E+03  0.12699999809E+01 0. -1.
       -4    1    3    3    0  502 -0.58370371801E+03  0.63446600002E+02  0.95952617258E+03  0.11249122589E+04  0.12699999809E+01 0.  1.
</event>
<event>
 5   0  0.2143942E-04  0.1404327E+04  0.7818609E-02  0.8950692E-01
       -1   -1    0    0    0  501  0.00000000000E+00  0.00000000000E+00  0.83351797818E+03  0.83351797819E+03  0.50400001928E-02 0. -1.
        1   -1    0    0  501    0  0.00000000000E+00  0.00000000000E+00 -0.59150953133E+03  0.59150953136E+03  0.50400001928E-02 0.  1.
    10030    2    1    2    0    0  0.00000000000E+00  0.00000000000E+00  0.24200844684E+03  0.14250275095E+04  0.14043273531E+04 0.  0.
        4    1    3    3  502    0 -0.25031585475E+03  0.21720829102E+03  0.74915610751E+03  0.81919103702E+03  0.12699999809E+01 0. -1.
       -4    1    3    3    0  502  0.25031585475E+03 -0.21720829102E+03 -0.50714766067E+03  0.60583647253E+03  0.12699999809E+01 0.  1.
</event>
<event>
 5   0  0.2155352E-04  0.1403650E+04  0.7818609E-02  0.8951181E-01
        1   -1    0    0  501    0  0.00000000000E+00  0.00000000000E+00  0.11153069692E+04  0.11153069692E+04  0.50400001928E-02 0.  1.
       -1   -1    0    0    0  501  0.00000000000E+00  0.00000000000E+00 -0.44163491929E+03  0.44163491932E+03  0.50400001928E-02 0. -1.
    10030    2    1    2    0    0  0.00000000000E+00  0.00000000000E+00  0.67367204992E+03  0.15569418885E+04  0.14036502461E+04 0.  0.
        2    1    3    3  502    0  0.18770588207E+03 -0.31530876685E+03 -0.32675058559E+03  0.49134413785E+03  0.25500000920E-02 0. -1.
       -2    1    3    3    0  502 -0.18770588207E+03  0.31530876685E+03  0.10004226355E+04  0.10655977507E+04  0.25500000920E-02 0.  1.
</event>
<event>
 5   0  0.4208622E-04  0.1402506E+04  0.7818609E-02  0.8952007E-01
        2   -1    0    0  501    0  0.00000000000E+00  0.00000000000E+00  0.65632000978E+03  0.65632000979E+03  0.25500000920E-02 0.  1.
       -2   -1    0    0    0  501  0.00000000000E+00  0.00000000000E+00 -0.74926228517E+03  0.74926228518E+03  0.25500000920E-02 0. -1.
    10030    2    1    2    0    0  0.00000000000E+00  0.00000000000E+00 -0.92942275389E+02  0.14055822950E+04  0.14025060860E+04 0.  0.
        4    1    3    3  502    0 -0.48685617357E+02 -0.53430998711E+03 -0.49901084545E+03  0.73271473879E+03  0.12699999809E+01 0. -1.
       -4    1    3    3    0  502  0.48685617357E+02  0.53430998711E+03  0.40606857006E+03  0.67286755617E+03  0.12699999809E+01 0.  1.
</event>
<event>
 5   0  0.4310348E-04  0.1398183E+04  0.7818609E-02  0.8955135E-01
        2   -1    0    0  501    0  0.00000000000E+00  0.00000000000E+00  0.73662293076E+03  0.73662293077E+03  0.25500000920E-02 0. -1.
       -2   -1    0    0    0  501  0.00000000000E+00  0.00000000000E+00 -0.66347264395E+03  0.66347264395E+03  0.25500000920E-02 0.  1.
    10030    2    1    2    0    0  0.00000000000E+00  0.00000000000E+00  0.73150286814E+02  0.14000955747E+04  0.13981833406E+04 0.  0.
        1    1    3    3  502    0 -0.16526616847E+03  0.65408497314E+03  0.22009910492E+03  0.70963629736E+03  0.50400001928E-02 0. -1.
       -1    1    3    3    0  502  0.16526616847E+03 -0.65408497314E+03 -0.14694881810E+03  0.69045927736E+03  0.50400001928E-02 0.  1.
</event>
<event>
 5   0  0.2223112E-04  0.1396701E+04  0.7818609E-02  0.8956210E-01
       -1   -1    0    0    0  501  0.00000000000E+00  0.00000000000E+00  0.41335021908E+03  0.41335021911E+03  0.50400001928E-02 0.  1.
        1   -1    0    0  501    0  0.00000000000E+00  0.00000000000E+00 -0.11798560369E+04  0.11798560370E+04  0.50400001928E-02 0. -1.
    10030    2    1    2    0    0  0.00000000000E+00  0.00000000000E+00 -0.76650581787E+03  0.15932062561E+04  0.13967014733E+04 0.  0.
        1    1    3    3  502    0 -0.63976308328E+03 -0.21306433271E+02 -0.64791415380E+02  0.64338844748E+03  0.50400001928E-02 0.  1.
       -1    1    3    3    0  502  0.63976308328E+03  0.21306433271E+02 -0.70171440249E+03  0.94981780858E+03  0.50400001928E-02 0. -1.
</event>
<event>
 5   0  0.3975164E-04  0.1401823E+04  0.7818609E-02  0.8952500E-01
        2   -1    0    0  501    0  0.00000000000E+00  0.00000000000E+00  0.52466952452E+03  0.52466952453E+03  0.25500000920E-02 0.  1.
       -2   -1    0    0    0  501  0.00000000000E+00  0.00000000000E+00 -0.93635434144E+03  0.93635434144E+03  0.25500000920E-02 0. -1.
    10030    2    1    2    0    0  0.00000000000E+00  0.00000000000E+00 -0.41168481692E+03  0.14610238660E+04  0.14018225096E+04 0.  0.
        5    1    3    3  502    0 -0.43620714508E+03  0.43337134765E+03  0.14476765059E+03  0.63171762761E+03  0.46999998093E+01 0.  1.
       -5    1    3    3    0  502  0.43620714508E+03 -0.43337134765E+03 -0.55645246751E+03  0.82930623836E+03  0.46999998093E+01 0. -1.
</event>
<event>
 5   0  0.2143942E-04  0.1402542E+04  0.7818609E-02  0.8951981E-01
       -1   -1    0    0    0  501  0.00000000000E+00  0.00000000000E+00  0.42909963786E+03  0.42909963789E+03  0.50400001928E-02 0.  1.
        1   -1    0    0  501    0  0.00000000000E+00  0.00000000000E+00 -0.11460762173E+04  0.11460762173E+04  0.50400001928E-02 0. -1.
    10030    2    1    2    0    0  0.00000000000E+00  0.00000000000E+00 -0.71697657947E+03  0.15751758552E+04  0.14025418209E+04 0.  0.
        4    1    3    3  502    0  0.73028862816E+02  0.36545226565E+03  0.30867683373E+03  0.48391277505E+03  0.12699999809E+01 0.  1.
       -4    1    3    3    0  502 -0.73028862816E+02 -0.36545226565E+03 -0.10256534132E+04  0.10912630802E+04  0.12699999809E+01 0. -1.
</event>
<event>
 5   0  0.2215876E-04  0.1396050E+04  0.7818609E-02  0.8956683E-01
        1   -1    0    0  501    0  0.00000000000E+00  0.00000000000E+00  0.41208737676E+03  0.41208737679E+03  0.50400001928E-02 0.  1.
       -1   -1    0    0    0  501  0.00000000000E+00  0.00000000000E+00 -0.11823673995E+04  0.11823673995E+04  0.50400001928E-02 0. -1.
    10030    2    1    2    0    0  0.00000000000E+00  0.00000000000E+00 -0.77028002276E+03  0.15944547763E+04  0.13960496840E+04 0.  0.
        3    1    3    3  502    0 -0.84885315502E+02  0.14616592698E+03  0.38836097432E+03  0.42354958573E+03  0.10100000352E+00 0.  1.
       -3    1    3    3    0  502  0.84885315502E+02 -0.14616592698E+03 -0.11586409971E+04  0.11709051906E+04  0.10100000352E+00 0. -1.
</event>
<event>
 5   0  0.2155352E-04  0.1404818E+04  0.7818609E-02  0.8950338E-01
       -1   -1    0    0    0  501  0.00000000000E+00  0.00000000000E+00  0.11862145165E+04  0.11862145165E+04  0.50400001928E-02 0. -1.
        1   -1    0    0  501    0  0.00000000000E+00  0.00000000000E+00 -0.41592699123E+03  0.41592699126E+03  0.50400001928E-02 0.  1.
    10030    2    1    2    0    0  0.00000000000E+00  0.00000000000E+00  0.77028752529E+03  0.16021415078E+04  0.14048183297E+04 0.  0.
        2    1    3    3  502    0  0.55207876870E+03  0.42322409400E+03  0.49612090837E+03  0.85442703393E+03  0.25500000920E-02 0. -1.
       -2    1    3    3    0  502 -0.55207876870E+03 -0.42322409400E+03  0.27416661693E+03  0.74771447387E+03  0.25500000920E-02 0.  1.
</event>
<event>
 5   0  0.4208622E-04  0.1406683E+04  0.7818609E-02  0.8948995E-01
       -2   -1    0    0    0  501  0.00000000000E+00  0.00000000000E+00  0.59831884940E+03  0.59831884941E+03  0.25500000920E-02 0. -1.
        2   -1    0    0  501    0  0.00000000000E+00  0.00000000000E+00 -0.82679859481E+03  0.82679859481E+03  0.25500000920E-02 0.  1.
    10030    2    1    2    0    0  0.00000000000E+00  0.00000000000E+00 -0.22847974540E+03  0.14251174442E+04  0.14066828839E+04 0.  0.
        4    1    3    3  502    0  0.26749863014E+03 -0.38223411701E+03 -0.64747306470E+03  0.79804850714E+03  0.12699999809E+01 0.  1.
       -4    1    3    3    0  502 -0.26749863014E+03  0.38223411701E+03  0.41899331929E+03  0.62706893708E+03  0.12699999809E+01 0. -1.
</event>
<event>
 5   0  0.2223112E-04  0.1401739E+04  0.7818609E-02  0.8952561E-01
       -1   -1    0    0    0  501  0.00000000000E+00  0.00000000000E+00  0.95687082869E+03  0.95687082870E+03  0.50400001928E-02 0.  1.
        1   -1    0    0  501    0  0.00000000000E+00  0.00000000000E+00 -0.51335876905E+03  0.51335876908E+03  0.50400001928E-02 0. -1.
    10030    2    1    2    0    0  0.00000000000E+00  0.00000000000E+00  0.44351205964E+03  0.14702295978E+04  0.14017389640E+04 0.  0.
        1    1    3    3  502    0 -0.55349347246E+02  0.40131389013E+03 -0.37811705735E+03  0.55415602292E+03  0.50400001928E-02 0. -1.
       -1    1    3    3    0  502  0.55349347246E+02 -0.40131389013E+03  0.82162911699E+03  0.91607357486E+03  0.50400001928E-02 0.  1.
</event>
<event>
 5   0  0.2215876E-04  0.1402298E+04  0.7818609E-02  0.8952157E-01
        1   -1    0    0  501    0  0.00000000000E+00  0.00000000000E+00  0.34439009307E+03  0.34439009311E+03  0.50400001928E-02 0.  1.
       -1   -1    0    0    0  501  0.00000000000E+00  0.00000000000E+00 -0.14274794609E+04  0.14274794609E+04  0.50400001928E-02 0. -1.
    10030    2    1    2    0    0  0.00000000000E+00  0.00000000000E+00 -0.10830893678E+04  0.17718695540E+04  0.14022978064E+04 0.  0.
        3    1    3    3  502    0  0.49841026584E+02  0.30183541341E+03 -0.13387028519E+04  0.13732130500E+04  0.10100000352E+00 0. -1.
       -3    1    3    3    0  502 -0.49841026584E+02 -0.30183541341E+03  0.25561348412E+03  0.39865650400E+03  0.10100000352E+00 0.  1.
</event>
<event>
 5   0  0.3932568E-04  0.1402225E+04  0.7818609E-02  0.8952210E-01
        2   -1    0    0  501    0  0.00000000000E+00  0.00000000000E+00  0.18557861991E+04  0.18557861991E+04  0.25500000920E-02 0. -1.
       -2   -1    0    0    0  501  0.00000000000E+00  0.00000000000E+00 -0.26487884802E+03  0.26487884804E+03  0.25500000920E-02 0.  1.
    10030    2    1    2    0    0  0.00000000000E+00  0.00000000000E+00  0.15909073511E+04  0.21206650472E+04  0.14022246762E+04 0.  0.
        2    1    3    3  502    0 -0.39678893324E+03 -0.47608136021E+03  0.12912292751E+04  0.14322597390E+04  0.25500000920E-02 0.  1.
       -2    1    3    3    0  502  0.39678893324E+03  0.47608136021E+03  0.29967807602E+03  0.68840530818E+03  0.25500000920E-02 0. -1.
</event>
<event>
 5   0  0.4208622E-04  0.1422064E+04  0.7818609E-02  0.8938000E-01
        2   -1    0    0  501    0  0.00000000000E+00  0.00000000000E+00  0.26266066378E+04  0.26266066378E+04  0.25500000920E-02 0. -1.
       -2   -1    0    0    0  501  0.00000000000E+00  0.00000000000E+00 -0.19247907009E+03  0.19247907011E+03  0.25500000920E-02 0.  1.
    10030    2    1    2    0    0  0.00000000000E+00  0.00000000000E+00  0.24341275677E+04  0.28190857079E+04  0.14220644193E+04 0.  0.
        4    1    3    3  502    0  0.11433054838E+03 -0.23482184511E+03  0.25280700727E+04  0.25415256597E+04  0.12699999809E+01 0. -1.
       -4    1    3    3    0  502 -0.11433054838E+03  0.23482184511E+03 -0.93942505009E+02  0.27756004825E+03  0.12699999809E+01 0.  1.
</event>
<event>
 5   0  0.2217251E-04  0.1402407E+04  0.7818609E-02  0.8952078E-01
        1   -1    0    0  501    0  0.00000000000E+00  0.00000000000E+00  0.90887776262E+03  0.90887776264E+03  0.50400001928E-02 0.  1.
       -1   -1    0    0    0  501  0.00000000000E+00  0.00000000000E+00 -0.54098151131E+03  0.54098151133E+03  0.50400001928E-02 0. -1.
    10030    2    1    2    0    0  0.00000000000E+00  0.00000000000E+00  0.36789625132E+03  0.14498592740E+04  0.14024065967E+04 0.  0.
        5    1    3    3  502    0 -0.34307704579E+03  0.59133837704E+03  0.34504441919E+03  0.76580720597E+03  0.46999998093E+01 0. -1.
       -5    1    3    3    0  502  0.34307704579E+03 -0.59133837704E+03  0.22851832125E+02  0.68405206800E+03  0.46999998093E+01 0.  1.
</event>
<event>
 5   0  0.4208622E-04  0.1396015E+04  0.7818609E-02  0.8956708E-01
       -2   -1    0    0    0  501  0.00000000000E+00  0.00000000000E+00  0.47891270485E+03  0.47891270485E+03  0.25500000920E-02 0.  1.
        2   -1    0    0  501    0  0.00000000000E+00  0.00000000000E+00 -0.10173342910E+04  0.10173342910E+04  0.25500000920E-02 0. -1.
    10030    2    1    2    0    0  0.00000000000E+00  0.00000000000E+00 -0.53842158614E+03  0.14962469958E+04  0.13960147808E+04 0.  0.
        4    1    3    3  502    0  0.14307563727E+03 -0.67903030336E+03 -0.18857680070E+03  0.71910751180E+03  0.12699999809E+01 0.  1.
       -4    1    3    3    0  502 -0.14307563727E+03  0.67903030336E+03 -0.34984478544E+03  0.77713948405E+03  0.12699999809E+01 0. -1.
</event>
<event>
 5   0  0.2155352E-04  0.1395777E+04  0.7818609E-02  0.8956881E-01
        1   -1    0    0  501    0  0.00000000000E+00  0.00000000000E+00  0.17886306209E+04  0.17886306209E+04  0.50400001928E-02 0. -1.
       -1   -1    0    0    0  501  0.00000000000E+00  0.00000000000E+00 -0.27230255340E+03  0.27230255344E+03  0.50400001928E-02 0.  1.
    10030    2    1    2    0    0  0.00000000000E+00  0.00000000000E+00  0.15163280675E+04  0.20609331744E+04  0.13957774682E+04 0.  0.
        2    1    3    3  502    0 -0.19788125761E+03  0.61920563590E+03  0.38323677398E+03  0.75461449534E+03  0.25500000920E-02 0.  1.
       -2    1    3    3    0  502  0.19788125761E+03 -0.61920563590E+03  0.11330912935E+04  0.13063186790E+04  0.25500000920E-02 0. -1.
</event>
<event>
 5   0  0.3975164E-04  0.1395193E+04  0.7818609E-02  0.8957305E-01
       -2   -1    0    0    0  501  0.00000000000E+00  0.00000000000E+00  0.64878674090E+03  0.64878674090E+03  0.25500000920E-02 0.  1.
        2   -1    0    0  501    0  0.00000000000E+00  0.00000000000E+00 -0.75007829730E+03  0.75007829730E+03  0.25500000920E-02 0. -1.
    10030    2    1    2    0    0  0.00000000000E+00  0.00000000000E+00 -0.10129155640E+03  0.13988650382E+04  0.13951929672E+04 0.  0.
        5    1    3    3  502    0  0.11029036897E+03 -0.59056782648E+03  0.30480731357E+03  0.67369422705E+03  0.46999998093E+01 0.  1.
       -5    1    3    3    0  502 -0.11029036897E+03  0.59056782648E+03 -0.40609886997E+03  0.72517081115E+03  0.46999998093E+01 0. -1.
</event>
<event>
 5   0  0.2143942E-04  0.1398533E+04  0.7818609E-02  0.8954881E-01
        1   -1    0    0  501    0  0.00000000000E+00  0.00000000000E+00  0.10373803253E+04  0.10373803254E+04  0.50400001928E-02 0.  1.
       -1   -1    0    0    0  501  0.00000000000E+00  0.00000000000E+00 -0.47135456414E+03  0.47135456417E+03  0.50400001928E-02 0. -1.
    10030    2    1    2    0    0  0.00000000000E+00  0.00000000000E+00  0.56602576120E+03  0.15087348895E+04  0.13985334478E+04 0.  0.
        4    1    3    3  502    0  0.11330044735E+03 -0.29362154139E+03 -0.39062856536E+03  0.50164019965E+03  0.12699999809E+01 0. -1.
       -4    1    3    3    0  502 -0.11330044735E+03  0.29362154139E+03  0.95665432656E+03  0.10070946899E+04  0.12699999809E+01 0.  1.
</event>
<event>
 5   0  0.3917598E-04  0.1396023E+04  0.7818609E-02  0.8956702E-01
       -2   -1    0    0    0  501  0.00000000000E+00  0.00000000000E+00  0.22341424977E+03  0.22341424979E+03  0.25500000920E-02 0. -1.
        2   -1    0    0  501    0  0.00000000000E+00  0.00000000000E+00 -0.21807925508E+04  0.21807925508E+04  0.25500000920E-02 0.  1.
    10030    2    1    2    0    0  0.00000000000E+00  0.00000000000E+00 -0.19573783010E+04  0.24042068006E+04  0.13960231111E+04 0.  0.
        3    1    3    3  502    0  0.34603142228E+03 -0.58959529472E+03 -0.73599111413E+03  0.10045114669E+04  0.10100000352E+00 0. -1.
       -3    1    3    3    0  502 -0.34603142228E+03  0.58959529472E+03 -0.12213871869E+04  0.13996953337E+04  0.10100000352E+00 0.  1.
</event>
<event>
 5   0  0.2155352E-04  0.1401476E+04  0.7818609E-02  0.8952751E-01
        1   -1    0    0  501    0  0.00000000000E+00  0.00000000000E+00  0.17701841798E+04  0.17701841798E+04  0.50400001928E-02 0. -1.
       -1   -1    0    0    0  501  0.00000000000E+00  0.00000000000E+00 -0.27739143984E+03  0.27739143988E+03  0.50400001928E-02 0.  1.
    10030    2    1    2    0    0  0.00000000000E+00  0.00000000000E+00  0.14927927399E+04  0.20475756196E+04  0.14014762766E+04 0.  0.
        2    1    3    3  502    0  0.36246942363E+03 -0.13363112995E+03 -0.10775631832E+03  0.40106456600E+03  0.25500000920E-02 0.  1.
       -2    1    3    3    0  502 -0.36246942363E+03  0.13363112995E+03  0.16005490582E+04  0.16465110536E+04  0.25500000920E-02 0. -1.
</event>
<event>
 5   0  0.3932568E-04  0.1402297E+04  0.7818609E-02  0.8952158E-01
        2   -1    0    0  501    0  0.00000000000E+00  0.00000000000E+00  0.11289445400E+04  0.11289445400E+04  0.25500000920E-02 0.  1.
       -2   -1    0    0    0  501  0.00000000000E+00  0.00000000000E+00 -0.43545884788E+03  0.43545884789E+03  0.25500000920E-02 0. -1.
    10030    2    1    2    0    0  0.00000000000E+00  0.00000000000E+00  0.69348569216E+03  0.15644033879E+04  0.14022965289E+04 0.  0.
        2    1    3    3  502    0  0.31060661286E+03 -0.80542368941E+02 -0.34873872318E+03  0.47390108482E+03  0.25500000920E-02 0. -1.
       -2    1    3    3    0  502 -0.31060661286E+03  0.80542368941E+02  0.10422244153E+04  0.10905023031E+04  0.25500000920E-02 0.  1.
</event>
<event>
 5   0  0.1497625E-04  0.1401861E+04  0.7818609E-02  0.8952472E-01
       -3   -1    0    0    0  501  0.00000000000E+00  0.00000000000E+00  0.29670043736E+03  0.29670045455E+03  0.10100000352E+00 0. -1.
        3   -1    0    0  501    0  0.00000000000E+00  0.00000000000E+00 -0.16558914153E+04  0.16558914184E+04  0.10100000352E+00 0.  1.
    10030    2    1    2    0    0  0.00000000000E+00  0.00000000000E+00 -0.13591909780E+04  0.19525918730E+04  0.14018612298E+04 0.  0.
        1    1    3    3  502    0  0.34955564965E+03 -0.29612634491E+03  0.59306498908E+02  0.46194937514E+03  0.50400001928E-02 0. -1.
       -1    1    3    3    0  502 -0.34955564965E+03  0.29612634491E+03 -0.14184974769E+04  0.14906424978E+04  0.50400001928E-02 0.  1.
</event>
<event>
 5   0  0.4208622E-04  0.1386025E+04  0.7818609E-02  0.8963997E-01
        2   -1    0    0  501    0  0.00000000000E+00  0.00000000000E+00  0.14576657912E+04  0.14576657912E+04  0.25500000920E-02 0.  1.
       -2   -1    0    0    0  501  0.00000000000E+00  0.00000000000E+00 -0.32947606466E+03  0.32947606467E+03  0.25500000920E-02 0. -1.
    10030    2    1    2    0    0  0.00000000000E+00  0.00000000000E+00  0.11281897266E+04  0.17871418559E+04  0.13860245142E+04 0.  0.
        4    1    3    3  502    0  0.36418337966E+03 -0.39853178018E+03  0.11243649834E+04  0.12472591322E+04  0.12699999809E+01 0.  1.
       -4    1    3    3    0  502 -0.36418337966E+03  0.39853178018E+03  0.38247431123E+01  0.53988272374E+03  0.12699999809E+01 0. -1.
</event>
<event>
 5   0  0.3975164E-04  0.1407484E+04  0.7818609E-02  0.8948419E-01
        2   -1    0    0  501    0  0.00000000000E+00  0.00000000000E+00  0.57517989094E+03  0.57517989094E+03  0.25500000920E-02 0.  1.
       -2   -1    0    0    0  501  0.00000000000E+00  0.00000000000E+00 -0.86103963750E+03  0.86103963750E+03  0.25500000920E-02 0. -1.
    10030    2    1    2    0    0  0.00000000000E+00  0.00000000000E+00 -0.28585974656E+03  0.14362195284E+04  0.14074838327E+04 0.  0.
        5    1    3    3  502    0  0.29871833682E+03  0.60339621912E+03 -0.35183119114E+03  0.75968869878E+03  0.46999998093E+01 0. -1.
       -5    1    3    3    0  502 -0.29871833682E+03 -0.60339621912E+03  0.65971444577E+02  0.67653082967E+03  0.46999998093E+01 0.  1.
</event>
<event>
 5   0  0.2143942E-04  0.1402671E+04  0.7818609E-02  0.8951888E-01
        1   -1    0    0  501    0  0.00000000000E+00  0.00000000000E+00  0.79121800939E+03  0.79121800941E+03  0.50400001928E-02 0. -1.
       -1   -1    0    0    0  501  0.00000000000E+00  0.00000000000E+00 -0.62166324916E+03  0.62166324918E+03  0.50400001928E-02 0.  1.
    10030    2    1    2    0    0  0.00000000000E+00  0.00000000000E+00  0.16955476023E+03  0.14128812586E+04  0.14026705366E+04 0.  0.
        4    1    3    3  502    0 -0.27831043943E+03 -0.36793500674E+03 -0.44730715257E+03  0.64258709255E+03  0.12699999809E+01 0.  1.
       -4    1    3    3    0  502  0.27831043943E+03  0.36793500674E+03  0.61686191280E+03  0.77029416604E+03  0.12699999809E+01 0. -1.
</event>
<event>
 5   0  0.2155352E-04  0.1399851E+04  0.7818609E-02  0.8953926E-01
        1   -1    0    0  501    0  0.00000000000E+00  0.00000000000E+00  0.90986644486E+03  0.90986644487E+03  0.50400001928E-02 0. -1.
       -1   -1    0    0    0  501  0.00000000000E+00  0.00000000000E+00 -0.53842616257E+03  0.53842616259E+03  0.50400001928E-02 0.  1.
    10030    2    1    2    0    0  0.00000000000E+00  0.00000000000E+00  0.37144028229E+03  0.14482926075E+04  0.13998512755E+04 0.  0.
        2    1    3    3  502    0 -0.39130491315E+03  0.57845475381E+03  0.23387608124E+03  0.73649674721E+03  0.25500000920E-02 0.  1.
       -2    1    3    3    0  502  0.39130491315E+03 -0.57845475381E+03  0.13756420105E+03  0.71179586026E+03  0.25500000920E-02 0. -1.
</event>
<event>
 5   0  0.3975164E-04  0.1401236E+04  0.7818609E-02  0.8952924E-01
        2   -1    0    0  501    0  0.00000000000E+00  0.00000000000E+00  0.74523291611E+03  0.74523291611E+03  0.25500000920E-02 0.  1.
       -2   -1    0    0    0  501  0.00000000000E+00  0.00000000000E+00 -0.65867442162E+03  0.65867442163E+03  0.25500000920E-02 0. -1.
    10030    2    1    2    0    0  0.00000000000E+00  0.00000000000E+00  0.86558494486E+02  0.14039073377E+04  0.14012363969E+04 0.  0.
        5    1    3    3  502    0  0.18899951000E+03  0.54994143855E+02 -0.63038518017E+03  0.66041860665E+03  0.46999998093E+01 0. -1.
       -5    1    3    3    0  502 -0.18899951000E+03 -0.54994143855E+02  0.71694367465E+03  0.74348873109E+03  0.46999998093E+01 0.  1.
</event>
<event>
 5   0  0.2215876E-04  0.1409713E+04  0.7818609E-02  0.8946818E-01
        1   -1    0    0  501    0  0.00000000000E+00  0.00000000000E+00  0.61508993920E+03  0.61508993922E+03  0.50400001928E-02 0. -1.
       -1   -1    0    0    0  501  0.00000000000E+00  0.00000000000E+00 -0.80772342172E+03  0.80772342174E+03  0.50400001928E-02 0.  1.
    10030    2    1    2    0    0  0.00000000000E+00  0.00000000000E+00 -0.19263348252E+03  0.14228133610E+04  0.14097128082E+04 0.  0.
        3    1    3    3  502    0 -0.57648823380E+02 -0.34470881071E+03  0.52147861690E+03  0.62776389598E+03  0.10100000352E+00 0. -1.
       -3    1    3    3    0  502  0.57648823380E+02  0.34470881071E+03 -0.71411209942E+03  0.79504946497E+03  0.10100000352E+00 0.  1.
</event>
<event>
 5   0  0.4310348E-04  0.1401443E+04  0.7818609E-02  0.8952775E-01
        2   -1    0    0  501    0  0.00000000000E+00  0.00000000000E+00  0.93026538981E+03  0.93026538982E+03  0.25500000920E-02 0.  1.
       -2   -1    0    0    0  501  0.00000000000E+00  0.00000000000E+00 -0.52781760985E+03  0.52781760986E+03  0.25500000920E-02 0. -1.
    10030    2    1    2    0    0  0.00000000000E+00  0.00000000000E+00  0.40244777996E+03  0.14580829997E+04  0.14014427631E+04 0.  0.
        1    1    3    3  502    0 -0.11139942406E+03  0.55274699816E+03 -0.23160825615E+03  0.60957481904E+03  0.50400001928E-02 0. -1.
       -1    1    3    3    0  502  0.11139942406E+03 -0.55274699816E+03  0.63405603611E+03  0.84850818064E+03  0.50400001928E-02 0.  1.
</event>
<event>
 5   0  0.2223112E-04  0.1401051E+04  0.7818609E-02  0.8953058E-01
       -1   -1    0    0    0  501  0.00000000000E+00  0.00000000000E+00  0.22553098274E+03  0.22553098279E+03  0.50400001928E-02 0. -1.
        1   -1    0    0  501    0  0.00000000000E+00  0.00000000000E+00 -0.21759133161E+04  0.21759133161E+04  0.50400001928E-02 0.  1.
    10030    2    1    2    0    0  0.00000000000E+00  0.00000000000E+00 -0.19503823334E+04  0.24014442989E+04  0.14010508465E+04 0.  0.
        1    1    3    3  502    0 -0.98529162457E+02  0.42870112538E+03 -0.40701296682E+02  0.44175699919E+03  0.50400001928E-02 0. -1.
       -1    1    3    3    0  502  0.98529162457E+02 -0.42870112538E+03 -0.19096810367E+04  0.19596872997E+04  0.50400001928E-02 0.  1.
</event>
<event>
 5   0  0.4310348E-04  0.1401310E+04  0.7818609E-02  0.8952871E-01
        2   -1    0    0  501    0  0.00000000000E+00  0.00000000000E+00  0.32634096514E+03  0.32634096515E+03  0.25500000920E-02 0. -1.
       -2   -1    0    0    0  501  0.00000000000E+00  0.00000000000E+00 -0.15043093215E+04  0.15043093215E+04  0.25500000920E-02 0.  1.
    10030    2    1    2    0    0  0.00000000000E+00  0.00000000000E+00 -0.11779683564E+04  0.18306502867E+04  0.14013104665E+04 0.  0.
        1    1    3    3  502    0 -0.50732926309E+03  0.90835518181E+02  0.31078927463E+02  0.51633319892E+03  0.50400001928E-02 0. -1.
       -1    1    3    3    0  502  0.50732926309E+03 -0.90835518181E+02 -0.12090472839E+04  0.13143170878E+04  0.50400001928E-02 0.  1.
</event>
<event>
 5   0  0.3917598E-04  0.1395725E+04  0.7818609E-02  0.8956919E-01
        2   -1    0    0  501    0  0.00000000000E+00  0.00000000000E+00  0.11266560454E+04  0.11266560454E+04  0.25500000920E-02 0.  1.
       -2   -1    0    0    0  501  0.00000000000E+00  0.00000000000E+00 -0.43226316354E+03  0.43226316355E+03  0.25500000920E-02 0. -1.
    10030    2    1    2    0    0  0.00000000000E+00  0.00000000000E+00  0.69439288184E+03  0.15589192089E+04  0.13957247671E+04 0.  0.
        3    1    3    3  502    0  0.49241892673E+03  0.43980351018E+03  0.59970135541E+03  0.89193343521E+03  0.10100000352E+00 0.  1.
       -3    1    3    3    0  502 -0.49241892673E+03 -0.43980351018E+03  0.94691526429E+02  0.66698577372E+03  0.10100000352E+00 0. -1.
</event>
<event>
 5   0  0.3975164E-04  0.1398973E+04  0.7818609E-02  0.8954562E-01
        2   -1    0    0  501    0  0.00000000000E+00  0.00000000000E+00  0.12259091641E+04  0.12259091641E+04  0.25500000920E-02 0.  1.
       -2   -1    0    0    0  501  0.00000000000E+00  0.00000000000E+00 -0.39911704422E+03  0.39911704423E+03  0.25500000920E-02 0. -1.
    10030    2    1    2    0    0  0.00000000000E+00  0.00000000000E+00  0.82679211983E+03  0.16250262083E+04  0.13989728261E+04 0.  0.
        5    1    3    3  502    0  0.43435861229E+02  0.69507951243E+03  0.48900579745E+03  0.85098235151E+03  0.46999998093E+01 0.  1.
       -5    1    3    3    0  502 -0.43435861229E+02 -0.69507951243E+03  0.33778632238E+03  0.77404385678E+03  0.46999998093E+01 0. -1.
</event>
<event>
 5   0  0.3917598E-04  0.1396212E+04  0.7818609E-02  0.8956565E-01
       -2   -1    0    0    0  501  0.00000000000E+00  0.00000000000E+00  0.38718929143E+03  0.38718929144E+03  0.25500000920E-02 0.  1.
        2   -1    0    0  501    0  0.00000000000E+00  0.00000000000E+00 -0.12586911869E+04  0.12586911869E+04  0.25500000920E-02 0. -1.
    10030    2    1    2    0    0  0.00000000000E+00  0.00000000000E+00 -0.87150189543E+03  0.16458804783E+04  0.13962116584E+04 0.  0.
        3    1    3    3  502    0 -0.26622345620E+03  0.55359319863E+02 -0.11936976280E+04  0.12242767743E+04  0.10100000352E+00 0. -1.
       -3    1    3    3    0  502  0.26622345620E+03 -0.55359319863E+02  0.32219573255E+03  0.42160370397E+03  0.10100000352E+00 0.  1.
</event>
<event>
 5   0  0.2155352E-04  0.1401020E+04  0.7818609E-02  0.8953080E-01
        1   -1    0    0  501    0  0.00000000000E+00  0.00000000000E+00  0.61743499375E+03  0.61743499377E+03  0.50400001928E-02 0.  1.
       -1   -1    0    0    0  501  0.00000000000E+00  0.00000000000E+00 -0.79476292528E+03  0.79476292530E+03  0.50400001928E-02 0. -1.
    10030    2    1    2    0    0  0.00000000000E+00  0.00000000000E+00 -0.17732793153E+03  0.14121979191E+04  0.14010202594E+04 0.  0.
        2    1    3    3  502    0  0.22271191513E+03 -0.36229246902E+03  0.47242601871E+03  0.63564358992E+03  0.25500000920E-02 0.  1.
       -2    1    3    3    0  502 -0.22271191513E+03  0.36229246902E+03 -0.64975395025E+03  0.77655432914E+03  0.25500000920E-02 0. -1.
</event>
<event>
 5   0  0.2215876E-04  0.1399894E+04  0.7818609E-02  0.8953895E-01
       -1   -1    0    0    0  501  0.00000000000E+00  0.00000000000E+00  0.49382803888E+03  0.49382803891E+03  0.50400001928E-02 0.  1.
        1   -1    0    0  501    0  0.00000000000E+00  0.00000000000E+00 -0.99209809705E+03  0.99209809706E+03  0.50400001928E-02 0. -1.
    10030    2    1    2    0    0  0.00000000000E+00  0.00000000000E+00 -0.49827005817E+03  0.14859261360E+04  0.13998940784E+04 0.  0.
        3    1    3    3  502    0 -0.24849546053E+03  0.90943610183E+02  0.43868944811E+03  0.51231745649E+03  0.10100000352E+00 0.  1.
       -3    1    3    3    0  502  0.24849546053E+03 -0.90943610183E+02 -0.93695950628E+03  0.97360867947E+03  0.10100000352E+00 0. -1.
</event>
<event>
 5   0  0.1497625E-04  0.1400299E+04  0.7818609E-02  0.8953602E-01
       -3   -1    0    0    0  501  0.00000000000E+00  0.00000000000E+00  0.68894072349E+03  0.68894073090E+03  0.10100000352E+00 0. -1.
        3   -1    0    0  501    0  0.00000000000E+00  0.00000000000E+00 -0.71154055588E+03  0.71154056305E+03  0.10100000352E+00 0.  1.
    10030    2    1    2    0    0  0.00000000000E+00  0.00000000000E+00 -0.22599832391E+02  0.14004812939E+04  0.14002989332E+04 0.  0.
        5    1    3    3  502    0 -0.35472266689E+03  0.16112220140E+03 -0.59309609730E+03  0.70962920235E+03  0.46999998093E+01 0.  1.
       -5    1    3    3    0  502  0.35472266689E+03 -0.16112220140E+03  0.57049626491E+03  0.69085209160E+03  0.46999998093E+01 0. -1.
</event>
<event>
 5   0  0.2155352E-04  0.1396808E+04  0.7818609E-02  0.8956132E-01
        1   -1    0    0  501    0  0.00000000000E+00  0.00000000000E+00  0.13421143005E+04  0.13421143005E+04  0.50400001928E-02 0. -1.
       -1   -1    0    0    0  501  0.00000000000E+00  0.00000000000E+00 -0.36343254674E+03  0.36343254678E+03  0.50400001928E-02 0.  1.
    10030    2    1    2    0    0  0.00000000000E+00  0.00000000000E+00  0.97868175378E+03  0.17055468473E+04  0.13968078154E+04 0.  0.
        2    1    3    3  502    0 -0.43370513387E+03  0.45916048835E+03  0.85328113687E+03  0.10616106611E+04  0.25500000920E-02 0. -1.
       -2    1    3    3    0  502  0.43370513387E+03 -0.45916048835E+03  0.12540061691E+03  0.64393618623E+03  0.25500000920E-02 0.  1.
</event>
<event>
 5   0  0.2223112E-04  0.1403684E+04  0.7818609E-02  0.8951156E-01
       -1   -1    0    0    0  501  0.00000000000E+00  0.00000000000E+00  0.36092471537E+03  0.36092471541E+03  0.50400001928E-02 0. -1.
        1   -1    0    0  501    0  0.00000000000E+00  0.00000000000E+00 -0.13647785969E+04  0.13647785969E+04  0.50400001928E-02 0.  1.
    10030    2    1    2    0    0  0.00000000000E+00  0.00000000000E+00 -0.10038538815E+04  0.17257033123E+04  0.14036841905E+04 0.  0.
        1    1    3    3  502    0  0.34063004195E+03  0.11282394633E+03 -0.12434805457E+04  0.12942186584E+04  0.50400001928E-02 0.  1.
       -1    1    3    3    0  502 -0.34063004195E+03 -0.11282394633E+03  0.23962666415E+03  0.43148465389E+03  0.50400001928E-02 0. -1.
</event>
<event>
 5   0  0.4310348E-04  0.1411872E+04  0.7818609E-02  0.8945270E-01
       -2   -1    0    0    0  501  0.00000000000E+00  0.00000000000E+00  0.36824303084E+03  0.36824303084E+03  0.25500000920E-02 0. -1.
        2   -1    0    0  501    0  0.00000000000E+00  0.00000000000E+00 -0.13533058098E+04  0.13533058098E+04  0.25500000920E-02 0.  1.
    10030    2    1    2    0    0  0.00000000000E+00  0.00000000000E+00 -0.98506277892E+03  0.17215488406E+04  0.14118717124E+04 0.  0.
        1    1    3    3  502    0 -0.14391670815E+03  0.57466561717E+03 -0.96065689984E+03  0.11286338067E+04  0.50400001928E-02 0. -1.
       -1    1    3    3    0  502  0.14391670815E+03 -0.57466561717E+03 -0.24405879076E+02  0.59291503388E+03  0.50400001928E-02 0.  1.
</event>
<event>
 5   0  0.2215876E-04  0.1410622E+04  0.7818609E-02  0.8946165E-01
        1   -1    0    0  501    0  0.00000000000E+00  0.00000000000E+00  0.41998436356E+03  0.41998436359E+03  0.50400001928E-02 0. -1.
       -1   -1    0    0    0  501  0.00000000000E+00  0.00000000000E+00 -0.11844820293E+04  0.11844820294E+04  0.50400001928E-02 0.  1.
    10030    2    1    2    0    0  0.00000000000E+00  0.00000000000E+00 -0.76449766579E+03  0.16044663929E+04  0.14106224601E+04 0.  0.
        3    1    3    3  502    0 -0.41442854585E+03  0.44291519645E+03 -0.79162273352E+03  0.99729206017E+03  0.10100000352E+00 0. -1.
       -3    1    3    3    0  502  0.41442854585E+03 -0.44291519645E+03  0.27125067730E+02  0.60717433276E+03  0.10100000352E+00 0.  1.
</event>
<event>
 5   0  0.3932568E-04  0.1397399E+04  0.7818609E-02  0.8955704E-01
       -2   -1    0    0    0  501  0.00000000000E+00  0.00000000000E+00  0.99574956982E+03  0.99574956983E+03  0.25500000920E-02 0. -1.
        2   -1    0    0  501    0  0.00000000000E+00  0.00000000000E+00 -0.49026452920E+03  0.49026452921E+03  0.25500000920E-02 0.  1.
    10030    2    1    2    0    0  0.00000000000E+00  0.00000000000E+00  0.50548504062E+03  0.14860140990E+04  0.13973985746E+04 0.  0.
        2    1    3    3  502    0  0.34325693411E+01  0.21102831423E+02 -0.48991658734E+03  0.49038288570E+03  0.25500000920E-02 0.  1.
       -2    1    3    3    0  502 -0.34325693411E+01 -0.21102831423E+02  0.99540162796E+03  0.99563121334E+03  0.25500000920E-02 0. -1.
</event>
<event>
 5   0  0.2217251E-04  0.1399887E+04  0.7818609E-02  0.8953901E-01
       -1   -1    0    0    0  501  0.00000000000E+00  0.00000000000E+00  0.57764023722E+03  0.57764023724E+03  0.50400001928E-02 0. -1.
        1   -1    0    0  501    0  0.00000000000E+00  0.00000000000E+00 -0.84814145701E+03  0.84814145702E+03  0.50400001928E-02 0.  1.
    10030    2    1    2    0    0  0.00000000000E+00  0.00000000000E+00 -0.27050121979E+03  0.14257816943E+04  0.13998866132E+04 0.  0.
        5    1    3    3  502    0 -0.38895489462E+02  0.14249641087E+03  0.56156910284E+03  0.58068927446E+03  0.46999998093E+01 0. -1.
       -5    1    3    3    0  502  0.38895489462E+02 -0.14249641087E+03 -0.83207032263E+03  0.84509241981E+03  0.46999998093E+01 0.  1.
</event>
<event>
 5   0  0.4208622E-04  0.1412719E+04  0.7818609E-02  0.8944663E-01
        2   -1    0    0  501    0  0.00000000000E+00  0.00000000000E+00  0.99257770237E+03  0.99257770238E+03  0.25500000920E-02 0.  1.
       -2   -1    0    0    0  501  0.00000000000E+00  0.00000000000E+00 -0.50267506783E+03  0.50267506783E+03  0.25500000920E-02 0. -1.
    10030    2    1    2    0    0  0.00000000000E+00  0.00000000000E+00  0.48990263455E+03  0.14952527702E+04  0.14127194539E+04 0.  0.
        4    1    3    3  502    0 -0.38317314875E+03  0.47290522854E+03  0.62433520041E+03  0.87192721742E+03  0.12699999809E+01 0.  1.
       -4    1    3    3    0  502  0.38317314875E+03 -0.47290522854E+03 -0.13443256586E+03  0.62332555280E+03  0.12699999809E+01 0. -1.
</event>
<event>
 5   0  0.4310348E-04  0.1396494E+04  0.7818609E-02  0.8956360E-01
        2   -1    0    0  501    0  0.00000000000E+00  0.00000000000E+00  0.28576096083E+03  0.28576096085E+03  0.25500000920E-02 0.  1.
       -2   -1    0    0    0  501  0.00000000000E+00  0.00000000000E+00 -0.17061426834E+04  0.17061426834E+04  0.25500000920E-02 0. -1.
    10030    2    1    2    0    0  0.00000000000E+00  0.00000000000E+00 -0.14203817225E+04  0.19919036442E+04  0.13964941425E+04 0.  0.
        1    1    3    3  502    0  0.63572278564E+03  0.26942964888E+03 -0.56186876451E+03  0.89018666831E+03  0.50400001928E-02 0.  1.
       -1    1    3    3    0  502 -0.63572278564E+03 -0.26942964888E+03 -0.85851295802E+03  0.11017169759E+04  0.50400001928E-02 0. -1.
</event>
<event>
 5   0  0.3917598E-04  0.1409870E+04  0.7818609E-02  0.8946705E-01
       -2   -1    0    0    0  501  0.00000000000E+00  0.00000000000E+00  0.10215050635E+04  0.10215050635E+04  0.25500000920E-02 0. -1.
        2   -1    0    0  501    0  0.00000000000E+00  0.00000000000E+00 -0.48647147938E+03  0.48647147939E+03  0.25500000920E-02 0.  1.
    10030    2    1    2    0    0  0.00000000000E+00  0.00000000000E+00  0.53503358411E+03  0.15079765429E+04  0.14098696102E+04 0.  0.
        3    1    3    3  502    0 -0.14798817698E+03 -0.64837957283E+03  0.51752661068E+03  0.84269233647E+03  0.10100000352E+00 0.  1.
       -3    1    3    3    0  502  0.14798817698E+03  0.64837957283E+03  0.17506973428E+02  0.66528420641E+03  0.10100000352E+00 0. -1.
</event>
<event>
 5   0  0.2143942E-04  0.1397303E+04  0.7818609E-02  0.8955773E-01
        1   -1    0    0  501    0  0.00000000000E+00  0.00000000000E+00  0.55855158157E+03  0.55855158160E+03  0.50400001928E-02 0. -1.
       -1   -1    0    0    0  501  0.00000000000E+00  0.00000000000E+00 -0.87389220064E+03  0.87389220066E+03  0.50400001928E-02 0.  1.
    10030    2    1    2    0    0  0.00000000000E+00  0.00000000000E+00 -0.31534061907E+03  0.14324437823E+04  0.13973029318E+04 0.  0.
        4    1    3    3  502    0 -0.61372415503E+03  0.77479745496E+02  0.17522987237E+03  0.64293667690E+03  0.12699999809E+01 0. -1.
       -4    1    3    3    0  502  0.61372415503E+03 -0.77479745496E+02 -0.49057049144E+03  0.78950710535E+03  0.12699999809E+01 0.  1.
</event>
<event>
 5   0  0.4208622E-04  0.1399865E+04  0.7818609E-02  0.8953917E-01
       -2   -1    0    0    0  501  0.00000000000E+00  0.00000000000E+00  0.44360362400E+03  0.44360362401E+03  0.25500000920E-02 0.  1.
        2   -1    0    0  501    0  0.00000000000E+00  0.00000000000E+00 -0.11043760912E+04  0.11043760912E+04  0.25500000920E-02 0. -1.
    10030    2    1    2    0    0  0.00000000000E+00  0.00000000000E+00 -0.66077246717E+03  0.15479797152E+04  0.13998646168E+04 0.  0.
        4    1    3    3  502    0  0.11358680150E+03  0.21098629586E+03 -0.10576056723E+04  0.10844116144E+04  0.12699999809E+01 0. -1.
       -4    1    3    3    0  502 -0.11358680150E+03 -0.21098629586E+03  0.39683320509E+03  0.46356810080E+03  0.12699999809E+01 0.  1.
</event>
<event>
 5   0  0.4208622E-04  0.1403696E+04  0.7818609E-02  0.8951147E-01
        2   -1    0    0  501    0  0.00000000000E+00  0.00000000000E+00  0.14184715578E+04  0.14184715578E+04  0.25500000920E-02 0.  1.
       -2   -1    0    0    0  501  0.00000000000E+00  0.00000000000E+00 -0.34726869743E+03  0.34726869744E+03  0.25500000920E-02 0. -1.
    10030    2    1    2    0    0  0.00000000000E+00  0.00000000000E+00  0.10712028604E+04  0.17657402553E+04  0.14036962210E+04 0.  0.
        4    1    3    3  502    0 -0.49510985011E+02  0.69612379862E+03  0.44189277548E+03  0.82602089475E+03  0.12699999809E+01 0. -1.
       -4    1    3    3    0  502  0.49510985011E+02 -0.69612379862E+03  0.62931008491E+03  0.93971936051E+03  0.12699999809E+01 0.  1.
</event>
<event>
 5   0  0.2155352E-04  0.1317333E+04  0.7818609E-02  0.9015932E-01
       -1   -1    0    0    0  501  0.00000000000E+00  0.00000000000E+00  0.94592667665E+03  0.94592667666E+03  0.50400001928E-02 0.  1.
        1   -1    0    0  501    0  0.00000000000E+00  0.00000000000E+00 -0.45864154592E+03  0.45864154595E+03  0.50400001928E-02 0. -1.
    10030    2    1    2    0    0  0.00000000000E+00  0.00000000000E+00  0.48728513073E+03  0.14045682226E+04  0.13173325675E+04 0.  0.
        2    1    3    3  502    0  0.22344175964E+03 -0.49752778712E+03 -0.15011108317E+03  0.56567964097E+03  0.25500000920E-02 0. -1.
       -2    1    3    3    0  502 -0.22344175964E+03  0.49752778712E+03  0.63739621390E+03  0.83888858164E+03  0.25500000920E-02 0.  1.
</event>
<event>
 5   0  0.4310348E-04  0.1401609E+04  0.7818609E-02  0.8952654E-01
       -2   -1    0    0    0  501  0.00000000000E+00  0.00000000000E+00  0.35501665886E+03  0.35501665887E+03  0.25500000920E-02 0. -1.
        2   -1    0    0  501    0  0.00000000000E+00  0.00000000000E+00 -0.13833919806E+04  0.13833919806E+04  0.25500000920E-02 0.  1.
    10030    2    1    2    0    0  0.00000000000E+00  0.00000000000E+00 -0.10283753217E+04  0.17384086394E+04  0.14016093591E+04 0.  0.
        1    1    3    3  502    0  0.54022994311E+03 -0.19715970469E+03 -0.10109359148E+04  0.11630613760E+04  0.50400001928E-02 0.  1.
       -1    1    3    3    0  502 -0.54022994311E+03  0.19715970469E+03 -0.17439406931E+02  0.57534726342E+03  0.50400001928E-02 0. -1.
</event>
<event>
 5   0  0.2217251E-04  0.1410775E+04  0.7818609E-02  0.8946055E-01
       -1   -1    0    0    0  501  0.00000000000E+00  0.00000000000E+00  0.94981258294E+03  0.94981258295E+03  0.50400001928E-02 0.  1.
        1   -1    0    0  501    0  0.00000000000E+00  0.00000000000E+00 -0.52386319170E+03  0.52386319172E+03  0.50400001928E-02 0. -1.
    10030    2    1    2    0    0  0.00000000000E+00  0.00000000000E+00  0.42594939124E+03  0.14736757747E+04  0.14107754623E+04 0.  0.
        5    1    3    3  502    0 -0.67000217649E+03 -0.21096860203E+03  0.28017893594E+03  0.75626251638E+03  0.46999998093E+01 0. -1.
       -5    1    3    3    0  502  0.67000217649E+03  0.21096860203E+03  0.14577045530E+03  0.71741325829E+03  0.46999998093E+01 0.  1.
</event>
<event>
 5   0  0.2217251E-04  0.1396063E+04  0.7818609E-02  0.8956673E-01
       -1   -1    0    0    0  501  0.00000000000E+00  0.00000000000E+00  0.43200182638E+03  0.43200182641E+03  0.50400001928E-02 0. -1.
        1   -1    0    0  501    0  0.00000000000E+00  0.00000000000E+00 -0.11278838416E+04  0.11278838416E+04  0.50400001928E-02 0.  1.
    10030    2    1    2    0    0  0.00000000000E+00  0.00000000000E+00 -0.69588201518E+03  0.15598856680E+04  0.13960628632E+04 0.  0.
        5    1    3    3  502    0 -0.25273561557E+03 -0.46137370266E+03  0.16468208652E+03  0.55125607888E+03  0.46999998093E+01 0. -1.
       -5    1    3    3    0  502  0.25273561557E+03  0.46137370266E+03 -0.86056410170E+03  0.10086295891E+04  0.46999998093E+01 0.  1.
</event>
<event>
 5   0  0.2217251E-04  0.1397126E+04  0.7818609E-02  0.8955902E-01
       -1   -1    0    0    0  501  0.00000000000E+00  0.00000000000E+00  0.25109979956E+03  0.25109979961E+03  0.50400001928E-02 0.  1.
        1   -1    0    0  501    0  0.00000000000E+00  0.00000000000E+00 -0.19434115298E+04  0.19434115299E+04  0.50400001928E-02 0. -1.
    10030    2    1    2    0    0  0.00000000000E+00  0.00000000000E+00 -0.16923117303E+04  0.21945113295E+04  0.13971259724E+04 0.  0.
        5    1    3    3  502    0  0.61929976722E+03  0.29750355809E+03 -0.10443894583E+04  0.12501247935E+04  0.46999998093E+01 0. -1.
       -5    1    3    3    0  502 -0.61929976722E+03 -0.29750355809E+03 -0.64792227202E+03  0.94438653598E+03  0.46999998093E+01 0.  1.
</event>
<event>
 5   0  0.2155352E-04  0.1402593E+04  0.7818609E-02  0.8951944E-01
        1   -1    0    0  501    0  0.00000000000E+00  0.00000000000E+00  0.69853617100E+03  0.69853617102E+03  0.50400001928E-02 0. -1.
       -1   -1    0    0    0  501  0.00000000000E+00  0.00000000000E+00 -0.70406801105E+03  0.70406801107E+03  0.50400001928E-02 0.  1.
    10030    2    1    2    0    0  0.00000000000E+00  0.00000000000E+00 -0.55318400518E+01  0.14026041821E+04  0.14025932733E+04 0.  0.
        2    1    3    3  502    0 -0.28876082843E+02 -0.13470303999E+03  0.68487176840E+03  0.69859006312E+03  0.25500000920E-02 0. -1.
       -2    1    3    3    0  502  0.28876082843E+02  0.13470303999E+03 -0.69040360845E+03  0.70401411897E+03  0.25500000920E-02 0.  1.
</event>
<event>
 5   0  0.3917598E-04  0.1404541E+04  0.7818609E-02  0.8950538E-01
        2   -1    0    0  501    0  0.00000000000E+00  0.00000000000E+00  0.12677707656E+04  0.12677707656E+04  0.25500000920E-02 0. -1.
       -2   -1    0    0    0  501  0.00000000000E+00  0.00000000000E+00 -0.38901651523E+03  0.38901651524E+03  0.25500000920E-02 0.  1.
    10030    2    1    2    0    0  0.00000000000E+00  0.00000000000E+00  0.87875425038E+03  0.16567872808E+04  0.14045408721E+04 0.  0.
        3    1    3    3  502    0  0.33647477752E+03 -0.39642383019E+03  0.99618602348E+03  0.11237231566E+04  0.10100000352E+00 0. -1.
       -3    1    3    3    0  502 -0.33647477752E+03  0.39642383019E+03 -0.11743177310E+03  0.53306412427E+03  0.10100000352E+00 0.  1.
</event>
<event>
 5   0  0.3975164E-04  0.1400751E+04  0.7818609E-02  0.8953275E-01
        2   -1    0    0  501    0  0.00000000000E+00  0.00000000000E+00  0.80801098621E+03  0.80801098622E+03  0.25500000920E-02 0. -1.
       -2   -1    0    0    0  501  0.00000000000E+00  0.00000000000E+00 -0.60707778340E+03  0.60707778341E+03  0.25500000920E-02 0.  1.
    10030    2    1    2    0    0  0.00000000000E+00  0.00000000000E+00  0.20093320281E+03  0.14150887696E+04  0.14007505395E+04 0.  0.
        5    1    3    3  502    0  0.43816235527E+03 -0.38325787215E+03  0.49385023490E+03  0.76340224695E+03  0.46999998093E+01 0. -1.
       -5    1    3    3    0  502 -0.43816235527E+03  0.38325787215E+03 -0.29291703209E+03  0.65168652267E+03  0.46999998093E+01 0.  1.
</event>
<event>
 5   0  0.3932568E-04  0.1392774E+04  0.7818609E-02  0.8959065E-01
        2   -1    0    0  501    0  0.00000000000E+00  0.00000000000E+00  0.15857093031E+04  0.15857093031E+04  0.25500000920E-02 0. -1.
       -2   -1    0    0    0  501  0.00000000000E+00  0.00000000000E+00 -0.30582852512E+03  0.30582852513E+03  0.25500000920E-02 0.  1.
    10030    2    1    2    0    0  0.00000000000E+00  0.00000000000E+00  0.12798807780E+04  0.18915378282E+04  0.13927744073E+04 0.  0.
        2    1    3    3  502    0 -0.31362420001E+02  0.44924289529E+03  0.13613403167E+04  0.14338933846E+04  0.25500000920E-02 0. -1.
       -2    1    3    3    0  502  0.31362420001E+02 -0.44924289529E+03 -0.81459538744E+02  0.45764444366E+03  0.25500000920E-02 0.  1.
</event>
<event>
 5   0  0.2143942E-04  0.1406932E+04  0.7818609E-02  0.8948816E-01
        1   -1    0    0  501    0  0.00000000000E+00  0.00000000000E+00  0.13982092491E+04  0.13982092491E+04  0.50400001928E-02 0. -1.
       -1   -1    0    0    0  501  0.00000000000E+00  0.00000000000E+00 -0.35392723981E+03  0.35392723985E+03  0.50400001928E-02 0.  1.
    10030    2    1    2    0    0  0.00000000000E+00  0.00000000000E+00  0.10442820093E+04  0.17521364890E+04  0.14069318964E+04 0.  0.
        4    1    3    3  502    0 -0.61432586638E+03  0.46120413480E+02  0.94508575226E+03  0.11281454049E+04  0.12699999809E+01 0. -1.
       -4    1    3    3    0  502  0.61432586638E+03 -0.46120413480E+02  0.99196257048E+02  0.62399108404E+03  0.12699999809E+01 0.  1.
</event>
<event>
 5   0  0.4310348E-04  0.1395290E+04  0.7818609E-02  0.8957235E-01
        2   -1    0    0  501    0  0.00000000000E+00  0.00000000000E+00  0.23588807077E+04  0.23588807077E+04  0.25500000920E-02 0.  1.
       -2   -1    0    0    0  501  0.00000000000E+00  0.00000000000E+00 -0.20633033778E+03  0.20633033780E+03  0.25500000920E-02 0. -1.
    10030    2    1    2    0    0  0.00000000000E+00  0.00000000000E+00  0.21525503699E+04  0.25652110455E+04  0.13952901537E+04 0.  0.
        1    1    3    3  502    0 -0.36984316859E+03 -0.49682640146E+03  0.16665619862E+04  0.17779339966E+04  0.50400001928E-02 0.  1.
       -1    1    3    3    0  502  0.36984316859E+03  0.49682640146E+03  0.48598838375E+03  0.78727704889E+03  0.50400001928E-02 0. -1.
</event>
<event>
 5   0  0.2155352E-04  0.1393241E+04  0.7818609E-02  0.8958726E-01
        1   -1    0    0  501    0  0.00000000000E+00  0.00000000000E+00  0.89026090558E+03  0.89026090560E+03  0.50400001928E-02 0.  1.
       -1   -1    0    0    0  501  0.00000000000E+00  0.00000000000E+00 -0.54509862411E+03  0.54509862413E+03  0.50400001928E-02 0. -1.
    10030    2    1    2    0    0  0.00000000000E+00  0.00000000000E+00  0.34516228148E+03  0.14353595297E+04  0.13932408187E+04 0.  0.
        2    1    3    3  502    0 -0.39305561294E+03  0.56411913540E+03  0.28802621192E+03  0.74544095175E+03  0.25500000920E-02 0.  1.
       -2    1    3    3    0  502  0.39305561294E+03 -0.56411913540E+03  0.57136069561E+02  0.68991857798E+03  0.25500000920E-02 0. -1.
</event>
<event>
 5   0  0.2223112E-04  0.1397035E+04  0.7818609E-02  0.8955968E-01
        1   -1    0    0  501    0  0.00000000000E+00  0.00000000000E+00  0.14538866165E+04  0.14538866165E+04  0.50400001928E-02 0. -1.
       -1   -1    0    0    0  501  0.00000000000E+00  0.00000000000E+00 -0.33560144854E+03  0.33560144857E+03  0.50400001928E-02 0.  1.
    10030    2    1    2    0    0  0.00000000000E+00  0.00000000000E+00  0.11182851679E+04  0.17894880651E+04  0.13970346517E+04 0.  0.
        1    1    3    3  502    0 -0.58147066902E+03  0.33781257763E+03  0.80116839515E+03  0.10459905707E+04  0.50400001928E-02 0. -1.
       -1    1    3    3    0  502  0.58147066902E+03 -0.33781257763E+03  0.31711677279E+03  0.74349749438E+03  0.50400001928E-02 0.  1.
</event>
<event>
 5   0  0.2215876E-04  0.1321700E+04  0.7818609E-02  0.9012531E-01
       -1   -1    0    0    0  501  0.00000000000E+00  0.00000000000E+00  0.94822135274E+03  0.94822135276E+03  0.50400001928E-02 0.  1.
        1   -1    0    0  501    0  0.00000000000E+00  0.00000000000E+00 -0.46057061235E+03  0.46057061237E+03  0.50400001928E-02 0. -1.
    10030    2    1    2    0    0  0.00000000000E+00  0.00000000000E+00  0.48765074040E+03  0.14087919651E+04  0.13217002521E+04 0.  0.
        3    1    3    3  502    0 -0.13802758302E+03 -0.57587106133E+03  0.55648632426E+03  0.81262299515E+03  0.10100000352E+00 0.  1.
       -3    1    3    3    0  502  0.13802758302E+03  0.57587106133E+03 -0.68835583867E+02  0.59616896998E+03  0.10100000352E+00 0. -1.
</event>
<event>
 5   0  0.2155352E-04  0.1394534E+04  0.7818609E-02  0.8957784E-01
        1   -1    0    0  501    0  0.00000000000E+00  0.00000000000E+00  0.68699084685E+03  0.68699084687E+03  0.50400001928E-02 0.  1.
       -1   -1    0    0    0  501  0.00000000000E+00  0.00000000000E+00 -0.70769731876E+03  0.70769731878E+03  0.50400001928E-02 0. -1.
    10030    2    1    2    0    0  0.00000000000E+00  0.00000000000E+00 -0.20706471916E+02  0.13946881656E+04  0.13945344461E+04 0.  0.
        2    1    3    3  502    0 -0.62845428389E+03 -0.30001336682E+03  0.24561543694E+02  0.69682571469E+03  0.25500000920E-02 0. -1.
       -2    1    3    3    0  502  0.62845428389E+03  0.30001336682E+03 -0.45268015611E+02  0.69786245096E+03  0.25500000920E-02 0.  1.
</event>
<event>
 5   0  0.2215876E-04  0.1397058E+04  0.7818609E-02  0.8955951E-01
        1   -1    0    0  501    0  0.00000000000E+00  0.00000000000E+00  0.87508882759E+03  0.87508882760E+03  0.50400001928E-02 0.  1.
       -1   -1    0    0    0  501  0.00000000000E+00  0.00000000000E+00 -0.55759206327E+03  0.55759206329E+03  0.50400001928E-02 0. -1.
    10030    2    1    2    0    0  0.00000000000E+00  0.00000000000E+00  0.31749676432E+03  0.14326808909E+04  0.13970577439E+04 0.  0.
        3    1    3    3  502    0 -0.43804790194E+03 -0.44666261976E+03  0.47739496007E+03  0.78695579189E+03  0.10100000352E+00 0.  1.
       -3    1    3    3    0  502  0.43804790194E+03  0.44666261976E+03 -0.15989819575E+03  0.64572509901E+03  0.10100000352E+00 0. -1.
</event>
<event>
 5   0  0.2223112E-04  0.1388156E+04  0.7818609E-02  0.8962437E-01
       -1   -1    0    0    0  501  0.00000000000E+00  0.00000000000E+00  0.37483667331E+03  0.37483667335E+03  0.50400001928E-02 0. -1.
        1   -1    0    0  501    0  0.00000000000E+00  0.00000000000E+00 -0.12852116593E+04  0.12852116593E+04  0.50400001928E-02 0.  1.
    10030    2    1    2    0    0  0.00000000000E+00  0.00000000000E+00 -0.91037498594E+03  0.16600483326E+04  0.13881562778E+04 0.  0.
        1    1    3    3  502    0 -0.53598270152E+03 -0.14784392895E+03 -0.95202493255E+03  0.11024911591E+04  0.50400001928E-02 0.  1.
       -1    1    3    3    0  502  0.53598270152E+03  0.14784392895E+03  0.41649946608E+02  0.55755717352E+03  0.50400001928E-02 0. -1.
</event>
<event>
 5   0  0.2155352E-04  0.1389573E+04  0.7818609E-02  0.8961401E-01
       -1   -1    0    0    0  501  0.00000000000E+00  0.00000000000E+00  0.46023347333E+03  0.46023347335E+03  0.50400001928E-02 0. -1.
        1   -1    0    0  501    0  0.00000000000E+00  0.00000000000E+00 -0.10488772710E+04  0.10488772710E+04  0.50400001928E-02 0.  1.
    10030    2    1    2    0    0  0.00000000000E+00  0.00000000000E+00 -0.58864379763E+03  0.15091107443E+04  0.13895732144E+04 0.  0.
        2    1    3    3  502    0  0.12940131551E+03  0.49858163442E+03 -0.80069371995E+03  0.95207078509E+03  0.25500000920E-02 0.  1.
       -2    1    3    3    0  502 -0.12940131551E+03 -0.49858163442E+03  0.21204992232E+03  0.55703995924E+03  0.25500000920E-02 0. -1.
</event>
<event>
 5   0  0.3932568E-04  0.1400898E+04  0.7818609E-02  0.8953169E-01
        2   -1    0    0  501    0  0.00000000000E+00  0.00000000000E+00  0.11835436937E+04  0.11835436937E+04  0.25500000920E-02 0. -1.
       -2   -1    0    0    0  501  0.00000000000E+00  0.00000000000E+00 -0.41454205730E+03  0.41454205731E+03  0.25500000920E-02 0.  1.
    10030    2    1    2    0    0  0.00000000000E+00  0.00000000000E+00  0.76900163643E+03  0.15980857510E+04  0.14008977660E+04 0.  0.
        2    1    3    3  502    0 -0.28987191367E+03 -0.62783673991E+03  0.51165284828E+03  0.86022865302E+03  0.25500000920E-02 0. -1.
       -2    1    3    3    0  502  0.28987191367E+03  0.62783673991E+03  0.25734878815E+03  0.73785709802E+03  0.25500000920E-02 0.  1.
</event>
<event>
 5   0  0.2155352E-04  0.1397477E+04  0.7818609E-02  0.8955647E-01
       -1   -1    0    0    0  501  0.00000000000E+00  0.00000000000E+00  0.42591961875E+03  0.42591961878E+03  0.50400001928E-02 0.  1.
        1   -1    0    0  501    0  0.00000000000E+00  0.00000000000E+00 -0.11463087126E+04  0.11463087126E+04  0.50400001928E-02 0. -1.
    10030    2    1    2    0    0  0.00000000000E+00  0.00000000000E+00 -0.72038909382E+03  0.15722283314E+04  0.13974768261E+04 0.  0.
        2    1    3    3  502    0  0.39440530520E+03  0.42604145244E+03  0.77228502037E+02  0.58568857382E+03  0.25500000920E-02 0.  1.
       -2    1    3    3    0  502 -0.39440530520E+03 -0.42604145244E+03 -0.79761759586E+03  0.98653975753E+03  0.25500000920E-02 0. -1.
</event>
<event>
 5   0  0.2217251E-04  0.1408318E+04  0.7818609E-02  0.8947819E-01
        1   -1    0    0  501    0  0.00000000000E+00  0.00000000000E+00  0.12406419087E+04  0.12406419087E+04  0.50400001928E-02 0.  1.
       -1   -1    0    0    0  501  0.00000000000E+00  0.00000000000E+00 -0.39966405265E+03  0.39966405268E+03  0.50400001928E-02 0. -1.
    10030    2    1    2    0    0  0.00000000000E+00  0.00000000000E+00  0.84097785601E+03  0.16403059613E+04  0.14083181077E+04 0.  0.
        5    1    3    3  502    0  0.92417423374E+02  0.53084581664E+03  0.94845799545E+03  0.10908404651E+04  0.46999998093E+01 0.  1.
       -5    1    3    3    0  502 -0.92417423374E+02 -0.53084581664E+03 -0.10748013944E+03  0.54946549624E+03  0.46999998093E+01 0. -1.
</event>
<event>
 5   0  0.1497625E-04  0.1403652E+04  0.7818609E-02  0.8951179E-01
       -3   -1    0    0    0  501  0.00000000000E+00  0.00000000000E+00  0.66642471946E+03  0.66642472712E+03  0.10100000352E+00 0.  1.
        3   -1    0    0  501    0  0.00000000000E+00  0.00000000000E+00 -0.73910767837E+03  0.73910768527E+03  0.10100000352E+00 0. -1.
    10030    2    1    2    0    0  0.00000000000E+00  0.00000000000E+00 -0.72682958903E+02  0.14055324124E+04  0.14036518620E+04 0.  0.
        3    1    3    3  502    0  0.33737110940E+03 -0.23997032954E+03  0.53112280709E+03  0.67342146604E+03  0.10100000352E+00 0.  1.
       -3    1    3    3    0  502 -0.33737110940E+03  0.23997032954E+03 -0.60380576599E+03  0.73211094635E+03  0.10100000352E+00 0. -1.
</event>
<event>
 5   0  0.3917598E-04  0.1397555E+04  0.7818609E-02  0.8955590E-01
        2   -1    0    0  501    0  0.00000000000E+00  0.00000000000E+00  0.87012290631E+03  0.87012290631E+03  0.25500000920E-02 0.  1.
       -2   -1    0    0    0  501  0.00000000000E+00  0.00000000000E+00 -0.56117374210E+03  0.56117374211E+03  0.25500000920E-02 0. -1.
    10030    2    1    2    0    0  0.00000000000E+00  0.00000000000E+00  0.30894916421E+03  0.14312966484E+04  0.13975551902E+04 0.  0.
        3    1    3    3  502    0  0.95186086350E+02 -0.32621242350E+03 -0.47085285030E+03  0.58066974531E+03  0.10100000352E+00 0. -1.
       -3    1    3    3    0  502 -0.95186086350E+02  0.32621242350E+03  0.77980201451E+03  0.85062690312E+03  0.10100000352E+00 0.  1.
</event>
<event>
 5   0  0.3917598E-04  0.1404909E+04  0.7818609E-02  0.8950273E-01
       -2   -1    0    0    0  501  0.00000000000E+00  0.00000000000E+00  0.49661933588E+03  0.49661933589E+03  0.25500000920E-02 0.  1.
        2   -1    0    0  501    0  0.00000000000E+00  0.00000000000E+00 -0.99360203677E+03  0.99360203678E+03  0.25500000920E-02 0. -1.
    10030    2    1    2    0    0  0.00000000000E+00  0.00000000000E+00 -0.49698270089E+03  0.14902213727E+04  0.14049085147E+04 0.  0.
        3    1    3    3  502    0 -0.20464320059E+03  0.66911563396E+03 -0.31428538865E+03  0.76705272757E+03  0.10100000352E+00 0. -1.
       -3    1    3    3    0  502  0.20464320059E+03 -0.66911563396E+03 -0.18269731224E+03  0.72316864510E+03  0.10100000352E+00 0.  1.
</event>
<event>
 5   0  0.4208622E-04  0.1393142E+04  0.7818609E-02  0.8958798E-01
        2   -1    0    0  501    0  0.00000000000E+00  0.00000000000E+00  0.11148318481E+04  0.11148318481E+04  0.25500000920E-02 0.  1.
       -2   -1    0    0    0  501  0.00000000000E+00  0.00000000000E+00 -0.43523236429E+03  0.43523236429E+03  0.25500000920E-02 0. -1.
    10030    2    1    2    0    0  0.00000000000E+00  0.00000000000E+00  0.67959948377E+03  0.15500642123E+04  0.13931416310E+04 0.  0.
        4    1    3    3  502    0  0.84437594814E+02 -0.58795011675E+03 -0.65045431607E+02  0.59753457496E+03  0.12699999809E+01 0. -1.
       -4    1    3    3    0  502 -0.84437594814E+02  0.58795011675E+03  0.74464491537E+03  0.95252963738E+03  0.12699999809E+01 0.  1.
</event>
<event>
 5   0  0.3917598E-04  0.1401855E+04  0.7818609E-02  0.8952477E-01
        2   -1    0    0  501    0  0.00000000000E+00  0.00000000000E+00  0.80411544667E+03  0.80411544668E+03  0.25500000920E-02 0. -1.
       -2   -1    0    0    0  501  0.00000000000E+00  0.00000000000E+00 -0.61098117627E+03  0.61098117627E+03  0.25500000920E-02 0.  1.
    10030    2    1    2    0    0  0.00000000000E+00  0.00000000000E+00  0.19313427040E+03  0.14150966229E+04  0.14018550588E+04 0.  0.
        3    1    3    3  502    0  0.37823334989E+03  0.50724301384E+03  0.40098398833E+03  0.74909552873E+03  0.10100000352E+00 0. -1.
       -3    1    3    3    0  502 -0.37823334989E+03 -0.50724301384E+03 -0.20784971793E+03  0.66600109422E+03  0.10100000352E+00 0.  1.
</event>
<event>
 5   0  0.4310348E-04  0.1394944E+04  0.7818609E-02  0.8957487E-01
       -2   -1    0    0    0  501  0.00000000000E+00  0.00000000000E+00  0.15514639202E+04  0.15514639202E+04  0.25500000920E-02 0. -1.
        2   -1    0    0  501    0  0.00000000000E+00  0.00000000000E+00 -0.31355350864E+03  0.31355350865E+03  0.25500000920E-02 0.  1.
    10030    2    1    2    0    0  0.00000000000E+00  0.00000000000E+00  0.12379104116E+04  0.18650174288E+04  0.13949436630E+04 0.  0.
        1    1    3    3  502    0 -0.33342270148E+03  0.24232984224E+03  0.13712062912E+04  0.14318174267E+04  0.50400001928E-02 0. -1.
       -1    1    3    3    0  502  0.33342270148E+03 -0.24232984224E+03 -0.13329587966E+03  0.43320000215E+03  0.50400001928E-02 0.  1.
</event>
<event>
 5   0  0.3975164E-04  0.1399882E+04  0.7818609E-02  0.8953904E-01
       -2   -1    0    0    0  501  0.00000000000E+00  0.00000000000E+00  0.76654705491E+03  0.76654705491E+03  0.25500000920E-02 0. -1.
        2   -1    0    0  501    0  0.00000000000E+00  0.00000000000E+00 -0.63912232543E+03  0.63912232544E+03  0.25500000920E-02 0.  1.
    10030    2    1    2    0    0  0.00000000000E+00  0.00000000000E+00  0.12742472947E+03  0.14056693803E+04  0.13998819040E+04 0.  0.
        5    1    3    3  502    0 -0.64911737083E+03 -0.25407922908E+03  0.31951088632E+00  0.69708809189E+03  0.46999998093E+01 0.  1.
       -5    1    3    3    0  502  0.64911737083E+03  0.25407922908E+03  0.12710521859E+03  0.70858128846E+03  0.46999998093E+01 0. -1.
</event>
<event>
 5   0  0.3975164E-04  0.1403226E+04  0.7818609E-02  0.8951487E-01
        2   -1    0    0  501    0  0.00000000000E+00  0.00000000000E+00  0.78780082802E+03  0.78780082802E+03  0.25500000920E-02 0. -1.
       -2   -1    0    0    0  501  0.00000000000E+00  0.00000000000E+00 -0.62485395595E+03  0.62485395595E+03  0.25500000920E-02 0.  1.
    10030    2    1    2    0    0  0.00000000000E+00  0.00000000000E+00  0.16294687207E+03  0.14126547840E+04  0.14032255184E+04 0.  0.
        5    1    3    3  502    0 -0.46197768827E+03 -0.26091443216E+03 -0.38067412549E+03  0.65301960551E+03  0.46999998093E+01 0.  1.
       -5    1    3    3    0  502  0.46197768827E+03  0.26091443216E+03  0.54362099756E+03  0.75963517846E+03  0.46999998093E+01 0. -1.
</event>
<event>
 5   0  0.2215876E-04  0.1401110E+04  0.7818609E-02  0.8953015E-01
        1   -1    0    0  501    0  0.00000000000E+00  0.00000000000E+00  0.63462256866E+03  0.63462256868E+03  0.50400001928E-02 0. -1.
       -1   -1    0    0    0  501  0.00000000000E+00  0.00000000000E+00 -0.77333738029E+03  0.77333738030E+03  0.50400001928E-02 0.  1.
    10030    2    1    2    0    0  0.00000000000E+00  0.00000000000E+00 -0.13871481163E+03  0.14079599490E+04  0.14011100667E+04 0.  0.
        3    1    3    3  502    0 -0.66423706221E+02  0.36540248685E+03 -0.66627008759E+03  0.76278891311E+03  0.10100000352E+00 0.  1.
       -3    1    3    3    0  502  0.66423706221E+02 -0.36540248685E+03  0.52755527596E+03  0.64517103588E+03  0.10100000352E+00 0. -1.
</event>
<event>
 5   0  0.2223112E-04  0.1395784E+04  0.7818609E-02  0.8956876E-01
       -1   -1    0    0    0  501  0.00000000000E+00  0.00000000000E+00  0.30957040642E+03  0.30957040647E+03  0.50400001928E-02 0. -1.
        1   -1    0    0  501    0  0.00000000000E+00  0.00000000000E+00 -0.15733186683E+04  0.15733186683E+04  0.50400001928E-02 0.  1.
    10030    2    1    2    0    0  0.00000000000E+00  0.00000000000E+00 -0.12637482619E+04  0.18828890748E+04  0.13957835070E+04 0.  0.
        1    1    3    3  502    0  0.49396175767E+03  0.66420063311E+01 -0.12968704649E+04  0.13877735179E+04  0.50400001928E-02 0.  1.
       -1    1    3    3    0  502 -0.49396175767E+03 -0.66420063311E+01  0.33122203008E+02  0.49511555687E+03  0.50400001928E-02 0. -1.
</event>
<event>
 5   0  0.2215876E-04  0.1448819E+04  0.7818609E-02  0.8919219E-01
       -1   -1    0    0    0  501  0.00000000000E+00  0.00000000000E+00  0.11507357646E+04  0.11507357646E+04  0.50400001928E-02 0. -1.
        1   -1    0    0  501    0  0.00000000000E+00  0.00000000000E+00 -0.45602944018E+03  0.45602944021E+03  0.50400001928E-02 0.  1.
    10030    2    1    2    0    0  0.00000000000E+00  0.00000000000E+00  0.69470632438E+03  0.16067652048E+04  0.14488193628E+04 0.  0.
        3    1    3    3  502    0  0.69979858677E+03  0.18313994239E+03  0.30424283685E+03  0.78474327937E+03  0.10100000352E+00 0. -1.
       -3    1    3    3    0  502 -0.69979858677E+03 -0.18313994239E+03  0.39046348753E+03  0.82202192540E+03  0.10100000352E+00 0.  1.
</event>
<event>
 5   0  0.2223112E-04  0.1396392E+04  0.7818609E-02  0.8956434E-01
       -1   -1    0    0    0  501  0.00000000000E+00  0.00000000000E+00  0.82397387829E+03  0.82397387831E+03  0.50400001928E-02 0.  1.
        1   -1    0    0  501    0  0.00000000000E+00  0.00000000000E+00 -0.59161780234E+03  0.59161780236E+03  0.50400001928E-02 0. -1.
    10030    2    1    2    0    0  0.00000000000E+00  0.00000000000E+00  0.23235607595E+03  0.14155916807E+04  0.13963919437E+04 0.  0.
        1    1    3    3  502    0  0.12862452516E+03  0.14682374678E+03 -0.56339426301E+03  0.59625043120E+03  0.50400001928E-02 0. -1.
       -1    1    3    3    0  502 -0.12862452516E+03 -0.14682374678E+03  0.79575033896E+03  0.81934124947E+03  0.50400001928E-02 0.  1.
</event>
<event>
 5   0  0.2143942E-04  0.1398785E+04  0.7818609E-02  0.8954699E-01
        1   -1    0    0  501    0  0.00000000000E+00  0.00000000000E+00  0.59983543830E+03  0.59983543832E+03  0.50400001928E-02 0. -1.
       -1   -1    0    0    0  501  0.00000000000E+00  0.00000000000E+00 -0.81547297351E+03  0.81547297352E+03  0.50400001928E-02 0.  1.
    10030    2    1    2    0    0  0.00000000000E+00  0.00000000000E+00 -0.21563753521E+03  0.14153084118E+04  0.13987845989E+04 0.  0.
        4    1    3    3  502    0  0.49250381677E+03  0.41986554160E+03  0.16045651868E+03  0.66677956616E+03  0.12699999809E+01 0. -1.
       -4    1    3    3    0  502 -0.49250381677E+03 -0.41986554160E+03 -0.37609405389E+03  0.74852884569E+03  0.12699999809E+01 0.  1.
</event>
<event>
 5   0  0.4208622E-04  0.1395713E+04  0.7818609E-02  0.8956928E-01
        2   -1    0    0  501    0  0.00000000000E+00  0.00000000000E+00  0.17566610698E+04  0.17566610698E+04  0.25500000920E-02 0.  1.
       -2   -1    0    0    0  501  0.00000000000E+00  0.00000000000E+00 -0.27723239306E+03  0.27723239307E+03  0.25500000920E-02 0. -1.
    10030    2    1    2    0    0  0.00000000000E+00  0.00000000000E+00  0.14794286767E+04  0.20338934628E+04  0.13957125093E+04 0.  0.
        4    1    3    3  502    0 -0.18478527946E+03  0.59355609257E+03  0.12017946306E+04  0.13530581590E+04  0.12699999809E+01 0.  1.
       -4    1    3    3    0  502  0.18478527946E+03 -0.59355609257E+03  0.27763404611E+03  0.68083530387E+03  0.12699999809E+01 0. -1.
</event>
<event>
 5   0  0.3975164E-04  0.1450481E+04  0.7818609E-02  0.8918067E-01
        2   -1    0    0  501    0  0.00000000000E+00  0.00000000000E+00  0.79507367827E+03  0.79507367827E+03  0.25500000920E-02 0.  1.
       -2   -1    0    0    0  501  0.00000000000E+00  0.00000000000E+00 -0.66154082075E+03  0.66154082076E+03  0.25500000920E-02 0. -1.
    10030    2    1    2    0    0  0.00000000000E+00  0.00000000000E+00  0.13353285752E+03  0.14566144990E+04  0.14504808771E+04 0.  0.
        5    1    3    3  502    0 -0.26217786336E+03 -0.34327840774E+03 -0.51825543997E+03  0.67467628409E+03  0.46999998093E+01 0. -1.
       -5    1    3    3    0  502  0.26217786336E+03  0.34327840774E+03  0.65178829749E+03  0.78193821494E+03  0.46999998093E+01 0.  1.
</event>
<event>
 5   0  0.2223112E-04  0.1401147E+04  0.7818609E-02  0.8952989E-01
       -1   -1    0    0    0  501  0.00000000000E+00  0.00000000000E+00  0.15297757713E+04  0.15297757713E+04  0.50400001928E-02 0. -1.
        1   -1    0    0  501    0  0.00000000000E+00  0.00000000000E+00 -0.32083329377E+03  0.32083329381E+03  0.50400001928E-02 0.  1.
    10030    2    1    2    0    0  0.00000000000E+00  0.00000000000E+00  0.12089424775E+04  0.18506090651E+04  0.14011466725E+04 0.  0.
        1    1    3    3  502    0 -0.31733176209E+03 -0.60582386827E+03  0.80513009332E+03  0.10563884105E+04  0.50400001928E-02 0. -1.
       -1    1    3    3    0  502  0.31733176209E+03  0.60582386827E+03  0.40381238422E+03  0.79422065465E+03  0.50400001928E-02 0.  1.
</event>
<event>
 5   0  0.3917598E-04  0.1410607E+04  0.7818609E-02  0.8946176E-01
        2   -1    0    0  501    0  0.00000000000E+00  0.00000000000E+00  0.54186535184E+03  0.54186535185E+03  0.25500000920E-02 0. -1.
       -2   -1    0    0    0  501  0.00000000000E+00  0.00000000000E+00 -0.91803783999E+03  0.91803783999E+03  0.25500000920E-02 0.  1.
    10030    2    1    2    0    0  0.00000000000E+00  0.00000000000E+00 -0.37617248815E+03  0.14599031918E+04  0.14106068158E+04 0.  0.
        3    1    3    3  502    0  0.37965536591E+03  0.26105178725E+02 -0.80266803018E+03  0.88831056174E+03  0.10100000352E+00 0.  1.
       -3    1    3    3    0  502 -0.37965536591E+03 -0.26105178725E+02  0.42649554203E+03  0.57159263011E+03  0.10100000352E+00 0. -1.
</event>
<event>
 5   0  0.4310348E-04  0.1425509E+04  0.7818609E-02  0.8935558E-01
        2   -1    0    0  501    0  0.00000000000E+00  0.00000000000E+00  0.78294238722E+03  0.78294238723E+03  0.25500000920E-02 0.  1.
       -2   -1    0    0    0  501  0.00000000000E+00  0.00000000000E+00 -0.64885893478E+03  0.64885893478E+03  0.25500000920E-02 0. -1.
    10030    2    1    2    0    0  0.00000000000E+00  0.00000000000E+00  0.13408345244E+03  0.14318013220E+04  0.14255092611E+04 0.  0.
        1    1    3    3  502    0 -0.48111767904E+03 -0.29398388357E+02  0.59441228288E+03  0.76528716727E+03  0.50400001928E-02 0. -1.
       -1    1    3    3    0  502  0.48111767904E+03  0.29398388357E+02 -0.46032883043E+03  0.66651415474E+03  0.50400001928E-02 0.  1.
</event>
<event>
 5   0  0.3932568E-04  0.1405357E+04  0.7818609E-02  0.8949950E-01
        2   -1    0    0  501    0  0.00000000000E+00  0.00000000000E+00  0.18085468505E+04  0.18085468505E+04  0.25500000920E-02 0.  1.
       -2   -1    0    0    0  501  0.00000000000E+00  0.00000000000E+00 -0.27301300395E+03  0.27301300396E+03  0.25500000920E-02 0. -1.
    10030    2    1    2    0    0  0.00000000000E+00  0.00000000000E+00  0.15355338465E+04  0.20815598544E+04  0.14053566216E+04 0.  0.
        2    1    3    3  502    0  0.34165784912E+03 -0.58186683529E+03  0.47730175459E+03  0.82650835737E+03  0.25500000920E-02 0. -1.
       -2    1    3    3    0  502 -0.34165784912E+03  0.58186683529E+03  0.10582320919E+04  0.12550514970E+04  0.25500000920E-02 0.  1.
</event>
<event>
 5   0  0.2155352E-04  0.1405644E+04  0.7818609E-02  0.8949743E-01
        1   -1    0    0  501    0  0.00000000000E+00  0.00000000000E+00  0.67015240004E+03  0.67015240006E+03  0.50400001928E-02 0.  1.
       -1   -1    0    0    0  501  0.00000000000E+00  0.00000000000E+00 -0.73708426760E+03  0.73708426762E+03  0.50400001928E-02 0. -1.
    10030    2    1    2    0    0  0.00000000000E+00  0.00000000000E+00 -0.66931867560E+02  0.14072366677E+04  0.14056440389E+04 0.  0.
        2    1    3    3  502    0 -0.29659983011E+03  0.26700969782E+03  0.54571626004E+03  0.67607090932E+03  0.25500000920E-02 0.  1.
       -2    1    3    3    0  502  0.29659983011E+03 -0.26700969782E+03 -0.61264812760E+03  0.73116575837E+03  0.25500000920E-02 0. -1.
</event>
<event>
 5   0  0.2143942E-04  0.1398720E+04  0.7818609E-02  0.8954745E-01
        1   -1    0    0  501    0  0.00000000000E+00  0.00000000000E+00  0.12901301969E+04  0.12901301969E+04  0.50400001928E-02 0.  1.
       -1   -1    0    0    0  501  0.00000000000E+00  0.00000000000E+00 -0.37911254027E+03  0.37911254031E+03  0.50400001928E-02 0. -1.
    10030    2    1    2    0    0  0.00000000000E+00  0.00000000000E+00  0.91101765658E+03  0.16692427372E+04  0.13987201811E+04 0.  0.
        4    1    3    3  502    0 -0.43172229065E+03  0.31178176819E+03  0.99651983637E+03  0.11298873415E+04  0.12699999809E+01 0.  1.
       -4    1    3    3    0  502  0.43172229065E+03 -0.31178176819E+03 -0.85502179789E+02  0.53935539570E+03  0.12699999809E+01 0. -1.
</event>
<event>
 5   0  0.3975164E-04  0.1401881E+04  0.7818609E-02  0.8952458E-01
       -2   -1    0    0    0  501  0.00000000000E+00  0.00000000000E+00  0.36361485148E+03  0.36361485149E+03  0.25500000920E-02 0.  1.
        2   -1    0    0  501    0  0.00000000000E+00  0.00000000000E+00 -0.13512042396E+04  0.13512042396E+04  0.25500000920E-02 0. -1.
    10030    2    1    2    0    0  0.00000000000E+00  0.00000000000E+00 -0.98758938816E+03  0.17148190911E+04  0.14018814913E+04 0.  0.
        5    1    3    3  502    0  0.13158721239E+03 -0.49338087915E+02  0.34618584370E+03  0.37365247191E+03  0.46999998093E+01 0.  1.
       -5    1    3    3    0  502 -0.13158721239E+03  0.49338087915E+02 -0.13337752319E+04  0.13411666192E+04  0.46999998093E+01 0. -1.
</event>
<event>
 5   0  0.2155352E-04  0.1413884E+04  0.7818609E-02  0.8943829E-01
       -1   -1    0    0    0  501  0.00000000000E+00  0.00000000000E+00  0.88412940218E+03  0.88412940220E+03  0.50400001928E-02 0. -1.
        1   -1    0    0  501    0  0.00000000000E+00  0.00000000000E+00 -0.56526488268E+03  0.56526488270E+03  0.50400001928E-02 0.  1.
    10030    2    1    2    0    0  0.00000000000E+00  0.00000000000E+00  0.31886451950E+03  0.14493942849E+04  0.14138844406E+04 0.  0.
        2    1    3    3  502    0  0.62924274080E+03 -0.16412351672E+03 -0.12481192934E+03  0.66216385684E+03  0.25500000920E-02 0.  1.
       -2    1    3    3    0  502 -0.62924274080E+03  0.16412351672E+03  0.44367644884E+03  0.78723042806E+03  0.25500000920E-02 0. -1.
</event>
<event>
 5   0  0.2217251E-04  0.1423787E+04  0.7818609E-02  0.8936778E-01
       -1   -1    0    0    0  501  0.00000000000E+00  0.00000000000E+00  0.72433254761E+03  0.72433254763E+03  0.50400001928E-02 0.  1.
        1   -1    0    0  501    0  0.00000000000E+00  0.00000000000E+00 -0.69966846922E+03  0.69966846924E+03  0.50400001928E-02 0. -1.
    10030    2    1    2    0    0  0.00000000000E+00  0.00000000000E+00  0.24664078389E+02  0.14240010169E+04  0.14237874066E+04 0.  0.
        5    1    3    3  502    0  0.28924067218E+03  0.16416388993E+02  0.66269176839E+03  0.72326491285E+03  0.46999998093E+01 0.  1.
       -5    1    3    3    0  502 -0.28924067218E+03 -0.16416388993E+02 -0.63802769000E+03  0.70073610402E+03  0.46999998093E+01 0. -1.
</event>
<event>
 5   0  0.2143942E-04  0.1395747E+04  0.7818609E-02  0.8956903E-01
        1   -1    0    0  501    0  0.00000000000E+00  0.00000000000E+00  0.71871724491E+03  0.71871724493E+03  0.50400001928E-02 0.  1.
       -1   -1    0    0    0  501  0.00000000000E+00  0.00000000000E+00 -0.67763441561E+03  0.67763441563E+03  0.50400001928E-02 0. -1.
    10030    2    1    2    0    0  0.00000000000E+00  0.00000000000E+00  0.41082829303E+02  0.13963516606E+04  0.13957471695E+04 0.  0.
        4    1    3    3  502    0  0.95364882030E+02  0.20765649966E+03 -0.63914559797E+03  0.67876681628E+03  0.12699999809E+01 0. -1.
       -4    1    3    3    0  502 -0.95364882030E+02 -0.20765649966E+03  0.68022842727E+03  0.71758484428E+03  0.12699999809E+01 0.  1.
</event>
<event>
 5   0  0.2215876E-04  0.1406338E+04  0.7818609E-02  0.8949244E-01
        1   -1    0    0  501    0  0.00000000000E+00  0.00000000000E+00  0.12097550723E+04  0.12097550723E+04  0.50400001928E-02 0.  1.
       -1   -1    0    0    0  501  0.00000000000E+00  0.00000000000E+00 -0.40871632706E+03  0.40871632709E+03  0.50400001928E-02 0. -1.
    10030    2    1    2    0    0  0.00000000000E+00  0.00000000000E+00  0.80103874523E+03  0.16184713994E+04  0.14063380103E+04 0.  0.
        3    1    3    3  502    0  0.13565180927E+03 -0.64619103721E+01  0.11945191370E+04  0.12022142690E+04  0.10100000352E+00 0.  1.
       -3    1    3    3    0  502 -0.13565180927E+03  0.64619103721E+01 -0.39348039182E+03  0.41625713037E+03  0.10100000352E+00 0. -1.
</event>
<event>
 5   0  0.2217251E-04  0.1392290E+04  0.7818609E-02  0.8959418E-01
       -1   -1    0    0    0  501  0.00000000000E+00  0.00000000000E+00  0.10580463058E+04  0.10580463058E+04  0.50400001928E-02 0.  1.
        1   -1    0    0  501    0  0.00000000000E+00  0.00000000000E+00 -0.45803093090E+03  0.45803093093E+03  0.50400001928E-02 0. -1.
    10030    2    1    2    0    0  0.00000000000E+00  0.00000000000E+00  0.60001537486E+03  0.15160772367E+04  0.13922901054E+04 0.  0.
        5    1    3    3  502    0 -0.13427399440E+03  0.68262360702E+03  0.32648743727E+03  0.76851846505E+03  0.46999998093E+01 0. -1.
       -5    1    3    3    0  502  0.13427399440E+03 -0.68262360702E+03  0.27352793758E+03  0.74755877165E+03  0.46999998093E+01 0.  1.
</event>
<event>
 5   0  0.2223112E-04  0.1394128E+04  0.7818609E-02  0.8958080E-01
        1   -1    0    0  501    0  0.00000000000E+00  0.00000000000E+00  0.60475070711E+03  0.60475070713E+03  0.50400001928E-02 0. -1.
       -1   -1    0    0    0  501  0.00000000000E+00  0.00000000000E+00 -0.80346839811E+03  0.80346839813E+03  0.50400001928E-02 0.  1.
    10030    2    1    2    0    0  0.00000000000E+00  0.00000000000E+00 -0.19871769100E+03  0.14082191053E+04  0.13941278018E+04 0.  0.
        1    1    3    3  502    0  0.58706640808E+03  0.17338996522E+03 -0.43617639931E+03  0.75163880879E+03  0.50400001928E-02 0. -1.
       -1    1    3    3    0  502 -0.58706640808E+03 -0.17338996522E+03  0.23745870831E+03  0.65658029647E+03  0.50400001928E-02 0.  1.
</event>
<event>
 5   0  0.1497625E-04  0.1400581E+04  0.7818609E-02  0.8953398E-01
        3   -1    0    0  501    0  0.00000000000E+00  0.00000000000E+00  0.11648706154E+04  0.11648706198E+04  0.10100000352E+00 0.  1.
       -3   -1    0    0    0  501  0.00000000000E+00  0.00000000000E+00 -0.42099703181E+03  0.42099704393E+03  0.10100000352E+00 0. -1.
    10030    2    1    2    0    0  0.00000000000E+00  0.00000000000E+00  0.74387358359E+03  0.15858676637E+04  0.14005814287E+04 0.  0.
        3    1    3    3  502    0  0.95660637936E+02  0.17900099107E+03 -0.38696502080E+03  0.43696023844E+03  0.10100000352E+00 0. -1.
       -3    1    3    3    0  502 -0.95660637936E+02 -0.17900099107E+03  0.11308386044E+04  0.11489074253E+04  0.10100000352E+00 0.  1.
</event>
<event>
 5   0  0.4310348E-04  0.1414259E+04  0.7818609E-02  0.8943561E-01
        2   -1    0    0  501    0  0.00000000000E+00  0.00000000000E+00  0.13852840859E+04  0.13852840859E+04  0.25500000920E-02 0. -1.
       -2   -1    0    0    0  501  0.00000000000E+00  0.00000000000E+00 -0.36096019841E+03  0.36096019842E+03  0.25500000920E-02 0.  1.
    10030    2    1    2    0    0  0.00000000000E+00  0.00000000000E+00  0.10243238875E+04  0.17462442843E+04  0.14142594083E+04 0.  0.
        1    1    3    3  502    0 -0.51407293058E+03  0.24276616682E+03  0.10313790803E+04  0.11776880729E+04  0.50400001928E-02 0. -1.
       -1    1    3    3    0  502  0.51407293058E+03 -0.24276616682E+03 -0.70551928857E+01  0.56855621136E+03  0.50400001928E-02 0.  1.
</event>
<event>
 5   0  0.2223112E-04  0.1397452E+04  0.7818609E-02  0.8955665E-01
        1   -1    0    0  501    0  0.00000000000E+00  0.00000000000E+00  0.17801585110E+04  0.17801585110E+04  0.50400001928E-02 0. -1.
       -1   -1    0    0    0  501  0.00000000000E+00  0.00000000000E+00 -0.27425538831E+03  0.27425538836E+03  0.50400001928E-02 0.  1.
    10030    2    1    2    0    0  0.00000000000E+00  0.00000000000E+00  0.15059031227E+04  0.20544138994E+04  0.13974520582E+04 0.  0.
        1    1    3    3  502    0  0.25077530959E+03 -0.63509565733E+03  0.97092200458E+03  0.11869811662E+04  0.50400001928E-02 0.  1.
       -1    1    3    3    0  502 -0.25077530959E+03  0.63509565733E+03  0.53498111812E+03  0.86743273320E+03  0.50400001928E-02 0. -1.
</event>
<event>
 5   0  0.4310348E-04  0.1404073E+04  0.7818609E-02  0.8950875E-01
       -2   -1    0    0    0  501  0.00000000000E+00  0.00000000000E+00  0.37594260077E+03  0.37594260078E+03  0.25500000920E-02 0.  1.
        2   -1    0    0  501    0  0.00000000000E+00  0.00000000000E+00 -0.13109862501E+04  0.13109862501E+04  0.25500000920E-02 0. -1.
    10030    2    1    2    0    0  0.00000000000E+00  0.00000000000E+00 -0.93504364935E+03  0.16869288509E+04  0.14040734745E+04 0.  0.
        1    1    3    3  502    0 -0.42489001522E+03 -0.55619858160E+03 -0.40207631634E+03  0.80718879538E+03  0.50400001928E-02 0.  1.
       -1    1    3    3    0  502  0.42489001522E+03  0.55619858160E+03 -0.53296733301E+03  0.87974005552E+03  0.50400001928E-02 0. -1.
</event>
<event>
 5   0  0.3975164E-04  0.1405400E+04  0.7818609E-02  0.8949919E-01
       -2   -1    0    0    0  501  0.00000000000E+00  0.00000000000E+00  0.59021765956E+03  0.59021765956E+03  0.25500000920E-02 0.  1.
        2   -1    0    0  501    0  0.00000000000E+00  0.00000000000E+00 -0.83661897664E+03  0.83661897665E+03  0.25500000920E-02 0. -1.
    10030    2    1    2    0    0  0.00000000000E+00  0.00000000000E+00 -0.24640131709E+03  0.14268366362E+04  0.14054000062E+04 0.  0.
        5    1    3    3  502    0  0.43800818217E+03 -0.35677047246E+03  0.30105956711E+03  0.64015255261E+03  0.46999998093E+01 0.  1.
       -5    1    3    3    0  502 -0.43800818217E+03  0.35677047246E+03 -0.54746088420E+03  0.78668408360E+03  0.46999998093E+01 0. -1.
</event>
<event>
 5   0  0.2155352E-04  0.1407132E+04  0.7818609E-02  0.8948672E-01
       -1   -1    0    0    0  501  0.00000000000E+00  0.00000000000E+00  0.23895150226E+03  0.23895150232E+03  0.50400001928E-02 0.  1.
        1   -1    0    0  501    0  0.00000000000E+00  0.00000000000E+00 -0.20715710539E+04  0.20715710539E+04  0.50400001928E-02 0. -1.
    10030    2    1    2    0    0  0.00000000000E+00  0.00000000000E+00 -0.18326195516E+04  0.23105225562E+04  0.14071318566E+04 0.  0.
        2    1    3    3  502    0 -0.55661069226E+03  0.28041585442E+03 -0.14523105210E+04  0.15803969006E+04  0.25500000920E-02 0. -1.
       -2    1    3    3    0  502  0.55661069226E+03 -0.28041585442E+03 -0.38030903065E+03  0.73012565559E+03  0.25500000920E-02 0.  1.
</event>
<event>
 5   0  0.2223112E-04  0.1423652E+04  0.7818609E-02  0.8936874E-01
       -1   -1    0    0    0  501  0.00000000000E+00  0.00000000000E+00  0.86066782376E+03  0.86066782378E+03  0.50400001928E-02 0. -1.
        1   -1    0    0  501    0  0.00000000000E+00  0.00000000000E+00 -0.58872417949E+03  0.58872417951E+03  0.50400001928E-02 0.  1.
    10030    2    1    2    0    0  0.00000000000E+00  0.00000000000E+00  0.27194364427E+03  0.14493920033E+04  0.14236515843E+04 0.  0.
        1    1    3    3  502    0 -0.84655836514E+02 -0.13943588522E+03  0.84138263077E+03  0.85704941989E+03  0.50400001928E-02 0. -1.
       -1    1    3    3    0  502  0.84655836514E+02  0.13943588522E+03 -0.56943898650E+03  0.59234258340E+03  0.50400001928E-02 0.  1.
</event>
<event>
 5   0  0.3932568E-04  0.1400703E+04  0.7818609E-02  0.8953310E-01
        2   -1    0    0  501    0  0.00000000000E+00  0.00000000000E+00  0.61514980171E+03  0.61514980171E+03  0.25500000920E-02 0. -1.
       -2   -1    0    0    0  501  0.00000000000E+00  0.00000000000E+00 -0.79735409856E+03  0.79735409856E+03  0.25500000920E-02 0.  1.
    10030    2    1    2    0    0  0.00000000000E+00  0.00000000000E+00 -0.18220429685E+03  0.14125039003E+04  0.14007029887E+04 0.  0.
        2    1    3    3  502    0 -0.63900199376E+01 -0.56916968790E+03 -0.50258063355E+03  0.75933013848E+03  0.25500000920E-02 0. -1.
       -2    1    3    3    0  502  0.63900199376E+01  0.56916968790E+03  0.32037633670E+03  0.65317376180E+03  0.25500000920E-02 0.  1.
</event>
<event>
 5   0  0.2215876E-04  0.1403437E+04  0.7818609E-02  0.8951334E-01
        1   -1    0    0  501    0  0.00000000000E+00  0.00000000000E+00  0.58121205578E+03  0.58121205580E+03  0.50400001928E-02 0.  1.
       -1   -1    0    0    0  501  0.00000000000E+00  0.00000000000E+00 -0.84721062425E+03  0.84721062426E+03  0.50400001928E-02 0. -1.
    10030    2    1    2    0    0  0.00000000000E+00  0.00000000000E+00 -0.26599856846E+03  0.14284226801E+04  0.14034372499E+04 0.  0.
        3    1    3    3  502    0 -0.30142815832E+03 -0.42598049310E+03  0.34449105249E+03  0.62529385938E+03  0.10100000352E+00 0.  1.
       -3    1    3    3    0  502  0.30142815832E+03  0.42598049310E+03 -0.61048962095E+03  0.80312882069E+03  0.10100000352E+00 0. -1.
</event>
<event>
 5   0  0.2215876E-04  0.1387178E+04  0.7818609E-02  0.8963152E-01
       -1   -1    0    0    0  501  0.00000000000E+00  0.00000000000E+00  0.37499752588E+03  0.37499752591E+03  0.50400001928E-02 0. -1.
        1   -1    0    0  501    0  0.00000000000E+00  0.00000000000E+00 -0.12828509027E+04  0.12828509027E+04  0.50400001928E-02 0.  1.
    10030    2    1    2    0    0  0.00000000000E+00  0.00000000000E+00 -0.90785337684E+03  0.16578484286E+04  0.13871783081E+04 0.  0.
        3    1    3    3  502    0  0.63586744662E+03  0.26675049976E+03 -0.36463041363E+03  0.78002473521E+03  0.10100000352E+00 0.  1.
       -3    1    3    3    0  502 -0.63586744662E+03 -0.26675049976E+03 -0.54322296321E+03  0.87782369343E+03  0.10100000352E+00 0. -1.
</event>
<event>
 5   0  0.3932568E-04  0.1398186E+04  0.7818609E-02  0.8955133E-01
       -2   -1    0    0    0  501  0.00000000000E+00  0.00000000000E+00  0.40486252145E+03  0.40486252146E+03  0.25500000920E-02 0. -1.
        2   -1    0    0  501    0  0.00000000000E+00  0.00000000000E+00 -0.12071528988E+04  0.12071528988E+04  0.25500000920E-02 0.  1.
    10030    2    1    2    0    0  0.00000000000E+00  0.00000000000E+00 -0.80229037737E+03  0.16120154203E+04  0.13981859195E+04 0.  0.
        2    1    3    3  502    0 -0.30805016672E+03  0.37824060060E+03  0.17620877566E+03  0.51866211524E+03  0.25500000920E-02 0. -1.
       -2    1    3    3    0  502  0.30805016672E+03 -0.37824060060E+03 -0.97849915303E+03  0.10933533050E+04  0.25500000920E-02 0.  1.
</event>
<event>
 5   0  0.2217251E-04  0.1392057E+04  0.7818609E-02  0.8959588E-01
       -1   -1    0    0    0  501  0.00000000000E+00  0.00000000000E+00  0.52335753325E+03  0.52335753327E+03  0.50400001928E-02 0.  1.
        1   -1    0    0  501    0  0.00000000000E+00  0.00000000000E+00 -0.92566927091E+03  0.92566927092E+03  0.50400001928E-02 0. -1.
    10030    2    1    2    0    0  0.00000000000E+00  0.00000000000E+00 -0.40231173766E+03  0.14490268042E+04  0.13920574503E+04 0.  0.
        5    1    3    3  502    0  0.28694365404E+02  0.20369136520E+03 -0.89328880511E+03  0.91667907045E+03  0.46999998093E+01 0. -1.
       -5    1    3    3    0  502 -0.28694365404E+02 -0.20369136520E+03  0.49097706745E+03  0.53234773374E+03  0.46999998093E+01 0.  1.
</event>
<event>
 5   0  0.3917598E-04  0.1399055E+04  0.7818609E-02  0.8954503E-01
       -2   -1    0    0    0  501  0.00000000000E+00  0.00000000000E+00  0.16187784171E+04  0.16187784171E+04  0.25500000920E-02 0. -1.
        2   -1    0    0  501    0  0.00000000000E+00  0.00000000000E+00 -0.30228897880E+03  0.30228897881E+03  0.25500000920E-02 0.  1.
    10030    2    1    2    0    0  0.00000000000E+00  0.00000000000E+00  0.13164894383E+04  0.19210673959E+04  0.13990552164E+04 0.  0.
        3    1    3    3  502    0 -0.12739165886E+03  0.30349978170E+03  0.15058021934E+04  0.15413568724E+04  0.10100000352E+00 0. -1.
       -3    1    3    3    0  502  0.12739165886E+03 -0.30349978170E+03 -0.18931275509E+03  0.37971052353E+03  0.10100000352E+00 0.  1.
</event>
<event>
 5   0  0.3917598E-04  0.1400708E+04  0.7818609E-02  0.8953306E-01
       -2   -1    0    0    0  501  0.00000000000E+00  0.00000000000E+00  0.81407437068E+03  0.81407437068E+03  0.25500000920E-02 0.  1.
        2   -1    0    0  501    0  0.00000000000E+00  0.00000000000E+00 -0.60251984748E+03  0.60251984748E+03  0.25500000920E-02 0. -1.
    10030    2    1    2    0    0  0.00000000000E+00  0.00000000000E+00  0.21155452320E+03  0.14165942182E+04  0.14007083432E+04 0.  0.
        3    1    3    3  502    0 -0.22921879046E+03  0.40691166022E+02  0.77379781308E+03  0.80805945983E+03  0.10100000352E+00 0.  1.
       -3    1    3    3    0  502  0.22921879046E+03 -0.40691166022E+02 -0.56224328988E+03  0.60853475834E+03  0.10100000352E+00 0. -1.
</event>
<event>
 5   0  0.3932568E-04  0.1406458E+04  0.7818609E-02  0.8949157E-01
        2   -1    0    0  501    0  0.00000000000E+00  0.00000000000E+00  0.85123529557E+03  0.85123529557E+03  0.25500000920E-02 0. -1.
       -2   -1    0    0    0  501  0.00000000000E+00  0.00000000000E+00 -0.58095724623E+03  0.58095724623E+03  0.25500000920E-02 0.  1.
    10030    2    1    2    0    0  0.00000000000E+00  0.00000000000E+00  0.27027804934E+03  0.14321925418E+04  0.14064584078E+04 0.  0.
        2    1    3    3  502    0 -0.50183690685E+03  0.24943416678E+03 -0.29745586958E+03  0.63445857153E+03  0.25500000920E-02 0.  1.
       -2    1    3    3    0  502  0.50183690685E+03 -0.24943416678E+03  0.56773391892E+03  0.79773397028E+03  0.25500000920E-02 0. -1.
</event>
<event>
 5   0  0.2143942E-04  0.1402912E+04  0.7818609E-02  0.8951713E-01
        1   -1    0    0  501    0  0.00000000000E+00  0.00000000000E+00  0.98418052207E+03  0.98418052208E+03  0.50400001928E-02 0.  1.
       -1   -1    0    0    0  501  0.00000000000E+00  0.00000000000E+00 -0.49994942751E+03  0.49994942753E+03  0.50400001928E-02 0. -1.
    10030    2    1    2    0    0  0.00000000000E+00  0.00000000000E+00  0.48423109456E+03  0.14841299496E+04  0.14029119553E+04 0.  0.
        4    1    3    3  502    0 -0.46128832178E+03  0.15593974320E+03  0.77625669762E+03  0.91634065326E+03  0.12699999809E+01 0.  1.
       -4    1    3    3    0  502  0.46128832178E+03 -0.15593974320E+03 -0.29202560306E+03  0.56778929636E+03  0.12699999809E+01 0. -1.
</event>
<event>
 5   0  0.4310348E-04  0.1376981E+04  0.7818609E-02  0.8970651E-01
       -2   -1    0    0    0  501  0.00000000000E+00  0.00000000000E+00  0.25721502339E+03  0.25721502340E+03  0.25500000920E-02 0.  1.
        2   -1    0    0  501    0  0.00000000000E+00  0.00000000000E+00 -0.18428905902E+04  0.18428905902E+04  0.25500000920E-02 0. -1.
    10030    2    1    2    0    0  0.00000000000E+00  0.00000000000E+00 -0.15856755668E+04  0.21001056136E+04  0.13769809676E+04 0.  0.
        1    1    3    3  502    0  0.47660876481E+03 -0.38330311925E+03 -0.31068230203E+03  0.68600341744E+03  0.50400001928E-02 0.  1.
       -1    1    3    3    0  502 -0.47660876481E+03  0.38330311925E+03 -0.12749932648E+04  0.14141021962E+04  0.50400001928E-02 0. -1.
</event>
<event>
 5   0  0.3932568E-04  0.1399334E+04  0.7818609E-02  0.8954301E-01
        2   -1    0    0  501    0  0.00000000000E+00  0.00000000000E+00  0.10135548005E+04  0.10135548005E+04  0.25500000920E-02 0. -1.
       -2   -1    0    0    0  501  0.00000000000E+00  0.00000000000E+00 -0.48298715075E+03  0.48298715076E+03  0.25500000920E-02 0.  1.
    10030    2    1    2    0    0  0.00000000000E+00  0.00000000000E+00  0.53056764974E+03  0.14965419512E+04  0.13993340491E+04 0.  0.
        2    1    3    3  502    0 -0.32175454329E+03  0.40602868548E+03  0.76821627214E+03  0.92657515634E+03  0.25500000920E-02 0. -1.
       -2    1    3    3    0  502  0.32175454329E+03 -0.40602868548E+03 -0.23764862240E+03  0.56996679491E+03  0.25500000920E-02 0.  1.
</event>
<event>
 5   0  0.4310348E-04  0.1393647E+04  0.7818609E-02  0.8958430E-01
       -2   -1    0    0    0  501  0.00000000000E+00  0.00000000000E+00  0.39840222127E+03  0.39840222128E+03  0.25500000920E-02 0. -1.
        2   -1    0    0  501    0  0.00000000000E+00  0.00000000000E+00 -0.12187765804E+04  0.12187765804E+04  0.25500000920E-02 0.  1.
    10030    2    1    2    0    0  0.00000000000E+00  0.00000000000E+00 -0.82037435911E+03  0.16171788017E+04  0.13936474402E+04 0.  0.
        1    1    3    3  502    0 -0.65262466618E+03 -0.28788412122E+02 -0.69160478985E+03  0.95134899640E+03  0.50400001928E-02 0.  1.
       -1    1    3    3    0  502  0.65262466618E+03  0.28788412122E+02 -0.12876956926E+03  0.66582980526E+03  0.50400001928E-02 0. -1.
</event>
<event>
 5   0  0.3917598E-04  0.1404595E+04  0.7818609E-02  0.8950499E-01
       -2   -1    0    0    0  501  0.00000000000E+00  0.00000000000E+00  0.27955290761E+03  0.27955290762E+03  0.25500000920E-02 0.  1.
        2   -1    0    0  501    0  0.00000000000E+00  0.00000000000E+00 -0.17643231945E+04  0.17643231945E+04  0.25500000920E-02 0. -1.
    10030    2    1    2    0    0  0.00000000000E+00  0.00000000000E+00 -0.14847702869E+04  0.20438761021E+04  0.14045948583E+04 0.  0.
        3    1    3    3  502    0  0.64140821334E+03  0.23816510375E+03 -0.97289698992E+03  0.11893929864E+04  0.10100000352E+00 0. -1.
       -3    1    3    3    0  502 -0.64140821334E+03 -0.23816510375E+03 -0.51187329700E+03  0.85448311579E+03  0.10100000352E+00 0.  1.
</event>
<event>
 5   0  0.2155352E-04  0.1393280E+04  0.7818609E-02  0.8958697E-01
       -1   -1    0    0    0  501  0.00000000000E+00  0.00000000000E+00  0.70240870473E+03  0.70240870475E+03  0.50400001928E-02 0. -1.
        1   -1    0    0  501    0  0.00000000000E+00  0.00000000000E+00 -0.69091886104E+03  0.69091886106E+03  0.50400001928E-02 0.  1.
    10030    2    1    2    0    0  0.00000000000E+00  0.00000000000E+00  0.11489843688E+02  0.13933275658E+04  0.13932801905E+04 0.  0.
        2    1    3    3  502    0  0.42383167576E+03  0.55287459180E+03  0.37907210080E+01  0.69664766791E+03  0.25500000920E-02 0.  1.
       -2    1    3    3    0  502 -0.42383167576E+03 -0.55287459180E+03  0.76991226802E+01  0.69667989789E+03  0.25500000920E-02 0. -1.
</event>
<event>
 5   0  0.3917598E-04  0.1400721E+04  0.7818609E-02  0.8953297E-01
        2   -1    0    0  501    0  0.00000000000E+00  0.00000000000E+00  0.24346702482E+04  0.24346702482E+04  0.25500000920E-02 0. -1.
       -2   -1    0    0    0  501  0.00000000000E+00  0.00000000000E+00 -0.20146675341E+03  0.20146675343E+03  0.25500000920E-02 0.  1.
    10030    2    1    2    0    0  0.00000000000E+00  0.00000000000E+00  0.22332034948E+04  0.26361370017E+04  0.14007214007E+04 0.  0.
        3    1    3    3  502    0  0.31088726164E+03 -0.28723413360E+03  0.66476305358E+02  0.42845471911E+03  0.10100000352E+00 0.  1.
       -3    1    3    3    0  502 -0.31088726164E+03  0.28723413360E+03  0.21667271895E+04  0.22076822826E+04  0.10100000352E+00 0. -1.
</event>
<event>
 5   0  0.4208622E-04  0.1402112E+04  0.7818609E-02  0.8952291E-01
       -2   -1    0    0    0  501  0.00000000000E+00  0.00000000000E+00  0.49781192930E+03  0.49781192931E+03  0.25500000920E-02 0. -1.
        2   -1    0    0  501    0  0.00000000000E+00  0.00000000000E+00 -0.98728002004E+03  0.98728002004E+03  0.25500000920E-02 0.  1.
    10030    2    1    2    0    0  0.00000000000E+00  0.00000000000E+00 -0.48946809074E+03  0.14850919493E+04  0.14021123657E+04 0.  0.
        4    1    3    3  502    0 -0.28259344576E+03 -0.13590192279E+03 -0.90885859969E+03  0.96143328179E+03  0.12699999809E+01 0.  1.
       -4    1    3    3    0  502  0.28259344576E+03  0.13590192279E+03  0.41939050896E+03  0.52365866756E+03  0.12699999809E+01 0. -1.
</event>
<event>
 5   0  0.2223112E-04  0.1399446E+04  0.7818609E-02  0.8954220E-01
        1   -1    0    0  501    0  0.00000000000E+00  0.00000000000E+00  0.17401967703E+04  0.17401967703E+04  0.50400001928E-02 0. -1.
       -1   -1    0    0    0  501  0.00000000000E+00  0.00000000000E+00 -0.28135449130E+03  0.28135449135E+03  0.50400001928E-02 0.  1.
    10030    2    1    2    0    0  0.00000000000E+00  0.00000000000E+00  0.14588422790E+04  0.20215512616E+04  0.13994458577E+04 0.  0.
        1    1    3    3  502    0  0.45697779075E+03  0.38701341625E+03  0.12522638860E+04  0.13880824636E+04  0.50400001928E-02 0. -1.
       -1    1    3    3    0  502 -0.45697779075E+03 -0.38701341625E+03  0.20657839297E+03  0.63346879802E+03  0.50400001928E-02 0.  1.
</event>
<event>
 5   0  0.2155352E-04  0.1401107E+04  0.7818609E-02  0.8953017E-01
       -1   -1    0    0    0  501  0.00000000000E+00  0.00000000000E+00  0.68249058107E+03  0.68249058109E+03  0.50400001928E-02 0. -1.
        1   -1    0    0  501    0  0.00000000000E+00  0.00000000000E+00 -0.71909477353E+03  0.71909477355E+03  0.50400001928E-02 0.  1.
    10030    2    1    2    0    0  0.00000000000E+00  0.00000000000E+00 -0.36604192456E+02  0.14015853546E+04  0.14011072905E+04 0.  0.
        2    1    3    3  502    0  0.10183526101E+03 -0.36631636398E+01  0.67503725084E+03  0.68268523433E+03  0.25500000920E-02 0. -1.
       -2    1    3    3    0  502 -0.10183526101E+03  0.36631636398E+01 -0.71164144329E+03  0.71890012030E+03  0.25500000920E-02 0.  1.
</event>
<event>
 5   0  0.2217251E-04  0.1400002E+04  0.7818609E-02  0.8953817E-01
       -1   -1    0    0    0  501  0.00000000000E+00  0.00000000000E+00  0.72316297980E+03  0.72316297982E+03  0.50400001928E-02 0.  1.
        1   -1    0    0  501    0  0.00000000000E+00  0.00000000000E+00 -0.67758122584E+03  0.67758122586E+03  0.50400001928E-02 0. -1.
    10030    2    1    2    0    0  0.00000000000E+00  0.00000000000E+00  0.45581753960E+02  0.14007442057E+04  0.14000023691E+04 0.  0.
        5    1    3    3  502    0 -0.66465239295E+03  0.11307878509E+03  0.21111907623E+03  0.70650050916E+03  0.46999998093E+01 0.  1.
       -5    1    3    3    0  502  0.66465239295E+03 -0.11307878509E+03 -0.16553732227E+03  0.69424369652E+03  0.46999998093E+01 0. -1.
</event>
<event>
 5   0  0.1497625E-04  0.1379416E+04  0.7818609E-02  0.8968855E-01
        3   -1    0    0  501    0  0.00000000000E+00  0.00000000000E+00  0.63035276450E+03  0.63035277260E+03  0.10100000352E+00 0. -1.
       -3   -1    0    0    0  501  0.00000000000E+00  0.00000000000E+00 -0.75465202278E+03  0.75465202954E+03  0.10100000352E+00 0.  1.
    10030    2    1    2    0    0  0.00000000000E+00  0.00000000000E+00 -0.12429925828E+03  0.13850048021E+04  0.13794158171E+04 0.  0.
        3    1    3    3  502    0 -0.66514847191E+03  0.13042971706E+03 -0.19019117502E+03  0.70399367471E+03  0.10100000352E+00 0.  1.
       -3    1    3    3    0  502  0.66514847191E+03 -0.13042971706E+03  0.65891916738E+02  0.68101112742E+03  0.10100000352E+00 0. -1.
</event>
<event>
 5   0  0.2215876E-04  0.1398961E+04  0.7818609E-02  0.8954571E-01
       -1   -1    0    0    0  501  0.00000000000E+00  0.00000000000E+00  0.70695113851E+03  0.70695113853E+03  0.50400001928E-02 0.  1.
        1   -1    0    0  501    0  0.00000000000E+00  0.00000000000E+00 -0.69208846396E+03  0.69208846398E+03  0.50400001928E-02 0. -1.
    10030    2    1    2    0    0  0.00000000000E+00  0.00000000000E+00  0.14862674552E+02  0.13990396025E+04  0.13989606536E+04 0.  0.
        3    1    3    3  502    0  0.40656753669E+03  0.92968786312E+01 -0.56171335546E+03  0.69347350183E+03  0.10100000352E+00 0. -1.
       -3    1    3    3    0  502 -0.40656753669E+03 -0.92968786312E+01  0.57657603001E+03  0.70556610068E+03  0.10100000352E+00 0.  1.
</event>
<event>
 5   0  0.4208622E-04  0.1417711E+04  0.7818609E-02  0.8941097E-01
       -2   -1    0    0    0  501  0.00000000000E+00  0.00000000000E+00  0.61035409063E+03  0.61035409063E+03  0.25500000920E-02 0. -1.
        2   -1    0    0  501    0  0.00000000000E+00  0.00000000000E+00 -0.82325404438E+03  0.82325404439E+03  0.25500000920E-02 0.  1.
    10030    2    1    2    0    0  0.00000000000E+00  0.00000000000E+00 -0.21289995376E+03  0.14336081350E+04  0.14177114990E+04 0.  0.
        4    1    3    3  502    0 -0.59804456979E+02 -0.48144885299E+03 -0.62906734572E+03  0.79441608082E+03  0.12699999809E+01 0.  1.
       -4    1    3    3    0  502  0.59804456979E+02  0.48144885299E+03  0.41616739196E+03  0.63919205420E+03  0.12699999809E+01 0. -1.
</event>
<event>
 5   0  0.2223112E-04  0.1380449E+04  0.7818609E-02  0.8968094E-01
       -1   -1    0    0    0  501  0.00000000000E+00  0.00000000000E+00  0.28662543453E+04  0.28662543453E+04  0.50400001928E-02 0.  1.
        1   -1    0    0  501    0  0.00000000000E+00  0.00000000000E+00 -0.16621328933E+03  0.16621328940E+03  0.50400001928E-02 0. -1.
    10030    2    1    2    0    0  0.00000000000E+00  0.00000000000E+00  0.27000410559E+04  0.30324676347E+04  0.13804485690E+04 0.  0.
        1    1    3    3  502    0 -0.37286240077E+03 -0.42168923364E+03  0.47253524820E+03  0.73494063739E+03  0.50400001928E-02 0. -1.
       -1    1    3    3    0  502  0.37286240077E+03  0.42168923364E+03  0.22275058077E+04  0.22975269973E+04  0.50400001928E-02 0.  1.
</event>
<event>
 5   0  0.3975164E-04  0.1318512E+04  0.7818609E-02  0.9015012E-01
       -2   -1    0    0    0  501  0.00000000000E+00  0.00000000000E+00  0.14146827304E+03  0.14146827306E+03  0.25500000920E-02 0. -1.
        2   -1    0    0  501    0  0.00000000000E+00  0.00000000000E+00 -0.30721975405E+04  0.30721975406E+04  0.25500000920E-02 0.  1.
    10030    2    1    2    0    0  0.00000000000E+00  0.00000000000E+00 -0.29307292675E+04  0.32136658136E+04  0.13185120106E+04 0.  0.
        5    1    3    3  502    0 -0.55122252117E+03  0.10928369658E+03 -0.62525107036E+03  0.84068435525E+03  0.46999998093E+01 0. -1.
       -5    1    3    3    0  502  0.55122252117E+03 -0.10928369658E+03 -0.23054781971E+04  0.23729814584E+04  0.46999998093E+01 0.  1.
</event>
<event>
 5   0  0.3975164E-04  0.1403297E+04  0.7818609E-02  0.8951435E-01
        2   -1    0    0  501    0  0.00000000000E+00  0.00000000000E+00  0.14968377897E+04  0.14968377897E+04  0.25500000920E-02 0. -1.
       -2   -1    0    0    0  501  0.00000000000E+00  0.00000000000E+00 -0.32890052177E+03  0.32890052178E+03  0.25500000920E-02 0.  1.
    10030    2    1    2    0    0  0.00000000000E+00  0.00000000000E+00  0.11679372679E+04  0.18257383114E+04  0.14032971603E+04 0.  0.
        5    1    3    3  502    0 -0.19881062392E+02 -0.32556659144E+03  0.13921822204E+04  0.14298889072E+04  0.46999998093E+01 0. -1.
       -5    1    3    3    0  502  0.19881062392E+02  0.32556659144E+03 -0.22424495253E+03  0.39584940424E+03  0.46999998093E+01 0.  1.
</event>
<event>
 5   0  0.3975164E-04  0.1381382E+04  0.7818609E-02  0.8967407E-01
       -2   -1    0    0    0  501  0.00000000000E+00  0.00000000000E+00  0.77751381517E+03  0.77751381517E+03  0.25500000920E-02 0.  1.
        2   -1    0    0  501    0  0.00000000000E+00  0.00000000000E+00 -0.61356303436E+03  0.61356303437E+03  0.25500000920E-02 0. -1.
    10030    2    1    2    0    0  0.00000000000E+00  0.00000000000E+00  0.16395078081E+03  0.13910768495E+04  0.13813815341E+04 0.  0.
        5    1    3    3  502    0  0.61619638349E+03  0.10907287828E+03 -0.21237179490E+03  0.66084699067E+03  0.46999998093E+01 0. -1.
       -5    1    3    3    0  502 -0.61619638349E+03 -0.10907287828E+03  0.37632257571E+03  0.73022985888E+03  0.46999998093E+01 0.  1.
</event>
<event>
 5   0  0.3932568E-04  0.1397509E+04  0.7818609E-02  0.8955624E-01
        2   -1    0    0  501    0  0.00000000000E+00  0.00000000000E+00  0.97396160411E+03  0.97396160412E+03  0.25500000920E-02 0. -1.
       -2   -1    0    0    0  501  0.00000000000E+00  0.00000000000E+00 -0.50131087441E+03  0.50131087442E+03  0.25500000920E-02 0.  1.
    10030    2    1    2    0    0  0.00000000000E+00  0.00000000000E+00  0.47265072970E+03  0.14752724785E+04  0.13975085594E+04 0.  0.
        2    1    3    3  502    0 -0.33962676270E+03 -0.51496756056E+03  0.58279498863E+03  0.84863886616E+03  0.25500000920E-02 0. -1.
       -2    1    3    3    0  502  0.33962676270E+03  0.51496756056E+03 -0.11014425893E+03  0.62663361237E+03  0.25500000920E-02 0.  1.
</event>
<event>
 5   0  0.2143942E-04  0.1397192E+04  0.7818609E-02  0.8955854E-01
        1   -1    0    0  501    0  0.00000000000E+00  0.00000000000E+00  0.59132821966E+03  0.59132821968E+03  0.50400001928E-02 0. -1.
       -1   -1    0    0    0  501  0.00000000000E+00  0.00000000000E+00 -0.82532211798E+03  0.82532211799E+03  0.50400001928E-02 0.  1.
    10030    2    1    2    0    0  0.00000000000E+00  0.00000000000E+00 -0.23399389832E+03  0.14166503377E+04  0.13971918389E+04 0.  0.
        4    1    3    3  502    0 -0.35683288364E+03  0.35933717897E+03  0.37093446164E+03  0.62773155311E+03  0.12699999809E+01 0. -1.
       -4    1    3    3    0  502  0.35683288364E+03 -0.35933717897E+03 -0.60492835997E+03  0.78891878456E+03  0.12699999809E+01 0.  1.
</event>
<event>
 5   0  0.4310348E-04  0.1405146E+04  0.7818609E-02  0.8950102E-01
        2   -1    0    0  501    0  0.00000000000E+00  0.00000000000E+00  0.98815934702E+03  0.98815934702E+03  0.25500000920E-02 0. -1.
       -2   -1    0    0    0  501  0.00000000000E+00  0.00000000000E+00 -0.49952340771E+03  0.49952340771E+03  0.25500000920E-02 0.  1.
    10030    2    1    2    0    0  0.00000000000E+00  0.00000000000E+00  0.48863593931E+03  0.14876827547E+04  0.14051458634E+04 0.  0.
        1    1    3    3  502    0 -0.24160103328E+03  0.59591122820E+03 -0.55377130975E+02  0.64540520438E+03  0.50400001928E-02 0.  1.
       -1    1    3    3    0  502  0.24160103328E+03 -0.59591122820E+03  0.54401307028E+03  0.84227755036E+03  0.50400001928E-02 0. -1.
</event>
<event>
 5   0  0.3975164E-04  0.1397115E+04  0.7818609E-02  0.8955909E-01
        2   -1    0    0  501    0  0.00000000000E+00  0.00000000000E+00  0.71572377558E+03  0.71572377558E+03  0.25500000920E-02 0. -1.
       -2   -1    0    0    0  501  0.00000000000E+00  0.00000000000E+00 -0.68180343343E+03  0.68180343344E+03  0.25500000920E-02 0.  1.
    10030    2    1    2    0    0  0.00000000000E+00  0.00000000000E+00  0.33920342146E+02  0.13975272090E+04  0.13971154964E+04 0.  0.
        5    1    3    3  502    0  0.36086148543E+03 -0.59393769277E+03  0.87534793124E+02  0.70047656960E+03  0.46999998093E+01 0.  1.
       -5    1    3    3    0  502 -0.36086148543E+03  0.59393769277E+03 -0.53614450978E+02  0.69705063942E+03  0.46999998093E+01 0. -1.
</event>
<event>
 5   0  0.4208622E-04  0.1397115E+04  0.7818609E-02  0.8955910E-01
       -2   -1    0    0    0  501  0.00000000000E+00  0.00000000000E+00  0.32949464427E+03  0.32949464428E+03  0.25500000920E-02 0. -1.
        2   -1    0    0  501    0  0.00000000000E+00  0.00000000000E+00 -0.14810023296E+04  0.14810023296E+04  0.25500000920E-02 0.  1.
    10030    2    1    2    0    0  0.00000000000E+00  0.00000000000E+00 -0.11515076854E+04  0.18104969739E+04  0.13971146492E+04 0.  0.
        4    1    3    3  502    0  0.66729756242E+03  0.10974144593E+03 -0.34887623664E+03  0.76095036840E+03  0.12699999809E+01 0. -1.
       -4    1    3    3    0  502 -0.66729756242E+03 -0.10974144593E+03 -0.80263144873E+03  0.10495466055E+04  0.12699999809E+01 0.  1.
</event>
<event>
 5   0  0.3975164E-04  0.1357979E+04  0.7818609E-02  0.8984810E-01
        2   -1    0    0  501    0  0.00000000000E+00  0.00000000000E+00  0.11151545430E+04  0.11151545430E+04  0.25500000920E-02 0.  1.
       -2   -1    0    0    0  501  0.00000000000E+00  0.00000000000E+00 -0.41341967849E+03  0.41341967850E+03  0.25500000920E-02 0. -1.
    10030    2    1    2    0    0  0.00000000000E+00  0.00000000000E+00  0.70173486448E+03  0.15285742215E+04  0.13579791348E+04 0.  0.
        5    1    3    3  502    0 -0.27724055915E+03 -0.70199728578E+02 -0.34229633256E+03  0.44607084506E+03  0.46999998093E+01 0. -1.
       -5    1    3    3    0  502  0.27724055915E+03  0.70199728578E+02  0.10440311970E+04  0.10825033764E+04  0.46999998093E+01 0.  1.
</event>
<event>
 5   0  0.3975164E-04  0.1403861E+04  0.7818609E-02  0.8951029E-01
       -2   -1    0    0    0  501  0.00000000000E+00  0.00000000000E+00  0.24241700176E+03  0.24241700177E+03  0.25500000920E-02 0. -1.
        2   -1    0    0  501    0  0.00000000000E+00  0.00000000000E+00 -0.20324736703E+04  0.20324736703E+04  0.25500000920E-02 0.  1.
    10030    2    1    2    0    0  0.00000000000E+00  0.00000000000E+00 -0.17900566685E+04  0.22748906720E+04  0.14038606388E+04 0.  0.
        5    1    3    3  502    0  0.29668615753E+03 -0.38111263474E+03 -0.17203698896E+04  0.17868867237E+04  0.46999998093E+01 0.  1.
       -5    1    3    3    0  502 -0.29668615753E+03  0.38111263474E+03 -0.69686778942E+02  0.48800394833E+03  0.46999998093E+01 0. -1.
</event>
<event>
 5   0  0.2143942E-04  0.1402020E+04  0.7818609E-02  0.8952358E-01
        1   -1    0    0  501    0  0.00000000000E+00  0.00000000000E+00  0.10669435451E+04  0.10669435452E+04  0.50400001928E-02 0.  1.
       -1   -1    0    0    0  501  0.00000000000E+00  0.00000000000E+00 -0.46058191647E+03  0.46058191650E+03  0.50400001928E-02 0. -1.
    10030    2    1    2    0    0  0.00000000000E+00  0.00000000000E+00  0.60636162867E+03  0.15275254617E+04  0.14020198327E+04 0.  0.
        4    1    3    3  502    0  0.17454219435E+03  0.65483458615E+03  0.49850547675E+03  0.84129818500E+03  0.12699999809E+01 0.  1.
       -4    1    3    3    0  502 -0.17454219435E+03 -0.65483458615E+03  0.10785615192E+03  0.68622727666E+03  0.12699999809E+01 0. -1.
</event>
<event>
 5   0  0.2215876E-04  0.1398879E+04  0.7818609E-02  0.8954631E-01
       -1   -1    0    0    0  501  0.00000000000E+00  0.00000000000E+00  0.32648897532E+03  0.32648897536E+03  0.50400001928E-02 0.  1.
        1   -1    0    0  501    0  0.00000000000E+00  0.00000000000E+00 -0.14984128683E+04  0.14984128683E+04  0.50400001928E-02 0. -1.
    10030    2    1    2    0    0  0.00000000000E+00  0.00000000000E+00 -0.11719238930E+04  0.18249018437E+04  0.13988785251E+04 0.  0.
        3    1    3    3  502    0 -0.40262942514E+03 -0.38617164462E+03 -0.35609922800E+02  0.55902331785E+03  0.10100000352E+00 0.  1.
       -3    1    3    3    0  502  0.40262942514E+03  0.38617164462E+03 -0.11363139702E+04  0.12658785258E+04  0.10100000352E+00 0. -1.
</event>
<event>
 5   0  0.2217251E-04  0.1392713E+04  0.7818609E-02  0.8959110E-01
       -1   -1    0    0    0  501  0.00000000000E+00  0.00000000000E+00  0.36726414623E+03  0.36726414626E+03  0.50400001928E-02 0. -1.
        1   -1    0    0  501    0  0.00000000000E+00  0.00000000000E+00 -0.13203368845E+04  0.13203368845E+04  0.50400001928E-02 0.  1.
    10030    2    1    2    0    0  0.00000000000E+00  0.00000000000E+00 -0.95307273830E+03  0.16876010308E+04  0.13927130338E+04 0.  0.
        5    1    3    3  502    0  0.54316333441E+03  0.26007511408E+03 -0.90016750610E+03  0.10830462141E+04  0.46999998093E+01 0.  1.
       -5    1    3    3    0  502 -0.54316333441E+03 -0.26007511408E+03 -0.52905232199E+02  0.60455481671E+03  0.46999998093E+01 0. -1.
</event>
<event>
 5   0  0.4310348E-04  0.1394665E+04  0.7818609E-02  0.8957689E-01
       -2   -1    0    0    0  501  0.00000000000E+00  0.00000000000E+00  0.76034188784E+03  0.76034188784E+03  0.25500000920E-02 0. -1.
        2   -1    0    0  501    0  0.00000000000E+00  0.00000000000E+00 -0.63954480034E+03  0.63954480034E+03  0.25500000920E-02 0.  1.
    10030    2    1    2    0    0  0.00000000000E+00  0.00000000000E+00  0.12079708750E+03  0.13998866882E+04  0.13946651223E+04 0.  0.
        1    1    3    3  502    0 -0.19221255069E+03  0.39269284346E+03  0.60568134369E+03  0.74699613390E+03  0.50400001928E-02 0. -1.
       -1    1    3    3    0  502  0.19221255069E+03 -0.39269284346E+03 -0.48488425619E+03  0.65289055428E+03  0.50400001928E-02 0.  1.
</event>
<event>
 5   0  0.3975164E-04  0.1391036E+04  0.7818609E-02  0.8960333E-01
       -2   -1    0    0    0  501  0.00000000000E+00  0.00000000000E+00  0.32127267837E+03  0.32127267838E+03  0.25500000920E-02 0.  1.
        2   -1    0    0  501    0  0.00000000000E+00  0.00000000000E+00 -0.15057147945E+04  0.15057147945E+04  0.25500000920E-02 0. -1.
    10030    2    1    2    0    0  0.00000000000E+00  0.00000000000E+00 -0.11844421161E+04  0.18269874729E+04  0.13910356213E+04 0.  0.
        5    1    3    3  502    0 -0.15342193811E+03  0.30535901298E+03 -0.13878217504E+04  0.14292843379E+04  0.46999998093E+01 0. -1.
       -5    1    3    3    0  502  0.15342193811E+03 -0.30535901298E+03  0.20337963425E+03  0.39770313492E+03  0.46999998093E+01 0.  1.
</event>
<event>
 5   0  0.2217251E-04  0.1342743E+04  0.7818609E-02  0.8996340E-01
       -1   -1    0    0    0  501  0.00000000000E+00  0.00000000000E+00  0.69047452202E+03  0.69047452204E+03  0.50400001928E-02 0. -1.
        1   -1    0    0  501    0  0.00000000000E+00  0.00000000000E+00 -0.65279716874E+03  0.65279716876E+03  0.50400001928E-02 0.  1.
    10030    2    1    2    0    0  0.00000000000E+00  0.00000000000E+00  0.37677353283E+02  0.13432716908E+04  0.13427431818E+04 0.  0.
        5    1    3    3  502    0  0.57918928502E+02 -0.27872049435E+03 -0.58941215775E+03  0.65457505142E+03  0.46999998093E+01 0.  1.
       -5    1    3    3    0  502 -0.57918928502E+02  0.27872049435E+03  0.62708951103E+03  0.68869663938E+03  0.46999998093E+01 0. -1.
</event>
<event>
 5   0  0.2223112E-04  0.1396850E+04  0.7818609E-02  0.8956102E-01
        1   -1    0    0  501    0  0.00000000000E+00  0.00000000000E+00  0.43738825594E+03  0.43738825597E+03  0.50400001928E-02 0. -1.
       -1   -1    0    0    0  501  0.00000000000E+00  0.00000000000E+00 -0.11152503117E+04  0.11152503117E+04  0.50400001928E-02 0.  1.
    10030    2    1    2    0    0  0.00000000000E+00  0.00000000000E+00 -0.67786205580E+03  0.15526385677E+04  0.13968498686E+04 0.  0.
        1    1    3    3  502    0  0.11324404884E+03 -0.52438141746E+02  0.42489490232E+03  0.44284269369E+03  0.50400001928E-02 0. -1.
       -1    1    3    3    0  502 -0.11324404884E+03  0.52438141746E+02 -0.11027569581E+04  0.11097958740E+04  0.50400001928E-02 0.  1.
</event>
<event>
 5   0  0.4208622E-04  0.1399748E+04  0.7818609E-02  0.8954001E-01
        2   -1    0    0  501    0  0.00000000000E+00  0.00000000000E+00  0.78163502810E+03  0.78163502811E+03  0.25500000920E-02 0.  1.
       -2   -1    0    0    0  501  0.00000000000E+00  0.00000000000E+00 -0.62666576445E+03  0.62666576446E+03  0.25500000920E-02 0. -1.
    10030    2    1    2    0    0  0.00000000000E+00  0.00000000000E+00  0.15496926365E+03  0.14083007926E+04  0.13997484237E+04 0.  0.
        4    1    3    3  502    0  0.40139452172E+02 -0.47454909852E+03 -0.43849801788E+03  0.64737172251E+03  0.12699999809E+01 0. -1.
       -4    1    3    3    0  502 -0.40139452172E+02  0.47454909852E+03  0.59346728152E+03  0.76092907006E+03  0.12699999809E+01 0.  1.
</event>
<event>
 5   0  0.2223112E-04  0.1397486E+04  0.7818609E-02  0.8955640E-01
        1   -1    0    0  501    0  0.00000000000E+00  0.00000000000E+00  0.67281461697E+03  0.67281461699E+03  0.50400001928E-02 0. -1.
       -1   -1    0    0    0  501  0.00000000000E+00  0.00000000000E+00 -0.72567054816E+03  0.72567054818E+03  0.50400001928E-02 0.  1.
    10030    2    1    2    0    0  0.00000000000E+00  0.00000000000E+00 -0.52855931192E+02  0.13984851652E+04  0.13974859598E+04 0.  0.
        1    1    3    3  502    0 -0.57950190060E+03  0.33458815062E+03  0.17488761164E+03  0.69163383380E+03  0.50400001928E-02 0. -1.
       -1    1    3    3    0  502  0.57950190060E+03 -0.33458815062E+03 -0.22774354283E+03  0.70685133137E+03  0.50400001928E-02 0.  1.
</event>
<event>
 5   0  0.4208622E-04  0.1402927E+04  0.7818609E-02  0.8951703E-01
       -2   -1    0    0    0  501  0.00000000000E+00  0.00000000000E+00  0.37886548629E+03  0.37886548630E+03  0.25500000920E-02 0. -1.
        2   -1    0    0  501    0  0.00000000000E+00  0.00000000000E+00 -0.12987482190E+04  0.12987482190E+04  0.25500000920E-02 0.  1.
    10030    2    1    2    0    0  0.00000000000E+00  0.00000000000E+00 -0.91988273268E+03  0.16776137053E+04  0.14029267630E+04 0.  0.
        4    1    3    3  502    0  0.29152696698E+03  0.27101147723E+01  0.30298557175E+03  0.42047257554E+03  0.12699999809E+01 0. -1.
       -4    1    3    3    0  502 -0.29152696698E+03 -0.27101147723E+01 -0.12228683044E+04  0.12571411297E+04  0.12699999809E+01 0.  1.
</event>
<event>
 5   0  0.4310348E-04  0.1402326E+04  0.7818609E-02  0.8952137E-01
        2   -1    0    0  501    0  0.00000000000E+00  0.00000000000E+00  0.16107982914E+04  0.16107982914E+04  0.25500000920E-02 0. -1.
       -2   -1    0    0    0  501  0.00000000000E+00  0.00000000000E+00 -0.30520867320E+03  0.30520867321E+03  0.25500000920E-02 0.  1.
    10030    2    1    2    0    0  0.00000000000E+00  0.00000000000E+00  0.13055896182E+04  0.19160069646E+04  0.14023260809E+04 0.  0.
        1    1    3    3  502    0 -0.55357328536E+03  0.37416400574E+03  0.94323542161E+03  0.11559131222E+04  0.50400001928E-02 0. -1.
       -1    1    3    3    0  502  0.55357328536E+03 -0.37416400574E+03  0.36235419658E+03  0.76009384241E+03  0.50400001928E-02 0.  1.
</event>
<event>
 5   0  0.1497625E-04  0.1405979E+04  0.7818609E-02  0.8949502E-01
        4   -1    0    0  501    0  0.00000000000E+00  0.00000000000E+00  0.58885972323E+03  0.58886109274E+03  0.12699999809E+01 0.  1.
       -4   -1    0    0    0  501  0.00000000000E+00  0.00000000000E+00 -0.83923671702E+03  0.83923767795E+03  0.12699999809E+01 0. -1.
    10030    2    1    2    0    0  0.00000000000E+00  0.00000000000E+00 -0.25037699379E+03  0.14280987707E+04  0.14059791819E+04 0.  0.
        5    1    3    3  502    0 -0.48139591022E+02  0.49278126083E+03 -0.63205986922E+03  0.80291503879E+03  0.46999998093E+01 0. -1.
       -5    1    3    3    0  502  0.48139591022E+02 -0.49278126083E+03  0.38168287542E+03  0.62518373190E+03  0.46999998093E+01 0.  1.
</event>
<event>
 5   0  0.2223112E-04  0.1399912E+04  0.7818609E-02  0.8953882E-01
       -1   -1    0    0    0  501  0.00000000000E+00  0.00000000000E+00  0.50501431107E+03  0.50501431109E+03  0.50400001928E-02 0. -1.
        1   -1    0    0  501    0  0.00000000000E+00  0.00000000000E+00 -0.97014807348E+03  0.97014807350E+03  0.50400001928E-02 0.  1.
    10030    2    1    2    0    0  0.00000000000E+00  0.00000000000E+00 -0.46513376242E+03  0.14751623846E+04  0.13999123701E+04 0.  0.
        1    1    3    3  502    0 -0.94887339579E+02  0.48962512028E+03 -0.75008993015E+03  0.90076149394E+03  0.50400001928E-02 0.  1.
       -1    1    3    3    0  502  0.94887339579E+02 -0.48962512028E+03  0.28495616774E+03  0.57440089065E+03  0.50400001928E-02 0. -1.
</event>
<event>
 5   0  0.1497625E-04  0.1397356E+04  0.7818609E-02  0.8955735E-01
       -3   -1    0    0    0  501  0.00000000000E+00  0.00000000000E+00  0.88341525138E+03  0.88341525715E+03  0.10100000352E+00 0.  1.
        3   -1    0    0  501    0  0.00000000000E+00  0.00000000000E+00 -0.55257236860E+03  0.55257237783E+03  0.10100000352E+00 0. -1.
    10030    2    1    2    0    0  0.00000000000E+00  0.00000000000E+00  0.33084288277E+03  0.14359876350E+04  0.13973558869E+04 0.  0.
        1    1    3    3  502    0  0.17324219020E+03 -0.74041075227E+02 -0.52597601767E+03  0.55870001654E+03  0.50400001928E-02 0. -1.
       -1    1    3    3    0  502 -0.17324219020E+03  0.74041075227E+02  0.85681890045E+03  0.87728761844E+03  0.50400001928E-02 0.  1.
</event>
<event>
 5   0  0.4208622E-04  0.1399331E+04  0.7818609E-02  0.8954303E-01
       -2   -1    0    0    0  501  0.00000000000E+00  0.00000000000E+00  0.10617423920E+04  0.10617423920E+04  0.25500000920E-02 0.  1.
        2   -1    0    0  501    0  0.00000000000E+00  0.00000000000E+00 -0.46106442213E+03  0.46106442214E+03  0.25500000920E-02 0. -1.
    10030    2    1    2    0    0  0.00000000000E+00  0.00000000000E+00  0.60067796985E+03  0.15228068141E+04  0.13993307578E+04 0.  0.
        4    1    3    3  502    0  0.51250914866E+03 -0.38063112205E+03 -0.11255608003E+02  0.63849352397E+03  0.12699999809E+01 0. -1.
       -4    1    3    3    0  502 -0.51250914866E+03  0.38063112205E+03  0.61193357785E+03  0.88431329015E+03  0.12699999809E+01 0.  1.
</event>
<event>
 5   0  0.2143942E-04  0.1390748E+04  0.7818609E-02  0.8960543E-01
        1   -1    0    0  501    0  0.00000000000E+00  0.00000000000E+00  0.14232812289E+04  0.14232812289E+04  0.50400001928E-02 0.  1.
       -1   -1    0    0    0  501  0.00000000000E+00  0.00000000000E+00 -0.33973968605E+03  0.33973968609E+03  0.50400001928E-02 0. -1.
    10030    2    1    2    0    0  0.00000000000E+00  0.00000000000E+00  0.10835415429E+04  0.17630209150E+04  0.13907481698E+04 0.  0.
        4    1    3    3  502    0 -0.66707550082E+03  0.10074414250E+03  0.32812132619E+03  0.75020285500E+03  0.12699999809E+01 0. -1.
       -4    1    3    3    0  502  0.66707550082E+03 -0.10074414250E+03  0.75542021668E+03  0.10128180600E+04  0.12699999809E+01 0.  1.
</event>
<event>
 5   0  0.4208622E-04  0.1407732E+04  0.7818609E-02  0.8948241E-01
        2   -1    0    0  501    0  0.00000000000E+00  0.00000000000E+00  0.20287526676E+04  0.20287526676E+04  0.25500000920E-02 0.  1.
       -2   -1    0    0    0  501  0.00000000000E+00  0.00000000000E+00 -0.24420278795E+03  0.24420278797E+03  0.25500000920E-02 0. -1.
    10030    2    1    2    0    0  0.00000000000E+00  0.00000000000E+00  0.17845498797E+04  0.22729554556E+04  0.14077315902E+04 0.  0.
        4    1    3    3  502    0  0.63094286283E+03 -0.30118822811E+03  0.10236679327E+04  0.12396374043E+04  0.12699999809E+01 0. -1.
       -4    1    3    3    0  502 -0.63094286283E+03  0.30118822811E+03  0.76088194699E+03  0.10333180513E+04  0.12699999809E+01 0.  1.
</event>
<event>
 5   0  0.2155352E-04  0.1402067E+04  0.7818609E-02  0.8952324E-01
       -1   -1    0    0    0  501  0.00000000000E+00  0.00000000000E+00  0.49846467756E+03  0.49846467758E+03  0.50400001928E-02 0. -1.
        1   -1    0    0  501    0  0.00000000000E+00  0.00000000000E+00 -0.98592343628E+03  0.98592343629E+03  0.50400001928E-02 0.  1.
    10030    2    1    2    0    0  0.00000000000E+00  0.00000000000E+00 -0.48745875872E+03  0.14843881139E+04  0.14020670566E+04 0.  0.
        2    1    3    3  502    0  0.63804922348E+03 -0.28874162346E+03 -0.27669385054E+03  0.75301927175E+03  0.25500000920E-02 0. -1.
       -2    1    3    3    0  502 -0.63804922348E+03  0.28874162346E+03 -0.21076490818E+03  0.73136884212E+03  0.25500000920E-02 0.  1.
</event>
<event>
 5   0  0.4310348E-04  0.1390132E+04  0.7818609E-02  0.8960993E-01
       -2   -1    0    0    0  501  0.00000000000E+00  0.00000000000E+00  0.76696453575E+03  0.76696453576E+03  0.25500000920E-02 0.  1.
        2   -1    0    0  501    0  0.00000000000E+00  0.00000000000E+00 -0.62990721044E+03  0.62990721045E+03  0.25500000920E-02 0. -1.
    10030    2    1    2    0    0  0.00000000000E+00  0.00000000000E+00  0.13705732531E+03  0.13968717462E+04  0.13901316358E+04 0.  0.
        1    1    3    3  502    0 -0.44606782002E+02  0.68705975739E+03  0.16425659132E+03  0.70782844182E+03  0.50400001928E-02 0.  1.
       -1    1    3    3    0  502  0.44606782002E+02 -0.68705975739E+03 -0.27199266010E+02  0.68904330439E+03  0.50400001928E-02 0. -1.
</event>
<event>
 5   0  0.2215876E-04  0.1402220E+04  0.7818609E-02  0.8952213E-01
        1   -1    0    0  501    0  0.00000000000E+00  0.00000000000E+00  0.13926563053E+04  0.13926563053E+04  0.50400001928E-02 0. -1.
       -1   -1    0    0    0  501  0.00000000000E+00  0.00000000000E+00 -0.35296243829E+03  0.35296243832E+03  0.50400001928E-02 0.  1.
    10030    2    1    2    0    0  0.00000000000E+00  0.00000000000E+00  0.10396938670E+04  0.17456187436E+04  0.14022201899E+04 0.  0.
        3    1    3    3  502    0  0.57569228015E+03 -0.21183534528E+03  0.97205936962E+02  0.62108358480E+03  0.10100000352E+00 0.  1.
       -3    1    3    3    0  502 -0.57569228015E+03  0.21183534528E+03  0.94248793002E+03  0.11245351588E+04  0.10100000352E+00 0. -1.
</event>
<event>
 5   0  0.2223112E-04  0.1394775E+04  0.7818609E-02  0.8957609E-01
       -1   -1    0    0    0  501  0.00000000000E+00  0.00000000000E+00  0.13649702325E+04  0.13649702325E+04  0.50400001928E-02 0.  1.
        1   -1    0    0  501    0  0.00000000000E+00  0.00000000000E+00 -0.35630761599E+03  0.35630761603E+03  0.50400001928E-02 0. -1.
    10030    2    1    2    0    0  0.00000000000E+00  0.00000000000E+00  0.10086626165E+04  0.17212778485E+04  0.13947749488E+04 0.  0.
        1    1    3    3  502    0 -0.54528676810E+03 -0.17671141332E+03  0.99453806636E+03  0.11478983180E+04  0.50400001928E-02 0.  1.
       -1    1    3    3    0  502  0.54528676810E+03  0.17671141332E+03  0.14124550138E+02  0.57337953051E+03  0.50400001928E-02 0. -1.
</event>
<event>
 5   0  0.2215876E-04  0.1303496E+04  0.7818609E-02  0.9026797E-01
        1   -1    0    0  501    0  0.00000000000E+00  0.00000000000E+00  0.20201526797E+04  0.20201526797E+04  0.50400001928E-02 0.  1.
       -1   -1    0    0    0  501  0.00000000000E+00  0.00000000000E+00 -0.21026902209E+03  0.21026902215E+03  0.50400001928E-02 0. -1.
    10030    2    1    2    0    0  0.00000000000E+00  0.00000000000E+00  0.18098836576E+04  0.22304217019E+04  0.13034961120E+04 0.  0.
        3    1    3    3  502    0  0.57027488178E+03 -0.26356546470E+03  0.60809887200E+03  0.87433657324E+03  0.10100000352E+00 0. -1.
       -3    1    3    3    0  502 -0.57027488178E+03  0.26356546470E+03  0.12017847856E+04  0.13560851286E+04  0.10100000352E+00 0.  1.
</event>
<event>
 5   0  0.3917598E-04  0.1397808E+04  0.7818609E-02  0.8955406E-01
       -2   -1    0    0    0  501  0.00000000000E+00  0.00000000000E+00  0.32090892694E+03  0.32090892695E+03  0.25500000920E-02 0. -1.
        2   -1    0    0  501    0  0.00000000000E+00  0.00000000000E+00 -0.15221360968E+04  0.15221360968E+04  0.25500000920E-02 0.  1.
    10030    2    1    2    0    0  0.00000000000E+00  0.00000000000E+00 -0.12012271698E+04  0.18430450237E+04  0.13978083724E+04 0.  0.
        3    1    3    3  502    0 -0.57158082829E+03  0.38124943081E+03 -0.43170196444E+03  0.81143229420E+03  0.10100000352E+00 0. -1.
       -3    1    3    3    0  502  0.57158082829E+03 -0.38124943081E+03 -0.76952520540E+03  0.10316127295E+04  0.10100000352E+00 0.  1.
</event>
<event>
 5   0  0.3932568E-04  0.1399207E+04  0.7818609E-02  0.8954393E-01
        2   -1    0    0  501    0  0.00000000000E+00  0.00000000000E+00  0.14413616035E+04  0.14413616035E+04  0.25500000920E-02 0.  1.
       -2   -1    0    0    0  501  0.00000000000E+00  0.00000000000E+00 -0.33957121652E+03  0.33957121653E+03  0.25500000920E-02 0. -1.
    10030    2    1    2    0    0  0.00000000000E+00  0.00000000000E+00  0.11017903869E+04  0.17809328200E+04  0.13992067941E+04 0.  0.
        2    1    3    3  502    0  0.47289295421E+03  0.28220674656E+03  0.16982831511E+01  0.55070071556E+03  0.25500000920E-02 0. -1.
       -2    1    3    3    0  502 -0.47289295421E+03 -0.28220674656E+03  0.11000921038E+04  0.12302321044E+04  0.25500000920E-02 0.  1.
</event>
<event>
 5   0  0.2143942E-04  0.1396875E+04  0.7818609E-02  0.8956084E-01
        1   -1    0    0  501    0  0.00000000000E+00  0.00000000000E+00  0.46650168387E+03  0.46650168390E+03  0.50400001928E-02 0. -1.
       -1   -1    0    0    0  501  0.00000000000E+00  0.00000000000E+00 -0.10456868241E+04  0.10456868241E+04  0.50400001928E-02 0.  1.
    10030    2    1    2    0    0  0.00000000000E+00  0.00000000000E+00 -0.57918514022E+03  0.15121885080E+04  0.13968746032E+04 0.  0.
        4    1    3    3  502    0 -0.45562006947E+03  0.11089391494E+03 -0.84993807976E+03  0.97071286197E+03  0.12699999809E+01 0. -1.
       -4    1    3    3    0  502  0.45562006947E+03 -0.11089391494E+03  0.27075293953E+03  0.54147564603E+03  0.12699999809E+01 0.  1.
</event>
<event>
 5   0  0.4310348E-04  0.1404394E+04  0.7818609E-02  0.8950644E-01
       -2   -1    0    0    0  501  0.00000000000E+00  0.00000000000E+00  0.54194964787E+03  0.54194964787E+03  0.25500000920E-02 0. -1.
        2   -1    0    0  501    0  0.00000000000E+00  0.00000000000E+00 -0.90982747749E+03  0.90982747750E+03  0.25500000920E-02 0.  1.
    10030    2    1    2    0    0  0.00000000000E+00  0.00000000000E+00 -0.36787782963E+03  0.14517771254E+04  0.14043940772E+04 0.  0.
        1    1    3    3  502    0 -0.68897389978E+03  0.12324258702E+03 -0.12539868444E+03  0.71105456887E+03  0.50400001928E-02 0. -1.
       -1    1    3    3    0  502  0.68897389978E+03 -0.12324258702E+03 -0.24247914519E+03  0.74072255650E+03  0.50400001928E-02 0.  1.
</event>
<event>
 5   0  0.1497625E-04  0.1399550E+04  0.7818609E-02  0.8954144E-01
       -4   -1    0    0    0  501  0.00000000000E+00  0.00000000000E+00  0.73800905895E+03  0.73801015169E+03  0.12699999809E+01 0. -1.
        4   -1    0    0  501    0  0.00000000000E+00  0.00000000000E+00 -0.66351935796E+03  0.66352057337E+03  0.12699999809E+01 0.  1.
    10030    2    1    2    0    0  0.00000000000E+00  0.00000000000E+00  0.74489700999E+02  0.14015307251E+04  0.13995498054E+04 0.  0.
        4    1    3    3  502    0 -0.73476334380E+02 -0.67671391981E+03 -0.12528952866E+03  0.69212685244E+03  0.12699999809E+01 0. -1.
       -4    1    3    3    0  502  0.73476334380E+02  0.67671391981E+03  0.19977922966E+03  0.70940387262E+03  0.12699999809E+01 0.  1.
</event>
<event>
 5   0  0.2143942E-04  0.1403205E+04  0.7818609E-02  0.8951502E-01
        1   -1    0    0  501    0  0.00000000000E+00  0.00000000000E+00  0.66494358563E+03  0.66494358565E+03  0.50400001928E-02 0. -1.
       -1   -1    0    0    0  501  0.00000000000E+00  0.00000000000E+00 -0.74028256364E+03  0.74028256365E+03  0.50400001928E-02 0.  1.
    10030    2    1    2    0    0  0.00000000000E+00  0.00000000000E+00 -0.75338978007E+02  0.14052261493E+04  0.14032051058E+04 0.  0.
        4    1    3    3  502    0 -0.53394386478E+03 -0.44106640695E+03 -0.15012059297E+03  0.70864196278E+03  0.12699999809E+01 0.  1.
       -4    1    3    3    0  502  0.53394386478E+03  0.44106640695E+03  0.74781614965E+02  0.69658418652E+03  0.12699999809E+01 0. -1.
</event>
<event>
 5   0  0.4310348E-04  0.1394874E+04  0.7818609E-02  0.8957537E-01
       -2   -1    0    0    0  501  0.00000000000E+00  0.00000000000E+00  0.89713962582E+03  0.89713962582E+03  0.25500000920E-02 0.  1.
        2   -1    0    0  501    0  0.00000000000E+00  0.00000000000E+00 -0.54218832102E+03  0.54218832103E+03  0.25500000920E-02 0. -1.
    10030    2    1    2    0    0  0.00000000000E+00  0.00000000000E+00  0.35495130480E+03  0.14393279469E+04  0.13948743706E+04 0.  0.
        1    1    3    3  502    0 -0.15840368092E+03 -0.59866957446E+03 -0.15356247476E+03  0.63802697372E+03  0.50400001928E-02 0. -1.
       -1    1    3    3    0  502  0.15840368092E+03  0.59866957446E+03  0.50851377955E+03  0.80130097313E+03  0.50400001928E-02 0.  1.
</event>
<event>
 5   0  0.2223112E-04  0.1390607E+04  0.7818609E-02  0.8960646E-01
       -1   -1    0    0    0  501  0.00000000000E+00  0.00000000000E+00  0.40067189025E+03  0.40067189029E+03  0.50400001928E-02 0. -1.
        1   -1    0    0  501    0  0.00000000000E+00  0.00000000000E+00 -0.12065908148E+04  0.12065908149E+04  0.50400001928E-02 0.  1.
    10030    2    1    2    0    0  0.00000000000E+00  0.00000000000E+00 -0.80591892459E+03  0.16072627051E+04  0.13906070942E+04 0.  0.
        1    1    3    3  502    0 -0.41206294534E+03 -0.28758419854E+03  0.15248175094E+03  0.52512020202E+03  0.50400001928E-02 0. -1.
       -1    1    3    3    0  502  0.41206294534E+03  0.28758419854E+03 -0.95840067553E+03  0.10821425031E+04  0.50400001928E-02 0.  1.
</event>
<event>
 5   0  0.3917598E-04  0.1401381E+04  0.7818609E-02  0.8952819E-01
        2   -1    0    0  501    0  0.00000000000E+00  0.00000000000E+00  0.13753823004E+04  0.13753823004E+04  0.25500000920E-02 0. -1.
       -2   -1    0    0    0  501  0.00000000000E+00  0.00000000000E+00 -0.35696798894E+03  0.35696798895E+03  0.25500000920E-02 0.  1.
    10030    2    1    2    0    0  0.00000000000E+00  0.00000000000E+00  0.10184143115E+04  0.17323502894E+04  0.14013813954E+04 0.  0.
        3    1    3    3  502    0  0.15574160044E+03 -0.33167433754E+03 -0.22909380758E+03  0.43214267918E+03  0.10100000352E+00 0.  1.
       -3    1    3    3    0  502 -0.15574160044E+03  0.33167433754E+03  0.12475081190E+04  0.13002076102E+04  0.10100000352E+00 0. -1.
</event>
<event>
 5   0  0.2143942E-04  0.1400548E+04  0.7818609E-02  0.8953422E-01
        1   -1    0    0  501    0  0.00000000000E+00  0.00000000000E+00  0.87932112771E+03  0.87932112773E+03  0.50400001928E-02 0. -1.
       -1   -1    0    0    0  501  0.00000000000E+00  0.00000000000E+00 -0.55768468636E+03  0.55768468638E+03  0.50400001928E-02 0.  1.
    10030    2    1    2    0    0  0.00000000000E+00  0.00000000000E+00  0.32163644135E+03  0.14370058141E+04  0.14005483602E+04 0.  0.
        4    1    3    3  502    0  0.10904767187E+03  0.58098297339E+03 -0.22438729804E+03  0.63228465309E+03  0.12699999809E+01 0.  1.
       -4    1    3    3    0  502 -0.10904767187E+03 -0.58098297339E+03  0.54602373939E+03  0.80472116102E+03  0.12699999809E+01 0. -1.
</event>
<event>
 5   0  0.3932568E-04  0.1397199E+04  0.7818609E-02  0.8955848E-01
        2   -1    0    0  501    0  0.00000000000E+00  0.00000000000E+00  0.16822384828E+04  0.16822384828E+04  0.25500000920E-02 0.  1.
       -2   -1    0    0    0  501  0.00000000000E+00  0.00000000000E+00 -0.29011426195E+03  0.29011426197E+03  0.25500000920E-02 0. -1.
    10030    2    1    2    0    0  0.00000000000E+00  0.00000000000E+00  0.13921242208E+04  0.19723527447E+04  0.13971991639E+04 0.  0.
        2    1    3    3  502    0  0.45390930723E+02 -0.44296090610E+03  0.14559516923E+04  0.15225209461E+04  0.25500000920E-02 0.  1.
       -2    1    3    3    0  502 -0.45390930723E+02  0.44296090610E+03 -0.63827471529E+02  0.44983179862E+03  0.25500000920E-02 0. -1.
</event>
<event>
 5   0  0.3932568E-04  0.1366276E+04  0.7818609E-02  0.8978598E-01
        2   -1    0    0  501    0  0.00000000000E+00  0.00000000000E+00  0.12104907162E+04  0.12104907162E+04  0.25500000920E-02 0. -1.
       -2   -1    0    0    0  501  0.00000000000E+00  0.00000000000E+00 -0.38552746543E+03  0.38552746544E+03  0.25500000920E-02 0.  1.
    10030    2    1    2    0    0  0.00000000000E+00  0.00000000000E+00  0.82496325077E+03  0.15960181816E+04  0.13662758400E+04 0.  0.
        2    1    3    3  502    0  0.65972052933E+03 -0.28504507783E+02  0.20802583536E+03  0.69232826893E+03  0.25500000920E-02 0. -1.
       -2    1    3    3    0  502 -0.65972052933E+03  0.28504507783E+02  0.61693741541E+03  0.90368991270E+03  0.25500000920E-02 0.  1.
</event>
<event>
 5   0  0.2143942E-04  0.1403147E+04  0.7818609E-02  0.8951544E-01
       -1   -1    0    0    0  501  0.00000000000E+00  0.00000000000E+00  0.82984144975E+03  0.82984144976E+03  0.50400001928E-02 0. -1.
        1   -1    0    0  501    0  0.00000000000E+00  0.00000000000E+00 -0.59313167804E+03  0.59313167807E+03  0.50400001928E-02 0.  1.
    10030    2    1    2    0    0  0.00000000000E+00  0.00000000000E+00  0.23670977170E+03  0.14229731278E+04  0.14031468229E+04 0.  0.
        4    1    3    3  502    0 -0.10451682328E+03 -0.67922438503E+03 -0.24828284954E+02  0.68766822539E+03  0.12699999809E+01 0. -1.
       -4    1    3    3    0  502  0.10451682328E+03  0.67922438503E+03  0.26153805666E+03  0.73530490244E+03  0.12699999809E+01 0.  1.
</event>
<event>
 5   0  0.2217251E-04  0.1397580E+04  0.7818609E-02  0.8955572E-01
        1   -1    0    0  501    0  0.00000000000E+00  0.00000000000E+00  0.91346924438E+03  0.91346924439E+03  0.50400001928E-02 0. -1.
       -1   -1    0    0    0  501  0.00000000000E+00  0.00000000000E+00 -0.53456356541E+03  0.53456356543E+03  0.50400001928E-02 0.  1.
    10030    2    1    2    0    0  0.00000000000E+00  0.00000000000E+00  0.37890567897E+03  0.14480328098E+04  0.13975798742E+04 0.  0.
        5    1    3    3  502    0  0.61766469850E+03  0.24416562696E+03 -0.35547369141E+02  0.66514076602E+03  0.46999998093E+01 0.  1.
       -5    1    3    3    0  502 -0.61766469850E+03 -0.24416562696E+03  0.41445304811E+03  0.78289204380E+03  0.46999998093E+01 0. -1.
</event>
<event>
 5   0  0.2155352E-04  0.1400998E+04  0.7818609E-02  0.8953096E-01
       -1   -1    0    0    0  501  0.00000000000E+00  0.00000000000E+00  0.55731272995E+03  0.55731272997E+03  0.50400001928E-02 0.  1.
        1   -1    0    0  501    0  0.00000000000E+00  0.00000000000E+00 -0.88047322930E+03  0.88047322932E+03  0.50400001928E-02 0. -1.
    10030    2    1    2    0    0  0.00000000000E+00  0.00000000000E+00 -0.32316049935E+03  0.14377859593E+04  0.14009981286E+04 0.  0.
        2    1    3    3  502    0 -0.68149552076E+03 -0.54009794023E+02 -0.47750456197E+01  0.68364903550E+03  0.25500000920E-02 0. -1.
       -2    1    3    3    0  502  0.68149552076E+03  0.54009794023E+02 -0.31838545373E+03  0.75413692379E+03  0.25500000920E-02 0.  1.
</event>
<event>
 5   0  0.3917598E-04  0.1395903E+04  0.7818609E-02  0.8956790E-01
       -2   -1    0    0    0  501  0.00000000000E+00  0.00000000000E+00  0.32668903934E+03  0.32668903935E+03  0.25500000920E-02 0. -1.
        2   -1    0    0  501    0  0.00000000000E+00  0.00000000000E+00 -0.14911311167E+04  0.14911311167E+04  0.25500000920E-02 0.  1.
    10030    2    1    2    0    0  0.00000000000E+00  0.00000000000E+00 -0.11644420774E+04  0.18178201561E+04  0.13959028506E+04 0.  0.
        3    1    3    3  502    0 -0.63712721319E+03 -0.26160462281E+03 -0.43507141556E+03  0.81465036138E+03  0.10100000352E+00 0.  1.
       -3    1    3    3    0  502  0.63712721319E+03  0.26160462281E+03 -0.72937066182E+03  0.10031697947E+04  0.10100000352E+00 0. -1.
</event>
<event>
 5   0  0.2155352E-04  0.1387627E+04  0.7818609E-02  0.8962824E-01
        1   -1    0    0  501    0  0.00000000000E+00  0.00000000000E+00  0.54385780333E+03  0.54385780335E+03  0.50400001928E-02 0. -1.
       -1   -1    0    0    0  501  0.00000000000E+00  0.00000000000E+00 -0.88511599476E+03  0.88511599477E+03  0.50400001928E-02 0.  1.
    10030    2    1    2    0    0  0.00000000000E+00  0.00000000000E+00 -0.34125819143E+03  0.14289737981E+04  0.13876270978E+04 0.  0.
        2    1    3    3  502    0  0.24969043087E+02 -0.43705779253E+03 -0.72493745678E+03  0.84686320228E+03  0.25500000920E-02 0.  1.
       -2    1    3    3    0  502 -0.24969043087E+02  0.43705779253E+03  0.38367926536E+03  0.58211059584E+03  0.25500000920E-02 0. -1.
</event>
<event>
 5   0  0.2223112E-04  0.1401847E+04  0.7818609E-02  0.8952483E-01
        1   -1    0    0  501    0  0.00000000000E+00  0.00000000000E+00  0.12735959889E+04  0.12735959889E+04  0.50400001928E-02 0.  1.
       -1   -1    0    0    0  501  0.00000000000E+00  0.00000000000E+00 -0.38575306343E+03  0.38575306346E+03  0.50400001928E-02 0. -1.
    10030    2    1    2    0    0  0.00000000000E+00  0.00000000000E+00  0.88784292549E+03  0.16593490524E+04  0.14018467168E+04 0.  0.
        1    1    3    3  502    0 -0.80947959054E+02  0.56807704345E+03 -0.32547052884E+02  0.57473768803E+03  0.50400001928E-02 0. -1.
       -1    1    3    3    0  502  0.80947959054E+02 -0.56807704345E+03  0.92038997837E+03  0.10846113643E+04  0.50400001928E-02 0.  1.
</event>
<event>
 5   0  0.4310348E-04  0.1387018E+04  0.7818609E-02  0.8963270E-01
       -2   -1    0    0    0  501  0.00000000000E+00  0.00000000000E+00  0.25070005676E+03  0.25070005677E+03  0.25500000920E-02 0. -1.
        2   -1    0    0  501    0  0.00000000000E+00  0.00000000000E+00 -0.19184457931E+04  0.19184457931E+04  0.25500000920E-02 0.  1.
    10030    2    1    2    0    0  0.00000000000E+00  0.00000000000E+00 -0.16677457364E+04  0.21691458499E+04  0.13870176196E+04 0.  0.
        1    1    3    3  502    0 -0.69202709758E+03 -0.92424484578E+01 -0.90324241310E+03  0.11379076340E+04  0.50400001928E-02 0. -1.
       -1    1    3    3    0  502  0.69202709758E+03  0.92424484578E+01 -0.76450332326E+03  0.10312382159E+04  0.50400001928E-02 0.  1.
</event>
<event>
 5   0  0.1497625E-04  0.1376624E+04  0.7818609E-02  0.8970915E-01
        3   -1    0    0  501    0  0.00000000000E+00  0.00000000000E+00  0.68468602843E+03  0.68468603588E+03  0.10100000352E+00 0.  1.
       -3   -1    0    0    0  501  0.00000000000E+00  0.00000000000E+00 -0.69195691086E+03  0.69195691823E+03  0.10100000352E+00 0. -1.
    10030    2    1    2    0    0  0.00000000000E+00  0.00000000000E+00 -0.72708824342E+01  0.13766429541E+04  0.13766237530E+04 0.  0.
        2    1    3    3  502    0 -0.37388782320E+03  0.54524222203E+03 -0.19518981439E+03  0.68933319133E+03  0.25500000920E-02 0. -1.
       -2    1    3    3    0  502  0.37388782320E+03 -0.54524222203E+03  0.18791893195E+03  0.68730976278E+03  0.25500000920E-02 0.  1.
</event>
<event>
 5   0  0.2217251E-04  0.1399495E+04  0.7818609E-02  0.8954184E-01
        1   -1    0    0  501    0  0.00000000000E+00  0.00000000000E+00  0.10462911756E+04  0.10462911756E+04  0.50400001928E-02 0.  1.
       -1   -1    0    0    0  501  0.00000000000E+00  0.00000000000E+00 -0.46798285411E+03  0.46798285414E+03  0.50400001928E-02 0. -1.
    10030    2    1    2    0    0  0.00000000000E+00  0.00000000000E+00  0.57830832144E+03  0.15142740297E+04  0.13994946668E+04 0.  0.
        5    1    3    3  502    0 -0.99746525099E+02 -0.38978060454E+02 -0.45904607630E+03  0.47139585131E+03  0.46999998093E+01 0. -1.
       -5    1    3    3    0  502  0.99746525099E+02  0.38978060454E+02  0.10373543977E+04  0.10428781784E+04  0.46999998093E+01 0.  1.
</event>
<event>
 5   0  0.3932568E-04  0.1402031E+04  0.7818609E-02  0.8952350E-01
       -2   -1    0    0    0  501  0.00000000000E+00  0.00000000000E+00  0.52247820126E+03  0.52247820126E+03  0.25500000920E-02 0. -1.
        2   -1    0    0  501    0  0.00000000000E+00  0.00000000000E+00 -0.94056144588E+03  0.94056144588E+03  0.25500000920E-02 0.  1.
    10030    2    1    2    0    0  0.00000000000E+00  0.00000000000E+00 -0.41808324462E+03  0.14630396471E+04  0.14020311729E+04 0.  0.
        2    1    3    3  502    0  0.47349404073E+03 -0.13949584801E+03  0.31038031983E+03  0.58308802179E+03  0.25500000920E-02 0. -1.
       -2    1    3    3    0  502 -0.47349404073E+03  0.13949584801E+03 -0.72846356445E+03  0.87995162535E+03  0.25500000920E-02 0.  1.
</event>
<event>
 5   0  0.3932568E-04  0.1408550E+04  0.7818609E-02  0.8947653E-01
       -2   -1    0    0    0  501  0.00000000000E+00  0.00000000000E+00  0.68536799576E+03  0.68536799576E+03  0.25500000920E-02 0.  1.
        2   -1    0    0  501    0  0.00000000000E+00  0.00000000000E+00 -0.72370394373E+03  0.72370394373E+03  0.25500000920E-02 0. -1.
    10030    2    1    2    0    0  0.00000000000E+00  0.00000000000E+00 -0.38335947974E+02  0.14090719395E+04  0.14085503490E+04 0.  0.
        2    1    3    3  502    0  0.80932599143E+02  0.25895013318E+03 -0.66933037907E+03  0.72222462810E+03  0.25500000920E-02 0. -1.
       -2    1    3    3    0  502 -0.80932599143E+02 -0.25895013318E+03  0.63099443110E+03  0.68684731139E+03  0.25500000920E-02 0.  1.
</event>
<event>
 5   0  0.2215876E-04  0.1401279E+04  0.7818609E-02  0.8952894E-01
       -1   -1    0    0    0  501  0.00000000000E+00  0.00000000000E+00  0.51393748448E+03  0.51393748451E+03  0.50400001928E-02 0. -1.
        1   -1    0    0  501    0  0.00000000000E+00  0.00000000000E+00 -0.95516571124E+03  0.95516571125E+03  0.50400001928E-02 0.  1.
    10030    2    1    2    0    0  0.00000000000E+00  0.00000000000E+00 -0.44122822676E+03  0.14691031958E+04  0.14012786488E+04 0.  0.
        3    1    3    3  502    0  0.42419641068E+03 -0.28012099681E+03 -0.72611898675E+03  0.88637416524E+03  0.10100000352E+00 0.  1.
       -3    1    3    3    0  502 -0.42419641068E+03  0.28012099681E+03  0.28489075999E+03  0.58272903053E+03  0.10100000352E+00 0. -1.
</event>
<event>
 5   0  0.3975164E-04  0.1399890E+04  0.7818609E-02  0.8953898E-01
        2   -1    0    0  501    0  0.00000000000E+00  0.00000000000E+00  0.56510667632E+03  0.56510667633E+03  0.25500000920E-02 0. -1.
       -2   -1    0    0    0  501  0.00000000000E+00  0.00000000000E+00 -0.86695722303E+03  0.86695722303E+03  0.25500000920E-02 0.  1.
    10030    2    1    2    0    0  0.00000000000E+00  0.00000000000E+00 -0.30185054671E+03  0.14320638994E+04  0.13998904455E+04 0.  0.
        5    1    3    3  502    0 -0.42448372295E+03  0.41938937248E+02 -0.71861707913E+03  0.83569007528E+03  0.46999998093E+01 0.  1.
       -5    1    3    3    0  502  0.42448372295E+03 -0.41938937248E+02  0.41676653242E+03  0.59637382408E+03  0.46999998093E+01 0. -1.
</event>
<event>
 5   0  0.2143942E-04  0.1408497E+04  0.7818609E-02  0.8947691E-01
        1   -1    0    0  501    0  0.00000000000E+00  0.00000000000E+00  0.45425383725E+03  0.45425383728E+03  0.50400001928E-02 0. -1.
       -1   -1    0    0    0  501  0.00000000000E+00  0.00000000000E+00 -0.10918248202E+04  0.10918248202E+04  0.50400001928E-02 0.  1.
    10030    2    1    2    0    0  0.00000000000E+00  0.00000000000E+00 -0.63757098295E+03  0.15460786575E+04  0.14084965235E+04 0.  0.
        4    1    3    3  502    0 -0.31846250390E+03 -0.12025913145E+03  0.35794421829E+03  0.49396993977E+03  0.12699999809E+01 0. -1.
       -4    1    3    3    0  502  0.31846250390E+03  0.12025913145E+03 -0.99551520124E+03  0.10521087177E+04  0.12699999809E+01 0.  1.
</event>
<event>
 5   0  0.3932568E-04  0.1404796E+04  0.7818609E-02  0.8950354E-01
        2   -1    0    0  501    0  0.00000000000E+00  0.00000000000E+00  0.54493047901E+03  0.54493047902E+03  0.25500000920E-02 0. -1.
       -2   -1    0    0    0  501  0.00000000000E+00  0.00000000000E+00 -0.90536879035E+03  0.90536879036E+03  0.25500000920E-02 0.  1.
    10030    2    1    2    0    0  0.00000000000E+00  0.00000000000E+00 -0.36043831134E+03  0.14502992694E+04  0.14047961398E+04 0.  0.
        2    1    3    3  502    0  0.39696096326E+03  0.33880676728E+03 -0.66554739660E+03  0.84576673441E+03  0.25500000920E-02 0.  1.
       -2    1    3    3    0  502 -0.39696096326E+03 -0.33880676728E+03  0.30510908526E+03  0.60453253496E+03  0.25500000920E-02 0. -1.
</event>
<event>
 5   0  0.2217251E-04  0.1427924E+04  0.7818609E-02  0.8933850E-01
        1   -1    0    0  501    0  0.00000000000E+00  0.00000000000E+00  0.92462965915E+03  0.92462965917E+03  0.50400001928E-02 0.  1.
       -1   -1    0    0    0  501  0.00000000000E+00  0.00000000000E+00 -0.55129305288E+03  0.55129305290E+03  0.50400001928E-02 0. -1.
    10030    2    1    2    0    0  0.00000000000E+00  0.00000000000E+00  0.37333660627E+03  0.14759227121E+04  0.14279242383E+04 0.  0.
        5    1    3    3  502    0 -0.50095389393E+03  0.35004555965E+03 -0.19483631689E+03  0.64145925674E+03  0.46999998093E+01 0. -1.
       -5    1    3    3    0  502  0.50095389393E+03 -0.35004555965E+03  0.56817292316E+03  0.83446345534E+03  0.46999998093E+01 0.  1.
</event>
<event>
 5   0  0.1497625E-04  0.1397716E+04  0.7818609E-02  0.8955474E-01
       -3   -1    0    0    0  501  0.00000000000E+00  0.00000000000E+00  0.98372042573E+03  0.98372043092E+03  0.10100000352E+00 0. -1.
        3   -1    0    0  501    0  0.00000000000E+00  0.00000000000E+00 -0.49648472804E+03  0.49648473831E+03  0.10100000352E+00 0.  1.
    10030    2    1    2    0    0  0.00000000000E+00  0.00000000000E+00  0.48723569770E+03  0.14802051692E+04  0.13977155354E+04 0.  0.
        2    1    3    3  502    0  0.50525014206E+03  0.39861174462E+03 -0.44919522179E+02  0.64512540833E+03  0.25500000920E-02 0. -1.
       -2    1    3    3    0  502 -0.50525014206E+03 -0.39861174462E+03  0.53215521987E+03  0.83507976089E+03  0.25500000920E-02 0.  1.
</event>
<event>
 5   0  0.2155352E-04  0.1409348E+04  0.7818609E-02  0.8947080E-01
       -1   -1    0    0    0  501  0.00000000000E+00  0.00000000000E+00  0.87640319383E+03  0.87640319384E+03  0.50400001928E-02 0.  1.
        1   -1    0    0  501    0  0.00000000000E+00  0.00000000000E+00 -0.56659462844E+03  0.56659462846E+03  0.50400001928E-02 0. -1.
    10030    2    1    2    0    0  0.00000000000E+00  0.00000000000E+00  0.30980856539E+03  0.14429978223E+04  0.14093478520E+04 0.  0.
        2    1    3    3  502    0 -0.60542621451E+02 -0.56797778448E+03  0.57743305980E+03  0.81221494152E+03  0.25500000920E-02 0.  1.
       -2    1    3    3    0  502  0.60542621451E+02  0.56797778448E+03 -0.26762449440E+03  0.63078288078E+03  0.25500000920E-02 0. -1.
</event>
<event>
 5   0  0.2217251E-04  0.1397694E+04  0.7818609E-02  0.8955490E-01
        1   -1    0    0  501    0  0.00000000000E+00  0.00000000000E+00  0.52370158239E+03  0.52370158242E+03  0.50400001928E-02 0.  1.
       -1   -1    0    0    0  501  0.00000000000E+00  0.00000000000E+00 -0.93256703922E+03  0.93256703923E+03  0.50400001928E-02 0. -1.
    10030    2    1    2    0    0  0.00000000000E+00  0.00000000000E+00 -0.40886545683E+03  0.14562686217E+04  0.13976935775E+04 0.  0.
        5    1    3    3  502    0 -0.46526070030E+03  0.12152579645E+03  0.32389670268E+03  0.57979927772E+03  0.46999998093E+01 0.  1.
       -5    1    3    3    0  502  0.46526070030E+03 -0.12152579645E+03 -0.73276215950E+03  0.87646934393E+03  0.46999998093E+01 0. -1.
</event>
<event>
 5   0  0.3932568E-04  0.1394087E+04  0.7818609E-02  0.8958110E-01
       -2   -1    0    0    0  501  0.00000000000E+00  0.00000000000E+00  0.12174078237E+04  0.12174078237E+04  0.25500000920E-02 0. -1.
        2   -1    0    0  501    0  0.00000000000E+00  0.00000000000E+00 -0.39910191652E+03  0.39910191653E+03  0.25500000920E-02 0.  1.
    10030    2    1    2    0    0  0.00000000000E+00  0.00000000000E+00  0.81830590719E+03  0.16165097402E+04  0.13940872220E+04 0.  0.
        2    1    3    3  502    0  0.39927972894E+03  0.17964346698E+03  0.10380655805E+04  0.11266215987E+04  0.25500000920E-02 0. -1.
       -2    1    3    3    0  502 -0.39927972894E+03 -0.17964346698E+03 -0.21975967335E+03  0.48988814153E+03  0.25500000920E-02 0.  1.
</event>
<event>
 5   0  0.3932568E-04  0.1393985E+04  0.7818609E-02  0.8958184E-01
       -2   -1    0    0    0  501  0.00000000000E+00  0.00000000000E+00  0.48616026903E+03  0.48616026904E+03  0.25500000920E-02 0. -1.
        2   -1    0    0  501    0  0.00000000000E+00  0.00000000000E+00 -0.99925543509E+03  0.99925543509E+03  0.25500000920E-02 0.  1.
    10030    2    1    2    0    0  0.00000000000E+00  0.00000000000E+00 -0.51309516606E+03  0.14854157041E+04  0.13939846357E+04 0.  0.
        2    1    3    3  502    0  0.56777774932E+03  0.18109755889E+03 -0.64168183128E+03  0.87574166914E+03  0.25500000920E-02 0.  1.
       -2    1    3    3    0  502 -0.56777774932E+03 -0.18109755889E+03  0.12858666522E+03  0.60967403499E+03  0.25500000920E-02 0. -1.
</event>
<event>
 5   0  0.2143942E-04  0.1347668E+04  0.7818609E-02  0.8992596E-01
       -1   -1    0    0    0  501  0.00000000000E+00  0.00000000000E+00  0.53675540116E+03  0.53675540118E+03  0.50400001928E-02 0.  1.
        1   -1    0    0  501    0  0.00000000000E+00  0.00000000000E+00 -0.84591965118E+03  0.84591965120E+03  0.50400001928E-02 0. -1.
    10030    2    1    2    0    0  0.00000000000E+00  0.00000000000E+00 -0.30916425002E+03  0.13826750524E+04  0.13476675284E+04 0.  0.
        4    1    3    3  502    0 -0.40115566018E+03 -0.33198276469E+03 -0.59337377439E+03  0.78945073866E+03  0.12699999809E+01 0. -1.
       -4    1    3    3    0  502  0.40115566018E+03  0.33198276469E+03  0.28420952437E+03  0.59322431372E+03  0.12699999809E+01 0.  1.
</event>
<event>
 5   0  0.4208622E-04  0.1401772E+04  0.7818609E-02  0.8952537E-01
        2   -1    0    0  501    0  0.00000000000E+00  0.00000000000E+00  0.56703310719E+03  0.56703310719E+03  0.25500000920E-02 0.  1.
       -2   -1    0    0    0  501  0.00000000000E+00  0.00000000000E+00 -0.86633651334E+03  0.86633651334E+03  0.25500000920E-02 0. -1.
    10030    2    1    2    0    0  0.00000000000E+00  0.00000000000E+00 -0.29930340615E+03  0.14333696205E+04  0.14017724281E+04 0.  0.
        4    1    3    3  502    0 -0.17123982441E+01  0.36719505341E+03 -0.76010495737E+03  0.84415419129E+03  0.12699999809E+01 0. -1.
       -4    1    3    3    0  502  0.17123982441E+01 -0.36719505341E+03  0.46080155121E+03  0.58921542924E+03  0.12699999809E+01 0.  1.
</event>
<event>
 5   0  0.1497625E-04  0.1395022E+04  0.7818609E-02  0.8957430E-01
        3   -1    0    0  501    0  0.00000000000E+00  0.00000000000E+00  0.28488017178E+03  0.28488018968E+03  0.10100000352E+00 0. -1.
       -3   -1    0    0    0  501  0.00000000000E+00  0.00000000000E+00 -0.17078113998E+04  0.17078114027E+04  0.10100000352E+00 0.  1.
    10030    2    1    2    0    0  0.00000000000E+00  0.00000000000E+00 -0.14229312280E+04  0.19926915924E+04  0.13950220439E+04 0.  0.
        1    1    3    3  502    0 -0.83030842233E+02 -0.65707468680E+03 -0.10240287286E+04  0.12195392990E+04  0.50400001928E-02 0.  1.
       -1    1    3    3    0  502  0.83030842233E+02  0.65707468680E+03 -0.39890249938E+03  0.77315229343E+03  0.50400001928E-02 0. -1.
</event>
<event>
 5   0  0.1497625E-04  0.1397147E+04  0.7818609E-02  0.8955886E-01
       -3   -1    0    0    0  501  0.00000000000E+00  0.00000000000E+00  0.14829015234E+04  0.14829015268E+04  0.10100000352E+00 0. -1.
        3   -1    0    0  501    0  0.00000000000E+00  0.00000000000E+00 -0.32908785051E+03  0.32908786600E+03  0.10100000352E+00 0.  1.
    10030    2    1    2    0    0  0.00000000000E+00  0.00000000000E+00  0.11538136729E+04  0.18119893928E+04  0.13971469386E+04 0.  0.
        2    1    3    3  502    0  0.23366656371E+03  0.63120506342E+03  0.81948655483E+03  0.10604612716E+04  0.25500000920E-02 0. -1.
       -2    1    3    3    0  502 -0.23366656371E+03 -0.63120506342E+03  0.33432711804E+03  0.75152812119E+03  0.25500000920E-02 0.  1.
</event>
<event>
 5   0  0.2215876E-04  0.1406193E+04  0.7818609E-02  0.8949348E-01
       -1   -1    0    0    0  501  0.00000000000E+00  0.00000000000E+00  0.35482662164E+03  0.35482662168E+03  0.50400001928E-02 0. -1.
        1   -1    0    0  501    0  0.00000000000E+00  0.00000000000E+00 -0.13932008373E+04  0.13932008373E+04  0.50400001928E-02 0.  1.
    10030    2    1    2    0    0  0.00000000000E+00  0.00000000000E+00 -0.10383742157E+04  0.17480274590E+04  0.14061930826E+04 0.  0.
        3    1    3    3  502    0 -0.31970589290E+03  0.31064384196E+03  0.15670901540E+03  0.47251368256E+03  0.10100000352E+00 0. -1.
       -3    1    3    3    0  502  0.31970589290E+03 -0.31064384196E+03 -0.11950832311E+04  0.12755137764E+04  0.10100000352E+00 0.  1.
</event>
<event>
 5   0  0.3932568E-04  0.1399552E+04  0.7818609E-02  0.8954143E-01
       -2   -1    0    0    0  501  0.00000000000E+00  0.00000000000E+00  0.24167773399E+03  0.24167773400E+03  0.25500000920E-02 0.  1.
        2   -1    0    0  501    0  0.00000000000E+00  0.00000000000E+00 -0.20261967665E+04  0.20261967665E+04  0.25500000920E-02 0. -1.
    10030    2    1    2    0    0  0.00000000000E+00  0.00000000000E+00 -0.17845190325E+04  0.22678745005E+04  0.13995522758E+04 0.  0.
        2    1    3    3  502    0  0.11935015123E+03 -0.86655889084E+02  0.21620476457E+03  0.26172161153E+03  0.25500000920E-02 0.  1.
       -2    1    3    3    0  502 -0.11935015123E+03  0.86655889084E+02 -0.20007237971E+04  0.20061528890E+04  0.25500000920E-02 0. -1.
</event>
<event>
 5   0  0.2223112E-04  0.1406102E+04  0.7818609E-02  0.8949413E-01
       -1   -1    0    0    0  501  0.00000000000E+00  0.00000000000E+00  0.10247748453E+04  0.10247748453E+04  0.50400001928E-02 0.  1.
        1   -1    0    0  501    0  0.00000000000E+00  0.00000000000E+00 -0.48233105858E+03  0.48233105861E+03  0.50400001928E-02 0. -1.
    10030    2    1    2    0    0  0.00000000000E+00  0.00000000000E+00  0.54244378675E+03  0.15071059039E+04  0.14061020389E+04 0.  0.
        1    1    3    3  502    0 -0.15961156857E+03  0.57660561058E+03  0.66697470514E+03  0.89599393987E+03  0.50400001928E-02 0.  1.
       -1    1    3    3    0  502  0.15961156857E+03 -0.57660561058E+03 -0.12453091839E+03  0.61111196407E+03  0.50400001928E-02 0. -1.
</event>
<event>
 5   0  0.3932568E-04  0.1399966E+04  0.7818609E-02  0.8953843E-01
        2   -1    0    0  501    0  0.00000000000E+00  0.00000000000E+00  0.94888799362E+03  0.94888799362E+03  0.25500000920E-02 0. -1.
       -2   -1    0    0    0  501  0.00000000000E+00  0.00000000000E+00 -0.51636912683E+03  0.51636912684E+03  0.25500000920E-02 0.  1.
    10030    2    1    2    0    0  0.00000000000E+00  0.00000000000E+00  0.43251886678E+03  0.14652571205E+04  0.13999663778E+04 0.  0.
        2    1    3    3  502    0 -0.58812328709E+03  0.37467492123E+03  0.15254193081E+03  0.71382024214E+03  0.25500000920E-02 0.  1.
       -2    1    3    3    0  502  0.58812328709E+03 -0.37467492123E+03  0.27997693597E+03  0.75143687832E+03  0.25500000920E-02 0. -1.
</event>
<event>
 5   0  0.3932568E-04  0.1368240E+04  0.7818609E-02  0.8977135E-01
       -2   -1    0    0    0  501  0.00000000000E+00  0.00000000000E+00  0.31757195229E+03  0.31757195230E+03  0.25500000920E-02 0. -1.
        2   -1    0    0  501    0  0.00000000000E+00  0.00000000000E+00 -0.14737443132E+04  0.14737443132E+04  0.25500000920E-02 0.  1.
    10030    2    1    2    0    0  0.00000000000E+00  0.00000000000E+00 -0.11561723609E+04  0.17913162655E+04  0.13682395386E+04 0.  0.
        2    1    3    3  502    0  0.51717751793E+03  0.28680847602E+03 -0.12780811363E+03  0.60503437992E+03  0.25500000920E-02 0. -1.
       -2    1    3    3    0  502 -0.51717751793E+03 -0.28680847602E+03 -0.10283642472E+04  0.11862818855E+04  0.25500000920E-02 0.  1.
</event>
<event>
 5   0  0.2215876E-04  0.1400830E+04  0.7818609E-02  0.8953218E-01
        1   -1    0    0  501    0  0.00000000000E+00  0.00000000000E+00  0.21222621604E+04  0.21222621604E+04  0.50400001928E-02 0. -1.
       -1   -1    0    0    0  501  0.00000000000E+00  0.00000000000E+00 -0.23115966395E+03  0.23115966401E+03  0.50400001928E-02 0.  1.
    10030    2    1    2    0    0  0.00000000000E+00  0.00000000000E+00  0.18911024964E+04  0.23534218244E+04  0.14008303365E+04 0.  0.
        3    1    3    3  502    0 -0.53144446542E+03 -0.43498551184E+03  0.71436826443E+03  0.99094280499E+03  0.10100000352E+00 0. -1.
       -3    1    3    3    0  502  0.53144446542E+03  0.43498551184E+03  0.11767342320E+04  0.13624790194E+04  0.10100000352E+00 0.  1.
</event>
<event>
 5   0  0.2223112E-04  0.1372721E+04  0.7818609E-02  0.8973805E-01
       -1   -1    0    0    0  501  0.00000000000E+00  0.00000000000E+00  0.60185660840E+03  0.60185660842E+03  0.50400001928E-02 0. -1.
        1   -1    0    0  501    0  0.00000000000E+00  0.00000000000E+00 -0.78272873731E+03  0.78272873733E+03  0.50400001928E-02 0.  1.
    10030    2    1    2    0    0  0.00000000000E+00  0.00000000000E+00 -0.18087212891E+03  0.13845853457E+04  0.13727206025E+04 0.  0.
        1    1    3    3  502    0  0.30959083345E+03  0.49765640520E+03 -0.45070964882E+03  0.73935618571E+03  0.50400001928E-02 0. -1.
       -1    1    3    3    0  502 -0.30959083345E+03 -0.49765640520E+03  0.26983751990E+03  0.64522916004E+03  0.50400001928E-02 0.  1.
</event>
<event>
 5   0  0.2215876E-04  0.1397059E+04  0.7818609E-02  0.8955950E-01
       -1   -1    0    0    0  501  0.00000000000E+00  0.00000000000E+00  0.29277671423E+03  0.29277671428E+03  0.50400001928E-02 0. -1.
        1   -1    0    0  501    0  0.00000000000E+00  0.00000000000E+00 -0.16666054518E+04  0.16666054518E+04  0.50400001928E-02 0.  1.
    10030    2    1    2    0    0  0.00000000000E+00  0.00000000000E+00 -0.13738287375E+04  0.19593821660E+04  0.13970587219E+04 0.  0.
        3    1    3    3  502    0  0.25299459092E+03  0.44179393988E+03 -0.13577094843E+04  0.14500217937E+04  0.10100000352E+00 0.  1.
       -3    1    3    3    0  502 -0.25299459092E+03 -0.44179393988E+03 -0.16119253229E+02  0.50936037231E+03  0.10100000352E+00 0. -1.
</event>
<event>
 5   0  0.1497625E-04  0.1408423E+04  0.7818609E-02  0.8947744E-01
       -3   -1    0    0    0  501  0.00000000000E+00  0.00000000000E+00  0.35397465316E+03  0.35397466757E+03  0.10100000352E+00 0.  1.
        3   -1    0    0  501    0  0.00000000000E+00  0.00000000000E+00 -0.14009867970E+04  0.14009868007E+04  0.10100000352E+00 0. -1.
    10030    2    1    2    0    0  0.00000000000E+00  0.00000000000E+00 -0.10470121439E+04  0.17549614682E+04  0.14084229924E+04 0.  0.
        1    1    3    3  502    0  0.27680550216E+03  0.64752243904E+03 -0.52015416341E+03  0.87548098142E+03  0.50400001928E-02 0.  1.
       -1    1    3    3    0  502 -0.27680550216E+03 -0.64752243904E+03 -0.52685798045E+03  0.87948048680E+03  0.50400001928E-02 0. -1.
</event>
<event>
 5   0  0.2143942E-04  0.1378779E+04  0.7818609E-02  0.8969324E-01
        1   -1    0    0  501    0  0.00000000000E+00  0.00000000000E+00  0.79905158327E+03  0.79905158329E+03  0.50400001928E-02 0.  1.
       -1   -1    0    0    0  501  0.00000000000E+00  0.00000000000E+00 -0.59477759086E+03  0.59477759088E+03  0.50400001928E-02 0. -1.
    10030    2    1    2    0    0  0.00000000000E+00  0.00000000000E+00  0.20427399241E+03  0.13938291742E+04  0.13787791349E+04 0.  0.
        4    1    3    3  502    0 -0.15141024329E+03  0.58938486627E+03 -0.22536963512E+03  0.64891653369E+03  0.12699999809E+01 0. -1.
       -4    1    3    3    0  502  0.15141024329E+03 -0.58938486627E+03  0.42964362754E+03  0.74491264048E+03  0.12699999809E+01 0.  1.
</event>
<event>
 5   0  0.2143942E-04  0.1394176E+04  0.7818609E-02  0.8958045E-01
        1   -1    0    0  501    0  0.00000000000E+00  0.00000000000E+00  0.15343073647E+04  0.15343073647E+04  0.50400001928E-02 0.  1.
       -1   -1    0    0    0  501  0.00000000000E+00  0.00000000000E+00 -0.31671071951E+03  0.31671071955E+03  0.50400001928E-02 0. -1.
    10030    2    1    2    0    0  0.00000000000E+00  0.00000000000E+00  0.12175966452E+04  0.18510180842E+04  0.13941758705E+04 0.  0.
        4    1    3    3  502    0 -0.55283448969E+03  0.40175253427E+03  0.79131872522E+03  0.10455706622E+04  0.12699999809E+01 0.  1.
       -4    1    3    3    0  502  0.55283448969E+03 -0.40175253427E+03  0.42627791994E+03  0.80544742207E+03  0.12699999809E+01 0. -1.
</event>
<event>
 5   0  0.4310348E-04  0.1395603E+04  0.7818609E-02  0.8957007E-01
        2   -1    0    0  501    0  0.00000000000E+00  0.00000000000E+00  0.20888356132E+04  0.20888356132E+04  0.25500000920E-02 0.  1.
       -2   -1    0    0    0  501  0.00000000000E+00  0.00000000000E+00 -0.23310936017E+03  0.23310936019E+03  0.25500000920E-02 0. -1.
    10030    2    1    2    0    0  0.00000000000E+00  0.00000000000E+00  0.18557262530E+04  0.23219449734E+04  0.13956032865E+04 0.  0.
        1    1    3    3  502    0  0.82325290481E+02 -0.39607725603E+03 -0.18100226833E+02  0.40494723660E+03  0.50400001928E-02 0. -1.
       -1    1    3    3    0  502 -0.82325290481E+02  0.39607725603E+03  0.18738264798E+04  0.19169977368E+04  0.50400001928E-02 0.  1.
</event>
<event>
 5   0  0.3917598E-04  0.1407294E+04  0.7818609E-02  0.8948556E-01
       -2   -1    0    0    0  501  0.00000000000E+00  0.00000000000E+00  0.62766542088E+03  0.62766542088E+03  0.25500000920E-02 0. -1.
        2   -1    0    0  501    0  0.00000000000E+00  0.00000000000E+00 -0.78882625347E+03  0.78882625348E+03  0.25500000920E-02 0.  1.
    10030    2    1    2    0    0  0.00000000000E+00  0.00000000000E+00 -0.16116083260E+03  0.14164916744E+04  0.14072938036E+04 0.  0.
        3    1    3    3  502    0 -0.20121119821E+02  0.17444213650E+03  0.60525692206E+03  0.63021493981E+03  0.10100000352E+00 0. -1.
       -3    1    3    3    0  502  0.20121119821E+02 -0.17444213650E+03 -0.76641775466E+03  0.78627673456E+03  0.10100000352E+00 0.  1.
</event>
<event>
 5   0  0.1497625E-04  0.1401354E+04  0.7818609E-02  0.8952839E-01
        3   -1    0    0  501    0  0.00000000000E+00  0.00000000000E+00  0.54448817867E+03  0.54448818803E+03  0.10100000352E+00 0. -1.
       -3   -1    0    0    0  501  0.00000000000E+00  0.00000000000E+00 -0.90166885807E+03  0.90166886373E+03  0.10100000352E+00 0.  1.
    10030    2    1    2    0    0  0.00000000000E+00  0.00000000000E+00 -0.35718067940E+03  0.14461570518E+04  0.14013536958E+04 0.  0.
        2    1    3    3  502    0  0.44727060625E+03 -0.11105279176E+03  0.36607588694E+03  0.58855354283E+03  0.25500000920E-02 0. -1.
       -2    1    3    3    0  502 -0.44727060625E+03  0.11105279176E+03 -0.72325656634E+03  0.85760350893E+03  0.25500000920E-02 0.  1.
</event>
<event>
 5   0  0.3932568E-04  0.1391406E+04  0.7818609E-02  0.8960063E-01
        2   -1    0    0  501    0  0.00000000000E+00  0.00000000000E+00  0.64898536340E+03  0.64898536341E+03  0.25500000920E-02 0. -1.
       -2   -1    0    0    0  501  0.00000000000E+00  0.00000000000E+00 -0.74578390976E+03  0.74578390976E+03  0.25500000920E-02 0.  1.
    10030    2    1    2    0    0  0.00000000000E+00  0.00000000000E+00 -0.96798546353E+02  0.13947692732E+04  0.13914062551E+04 0.  0.
        2    1    3    3  502    0 -0.12503166327E+02 -0.57784394802E+03  0.33976123714E+03  0.67044586336E+03  0.25500000920E-02 0.  1.
       -2    1    3    3    0  502  0.12503166327E+02  0.57784394802E+03 -0.43655978349E+03  0.72432340981E+03  0.25500000920E-02 0. -1.
</event>
<event>
 5   0  0.4208622E-04  0.1405113E+04  0.7818609E-02  0.8950125E-01
        2   -1    0    0  501    0  0.00000000000E+00  0.00000000000E+00  0.15899602092E+04  0.15899602092E+04  0.25500000920E-02 0. -1.
       -2   -1    0    0    0  501  0.00000000000E+00  0.00000000000E+00 -0.31043918545E+03  0.31043918546E+03  0.25500000920E-02 0.  1.
    10030    2    1    2    0    0  0.00000000000E+00  0.00000000000E+00  0.12795210238E+04  0.19003993947E+04  0.14051134506E+04 0.  0.
        4    1    3    3  502    0  0.63158190553E+03  0.30737584387E+03  0.62022061037E+03  0.93704366559E+03  0.12699999809E+01 0.  1.
       -4    1    3    3    0  502 -0.63158190553E+03 -0.30737584387E+03  0.65930041341E+03  0.96335572911E+03  0.12699999809E+01 0. -1.
</event>
<event>
 5   0  0.2143942E-04  0.1397678E+04  0.7818609E-02  0.8955501E-01
       -1   -1    0    0    0  501  0.00000000000E+00  0.00000000000E+00  0.37222615334E+03  0.37222615337E+03  0.50400001928E-02 0.  1.
        1   -1    0    0  501    0  0.00000000000E+00  0.00000000000E+00 -0.13120408787E+04  0.13120408787E+04  0.50400001928E-02 0. -1.
    10030    2    1    2    0    0  0.00000000000E+00  0.00000000000E+00 -0.93981472533E+03  0.16842670321E+04  0.13976779734E+04 0.  0.
        4    1    3    3  502    0 -0.10397989531E+03  0.68563955831E+03 -0.36581969959E+03  0.78405298804E+03  0.12699999809E+01 0.  1.
       -4    1    3    3    0  502  0.10397989531E+03 -0.68563955831E+03 -0.57399502574E+03  0.90021404401E+03  0.12699999809E+01 0. -1.
</event>
<event>
 5   0  0.3975164E-04  0.1402461E+04  0.7818609E-02  0.8952039E-01
       -2   -1    0    0    0  501  0.00000000000E+00  0.00000000000E+00  0.33738296876E+03  0.33738296877E+03  0.25500000920E-02 0.  1.
        2   -1    0    0  501    0  0.00000000000E+00  0.00000000000E+00 -0.14574650619E+04  0.14574650619E+04  0.25500000920E-02 0. -1.
    10030    2    1    2    0    0  0.00000000000E+00  0.00000000000E+00 -0.11200820931E+04  0.17948480307E+04  0.14024605370E+04 0.  0.
        5    1    3    3  502    0  0.31850112322E+03  0.55518074457E+03 -0.92658983892E+03  0.11261702554E+04  0.46999998093E+01 0. -1.
       -5    1    3    3    0  502 -0.31850112322E+03 -0.55518074457E+03 -0.19349225421E+03  0.66867777522E+03  0.46999998093E+01 0.  1.
</event>
<event>
 5   0  0.3917598E-04  0.1395105E+04  0.7818609E-02  0.8957369E-01
       -2   -1    0    0    0  501  0.00000000000E+00  0.00000000000E+00  0.73828699732E+03  0.73828699732E+03  0.25500000920E-02 0. -1.
        2   -1    0    0  501    0  0.00000000000E+00  0.00000000000E+00 -0.65906584860E+03  0.65906584861E+03  0.25500000920E-02 0.  1.
    10030    2    1    2    0    0  0.00000000000E+00  0.00000000000E+00  0.79221148715E+02  0.13973528459E+04  0.13951053672E+04 0.  0.
        3    1    3    3  502    0  0.56126276897E+03 -0.29404247824E+03 -0.25258333257E+03  0.68211085971E+03  0.10100000352E+00 0.  1.
       -3    1    3    3    0  502 -0.56126276897E+03  0.29404247824E+03  0.33180448129E+03  0.71524198622E+03  0.10100000352E+00 0. -1.
</event>
<event>
 5   0  0.2143942E-04  0.1393830E+04  0.7818609E-02  0.8958297E-01
        1   -1    0    0  501    0  0.00000000000E+00  0.00000000000E+00  0.33825330946E+03  0.33825330950E+03  0.50400001928E-02 0. -1.
       -1   -1    0    0    0  501  0.00000000000E+00  0.00000000000E+00 -0.14358784327E+04  0.14358784327E+04  0.50400001928E-02 0.  1.
    10030    2    1    2    0    0  0.00000000000E+00  0.00000000000E+00 -0.10976251232E+04  0.17741317422E+04  0.13938301645E+04 0.  0.
        4    1    3    3  502    0 -0.39382995641E+03  0.24004911534E+03 -0.12138226320E+04  0.12984962869E+04  0.12699999809E+01 0.  1.
       -4    1    3    3    0  502  0.39382995641E+03 -0.24004911534E+03  0.11619750878E+03  0.47563545525E+03  0.12699999809E+01 0. -1.
</event>
<event>
 5   0  0.2215876E-04  0.1400864E+04  0.7818609E-02  0.8953193E-01
        1   -1    0    0  501    0  0.00000000000E+00  0.00000000000E+00  0.63795141382E+03  0.63795141384E+03  0.50400001928E-02 0.  1.
       -1   -1    0    0    0  501  0.00000000000E+00  0.00000000000E+00 -0.76903190865E+03  0.76903190867E+03  0.50400001928E-02 0. -1.
    10030    2    1    2    0    0  0.00000000000E+00  0.00000000000E+00 -0.13108049483E+03  0.14069833225E+04  0.14008640097E+04 0.  0.
        3    1    3    3  502    0  0.52486694817E+03 -0.10162943979E+03  0.38897508673E+03  0.66114709756E+03  0.10100000352E+00 0.  1.
       -3    1    3    3    0  502 -0.52486694817E+03  0.10162943979E+03 -0.52005558157E+03  0.74583622494E+03  0.10100000352E+00 0. -1.
</event>
<event>
 5   0  0.4208622E-04  0.1407980E+04  0.7818609E-02  0.8948062E-01
       -2   -1    0    0    0  501  0.00000000000E+00  0.00000000000E+00  0.15997282656E+03  0.15997282658E+03  0.25500000920E-02 0.  1.
        2   -1    0    0  501    0  0.00000000000E+00  0.00000000000E+00 -0.30980380300E+04  0.30980380300E+04  0.25500000920E-02 0. -1.
    10030    2    1    2    0    0  0.00000000000E+00  0.00000000000E+00 -0.29380652034E+04  0.32580108566E+04  0.14079799721E+04 0.  0.
        4    1    3    3  502    0  0.15130260442E+03 -0.40593490034E+03 -0.27530718230E+04  0.27869484561E+04  0.12699999809E+01 0. -1.
       -4    1    3    3    0  502 -0.15130260442E+03  0.40593490034E+03 -0.18499338040E+03  0.47106240044E+03  0.12699999809E+01 0.  1.
</event>
<event>
 5   0  0.3975164E-04  0.1401349E+04  0.7818609E-02  0.8952843E-01
        2   -1    0    0  501    0  0.00000000000E+00  0.00000000000E+00  0.22245764992E+04  0.22245764992E+04  0.25500000920E-02 0. -1.
       -2   -1    0    0    0  501  0.00000000000E+00  0.00000000000E+00 -0.22069126009E+03  0.22069126011E+03  0.25500000920E-02 0.  1.
    10030    2    1    2    0    0  0.00000000000E+00  0.00000000000E+00  0.20038852391E+04  0.24452677593E+04  0.14013487657E+04 0.  0.
        5    1    3    3  502    0 -0.47228556884E+03  0.79223076416E-01  0.98831308488E+02  0.48253847758E+03  0.46999998093E+01 0.  1.
       -5    1    3    3    0  502  0.47228556884E+03 -0.79223076416E-01  0.19050539306E+04  0.19627292817E+04  0.46999998093E+01 0. -1.
</event>
<event>
 5   0  0.3932568E-04  0.1404620E+04  0.7818609E-02  0.8950481E-01
        2   -1    0    0  501    0  0.00000000000E+00  0.00000000000E+00  0.37650334207E+03  0.37650334208E+03  0.25500000920E-02 0. -1.
       -2   -1    0    0    0  501  0.00000000000E+00  0.00000000000E+00 -0.13100526887E+04  0.13100526887E+04  0.25500000920E-02 0.  1.
    10030    2    1    2    0    0  0.00000000000E+00  0.00000000000E+00 -0.93354934664E+03  0.16865560308E+04  0.14046198284E+04 0.  0.
        2    1    3    3  502    0  0.53729517527E+03  0.42168212719E+03 -0.27043832760E+03  0.73460112360E+03  0.25500000920E-02 0. -1.
       -2    1    3    3    0  502 -0.53729517527E+03 -0.42168212719E+03 -0.66311101904E+03  0.95195490719E+03  0.25500000920E-02 0.  1.
</event>
<event>
 5   0  0.3932568E-04  0.1418376E+04  0.7818609E-02  0.8940623E-01
        2   -1    0    0  501    0  0.00000000000E+00  0.00000000000E+00  0.94638032588E+03  0.94638032588E+03  0.25500000920E-02 0.  1.
       -2   -1    0    0    0  501  0.00000000000E+00  0.00000000000E+00 -0.53144361951E+03  0.53144361952E+03  0.25500000920E-02 0. -1.
    10030    2    1    2    0    0  0.00000000000E+00  0.00000000000E+00  0.41493670636E+03  0.14778239454E+04  0.14183762348E+04 0.  0.
        2    1    3    3  502    0 -0.45289531790E+03 -0.41751427534E+03 -0.15870934472E+03  0.63609825907E+03  0.25500000920E-02 0. -1.
       -2    1    3    3    0  502  0.45289531790E+03  0.41751427534E+03  0.57364605108E+03  0.84172568632E+03  0.25500000920E-02 0.  1.
</event>
<event>
 5   0  0.4208622E-04  0.1427140E+04  0.7818609E-02  0.8934404E-01
       -2   -1    0    0    0  501  0.00000000000E+00  0.00000000000E+00  0.37576932199E+03  0.37576932200E+03  0.25500000920E-02 0. -1.
        2   -1    0    0  501    0  0.00000000000E+00  0.00000000000E+00 -0.13550394119E+04  0.13550394119E+04  0.25500000920E-02 0.  1.
    10030    2    1    2    0    0  0.00000000000E+00  0.00000000000E+00 -0.97927008990E+03  0.17308087339E+04  0.14271401348E+04 0.  0.
        4    1    3    3  502    0  0.57037176890E+03 -0.17382371025E+03 -0.14258859146E+02  0.59644242385E+03  0.12699999809E+01 0. -1.
       -4    1    3    3    0  502 -0.57037176890E+03  0.17382371025E+03 -0.96501123075E+03  0.11343663101E+04  0.12699999809E+01 0.  1.
</event>
<event>
 5   0  0.3975164E-04  0.1400486E+04  0.7818609E-02  0.8953467E-01
       -2   -1    0    0    0  501  0.00000000000E+00  0.00000000000E+00  0.29000622614E+03  0.29000622615E+03  0.25500000920E-02 0.  1.
        2   -1    0    0  501    0  0.00000000000E+00  0.00000000000E+00 -0.16907926866E+04  0.16907926866E+04  0.25500000920E-02 0. -1.
    10030    2    1    2    0    0  0.00000000000E+00  0.00000000000E+00 -0.14007864605E+04  0.19807989128E+04  0.14004862102E+04 0.  0.
        5    1    3    3  502    0 -0.42765681240E+02 -0.48503253126E+03 -0.14121335660E+04  0.14937298143E+04  0.46999998093E+01 0. -1.
       -5    1    3    3    0  502  0.42765681240E+02  0.48503253126E+03  0.11347105542E+02  0.48706909846E+03  0.46999998093E+01 0.  1.
</event>
<event>
 5   0  0.3975164E-04  0.1400426E+04  0.7818609E-02  0.8953510E-01
       -2   -1    0    0    0  501  0.00000000000E+00  0.00000000000E+00  0.12337061014E+04  0.12337061014E+04  0.25500000920E-02 0. -1.
        2   -1    0    0  501    0  0.00000000000E+00  0.00000000000E+00 -0.39741919749E+03  0.39741919750E+03  0.25500000920E-02 0.  1.
    10030    2    1    2    0    0  0.00000000000E+00  0.00000000000E+00  0.83628690394E+03  0.16311252989E+04  0.14004263476E+04 0.  0.
        5    1    3    3  502    0  0.10605529314E+03 -0.33209433202E+03  0.11254185553E+04  0.11781864815E+04  0.46999998093E+01 0. -1.
       -5    1    3    3    0  502 -0.10605529314E+03  0.33209433202E+03 -0.28913165133E+03  0.45293881746E+03  0.46999998093E+01 0.  1.
</event>
<event>
 5   0  0.3917598E-04  0.1397777E+04  0.7818609E-02  0.8955430E-01
        2   -1    0    0  501    0  0.00000000000E+00  0.00000000000E+00  0.82617132289E+03  0.82617132289E+03  0.25500000920E-02 0.  1.
       -2   -1    0    0    0  501  0.00000000000E+00  0.00000000000E+00 -0.59121495563E+03  0.59121495563E+03  0.25500000920E-02 0. -1.
    10030    2    1    2    0    0  0.00000000000E+00  0.00000000000E+00  0.23495636726E+03  0.14173862785E+04  0.13977765802E+04 0.  0.
        3    1    3    3  502    0  0.25573214162E+03 -0.34693818548E+03 -0.44040360291E+03  0.61621455392E+03  0.10100000352E+00 0. -1.
       -3    1    3    3    0  502 -0.25573214162E+03  0.34693818548E+03  0.67535997017E+03  0.80117172461E+03  0.10100000352E+00 0.  1.
</event>
<event>
 5   0  0.2223112E-04  0.1387495E+04  0.7818609E-02  0.8962920E-01
        1   -1    0    0  501    0  0.00000000000E+00  0.00000000000E+00  0.23206827285E+04  0.23206827285E+04  0.50400001928E-02 0.  1.
       -1   -1    0    0    0  501  0.00000000000E+00  0.00000000000E+00 -0.20738976928E+03  0.20738976935E+03  0.50400001928E-02 0. -1.
    10030    2    1    2    0    0  0.00000000000E+00  0.00000000000E+00  0.21132929592E+04  0.25280724978E+04  0.13874953776E+04 0.  0.
        1    1    3    3  502    0 -0.83800301374E+02 -0.47850942486E+03  0.19590478701E+04  0.20183811130E+04  0.50400001928E-02 0.  1.
       -1    1    3    3    0  502  0.83800301374E+02  0.47850942486E+03  0.15424508913E+03  0.50969138480E+03  0.50400001928E-02 0. -1.
</event>
<event>
 5   0  0.2223112E-04  0.1403892E+04  0.7818609E-02  0.8951006E-01
        1   -1    0    0  501    0  0.00000000000E+00  0.00000000000E+00  0.58807492721E+03  0.58807492723E+03  0.50400001928E-02 0.  1.
       -1   -1    0    0    0  501  0.00000000000E+00  0.00000000000E+00 -0.83786656544E+03  0.83786656545E+03  0.50400001928E-02 0. -1.
    10030    2    1    2    0    0  0.00000000000E+00  0.00000000000E+00 -0.24979163823E+03  0.14259414927E+04  0.14038921889E+04 0.  0.
        1    1    3    3  502    0 -0.32286968767E+03 -0.17226256577E+03  0.48351883929E+03  0.60639071131E+03  0.50400001928E-02 0.  1.
       -1    1    3    3    0  502  0.32286968767E+03  0.17226256577E+03 -0.73331047752E+03  0.81955078138E+03  0.50400001928E-02 0. -1.
</event>
<event>
 5   0  0.3932568E-04  0.1401753E+04  0.7818609E-02  0.8952551E-01
       -2   -1    0    0    0  501  0.00000000000E+00  0.00000000000E+00  0.20356521594E+03  0.20356521596E+03  0.25500000920E-02 0.  1.
        2   -1    0    0  501    0  0.00000000000E+00  0.00000000000E+00 -0.24131232848E+04  0.24131232848E+04  0.25500000920E-02 0. -1.
    10030    2    1    2    0    0  0.00000000000E+00  0.00000000000E+00 -0.22095580689E+04  0.26166885008E+04  0.14017531346E+04 0.  0.
        2    1    3    3  502    0  0.14801771612E+03  0.41005766989E+03 -0.80337041530E+02  0.44329513551E+03  0.25500000920E-02 0.  1.
       -2    1    3    3    0  502 -0.14801771612E+03 -0.41005766989E+03 -0.21292210273E+04  0.21733933653E+04  0.25500000920E-02 0. -1.
</event>
<event>
 5   0  0.4208622E-04  0.1398631E+04  0.7818609E-02  0.8954810E-01
       -2   -1    0    0    0  501  0.00000000000E+00  0.00000000000E+00  0.51862921208E+03  0.51862921209E+03  0.25500000920E-02 0.  1.
        2   -1    0    0  501    0  0.00000000000E+00  0.00000000000E+00 -0.94295161226E+03  0.94295161226E+03  0.25500000920E-02 0. -1.
    10030    2    1    2    0    0  0.00000000000E+00  0.00000000000E+00 -0.42432240018E+03  0.14615808244E+04  0.13986311189E+04 0.  0.
        4    1    3    3  502    0  0.77930612017E+02  0.68565385108E+03 -0.93718603628E+02  0.69640446104E+03  0.12699999809E+01 0.  1.
       -4    1    3    3    0  502 -0.77930612017E+02 -0.68565385108E+03 -0.33060379655E+03  0.76517636332E+03  0.12699999809E+01 0. -1.
</event>
<event>
 5   0  0.2217251E-04  0.1400783E+04  0.7818609E-02  0.8953252E-01
       -1   -1    0    0    0  501  0.00000000000E+00  0.00000000000E+00  0.66687748368E+03  0.66687748370E+03  0.50400001928E-02 0. -1.
        1   -1    0    0  501    0  0.00000000000E+00  0.00000000000E+00 -0.73558956878E+03  0.73558956880E+03  0.50400001928E-02 0.  1.
    10030    2    1    2    0    0  0.00000000000E+00  0.00000000000E+00 -0.68712085095E+02  0.14024670525E+04  0.14007828107E+04 0.  0.
        5    1    3    3  502    0 -0.82683683223E+02 -0.70086620036E+02 -0.72712535486E+03  0.73517487543E+03  0.46999998093E+01 0.  1.
       -5    1    3    3    0  502  0.82683683223E+02  0.70086620036E+02  0.65841326977E+03  0.66729217707E+03  0.46999998093E+01 0. -1.
</event>
<event>
 5   0  0.4310348E-04  0.1396310E+04  0.7818609E-02  0.8956494E-01
       -2   -1    0    0    0  501  0.00000000000E+00  0.00000000000E+00  0.31222303263E+03  0.31222303264E+03  0.25500000920E-02 0. -1.
        2   -1    0    0  501    0  0.00000000000E+00  0.00000000000E+00 -0.15611294144E+04  0.15611294144E+04  0.25500000920E-02 0.  1.
    10030    2    1    2    0    0  0.00000000000E+00  0.00000000000E+00 -0.12489063818E+04  0.18733524471E+04  0.13963102236E+04 0.  0.
        1    1    3    3  502    0  0.44373565218E+03 -0.42142644406E+03 -0.17361463116E+03  0.63611604047E+03  0.50400001928E-02 0. -1.
       -1    1    3    3    0  502 -0.44373565218E+03  0.42142644406E+03 -0.10752917506E+04  0.12372364066E+04  0.50400001928E-02 0.  1.
</event>
<event>
 5   0  0.2217251E-04  0.1403571E+04  0.7818609E-02  0.8951237E-01
        1   -1    0    0  501    0  0.00000000000E+00  0.00000000000E+00  0.83068842614E+03  0.83068842616E+03  0.50400001928E-02 0. -1.
       -1   -1    0    0    0  501  0.00000000000E+00  0.00000000000E+00 -0.59288556952E+03  0.59288556954E+03  0.50400001928E-02 0.  1.
    10030    2    1    2    0    0  0.00000000000E+00  0.00000000000E+00  0.23780285662E+03  0.14235739957E+04  0.14035714170E+04 0.  0.
        5    1    3    3  502    0  0.47626769848E+03 -0.16676840639E+03  0.61353840695E+03  0.79441430551E+03  0.46999998093E+01 0. -1.
       -5    1    3    3    0  502 -0.47626769848E+03  0.16676840639E+03 -0.37573555033E+03  0.62915969020E+03  0.46999998093E+01 0.  1.
</event>
<event>
 5   0  0.2143942E-04  0.1398519E+04  0.7818609E-02  0.8954891E-01
       -1   -1    0    0    0  501  0.00000000000E+00  0.00000000000E+00  0.49068845258E+03  0.49068845261E+03  0.50400001928E-02 0.  1.
        1   -1    0    0  501    0  0.00000000000E+00  0.00000000000E+00 -0.99648527641E+03  0.99648527643E+03  0.50400001928E-02 0. -1.
    10030    2    1    2    0    0  0.00000000000E+00  0.00000000000E+00 -0.50579682383E+03  0.14871737290E+04  0.13985189571E+04 0.  0.
        4    1    3    3  502    0 -0.42271840337E+03 -0.21311518123E+03  0.29436450669E+03  0.55745941980E+03  0.12699999809E+01 0.  1.
       -4    1    3    3    0  502  0.42271840337E+03  0.21311518123E+03 -0.80016133053E+03  0.92971430923E+03  0.12699999809E+01 0. -1.
</event>
<event>
 5   0  0.2223112E-04  0.1399877E+04  0.7818609E-02  0.8953908E-01
       -1   -1    0    0    0  501  0.00000000000E+00  0.00000000000E+00  0.49868396754E+03  0.49868396756E+03  0.50400001928E-02 0. -1.
        1   -1    0    0  501    0  0.00000000000E+00  0.00000000000E+00 -0.98241303179E+03  0.98241303180E+03  0.50400001928E-02 0.  1.
    10030    2    1    2    0    0  0.00000000000E+00  0.00000000000E+00 -0.48372906425E+03  0.14810969994E+04  0.13998766067E+04 0.  0.
        1    1    3    3  502    0  0.58136364756E+03  0.22678848455E+03 -0.57726998902E+03  0.85009255242E+03  0.50400001928E-02 0.  1.
       -1    1    3    3    0  502 -0.58136364756E+03 -0.22678848455E+03  0.93540924765E+02  0.63100444695E+03  0.50400001928E-02 0. -1.
</event>
<event>
 5   0  0.2223112E-04  0.1398031E+04  0.7818609E-02  0.8955245E-01
       -1   -1    0    0    0  501  0.00000000000E+00  0.00000000000E+00  0.32695915751E+03  0.32695915755E+03  0.50400001928E-02 0. -1.
        1   -1    0    0  501    0  0.00000000000E+00  0.00000000000E+00 -0.14944465312E+04  0.14944465312E+04  0.50400001928E-02 0.  1.
    10030    2    1    2    0    0  0.00000000000E+00  0.00000000000E+00 -0.11674873737E+04  0.18214056887E+04  0.13980314429E+04 0.  0.
        1    1    3    3  502    0  0.69065723956E+02 -0.25754735661E+03  0.25809633514E+03  0.37109895360E+03  0.50400001928E-02 0. -1.
       -1    1    3    3    0  502 -0.69065723956E+02  0.25754735661E+03 -0.14255837088E+04  0.14503067351E+04  0.50400001928E-02 0.  1.
</event>
<event>
 5   0  0.2223112E-04  0.1398849E+04  0.7818609E-02  0.8954652E-01
        1   -1    0    0  501    0  0.00000000000E+00  0.00000000000E+00  0.60945863531E+03  0.60945863533E+03  0.50400001928E-02 0. -1.
       -1   -1    0    0    0  501  0.00000000000E+00  0.00000000000E+00 -0.80267132880E+03  0.80267132882E+03  0.50400001928E-02 0.  1.
    10030    2    1    2    0    0  0.00000000000E+00  0.00000000000E+00 -0.19321269349E+03  0.14121299642E+04  0.13988494882E+04 0.  0.
        1    1    3    3  502    0  0.85550486828E+02 -0.19233592307E+03 -0.76993419291E+03  0.79819211631E+03  0.50400001928E-02 0.  1.
       -1    1    3    3    0  502 -0.85550486828E+02  0.19233592307E+03  0.57672149942E+03  0.61393784785E+03  0.50400001928E-02 0. -1.
</event>
<event>
 5   0  0.2155352E-04  0.1396627E+04  0.7818609E-02  0.8956264E-01
       -1   -1    0    0    0  501  0.00000000000E+00  0.00000000000E+00  0.66127392639E+03  0.66127392641E+03  0.50400001928E-02 0.  1.
        1   -1    0    0  501    0  0.00000000000E+00  0.00000000000E+00 -0.73742753430E+03  0.73742753432E+03  0.50400001928E-02 0. -1.
    10030    2    1    2    0    0  0.00000000000E+00  0.00000000000E+00 -0.76153607911E+02  0.13987014607E+04  0.13966267949E+04 0.  0.
        2    1    3    3  502    0 -0.20252854155E+03  0.24804793715E+03  0.58340607512E+03  0.66551351433E+03  0.25500000920E-02 0.  1.
       -2    1    3    3    0  502  0.20252854155E+03 -0.24804793715E+03 -0.65955968303E+03  0.73318794640E+03  0.25500000920E-02 0. -1.
</event>
<event>
 5   0  0.2217251E-04  0.1400049E+04  0.7818609E-02  0.8953783E-01
       -1   -1    0    0    0  501  0.00000000000E+00  0.00000000000E+00  0.26057852631E+03  0.26057852636E+03  0.50400001928E-02 0.  1.
        1   -1    0    0  501    0  0.00000000000E+00  0.00000000000E+00 -0.18805629597E+04  0.18805629597E+04  0.50400001928E-02 0. -1.
    10030    2    1    2    0    0  0.00000000000E+00  0.00000000000E+00 -0.16199844334E+04  0.21411414861E+04  0.14000490345E+04 0.  0.
        5    1    3    3  502    0  0.44014631807E+03  0.51892486945E+03 -0.10612893224E+04  0.12607017559E+04  0.46999998093E+01 0.  1.
       -5    1    3    3    0  502 -0.44014631807E+03 -0.51892486945E+03 -0.55869511098E+03  0.88043973017E+03  0.46999998093E+01 0. -1.
</event>
<event>
 5   0  0.3917598E-04  0.1397394E+04  0.7818609E-02  0.8955707E-01
        2   -1    0    0  501    0  0.00000000000E+00  0.00000000000E+00  0.29023174860E+03  0.29023174861E+03  0.25500000920E-02 0. -1.
       -2   -1    0    0    0  501  0.00000000000E+00  0.00000000000E+00 -0.16820269558E+04  0.16820269558E+04  0.25500000920E-02 0.  1.
    10030    2    1    2    0    0  0.00000000000E+00  0.00000000000E+00 -0.13917952072E+04  0.19722587044E+04  0.13973941815E+04 0.  0.
        3    1    3    3  502    0 -0.35663634121E+03  0.57511740422E+03 -0.45051124371E+03  0.81296365196E+03  0.10100000352E+00 0. -1.
       -3    1    3    3    0  502  0.35663634121E+03 -0.57511740422E+03 -0.94128396348E+03  0.11592950524E+04  0.10100000352E+00 0.  1.
</event>
<event>
 5   0  0.2215876E-04  0.1403044E+04  0.7818609E-02  0.8951618E-01
        1   -1    0    0  501    0  0.00000000000E+00  0.00000000000E+00  0.76989584940E+03  0.76989584941E+03  0.50400001928E-02 0.  1.
       -1   -1    0    0    0  501  0.00000000000E+00  0.00000000000E+00 -0.63921998320E+03  0.63921998322E+03  0.50400001928E-02 0. -1.
    10030    2    1    2    0    0  0.00000000000E+00  0.00000000000E+00  0.13067586619E+03  0.14091158326E+04  0.14030435659E+04 0.  0.
        3    1    3    3  502    0  0.20758881638E+03 -0.25448877082E+02 -0.60718095317E+03  0.64219115699E+03  0.10100000352E+00 0. -1.
       -3    1    3    3    0  502 -0.20758881638E+03  0.25448877082E+02  0.73785681936E+03  0.76692467564E+03  0.10100000352E+00 0.  1.
</event>
<event>
 5   0  0.2155352E-04  0.1446362E+04  0.7818609E-02  0.8920926E-01
       -1   -1    0    0    0  501  0.00000000000E+00  0.00000000000E+00  0.12838264125E+04  0.12838264125E+04  0.50400001928E-02 0.  1.
        1   -1    0    0  501    0  0.00000000000E+00  0.00000000000E+00 -0.40736881069E+03  0.40736881072E+03  0.50400001928E-02 0. -1.
    10030    2    1    2    0    0  0.00000000000E+00  0.00000000000E+00  0.87645760180E+03  0.16911952232E+04  0.14463621107E+04 0.  0.
        2    1    3    3  502    0  0.58220824126E+03  0.42884686655E+03  0.45075520658E+03  0.85208938934E+03  0.25500000920E-02 0. -1.
       -2    1    3    3    0  502 -0.58220824126E+03 -0.42884686655E+03  0.42570239522E+03  0.83910583388E+03  0.25500000920E-02 0.  1.
</event>
<event>
 5   0  0.3975164E-04  0.1407111E+04  0.7818609E-02  0.8948687E-01
        2   -1    0    0  501    0  0.00000000000E+00  0.00000000000E+00  0.19147885780E+04  0.19147885780E+04  0.25500000920E-02 0. -1.
       -2   -1    0    0    0  501  0.00000000000E+00  0.00000000000E+00 -0.25850917440E+03  0.25850917441E+03  0.25500000920E-02 0.  1.
    10030    2    1    2    0    0  0.00000000000E+00  0.00000000000E+00  0.16562794036E+04  0.21732977524E+04  0.14071111036E+04 0.  0.
        5    1    3    3  502    0 -0.47959713599E+03 -0.30510875722E+03  0.18784082518E+03  0.59867439580E+03  0.46999998093E+01 0.  1.
       -5    1    3    3    0  502  0.47959713599E+03  0.30510875722E+03  0.14684385784E+04  0.15746233566E+04  0.46999998093E+01 0. -1.
</event>
<event>
 5   0  0.3917598E-04  0.1408712E+04  0.7818609E-02  0.8947537E-01
        2   -1    0    0  501    0  0.00000000000E+00  0.00000000000E+00  0.18581982755E+04  0.18581982755E+04  0.25500000920E-02 0. -1.
       -2   -1    0    0    0  501  0.00000000000E+00  0.00000000000E+00 -0.26698828658E+03  0.26698828659E+03  0.25500000920E-02 0.  1.
    10030    2    1    2    0    0  0.00000000000E+00  0.00000000000E+00  0.15912099889E+04  0.21251865621E+04  0.14087117146E+04 0.  0.
        3    1    3    3  502    0 -0.41625684709E+02  0.49188884153E+03  0.37646760202E+02  0.49508041651E+03  0.10100000352E+00 0.  1.
       -3    1    3    3    0  502  0.41625684709E+02 -0.49188884153E+03  0.15535632287E+04  0.16301061456E+04  0.10100000352E+00 0. -1.
</event>
<event>
 5   0  0.2223112E-04  0.1402840E+04  0.7818609E-02  0.8951765E-01
        1   -1    0    0  501    0  0.00000000000E+00  0.00000000000E+00  0.53540592570E+03  0.53540592573E+03  0.50400001928E-02 0.  1.
       -1   -1    0    0    0  501  0.00000000000E+00  0.00000000000E+00 -0.91891030142E+03  0.91891030144E+03  0.50400001928E-02 0. -1.
    10030    2    1    2    0    0  0.00000000000E+00  0.00000000000E+00 -0.38350437572E+03  0.14543162272E+04  0.14028400060E+04 0.  0.
        1    1    3    3  502    0  0.36777929564E+03 -0.45918101428E+03 -0.58771133533E+03  0.83157286384E+03  0.50400001928E-02 0. -1.
       -1    1    3    3    0  502 -0.36777929564E+03  0.45918101428E+03  0.20420695961E+03  0.62274336332E+03  0.50400001928E-02 0.  1.
</event>
<event>
 5   0  0.4208622E-04  0.1385564E+04  0.7818609E-02  0.8964335E-01
       -2   -1    0    0    0  501  0.00000000000E+00  0.00000000000E+00  0.60486096767E+03  0.60486096767E+03  0.25500000920E-02 0.  1.
        2   -1    0    0  501    0  0.00000000000E+00  0.00000000000E+00 -0.79348297917E+03  0.79348297918E+03  0.25500000920E-02 0. -1.
    10030    2    1    2    0    0  0.00000000000E+00  0.00000000000E+00 -0.18862201151E+03  0.13983439469E+04  0.13855639756E+04 0.  0.
        4    1    3    3  502    0  0.21162644520E+03  0.65656497980E+03 -0.29831606559E+02  0.69047437510E+03  0.12699999809E+01 0. -1.
       -4    1    3    3    0  502 -0.21162644520E+03 -0.65656497980E+03 -0.15879040495E+03  0.70786957175E+03  0.12699999809E+01 0.  1.
</event>
<event>
 5   0  0.4310348E-04  0.1399433E+04  0.7818609E-02  0.8954229E-01
       -2   -1    0    0    0  501  0.00000000000E+00  0.00000000000E+00  0.69588934515E+03  0.69588934515E+03  0.25500000920E-02 0. -1.
        2   -1    0    0  501    0  0.00000000000E+00  0.00000000000E+00 -0.70356440008E+03  0.70356440008E+03  0.25500000920E-02 0.  1.
    10030    2    1    2    0    0  0.00000000000E+00  0.00000000000E+00 -0.76750549287E+01  0.13994537452E+04  0.13994326988E+04 0.  0.
        1    1    3    3  502    0  0.73476224431E+02 -0.48916439794E+03 -0.49874132903E+03  0.70244108441E+03  0.50400001928E-02 0.  1.
       -1    1    3    3    0  502 -0.73476224431E+02  0.48916439794E+03  0.49106627410E+03  0.69701266082E+03  0.50400001928E-02 0. -1.
</event>
<event>
 5   0  0.3917598E-04  0.1382100E+04  0.7818609E-02  0.8966878E-01
       -2   -1    0    0    0  501  0.00000000000E+00  0.00000000000E+00  0.41714941956E+03  0.41714941957E+03  0.25500000920E-02 0. -1.
        2   -1    0    0  501    0  0.00000000000E+00  0.00000000000E+00 -0.11447945827E+04  0.11447945827E+04  0.25500000920E-02 0.  1.
    10030    2    1    2    0    0  0.00000000000E+00  0.00000000000E+00 -0.72764516314E+03  0.15619440023E+04  0.13821004243E+04 0.  0.
        3    1    3    3  502    0  0.44073807894E+03 -0.70340939228E+02  0.23242057824E+03  0.50320695280E+03  0.10100000352E+00 0. -1.
       -3    1    3    3    0  502 -0.44073807894E+03  0.70340939228E+02 -0.96006574138E+03  0.10587370495E+04  0.10100000352E+00 0.  1.
</event>
<event>
 5   0  0.2217251E-04  0.1385982E+04  0.7818609E-02  0.8964029E-01
       -1   -1    0    0    0  501  0.00000000000E+00  0.00000000000E+00  0.52522310203E+03  0.52522310206E+03  0.50400001928E-02 0. -1.
        1   -1    0    0  501    0  0.00000000000E+00  0.00000000000E+00 -0.91434751486E+03  0.91434751487E+03  0.50400001928E-02 0.  1.
    10030    2    1    2    0    0  0.00000000000E+00  0.00000000000E+00 -0.38912441282E+03  0.14395706169E+04  0.13859818731E+04 0.  0.
        5    1    3    3  502    0  0.39768484940E+03 -0.56270081867E+03 -0.11803229013E+03  0.69909882154E+03  0.46999998093E+01 0.  1.
       -5    1    3    3    0  502 -0.39768484940E+03  0.56270081867E+03 -0.27109212270E+03  0.74047179539E+03  0.46999998093E+01 0. -1.
</event>
<event>
 5   0  0.2155352E-04  0.1392787E+04  0.7818609E-02  0.8959056E-01
       -1   -1    0    0    0  501  0.00000000000E+00  0.00000000000E+00  0.10170972595E+04  0.10170972595E+04  0.50400001928E-02 0.  1.
        1   -1    0    0  501    0  0.00000000000E+00  0.00000000000E+00 -0.47681162240E+03  0.47681162243E+03  0.50400001928E-02 0. -1.
    10030    2    1    2    0    0  0.00000000000E+00  0.00000000000E+00  0.54028563712E+03  0.14939088820E+04  0.13927868387E+04 0.  0.
        2    1    3    3  502    0 -0.47113757666E+03  0.36019790572E+03 -0.12139536207E+03  0.60535112238E+03  0.25500000920E-02 0. -1.
       -2    1    3    3    0  502  0.47113757666E+03 -0.36019790572E+03  0.66168099919E+03  0.88855775959E+03  0.25500000920E-02 0.  1.
</event>
<event>
 5   0  0.2215876E-04  0.1433303E+04  0.7818609E-02  0.8930059E-01
       -1   -1    0    0    0  501  0.00000000000E+00  0.00000000000E+00  0.12205123255E+04  0.12205123255E+04  0.50400001928E-02 0.  1.
        1   -1    0    0  501    0  0.00000000000E+00  0.00000000000E+00 -0.42079817983E+03  0.42079817986E+03  0.50400001928E-02 0. -1.
    10030    2    1    2    0    0  0.00000000000E+00  0.00000000000E+00  0.79971414565E+03  0.16413105053E+04  0.14333029897E+04 0.  0.
        3    1    3    3  502    0  0.40792203299E+03 -0.20086840310E+03 -0.23446428464E+03  0.51158773571E+03  0.10100000352E+00 0. -1.
       -3    1    3    3    0  502 -0.40792203299E+03  0.20086840310E+03  0.10341784303E+04  0.11297227696E+04  0.10100000352E+00 0.  1.
</event>
<event>
 5   0  0.3932568E-04  0.1400788E+04  0.7818609E-02  0.8953248E-01
        2   -1    0    0  501    0  0.00000000000E+00  0.00000000000E+00  0.47527651637E+03  0.47527651637E+03  0.25500000920E-02 0.  1.
       -2   -1    0    0    0  501  0.00000000000E+00  0.00000000000E+00 -0.10321401115E+04  0.10321401115E+04  0.25500000920E-02 0. -1.
    10030    2    1    2    0    0  0.00000000000E+00  0.00000000000E+00 -0.55686359512E+03  0.15074166279E+04  0.14007882875E+04 0.  0.
        2    1    3    3  502    0 -0.41570879273E+03 -0.47911758336E+03 -0.59799511584E+03  0.87176006883E+03  0.25500000920E-02 0. -1.
       -2    1    3    3    0  502  0.41570879273E+03  0.47911758336E+03  0.41131520723E+02  0.63565655903E+03  0.25500000920E-02 0.  1.
</event>
<event>
 5   0  0.4208622E-04  0.1400381E+04  0.7818609E-02  0.8953543E-01
        2   -1    0    0  501    0  0.00000000000E+00  0.00000000000E+00  0.68717921413E+03  0.68717921413E+03  0.25500000920E-02 0. -1.
       -2   -1    0    0    0  501  0.00000000000E+00  0.00000000000E+00 -0.71344793152E+03  0.71344793152E+03  0.25500000920E-02 0.  1.
    10030    2    1    2    0    0  0.00000000000E+00  0.00000000000E+00 -0.26268717386E+02  0.14006271457E+04  0.14003807895E+04 0.  0.
        4    1    3    3  502    0  0.62001936922E+03 -0.13596759541E+02 -0.33823936236E+03  0.70641090679E+03  0.12699999809E+01 0.  1.
       -4    1    3    3    0  502 -0.62001936922E+03  0.13596759541E+02  0.31197064498E+03  0.69421623887E+03  0.12699999809E+01 0. -1.
</event>
<event>
 5   0  0.2155352E-04  0.1396850E+04  0.7818609E-02  0.8956102E-01
       -1   -1    0    0    0  501  0.00000000000E+00  0.00000000000E+00  0.86410989381E+03  0.86410989383E+03  0.50400001928E-02 0.  1.
        1   -1    0    0  501    0  0.00000000000E+00  0.00000000000E+00 -0.56450872580E+03  0.56450872583E+03  0.50400001928E-02 0. -1.
    10030    2    1    2    0    0  0.00000000000E+00  0.00000000000E+00  0.29960116801E+03  0.14286186197E+04  0.13968501353E+04 0.  0.
        2    1    3    3  502    0  0.71278766362E+02 -0.49703132665E+03  0.64630702103E+03  0.81843360613E+03  0.25500000920E-02 0. -1.
       -2    1    3    3    0  502 -0.71278766362E+02  0.49703132665E+03 -0.34670585302E+03  0.61018501352E+03  0.25500000920E-02 0.  1.
</event>
<event>
 5   0  0.2217251E-04  0.1400608E+04  0.7818609E-02  0.8953379E-01
       -1   -1    0    0    0  501  0.00000000000E+00  0.00000000000E+00  0.64265115639E+03  0.64265115641E+03  0.50400001928E-02 0. -1.
        1   -1    0    0  501    0  0.00000000000E+00  0.00000000000E+00 -0.76312896443E+03  0.76312896444E+03  0.50400001928E-02 0.  1.
    10030    2    1    2    0    0  0.00000000000E+00  0.00000000000E+00 -0.12047780803E+03  0.14057801209E+04  0.14006080272E+04 0.  0.
        5    1    3    3  502    0 -0.30284118835E+03  0.63089561274E+03 -0.34423076617E+02  0.70067759900E+03  0.46999998093E+01 0.  1.
       -5    1    3    3    0  502  0.30284118835E+03 -0.63089561274E+03 -0.86054731418E+02  0.70510252186E+03  0.46999998093E+01 0. -1.
</event>
<event>
 5   0  0.2155352E-04  0.1412946E+04  0.7818609E-02  0.8944501E-01
        1   -1    0    0  501    0  0.00000000000E+00  0.00000000000E+00  0.43995485028E+03  0.43995485030E+03  0.50400001928E-02 0. -1.
       -1   -1    0    0    0  501  0.00000000000E+00  0.00000000000E+00 -0.11344431549E+04  0.11344431550E+04  0.50400001928E-02 0.  1.
    10030    2    1    2    0    0  0.00000000000E+00  0.00000000000E+00 -0.69448830467E+03  0.15743980053E+04  0.14129455310E+04 0.  0.
        2    1    3    3  502    0  0.14579184467E+03  0.68882840577E+03 -0.28261732541E+03  0.75869123311E+03  0.25500000920E-02 0. -1.
       -2    1    3    3    0  502 -0.14579184467E+03 -0.68882840577E+03 -0.41187097925E+03  0.81570677215E+03  0.25500000920E-02 0.  1.
</event>
<event>
 5   0  0.1497625E-04  0.1399656E+04  0.7818609E-02  0.8954067E-01
        3   -1    0    0  501    0  0.00000000000E+00  0.00000000000E+00  0.13341106690E+04  0.13341106728E+04  0.10100000352E+00 0.  1.
       -3   -1    0    0    0  501  0.00000000000E+00  0.00000000000E+00 -0.36710558680E+03  0.36710560069E+03  0.10100000352E+00 0. -1.
    10030    2    1    2    0    0  0.00000000000E+00  0.00000000000E+00  0.96700508221E+03  0.17012162735E+04  0.13996563794E+04 0.  0.
        5    1    3    3  502    0 -0.18326761341E+03 -0.43176968149E+03 -0.14774393448E+03  0.49179511603E+03  0.46999998093E+01 0. -1.
       -5    1    3    3    0  502  0.18326761341E+03  0.43176968149E+03  0.11147490167E+04  0.12094211575E+04  0.46999998093E+01 0.  1.
</event>
<event>
 5   0  0.3932568E-04  0.1397124E+04  0.7818609E-02  0.8955903E-01
        2   -1    0    0  501    0  0.00000000000E+00  0.00000000000E+00  0.15818257527E+04  0.15818257527E+04  0.25500000920E-02 0.  1.
       -2   -1    0    0    0  501  0.00000000000E+00  0.00000000000E+00 -0.30849708920E+03  0.30849708921E+03  0.25500000920E-02 0. -1.
    10030    2    1    2    0    0  0.00000000000E+00  0.00000000000E+00  0.12733286635E+04  0.18903228419E+04  0.13971236743E+04 0.  0.
        2    1    3    3  502    0 -0.29000335728E+02 -0.28932011430E+03 -0.22272787522E+03  0.36627155830E+03  0.25500000920E-02 0. -1.
       -2    1    3    3    0  502  0.29000335728E+02  0.28932011430E+03  0.14960565387E+04  0.15240512836E+04  0.25500000920E-02 0.  1.
</event>
<event>
 5   0  0.3917598E-04  0.1393844E+04  0.7818609E-02  0.8958287E-01
        2   -1    0    0  501    0  0.00000000000E+00  0.00000000000E+00  0.20068079801E+04  0.20068079801E+04  0.25500000920E-02 0. -1.
       -2   -1    0    0    0  501  0.00000000000E+00  0.00000000000E+00 -0.24202626600E+03  0.24202626601E+03  0.25500000920E-02 0.  1.
    10030    2    1    2    0    0  0.00000000000E+00  0.00000000000E+00  0.17647817141E+04  0.22488342462E+04  0.13938439540E+04 0.  0.
        3    1    3    3  502    0  0.64871786751E+03 -0.96020929795E+02  0.50180057433E+03  0.82574736887E+03  0.10100000352E+00 0.  1.
       -3    1    3    3    0  502 -0.64871786751E+03  0.96020929795E+02  0.12629811398E+04  0.14230868773E+04  0.10100000352E+00 0. -1.
</event>
<event>
 5   0  0.3932568E-04  0.1403443E+04  0.7818609E-02  0.8951330E-01
       -2   -1    0    0    0  501  0.00000000000E+00  0.00000000000E+00  0.21198371355E+03  0.21198371357E+03  0.25500000920E-02 0. -1.
        2   -1    0    0  501    0  0.00000000000E+00  0.00000000000E+00 -0.23228829126E+04  0.23228829126E+04  0.25500000920E-02 0.  1.
    10030    2    1    2    0    0  0.00000000000E+00  0.00000000000E+00 -0.21108991991E+04  0.25348666262E+04  0.14034434025E+04 0.  0.
        2    1    3    3  502    0 -0.19751519373E+02  0.54719755771E+03 -0.26279102807E+03  0.60735032240E+03  0.25500000920E-02 0. -1.
       -2    1    3    3    0  502  0.19751519373E+02 -0.54719755771E+03 -0.18481081710E+04  0.19275163038E+04  0.25500000920E-02 0.  1.
</event>
<event>
 5   0  0.2215876E-04  0.1402141E+04  0.7818609E-02  0.8952270E-01
       -1   -1    0    0    0  501  0.00000000000E+00  0.00000000000E+00  0.46212230263E+03  0.46212230266E+03  0.50400001928E-02 0. -1.
        1   -1    0    0  501    0  0.00000000000E+00  0.00000000000E+00 -0.10635714593E+04  0.10635714593E+04  0.50400001928E-02 0.  1.
    10030    2    1    2    0    0  0.00000000000E+00  0.00000000000E+00 -0.60144915665E+03  0.15256937620E+04  0.14021413507E+04 0.  0.
        3    1    3    3  502    0 -0.51374332863E+02  0.52926306424E+03 -0.79786586990E+03  0.95882671521E+03  0.10100000352E+00 0.  1.
       -3    1    3    3    0  502  0.51374332863E+02 -0.52926306424E+03  0.19641671324E+03  0.56686704675E+03  0.10100000352E+00 0. -1.
</event>
<event>
 5   0  0.2217251E-04  0.1413037E+04  0.7818609E-02  0.8944436E-01
       -1   -1    0    0    0  501  0.00000000000E+00  0.00000000000E+00  0.92874464744E+03  0.92874464745E+03  0.50400001928E-02 0. -1.
        1   -1    0    0  501    0  0.00000000000E+00  0.00000000000E+00 -0.53746550257E+03  0.53746550260E+03  0.50400001928E-02 0.  1.
    10030    2    1    2    0    0  0.00000000000E+00  0.00000000000E+00  0.39127914487E+03  0.14662101500E+04  0.14130367422E+04 0.  0.
        5    1    3    3  502    0 -0.58668617380E+03  0.39353816495E+03  0.20451510123E+03  0.73547363680E+03  0.46999998093E+01 0.  1.
       -5    1    3    3    0  502  0.58668617380E+03 -0.39353816495E+03  0.18676404363E+03  0.73073651325E+03  0.46999998093E+01 0. -1.
</event>
<event>
 5   0  0.3975164E-04  0.1383970E+04  0.7818609E-02  0.8965504E-01
        2   -1    0    0  501    0  0.00000000000E+00  0.00000000000E+00  0.31228730136E+04  0.31228730136E+04  0.25500000920E-02 0.  1.
       -2   -1    0    0    0  501  0.00000000000E+00  0.00000000000E+00 -0.15333420589E+03  0.15333420591E+03  0.25500000920E-02 0. -1.
    10030    2    1    2    0    0  0.00000000000E+00  0.00000000000E+00  0.29695388077E+04  0.32762072195E+04  0.13839700194E+04 0.  0.
        5    1    3    3  502    0 -0.36956658378E+03 -0.45865572656E+03  0.23444331228E+04  0.24172987595E+04  0.46999998093E+01 0.  1.
       -5    1    3    3    0  502  0.36956658378E+03  0.45865572656E+03  0.62510568486E+03  0.85890845996E+03  0.46999998093E+01 0. -1.
</event>
<event>
 5   0  0.2217251E-04  0.1414654E+04  0.7818609E-02  0.8943279E-01
        1   -1    0    0  501    0  0.00000000000E+00  0.00000000000E+00  0.10957412686E+04  0.10957412686E+04  0.50400001928E-02 0.  1.
       -1   -1    0    0    0  501  0.00000000000E+00  0.00000000000E+00 -0.45659607339E+03  0.45659607342E+03  0.50400001928E-02 0. -1.
    10030    2    1    2    0    0  0.00000000000E+00  0.00000000000E+00  0.63914519517E+03  0.15523373420E+04  0.14146535416E+04 0.  0.
        5    1    3    3  502    0 -0.52384497533E+03  0.28613834043E+01 -0.20193749523E+03  0.56144686985E+03  0.46999998093E+01 0. -1.
       -5    1    3    3    0  502  0.52384497533E+03 -0.28613834043E+01  0.84108269040E+03  0.99089047214E+03  0.46999998093E+01 0.  1.
</event>
<event>
 5   0  0.2155352E-04  0.1399019E+04  0.7818609E-02  0.8954529E-01
       -1   -1    0    0    0  501  0.00000000000E+00  0.00000000000E+00  0.92761498410E+03  0.92761498411E+03  0.50400001928E-02 0.  1.
        1   -1    0    0  501    0  0.00000000000E+00  0.00000000000E+00 -0.52749664551E+03  0.52749664554E+03  0.50400001928E-02 0. -1.
    10030    2    1    2    0    0  0.00000000000E+00  0.00000000000E+00  0.40011833858E+03  0.14551116296E+04  0.13990193601E+04 0.  0.
        2    1    3    3  502    0  0.59413590255E+02  0.84606548762E+02  0.91962499019E+03  0.92541794093E+03  0.25500000920E-02 0.  1.
       -2    1    3    3    0  502 -0.59413590255E+02 -0.84606548762E+02 -0.51950665161E+03  0.52969368872E+03  0.25500000920E-02 0. -1.
</event>
<event>
 5   0  0.3975164E-04  0.1389813E+04  0.7818609E-02  0.8961226E-01
        2   -1    0    0  501    0  0.00000000000E+00  0.00000000000E+00  0.65798902791E+03  0.65798902791E+03  0.25500000920E-02 0.  1.
       -2   -1    0    0    0  501  0.00000000000E+00  0.00000000000E+00 -0.73389511731E+03  0.73389511731E+03  0.25500000920E-02 0. -1.
    10030    2    1    2    0    0  0.00000000000E+00  0.00000000000E+00 -0.75906089398E+02  0.13918841452E+04  0.13898128433E+04 0.  0.
        5    1    3    3  502    0  0.25987444045E+03 -0.34838173231E+03 -0.58094951841E+03  0.72555426341E+03  0.46999998093E+01 0. -1.
       -5    1    3    3    0  502 -0.25987444045E+03  0.34838173231E+03  0.50504342902E+03  0.66632988182E+03  0.46999998093E+01 0.  1.
</event>
<event>
 5   0  0.2223112E-04  0.1399959E+04  0.7818609E-02  0.8953848E-01
        1   -1    0    0  501    0  0.00000000000E+00  0.00000000000E+00  0.64870324194E+03  0.64870324196E+03  0.50400001928E-02 0. -1.
       -1   -1    0    0    0  501  0.00000000000E+00  0.00000000000E+00 -0.75530886172E+03  0.75530886174E+03  0.50400001928E-02 0.  1.
    10030    2    1    2    0    0  0.00000000000E+00  0.00000000000E+00 -0.10660561978E+03  0.14040121037E+04  0.13999590098E+04 0.  0.
        1    1    3    3  502    0  0.67297956878E+03 -0.96274078290E+02  0.11391656401E+03  0.68930920619E+03  0.50400001928E-02 0. -1.
       -1    1    3    3    0  502 -0.67297956878E+03  0.96274078290E+02 -0.22052218379E+03  0.71470289752E+03  0.50400001928E-02 0.  1.
</event>
<event>
 5   0  0.3917598E-04  0.1413790E+04  0.7818609E-02  0.8943897E-01
       -2   -1    0    0    0  501  0.00000000000E+00  0.00000000000E+00  0.68651420837E+03  0.68651420838E+03  0.25500000920E-02 0. -1.
        2   -1    0    0  501    0  0.00000000000E+00  0.00000000000E+00 -0.72788034450E+03  0.72788034450E+03  0.25500000920E-02 0.  1.
    10030    2    1    2    0    0  0.00000000000E+00  0.00000000000E+00 -0.41366136123E+02  0.14143945529E+04  0.14137895155E+04 0.  0.
        3    1    3    3  502    0  0.98629751697E+02 -0.59047378381E+02 -0.71846687700E+03  0.72760503322E+03  0.10100000352E+00 0.  1.
       -3    1    3    3    0  502 -0.98629751697E+02  0.59047378381E+02  0.67710074088E+03  0.68678951966E+03  0.10100000352E+00 0. -1.
</event>
<event>
 5   0  0.4310348E-04  0.1398564E+04  0.7818609E-02  0.8954859E-01
       -2   -1    0    0    0  501  0.00000000000E+00  0.00000000000E+00  0.19398821502E+03  0.19398821504E+03  0.25500000920E-02 0. -1.
        2   -1    0    0  501    0  0.00000000000E+00  0.00000000000E+00 -0.25207479470E+04  0.25207479470E+04  0.25500000920E-02 0.  1.
    10030    2    1    2    0    0  0.00000000000E+00  0.00000000000E+00 -0.23267597320E+04  0.27147361621E+04  0.13985641134E+04 0.  0.
        1    1    3    3  502    0  0.52560662314E+03 -0.70939581624E+02 -0.20480149799E+04  0.21155755964E+04  0.50400001928E-02 0.  1.
       -1    1    3    3    0  502 -0.52560662314E+03  0.70939581624E+02 -0.27874475216E+03  0.59916056564E+03  0.50400001928E-02 0. -1.
</event>
<event>
 5   0  0.3917598E-04  0.1402767E+04  0.7818609E-02  0.8951818E-01
       -2   -1    0    0    0  501  0.00000000000E+00  0.00000000000E+00  0.44251455852E+03  0.44251455853E+03  0.25500000920E-02 0.  1.
        2   -1    0    0  501    0  0.00000000000E+00  0.00000000000E+00 -0.11116893926E+04  0.11116893926E+04  0.25500000920E-02 0. -1.
    10030    2    1    2    0    0  0.00000000000E+00  0.00000000000E+00 -0.66917483408E+03  0.15542039511E+04  0.14027668955E+04 0.  0.
        3    1    3    3  502    0  0.11797727980E+03  0.68622846209E+03 -0.42801504337E+03  0.81732798085E+03  0.10100000352E+00 0.  1.
       -3    1    3    3    0  502 -0.11797727980E+03 -0.68622846209E+03 -0.24115979071E+03  0.73687597028E+03  0.10100000352E+00 0. -1.
</event>
<event>
 5   0  0.2155352E-04  0.1399101E+04  0.7818609E-02  0.8954470E-01
       -1   -1    0    0    0  501  0.00000000000E+00  0.00000000000E+00  0.48611473242E+03  0.48611473244E+03  0.50400001928E-02 0.  1.
        1   -1    0    0  501    0  0.00000000000E+00  0.00000000000E+00 -0.10066976767E+04  0.10066976767E+04  0.50400001928E-02 0. -1.
    10030    2    1    2    0    0  0.00000000000E+00  0.00000000000E+00 -0.52058294425E+03  0.14928124091E+04  0.13991005278E+04 0.  0.
        2    1    3    3  502    0  0.63040597073E+03 -0.21871015168E+03 -0.36162777591E+02  0.66824663476E+03  0.25500000920E-02 0. -1.
       -2    1    3    3    0  502 -0.63040597073E+03  0.21871015168E+03 -0.48442016666E+03  0.82456577437E+03  0.25500000920E-02 0.  1.
</event>
<event>
 5   0  0.4208622E-04  0.1399288E+04  0.7818609E-02  0.8954334E-01
       -2   -1    0    0    0  501  0.00000000000E+00  0.00000000000E+00  0.78719810007E+03  0.78719810008E+03  0.25500000920E-02 0.  1.
        2   -1    0    0  501    0  0.00000000000E+00  0.00000000000E+00 -0.62182795460E+03  0.62182795461E+03  0.25500000920E-02 0. -1.
    10030    2    1    2    0    0  0.00000000000E+00  0.00000000000E+00  0.16537014547E+03  0.14090260547E+04  0.13992880825E+04 0.  0.
        4    1    3    3  502    0 -0.46313980720E+03 -0.22377051850E+03 -0.39488167456E+03  0.64846347296E+03  0.12699999809E+01 0. -1.
       -4    1    3    3    0  502  0.46313980720E+03  0.22377051850E+03  0.56025182003E+03  0.76056258172E+03  0.12699999809E+01 0.  1.
</event>
<event>
 5   0  0.2217251E-04  0.1418379E+04  0.7818609E-02  0.8940621E-01
        1   -1    0    0  501    0  0.00000000000E+00  0.00000000000E+00  0.13676946165E+04  0.13676946165E+04  0.50400001928E-02 0.  1.
       -1   -1    0    0    0  501  0.00000000000E+00  0.00000000000E+00 -0.36773540764E+03  0.36773540767E+03  0.50400001928E-02 0. -1.
    10030    2    1    2    0    0  0.00000000000E+00  0.00000000000E+00  0.99995920884E+03  0.17354300242E+04  0.14183789865E+04 0.  0.
        5    1    3    3  502    0  0.49314233147E+03 -0.32806873096E+03  0.22788264242E+02  0.59275614405E+03  0.46999998093E+01 0.  1.
       -5    1    3    3    0  502 -0.49314233147E+03  0.32806873096E+03  0.97717094460E+03  0.11426738801E+04  0.46999998093E+01 0. -1.
</event>
<event>
 5   0  0.2155352E-04  0.1384980E+04  0.7818609E-02  0.8964763E-01
       -1   -1    0    0    0  501  0.00000000000E+00  0.00000000000E+00  0.77400870843E+03  0.77400870845E+03  0.50400001928E-02 0. -1.
        1   -1    0    0  501    0  0.00000000000E+00  0.00000000000E+00 -0.61955676981E+03  0.61955676983E+03  0.50400001928E-02 0.  1.
    10030    2    1    2    0    0  0.00000000000E+00  0.00000000000E+00  0.15445193862E+03  0.13935654783E+04  0.13849799063E+04 0.  0.
        2    1    3    3  502    0 -0.36361001881E+03 -0.33011128677E+03  0.56847026797E+03  0.75122842931E+03  0.25500000920E-02 0. -1.
       -2    1    3    3    0  502  0.36361001881E+03  0.33011128677E+03 -0.41401832935E+03  0.64233704897E+03  0.25500000920E-02 0.  1.
</event>
<event>
 5   0  0.1497625E-04  0.1401966E+04  0.7818609E-02  0.8952397E-01
       -3   -1    0    0    0  501  0.00000000000E+00  0.00000000000E+00  0.15084909875E+04  0.15084909909E+04  0.10100000352E+00 0.  1.
        3   -1    0    0  501    0  0.00000000000E+00  0.00000000000E+00 -0.32574093641E+03  0.32574095207E+03  0.10100000352E+00 0. -1.
    10030    2    1    2    0    0  0.00000000000E+00  0.00000000000E+00  0.11827500511E+04  0.18342319429E+04  0.14019661683E+04 0.  0.
        3    1    3    3  502    0 -0.61262701093E+03 -0.93394864791E+02  0.16272464204E+03  0.64071348872E+03  0.10100000352E+00 0. -1.
       -3    1    3    3    0  502  0.61262701093E+03  0.93394864791E+02  0.10200254090E+04  0.11935184542E+04  0.10100000352E+00 0.  1.
</event>
<event>
 5   0  0.2155352E-04  0.1396928E+04  0.7818609E-02  0.8956045E-01
        1   -1    0    0  501    0  0.00000000000E+00  0.00000000000E+00  0.26654537723E+04  0.26654537723E+04  0.50400001928E-02 0.  1.
       -1   -1    0    0    0  501  0.00000000000E+00  0.00000000000E+00 -0.18302785976E+03  0.18302785983E+03  0.50400001928E-02 0. -1.
    10030    2    1    2    0    0  0.00000000000E+00  0.00000000000E+00  0.24824259126E+04  0.28484816322E+04  0.13969284869E+04 0.  0.
        2    1    3    3  502    0 -0.28683281703E+03 -0.57680025884E+03  0.17916979756E+04  0.19039835187E+04  0.25500000920E-02 0.  1.
       -2    1    3    3    0  502  0.28683281703E+03  0.57680025884E+03  0.69072793696E+03  0.94449811351E+03  0.25500000920E-02 0. -1.
</event>
<event>
 5   0  0.2215876E-04  0.1403181E+04  0.7818609E-02  0.8951519E-01
       -1   -1    0    0    0  501  0.00000000000E+00  0.00000000000E+00  0.63848248822E+03  0.63848248824E+03  0.50400001928E-02 0.  1.
        1   -1    0    0  501    0  0.00000000000E+00  0.00000000000E+00 -0.77093635416E+03  0.77093635418E+03  0.50400001928E-02 0. -1.
    10030    2    1    2    0    0  0.00000000000E+00  0.00000000000E+00 -0.13245386594E+03  0.14094188424E+04  0.14031811881E+04 0.  0.
        3    1    3    3  502    0 -0.12898481827E+03 -0.68625867191E+03 -0.13465689485E+03  0.71114030799E+03  0.10100000352E+00 0. -1.
       -3    1    3    3    0  502  0.12898481827E+03  0.68625867191E+03  0.22030289096E+01  0.69827853443E+03  0.10100000352E+00 0.  1.
</event>
<event>
 5   0  0.2217251E-04  0.1406092E+04  0.7818609E-02  0.8949420E-01
       -1   -1    0    0    0  501  0.00000000000E+00  0.00000000000E+00  0.62470464784E+03  0.62470464786E+03  0.50400001928E-02 0.  1.
        1   -1    0    0  501    0  0.00000000000E+00  0.00000000000E+00 -0.79121210819E+03  0.79121210821E+03  0.50400001928E-02 0. -1.
    10030    2    1    2    0    0  0.00000000000E+00  0.00000000000E+00 -0.16650746036E+03  0.14159167561E+04  0.14060922892E+04 0.  0.
        5    1    3    3  502    0 -0.64542221543E+03 -0.27869455126E+03 -0.86639119988E+02  0.70835648947E+03  0.46999998093E+01 0. -1.
       -5    1    3    3    0  502  0.64542221543E+03  0.27869455126E+03 -0.79868340369E+02  0.70756026659E+03  0.46999998093E+01 0.  1.
</event>
<event>
 5   0  0.3975164E-04  0.1397950E+04  0.7818609E-02  0.8955304E-01
       -2   -1    0    0    0  501  0.00000000000E+00  0.00000000000E+00  0.78305627607E+03  0.78305627607E+03  0.25500000920E-02 0. -1.
        2   -1    0    0  501    0  0.00000000000E+00  0.00000000000E+00 -0.62392229769E+03  0.62392229769E+03  0.25500000920E-02 0.  1.
    10030    2    1    2    0    0  0.00000000000E+00  0.00000000000E+00  0.15913397838E+03  0.14069785738E+04  0.13979503153E+04 0.  0.
        5    1    3    3  502    0  0.12702022704E+03  0.44261017496E+03  0.60880160682E+03  0.76334749067E+03  0.46999998093E+01 0. -1.
       -5    1    3    3    0  502 -0.12702022704E+03 -0.44261017496E+03 -0.44966762844E+03  0.64363108309E+03  0.46999998093E+01 0.  1.
</event>
<event>
 5   0  0.2223112E-04  0.1400973E+04  0.7818609E-02  0.8953115E-01
        1   -1    0    0  501    0  0.00000000000E+00  0.00000000000E+00  0.10458230061E+04  0.10458230061E+04  0.50400001928E-02 0. -1.
       -1   -1    0    0    0  501  0.00000000000E+00  0.00000000000E+00 -0.46918178090E+03  0.46918178093E+03  0.50400001928E-02 0.  1.
    10030    2    1    2    0    0  0.00000000000E+00  0.00000000000E+00  0.57664122522E+03  0.15150047871E+04  0.14009726629E+04 0.  0.
        1    1    3    3  502    0 -0.29040965188E+03  0.58243352389E+03  0.81693371048E+01  0.65087119597E+03  0.50400001928E-02 0.  1.
       -1    1    3    3    0  502  0.29040965188E+03 -0.58243352389E+03  0.56847188812E+03  0.86413359110E+03  0.50400001928E-02 0. -1.
</event>
<event>
 5   0  0.2217251E-04  0.1398516E+04  0.7818609E-02  0.8954893E-01
        1   -1    0    0  501    0  0.00000000000E+00  0.00000000000E+00  0.98903334766E+03  0.98903334767E+03  0.50400001928E-02 0. -1.
       -1   -1    0    0    0  501  0.00000000000E+00  0.00000000000E+00 -0.49438370080E+03  0.49438370082E+03  0.50400001928E-02 0.  1.
    10030    2    1    2    0    0  0.00000000000E+00  0.00000000000E+00  0.49464964686E+03  0.14834170485E+04  0.13985163090E+04 0.  0.
        5    1    3    3  502    0  0.36258334723E+03 -0.34415610801E+03  0.76591194092E+03  0.91463287805E+03  0.46999998093E+01 0. -1.
       -5    1    3    3    0  502 -0.36258334723E+03  0.34415610801E+03 -0.27126229406E+03  0.56878417044E+03  0.46999998093E+01 0.  1.
</event>
<event>
 5   0  0.2143942E-04  0.1399485E+04  0.7818609E-02  0.8954191E-01
        1   -1    0    0  501    0  0.00000000000E+00  0.00000000000E+00  0.99124100732E+03  0.99124100733E+03  0.50400001928E-02 0.  1.
       -1   -1    0    0    0  501  0.00000000000E+00  0.00000000000E+00 -0.49396652732E+03  0.49396652735E+03  0.50400001928E-02 0. -1.
    10030    2    1    2    0    0  0.00000000000E+00  0.00000000000E+00  0.49727448000E+03  0.14852075347E+04  0.13994854457E+04 0.  0.
        4    1    3    3  502    0  0.58163589737E+03  0.22710732209E+02  0.66078348859E+03  0.88059782317E+03  0.12699999809E+01 0.  1.
       -4    1    3    3    0  502 -0.58163589737E+03 -0.22710732209E+02 -0.16350900859E+03  0.60460971152E+03  0.12699999809E+01 0. -1.
</event>
<event>
 5   0  0.2155352E-04  0.1413950E+04  0.7818609E-02  0.8943782E-01
       -1   -1    0    0    0  501  0.00000000000E+00  0.00000000000E+00  0.89550149167E+03  0.89550149168E+03  0.50400001928E-02 0.  1.
        1   -1    0    0  501    0  0.00000000000E+00  0.00000000000E+00 -0.55813813972E+03  0.55813813975E+03  0.50400001928E-02 0. -1.
    10030    2    1    2    0    0  0.00000000000E+00  0.00000000000E+00  0.33736335194E+03  0.14536396314E+04  0.14139498389E+04 0.  0.
        2    1    3    3  502    0 -0.11978321224E+03  0.66795547273E+03  0.37249125008E+03  0.77412031551E+03  0.25500000920E-02 0.  1.
       -2    1    3    3    0  502  0.11978321224E+03 -0.66795547273E+03 -0.35127898138E+02  0.67951931593E+03  0.25500000920E-02 0. -1.
</event>
<event>
 5   0  0.3932568E-04  0.1405763E+04  0.7818609E-02  0.8949657E-01
       -2   -1    0    0    0  501  0.00000000000E+00  0.00000000000E+00  0.21317932382E+03  0.21317932384E+03  0.25500000920E-02 0. -1.
        2   -1    0    0  501    0  0.00000000000E+00  0.00000000000E+00 -0.23174973003E+04  0.23174973003E+04  0.25500000920E-02 0.  1.
    10030    2    1    2    0    0  0.00000000000E+00  0.00000000000E+00 -0.21043179765E+04  0.25306766242E+04  0.14057631486E+04 0.  0.
        2    1    3    3  502    0  0.27797194618E+03  0.65980390330E+02  0.10393920614E+03  0.30401508737E+03  0.25500000920E-02 0. -1.
       -2    1    3    3    0  502 -0.27797194618E+03 -0.65980390330E+02 -0.22082571826E+04  0.22266615368E+04  0.25500000920E-02 0.  1.
</event>
<event>
 5   0  0.3917598E-04  0.1374035E+04  0.7818609E-02  0.8972831E-01
        2   -1    0    0  501    0  0.00000000000E+00  0.00000000000E+00  0.66820551459E+03  0.66820551459E+03  0.25500000920E-02 0.  1.
       -2   -1    0    0    0  501  0.00000000000E+00  0.00000000000E+00 -0.70635899424E+03  0.70635899424E+03  0.25500000920E-02 0. -1.
    10030    2    1    2    0    0  0.00000000000E+00  0.00000000000E+00 -0.38153479653E+02  0.13745645088E+04  0.13740348980E+04 0.  0.
        3    1    3    3  502    0 -0.22409609257E+03  0.41730629963E+03 -0.51689225681E+03  0.70110000839E+03  0.10100000352E+00 0. -1.
       -3    1    3    3    0  502  0.22409609257E+03 -0.41730629963E+03  0.47873877715E+03  0.67346450045E+03  0.10100000352E+00 0.  1.
</event>
<event>
 5   0  0.4208622E-04  0.1402868E+04  0.7818609E-02  0.8951745E-01
        2   -1    0    0  501    0  0.00000000000E+00  0.00000000000E+00  0.16077523288E+04  0.16077523288E+04  0.25500000920E-02 0. -1.
       -2   -1    0    0    0  501  0.00000000000E+00  0.00000000000E+00 -0.30602315564E+03  0.30602315565E+03  0.25500000920E-02 0.  1.
    10030    2    1    2    0    0  0.00000000000E+00  0.00000000000E+00  0.13017291732E+04  0.19137754845E+04  0.14028676932E+04 0.  0.
        4    1    3    3  502    0 -0.66300927939E+03 -0.18988241482E+03  0.82541240587E+03  0.10756132617E+04  0.12699999809E+01 0. -1.
       -4    1    3    3    0  502  0.66300927939E+03  0.18988241482E+03  0.47631676730E+03  0.83816222280E+03  0.12699999809E+01 0.  1.
</event>
<event>
 5   0  0.2217251E-04  0.1399589E+04  0.7818609E-02  0.8954116E-01
       -1   -1    0    0    0  501  0.00000000000E+00  0.00000000000E+00  0.51293161247E+03  0.51293161249E+03  0.50400001928E-02 0.  1.
        1   -1    0    0  501    0  0.00000000000E+00  0.00000000000E+00 -0.95473256712E+03  0.95473256713E+03  0.50400001928E-02 0. -1.
    10030    2    1    2    0    0  0.00000000000E+00  0.00000000000E+00 -0.44180095465E+03  0.14676641796E+04  0.13995892471E+04 0.  0.
        5    1    3    3  502    0  0.78755212546E+02  0.42320347028E+03 -0.79944801697E+03  0.90798831634E+03  0.46999998093E+01 0. -1.
       -5    1    3    3    0  502 -0.78755212546E+02 -0.42320347028E+03  0.35764706232E+03  0.55967586329E+03  0.46999998093E+01 0.  1.
</event>
<event>
 5   0  0.4310348E-04  0.1401120E+04  0.7818609E-02  0.8953009E-01
       -2   -1    0    0    0  501  0.00000000000E+00  0.00000000000E+00  0.31851764441E+03  0.31851764442E+03  0.25500000920E-02 0. -1.
        2   -1    0    0  501    0  0.00000000000E+00  0.00000000000E+00 -0.15408378385E+04  0.15408378385E+04  0.25500000920E-02 0.  1.
    10030    2    1    2    0    0  0.00000000000E+00  0.00000000000E+00 -0.12223201941E+04  0.18593554829E+04  0.14011196077E+04 0.  0.
        1    1    3    3  502    0  0.45470508794E+03 -0.31713052333E+03 -0.42761956037E+02  0.55601894818E+03  0.50400001928E-02 0. -1.
       -1    1    3    3    0  502 -0.45470508794E+03  0.31713052333E+03 -0.11795582381E+04  0.13033365348E+04  0.50400001928E-02 0.  1.
</event>
<event>
 5   0  0.3975164E-04  0.1400416E+04  0.7818609E-02  0.8953518E-01
       -2   -1    0    0    0  501  0.00000000000E+00  0.00000000000E+00  0.39074488010E+03  0.39074488011E+03  0.25500000920E-02 0.  1.
        2   -1    0    0  501    0  0.00000000000E+00  0.00000000000E+00 -0.12547601407E+04  0.12547601407E+04  0.25500000920E-02 0. -1.
    10030    2    1    2    0    0  0.00000000000E+00  0.00000000000E+00 -0.86401526061E+03  0.16455050208E+04  0.14004157965E+04 0.  0.
        5    1    3    3  502    0  0.22791956163E+03 -0.11812424102E+03 -0.11974521233E+04  0.12246690738E+04  0.46999998093E+01 0. -1.
       -5    1    3    3    0  502 -0.22791956163E+03  0.11812424102E+03  0.33343686267E+03  0.42083594698E+03  0.46999998093E+01 0.  1.
</event>
<event>
 5   0  0.2143942E-04  0.1398874E+04  0.7818609E-02  0.8954634E-01
        1   -1    0    0  501    0  0.00000000000E+00  0.00000000000E+00  0.10936479737E+04  0.10936479737E+04  0.50400001928E-02 0. -1.
       -1   -1    0    0    0  501  0.00000000000E+00  0.00000000000E+00 -0.44732163184E+03  0.44732163187E+03  0.50400001928E-02 0.  1.
    10030    2    1    2    0    0  0.00000000000E+00  0.00000000000E+00  0.64632634182E+03  0.15409696055E+04  0.13988743993E+04 0.  0.
        4    1    3    3  502    0 -0.65462856832E+03 -0.18137567637E+03  0.50675064569E+03  0.84748659473E+03  0.12699999809E+01 0. -1.
       -4    1    3    3    0  502  0.65462856832E+03  0.18137567637E+03  0.13957569613E+03  0.69348301082E+03  0.12699999809E+01 0.  1.
</event>
<event>
 5   0  0.2155352E-04  0.1401629E+04  0.7818609E-02  0.8952640E-01
       -1   -1    0    0    0  501  0.00000000000E+00  0.00000000000E+00  0.41207799086E+03  0.41207799089E+03  0.50400001928E-02 0.  1.
        1   -1    0    0  501    0  0.00000000000E+00  0.00000000000E+00 -0.11918639248E+04  0.11918639248E+04  0.50400001928E-02 0. -1.
    10030    2    1    2    0    0  0.00000000000E+00  0.00000000000E+00 -0.77978593390E+03  0.16039419157E+04  0.14016288974E+04 0.  0.
        2    1    3    3  502    0  0.68335190326E+03  0.15489869945E+03 -0.37464869325E+03  0.79455967312E+03  0.25500000920E-02 0. -1.
       -2    1    3    3    0  502 -0.68335190326E+03 -0.15489869945E+03 -0.40513724064E+03  0.80938224254E+03  0.25500000920E-02 0.  1.
</event>
<event>
 5   0  0.2155352E-04  0.1400893E+04  0.7818609E-02  0.8953173E-01
       -1   -1    0    0    0  501  0.00000000000E+00  0.00000000000E+00  0.18826661317E+04  0.18826661318E+04  0.50400001928E-02 0. -1.
        1   -1    0    0  501    0  0.00000000000E+00  0.00000000000E+00 -0.26060127403E+03  0.26060127408E+03  0.50400001928E-02 0.  1.
    10030    2    1    2    0    0  0.00000000000E+00  0.00000000000E+00  0.16220648577E+04  0.21432674058E+04  0.14008928475E+04 0.  0.
        2    1    3    3  502    0  0.22769125496E+03  0.52806928156E+03  0.19920458238E+03  0.60859094584E+03  0.25500000920E-02 0.  1.
       -2    1    3    3    0  502 -0.22769125496E+03 -0.52806928156E+03  0.14228602753E+04  0.15346764600E+04  0.25500000920E-02 0. -1.
</event>
<event>
 5   0  0.2217251E-04  0.1392111E+04  0.7818609E-02  0.8959549E-01
       -1   -1    0    0    0  501  0.00000000000E+00  0.00000000000E+00  0.33530598163E+03  0.33530598167E+03  0.50400001928E-02 0.  1.
        1   -1    0    0  501    0  0.00000000000E+00  0.00000000000E+00 -0.14449277860E+04  0.14449277860E+04  0.50400001928E-02 0. -1.
    10030    2    1    2    0    0  0.00000000000E+00  0.00000000000E+00 -0.11096218043E+04  0.17802337676E+04  0.13921105268E+04 0.  0.
        5    1    3    3  502    0  0.61304030340E+03  0.90070794498E+01 -0.97617820592E+03  0.11527556206E+04  0.46999998093E+01 0. -1.
       -5    1    3    3    0  502 -0.61304030340E+03 -0.90070794498E+01 -0.13344359840E+03  0.62747814705E+03  0.46999998093E+01 0.  1.
</event>
<event>
 5   0  0.2155352E-04  0.1391175E+04  0.7818609E-02  0.8960231E-01
        1   -1    0    0  501    0  0.00000000000E+00  0.00000000000E+00  0.72335731128E+03  0.72335731130E+03  0.50400001928E-02 0.  1.
       -1   -1    0    0    0  501  0.00000000000E+00  0.00000000000E+00 -0.66888416441E+03  0.66888416442E+03  0.50400001928E-02 0. -1.
    10030    2    1    2    0    0  0.00000000000E+00  0.00000000000E+00  0.54473146878E+02  0.13922414757E+04  0.13911754034E+04 0.  0.
        2    1    3    3  502    0  0.13285999089E+03  0.61748558419E+03 -0.26436623754E+03  0.68471142200E+03  0.25500000920E-02 0. -1.
       -2    1    3    3    0  502 -0.13285999089E+03 -0.61748558419E+03  0.31883938442E+03  0.70753005372E+03  0.25500000920E-02 0.  1.
</event>
<event>
 5   0  0.3932568E-04  0.1392493E+04  0.7818609E-02  0.8959270E-01
        2   -1    0    0  501    0  0.00000000000E+00  0.00000000000E+00  0.54440493688E+03  0.54440493689E+03  0.25500000920E-02 0. -1.
       -2   -1    0    0    0  501  0.00000000000E+00  0.00000000000E+00 -0.89043911115E+03  0.89043911115E+03  0.25500000920E-02 0.  1.
    10030    2    1    2    0    0  0.00000000000E+00  0.00000000000E+00 -0.34603417426E+03  0.14348440480E+04  0.13924933725E+04 0.  0.
        2    1    3    3  502    0  0.44782859604E+03 -0.12490522977E+03  0.36101921104E+03  0.58863115667E+03  0.25500000920E-02 0. -1.
       -2    1    3    3    0  502 -0.44782859604E+03  0.12490522977E+03 -0.70705338530E+03  0.84621289137E+03  0.25500000920E-02 0.  1.
</event>
<event>
 5   0  0.3932568E-04  0.1330262E+04  0.7818609E-02  0.9005905E-01
        2   -1    0    0  501    0  0.00000000000E+00  0.00000000000E+00  0.84648787850E+03  0.84648787850E+03  0.25500000920E-02 0. -1.
       -2   -1    0    0    0  501  0.00000000000E+00  0.00000000000E+00 -0.52262945296E+03  0.52262945297E+03  0.25500000920E-02 0.  1.
    10030    2    1    2    0    0  0.00000000000E+00  0.00000000000E+00  0.32385842553E+03  0.13691173315E+04  0.13302623755E+04 0.  0.
        2    1    3    3  502    0  0.41070918238E+03 -0.35792453375E+03  0.55466024751E+03  0.77745739081E+03  0.25500000920E-02 0. -1.
       -2    1    3    3    0  502 -0.41070918238E+03  0.35792453375E+03 -0.23080182197E+03  0.59165994066E+03  0.25500000920E-02 0.  1.
</event>
<event>
 5   0  0.3917598E-04  0.1395462E+04  0.7818609E-02  0.8957110E-01
       -2   -1    0    0    0  501  0.00000000000E+00  0.00000000000E+00  0.15840608148E+04  0.15840608148E+04  0.25500000920E-02 0.  1.
        2   -1    0    0  501    0  0.00000000000E+00  0.00000000000E+00 -0.30732965272E+03  0.30732965273E+03  0.25500000920E-02 0. -1.
    10030    2    1    2    0    0  0.00000000000E+00  0.00000000000E+00  0.12767311621E+04  0.18913904676E+04  0.13954624468E+04 0.  0.
        3    1    3    3  502    0  0.14728435920E+03  0.79704712815E+02 -0.27968551840E+03  0.32599006597E+03  0.10100000352E+00 0. -1.
       -3    1    3    3    0  502 -0.14728435920E+03 -0.79704712815E+02  0.15564166805E+04  0.15654004016E+04  0.10100000352E+00 0.  1.
</event>
<event>
 5   0  0.2223112E-04  0.1393958E+04  0.7818609E-02  0.8958203E-01
        1   -1    0    0  501    0  0.00000000000E+00  0.00000000000E+00  0.21000496725E+03  0.21000496731E+03  0.50400001928E-02 0. -1.
       -1   -1    0    0    0  501  0.00000000000E+00  0.00000000000E+00 -0.23131830592E+04  0.23131830592E+04  0.50400001928E-02 0.  1.
    10030    2    1    2    0    0  0.00000000000E+00  0.00000000000E+00 -0.21031780919E+04  0.25231880265E+04  0.13939582959E+04 0.  0.
        1    1    3    3  502    0  0.24264682931E+03  0.32329434626E+03 -0.23842454858E+02  0.40492614238E+03  0.50400001928E-02 0. -1.
       -1    1    3    3    0  502 -0.24264682931E+03 -0.32329434626E+03 -0.20793356371E+04  0.21182618841E+04  0.50400001928E-02 0.  1.
</event>
<event>
 5   0  0.2155352E-04  0.1396281E+04  0.7818609E-02  0.8956515E-01
       -1   -1    0    0    0  501  0.00000000000E+00  0.00000000000E+00  0.29869446888E+03  0.29869446892E+03  0.50400001928E-02 0.  1.
        1   -1    0    0  501    0  0.00000000000E+00  0.00000000000E+00 -0.16317676848E+04  0.16317676848E+04  0.50400001928E-02 0. -1.
    10030    2    1    2    0    0  0.00000000000E+00  0.00000000000E+00 -0.13330732159E+04  0.19304621537E+04  0.13962807483E+04 0.  0.
        2    1    3    3  502    0 -0.35985962740E+03  0.47445440909E+03 -0.16271378088E+03  0.61731816127E+03  0.25500000920E-02 0.  1.
       -2    1    3    3    0  502  0.35985962740E+03 -0.47445440909E+03 -0.11703594350E+04  0.13131439925E+04  0.25500000920E-02 0. -1.
</event>
<event>
 5   0  0.2155352E-04  0.1392541E+04  0.7818609E-02  0.8959235E-01
       -1   -1    0    0    0  501  0.00000000000E+00  0.00000000000E+00  0.32657259160E+03  0.32657259164E+03  0.50400001928E-02 0. -1.
        1   -1    0    0  501    0  0.00000000000E+00  0.00000000000E+00 -0.14844873294E+04  0.14844873294E+04  0.50400001928E-02 0.  1.
    10030    2    1    2    0    0  0.00000000000E+00  0.00000000000E+00 -0.11579147378E+04  0.18110599210E+04  0.13925413809E+04 0.  0.
        2    1    3    3  502    0 -0.51382649740E+03 -0.56592856472E+02 -0.11855912532E+04  0.12933858823E+04  0.25500000920E-02 0.  1.
       -2    1    3    3    0  502  0.51382649740E+03  0.56592856472E+02  0.27676515448E+02  0.51767403871E+03  0.25500000920E-02 0. -1.
</event>
<event>
 5   0  0.3917598E-04  0.1403155E+04  0.7818609E-02  0.8951538E-01
        2   -1    0    0  501    0  0.00000000000E+00  0.00000000000E+00  0.10082885677E+04  0.10082885677E+04  0.25500000920E-02 0. -1.
       -2   -1    0    0    0  501  0.00000000000E+00  0.00000000000E+00 -0.48816505864E+03  0.48816505865E+03  0.25500000920E-02 0.  1.
    10030    2    1    2    0    0  0.00000000000E+00  0.00000000000E+00  0.52012350909E+03  0.14964536264E+04  0.14031553696E+04 0.  0.
        3    1    3    3  502    0  0.25570117956E+03  0.64135901233E+03  0.39278219309E+03  0.79435655554E+03  0.10100000352E+00 0.  1.
       -3    1    3    3    0  502 -0.25570117956E+03 -0.64135901233E+03  0.12734131601E+03  0.70209707084E+03  0.10100000352E+00 0. -1.
</event>
<event>
 5   0  0.3932568E-04  0.1405526E+04  0.7818609E-02  0.8949829E-01
       -2   -1    0    0    0  501  0.00000000000E+00  0.00000000000E+00  0.28084320208E+03  0.28084320209E+03  0.25500000920E-02 0.  1.
        2   -1    0    0  501    0  0.00000000000E+00  0.00000000000E+00 -0.17585455231E+04  0.17585455231E+04  0.25500000920E-02 0. -1.
    10030    2    1    2    0    0  0.00000000000E+00  0.00000000000E+00 -0.14777023210E+04  0.20393887252E+04  0.14055256038E+04 0.  0.
        2    1    3    3  502    0 -0.56933608889E+03 -0.57829835473E+02 -0.13307150456E+04  0.14485476881E+04  0.25500000920E-02 0. -1.
       -2    1    3    3    0  502  0.56933608889E+03  0.57829835473E+02 -0.14698727537E+03  0.59084103709E+03  0.25500000920E-02 0.  1.
</event>
<event>
 5   0  0.3932568E-04  0.1399908E+04  0.7818609E-02  0.8953885E-01
       -2   -1    0    0    0  501  0.00000000000E+00  0.00000000000E+00  0.53426791510E+03  0.53426791510E+03  0.25500000920E-02 0.  1.
        2   -1    0    0  501    0  0.00000000000E+00  0.00000000000E+00 -0.91702197816E+03  0.91702197817E+03  0.25500000920E-02 0. -1.
    10030    2    1    2    0    0  0.00000000000E+00  0.00000000000E+00 -0.38275406307E+03  0.14512898933E+04  0.13999077404E+04 0.  0.
        2    1    3    3  502    0 -0.51233112295E+00  0.61217830575E+03  0.16045053883E+03  0.63285615738E+03  0.25500000920E-02 0.  1.
       -2    1    3    3    0  502  0.51233112295E+00 -0.61217830575E+03 -0.54320460190E+03  0.81843373589E+03  0.25500000920E-02 0. -1.
</event>
<event>
 5   0  0.2143942E-04  0.1400338E+04  0.7818609E-02  0.8953574E-01
       -1   -1    0    0    0  501  0.00000000000E+00  0.00000000000E+00  0.12561869688E+04  0.12561869688E+04  0.50400001928E-02 0. -1.
        1   -1    0    0  501    0  0.00000000000E+00  0.00000000000E+00 -0.39025779002E+03  0.39025779005E+03  0.50400001928E-02 0.  1.
    10030    2    1    2    0    0  0.00000000000E+00  0.00000000000E+00  0.86592917876E+03  0.16464447589E+04  0.14003381739E+04 0.  0.
        4    1    3    3  502    0 -0.63190981298E+03  0.89406722317E+02  0.77155461711E+03  0.10013000119E+04  0.12699999809E+01 0.  1.
       -4    1    3    3    0  502  0.63190981298E+03 -0.89406722317E+02  0.94374561653E+02  0.64514474696E+03  0.12699999809E+01 0. -1.
</event>
<event>
 5   0  0.1497625E-04  0.1391834E+04  0.7818609E-02  0.8959751E-01
       -3   -1    0    0    0  501  0.00000000000E+00  0.00000000000E+00  0.28971516918E+03  0.28971518678E+03  0.10100000352E+00 0.  1.
        3   -1    0    0  501    0  0.00000000000E+00  0.00000000000E+00 -0.16716434670E+04  0.16716434700E+04  0.10100000352E+00 0. -1.
    10030    2    1    2    0    0  0.00000000000E+00  0.00000000000E+00 -0.13819282978E+04  0.19613586568E+04  0.13918340276E+04 0.  0.
        1    1    3    3  502    0  0.41597087064E+03 -0.12688621192E+03 -0.14565689615E+04  0.15201069093E+04  0.50400001928E-02 0. -1.
       -1    1    3    3    0  502 -0.41597087064E+03  0.12688621192E+03  0.74640663697E+02  0.44125174753E+03  0.50400001928E-02 0.  1.
</event>
<event>
 5   0  0.4310348E-04  0.1421699E+04  0.7818609E-02  0.8938260E-01
        2   -1    0    0  501    0  0.00000000000E+00  0.00000000000E+00  0.10231149604E+04  0.10231149604E+04  0.25500000920E-02 0.  1.
       -2   -1    0    0    0  501  0.00000000000E+00  0.00000000000E+00 -0.49389089323E+03  0.49389089324E+03  0.25500000920E-02 0. -1.
    10030    2    1    2    0    0  0.00000000000E+00  0.00000000000E+00  0.52922406712E+03  0.15170058536E+04  0.14216992110E+04 0.  0.
        1    1    3    3  502    0  0.96899011293E+02  0.23053699513E+03  0.97462918902E+03  0.10062001693E+04  0.50400001928E-02 0.  1.
       -1    1    3    3    0  502 -0.96899011293E+02 -0.23053699513E+03 -0.44540512190E+03  0.51080568434E+03  0.50400001928E-02 0. -1.
</event>
<event>
 5   0  0.3917598E-04  0.1400923E+04  0.7818609E-02  0.8953151E-01
       -2   -1    0    0    0  501  0.00000000000E+00  0.00000000000E+00  0.31442356873E+03  0.31442356874E+03  0.25500000920E-02 0. -1.
        2   -1    0    0  501    0  0.00000000000E+00  0.00000000000E+00 -0.15604634043E+04  0.15604634043E+04  0.25500000920E-02 0.  1.
    10030    2    1    2    0    0  0.00000000000E+00  0.00000000000E+00 -0.12460398356E+04  0.18748869731E+04  0.14009232277E+04 0.  0.
        3    1    3    3  502    0  0.18641221493E+03  0.36533396637E+03  0.13691632629E+03  0.43239393088E+03  0.10100000352E+00 0. -1.
       -3    1    3    3    0  502 -0.18641221493E+03 -0.36533396637E+03 -0.13829561619E+04  0.14424930422E+04  0.10100000352E+00 0.  1.
</event>
<event>
 5   0  0.2155352E-04  0.1351066E+04  0.7818609E-02  0.8990021E-01
       -1   -1    0    0    0  501  0.00000000000E+00  0.00000000000E+00  0.63400321935E+03  0.63400321937E+03  0.50400001928E-02 0. -1.
        1   -1    0    0  501    0  0.00000000000E+00  0.00000000000E+00 -0.71978324987E+03  0.71978324989E+03  0.50400001928E-02 0.  1.
    10030    2    1    2    0    0  0.00000000000E+00  0.00000000000E+00 -0.85780030526E+02  0.13537864693E+04  0.13510660941E+04 0.  0.
        2    1    3    3  502    0 -0.27323197625E+03 -0.13757809512E+03 -0.64639955582E+03  0.71513343571E+03  0.25500000920E-02 0.  1.
       -2    1    3    3    0  502  0.27323197625E+03  0.13757809512E+03  0.56061952530E+03  0.63865303354E+03  0.25500000920E-02 0. -1.
</event>
<event>
 5   0  0.3917598E-04  0.1404173E+04  0.7818609E-02  0.8950803E-01
       -2   -1    0    0    0  501  0.00000000000E+00  0.00000000000E+00  0.84971879723E+03  0.84971879723E+03  0.25500000920E-02 0. -1.
        2   -1    0    0  501    0  0.00000000000E+00  0.00000000000E+00 -0.58010434757E+03  0.58010434757E+03  0.25500000920E-02 0.  1.
    10030    2    1    2    0    0  0.00000000000E+00  0.00000000000E+00  0.26961444966E+03  0.14298231448E+04  0.14041731638E+04 0.  0.
        3    1    3    3  502    0  0.21716963864E+03  0.48674541065E+02  0.81284893553E+03  0.84276643567E+03  0.10100000352E+00 0. -1.
       -3    1    3    3    0  502 -0.21716963864E+03 -0.48674541065E+02 -0.54323448587E+03  0.58705670914E+03  0.10100000352E+00 0.  1.
</event>
<event>
 5   0  0.3932568E-04  0.1398361E+04  0.7818609E-02  0.8955006E-01
        2   -1    0    0  501    0  0.00000000000E+00  0.00000000000E+00  0.20608441795E+04  0.20608441795E+04  0.25500000920E-02 0.  1.
       -2   -1    0    0    0  501  0.00000000000E+00  0.00000000000E+00 -0.23721012392E+03  0.23721012393E+03  0.25500000920E-02 0. -1.
    10030    2    1    2    0    0  0.00000000000E+00  0.00000000000E+00  0.18236340556E+04  0.22980543034E+04  0.13983606162E+04 0.  0.
        2    1    3    3  502    0 -0.28820965675E+03  0.96624684742E+01 -0.13492797250E+03  0.31837670661E+03  0.25500000920E-02 0. -1.
       -2    1    3    3    0  502  0.28820965675E+03 -0.96624684742E+01  0.19585620281E+04  0.19796775968E+04  0.25500000920E-02 0.  1.
</event>
<event>
 5   0  0.3975164E-04  0.1406977E+04  0.7818609E-02  0.8948784E-01
       -2   -1    0    0    0  501  0.00000000000E+00  0.00000000000E+00  0.53459661663E+03  0.53459661664E+03  0.25500000920E-02 0.  1.
        2   -1    0    0  501    0  0.00000000000E+00  0.00000000000E+00 -0.92573759456E+03  0.92573759456E+03  0.25500000920E-02 0. -1.
    10030    2    1    2    0    0  0.00000000000E+00  0.00000000000E+00 -0.39114097792E+03  0.14603342112E+04  0.14069771653E+04 0.  0.
        5    1    3    3  502    0  0.61897101985E+03  0.15994800858E+03 -0.50024223859E+03  0.81177144328E+03  0.46999998093E+01 0. -1.
       -5    1    3    3    0  502 -0.61897101985E+03 -0.15994800858E+03  0.10910126066E+03  0.64856276792E+03  0.46999998093E+01 0.  1.
</event>
<event>
 5   0  0.2217251E-04  0.1403142E+04  0.7818609E-02  0.8951547E-01
        1   -1    0    0  501    0  0.00000000000E+00  0.00000000000E+00  0.36929986703E+03  0.36929986706E+03  0.50400001928E-02 0.  1.
       -1   -1    0    0    0  501  0.00000000000E+00  0.00000000000E+00 -0.13327971652E+04  0.13327971652E+04  0.50400001928E-02 0. -1.
    10030    2    1    2    0    0  0.00000000000E+00  0.00000000000E+00 -0.96349729817E+03  0.17020970323E+04  0.14031419257E+04 0.  0.
        5    1    3    3  502    0  0.25426061271E+03 -0.30879442838E+03 -0.11808943110E+04  0.12468102991E+04  0.46999998093E+01 0. -1.
       -5    1    3    3    0  502 -0.25426061271E+03  0.30879442838E+03  0.21739701287E+03  0.45528673314E+03  0.46999998093E+01 0.  1.
</event>
<event>
 5   0  0.2217251E-04  0.1403618E+04  0.7818609E-02  0.8951204E-01
       -1   -1    0    0    0  501  0.00000000000E+00  0.00000000000E+00  0.15270978927E+04  0.15270978927E+04  0.50400001928E-02 0. -1.
        1   -1    0    0  501    0  0.00000000000E+00  0.00000000000E+00 -0.32253083081E+03  0.32253083085E+03  0.50400001928E-02 0.  1.
    10030    2    1    2    0    0  0.00000000000E+00  0.00000000000E+00  0.12045670619E+04  0.18496287236E+04  0.14036183984E+04 0.  0.
        5    1    3    3  502    0 -0.23925436132E+02  0.67427513894E+03  0.85676660865E+03  0.10905459647E+04  0.46999998093E+01 0. -1.
       -5    1    3    3    0  502  0.23925436132E+02 -0.67427513894E+03  0.34780045325E+03  0.75908275884E+03  0.46999998093E+01 0.  1.
</event>
<event>
 5   0  0.4310348E-04  0.1399136E+04  0.7818609E-02  0.8954444E-01
        2   -1    0    0  501    0  0.00000000000E+00  0.00000000000E+00  0.59166579407E+03  0.59166579407E+03  0.25500000920E-02 0. -1.
       -2   -1    0    0    0  501  0.00000000000E+00  0.00000000000E+00 -0.82714892597E+03  0.82714892597E+03  0.25500000920E-02 0.  1.
    10030    2    1    2    0    0  0.00000000000E+00  0.00000000000E+00 -0.23548313190E+03  0.14188147200E+04  0.13991364853E+04 0.  0.
        1    1    3    3  502    0 -0.41222543399E+03 -0.47121927310E+03  0.19876732123E+03  0.65687583285E+03  0.50400001928E-02 0. -1.
       -1    1    3    3    0  502  0.41222543399E+03  0.47121927310E+03 -0.43425045313E+03  0.76193888720E+03  0.50400001928E-02 0.  1.
</event>
<event>
 5   0  0.2143942E-04  0.1398762E+04  0.7818609E-02  0.8954715E-01
        1   -1    0    0  501    0  0.00000000000E+00  0.00000000000E+00  0.99496572482E+03  0.99496572484E+03  0.50400001928E-02 0.  1.
       -1   -1    0    0    0  501  0.00000000000E+00  0.00000000000E+00 -0.49160857169E+03  0.49160857171E+03  0.50400001928E-02 0. -1.
    10030    2    1    2    0    0  0.00000000000E+00  0.00000000000E+00  0.50335715314E+03  0.14865742965E+04  0.13987618509E+04 0.  0.
        4    1    3    3  502    0  0.48827841653E+03 -0.14091216854E+02 -0.28026067867E+03  0.56317140850E+03  0.12699999809E+01 0. -1.
       -4    1    3    3    0  502 -0.48827841653E+03  0.14091216854E+02  0.78361783180E+03  0.92340288805E+03  0.12699999809E+01 0.  1.
</event>
<event>
 5   0  0.3932568E-04  0.1403349E+04  0.7818609E-02  0.8951398E-01
       -2   -1    0    0    0  501  0.00000000000E+00  0.00000000000E+00  0.83961911581E+03  0.83961911581E+03  0.25500000920E-02 0.  1.
        2   -1    0    0  501    0  0.00000000000E+00  0.00000000000E+00 -0.58639325137E+03  0.58639325137E+03  0.25500000920E-02 0. -1.
    10030    2    1    2    0    0  0.00000000000E+00  0.00000000000E+00  0.25322586444E+03  0.14260123672E+04  0.14033488280E+04 0.  0.
        2    1    3    3  502    0 -0.23635041892E+03  0.64573370704E+03  0.26855940332E+03  0.73821249924E+03  0.25500000920E-02 0.  1.
       -2    1    3    3    0  502  0.23635041892E+03 -0.64573370704E+03 -0.15333538875E+02  0.68779986794E+03  0.25500000920E-02 0. -1.
</event>
<event>
 5   0  0.2223112E-04  0.1402445E+04  0.7818609E-02  0.8952051E-01
        1   -1    0    0  501    0  0.00000000000E+00  0.00000000000E+00  0.13099625698E+04  0.13099625698E+04  0.50400001928E-02 0. -1.
       -1   -1    0    0    0  501  0.00000000000E+00  0.00000000000E+00 -0.37536400257E+03  0.37536400261E+03  0.50400001928E-02 0.  1.
    10030    2    1    2    0    0  0.00000000000E+00  0.00000000000E+00  0.93459856721E+03  0.16853265724E+04  0.14024447133E+04 0.  0.
        1    1    3    3  502    0  0.58137320771E+03 -0.41300089442E+02  0.93582956901E+03  0.11024869552E+04  0.50400001928E-02 0. -1.
       -1    1    3    3    0  502 -0.58137320771E+03  0.41300089442E+02 -0.12310018092E+01  0.58283961724E+03  0.50400001928E-02 0.  1.
</event>
<event>
 5   0  0.4208622E-04  0.1401326E+04  0.7818609E-02  0.8952859E-01
       -2   -1    0    0    0  501  0.00000000000E+00  0.00000000000E+00  0.66077206835E+03  0.66077206836E+03  0.25500000920E-02 0.  1.
        2   -1    0    0  501    0  0.00000000000E+00  0.00000000000E+00 -0.74296202120E+03  0.74296202120E+03  0.25500000920E-02 0. -1.
    10030    2    1    2    0    0  0.00000000000E+00  0.00000000000E+00 -0.82189952847E+02  0.14037340896E+04  0.14013258743E+04 0.  0.
        4    1    3    3  502    0 -0.62249591021E+03  0.30590007239E+03  0.58327421924E+02  0.69604576973E+03  0.12699999809E+01 0.  1.
       -4    1    3    3    0  502  0.62249591021E+03 -0.30590007239E+03 -0.14051737477E+03  0.70768831983E+03  0.12699999809E+01 0. -1.
</event>
<event>
 5   0  0.2143942E-04  0.1400910E+04  0.7818609E-02  0.8953160E-01
       -1   -1    0    0    0  501  0.00000000000E+00  0.00000000000E+00  0.47731291775E+03  0.47731291778E+03  0.50400001928E-02 0. -1.
        1   -1    0    0  501    0  0.00000000000E+00  0.00000000000E+00 -0.10279147246E+04  0.10279147246E+04  0.50400001928E-02 0.  1.
    10030    2    1    2    0    0  0.00000000000E+00  0.00000000000E+00 -0.55060180687E+03  0.15052276424E+04  0.14009096708E+04 0.  0.
        4    1    3    3  502    0  0.53106832442E+03  0.13765255065E+03  0.19262012959E+03  0.58145156043E+03  0.12699999809E+01 0. -1.
       -4    1    3    3    0  502 -0.53106832442E+03 -0.13765255065E+03 -0.74322193646E+03  0.92377608198E+03  0.12699999809E+01 0.  1.
</event>
<event>
 5   0  0.1497625E-04  0.1400074E+04  0.7818609E-02  0.8953765E-01
       -4   -1    0    0    0  501  0.00000000000E+00  0.00000000000E+00  0.52463637791E+03  0.52463791506E+03  0.12699999809E+01 0.  1.
        4   -1    0    0  501    0  0.00000000000E+00  0.00000000000E+00 -0.93407575489E+03  0.93407661825E+03  0.12699999809E+01 0. -1.
    10030    2    1    2    0    0  0.00000000000E+00  0.00000000000E+00 -0.40943937698E+03  0.14587145333E+04  0.14000741003E+04 0.  0.
        1    1    3    3  502    0  0.26904563241E+02  0.47855148935E+03 -0.73630151668E+03  0.87856434425E+03  0.50400001928E-02 0. -1.
       -1    1    3    3    0  502 -0.26904563241E+02 -0.47855148935E+03  0.32686213970E+03  0.58015018907E+03  0.50400001928E-02 0.  1.
</event>
<event>
 5   0  0.2143942E-04  0.1399048E+04  0.7818609E-02  0.8954508E-01
        1   -1    0    0  501    0  0.00000000000E+00  0.00000000000E+00  0.10851414528E+04  0.10851414528E+04  0.50400001928E-02 0. -1.
       -1   -1    0    0    0  501  0.00000000000E+00  0.00000000000E+00 -0.45093999687E+03  0.45093999690E+03  0.50400001928E-02 0.  1.
    10030    2    1    2    0    0  0.00000000000E+00  0.00000000000E+00  0.63420145593E+03  0.15360814497E+04  0.13990477953E+04 0.  0.
        4    1    3    3  502    0  0.15762244619E+03 -0.42894375245E+03  0.89859288562E+03  0.10081212057E+04  0.12699999809E+01 0. -1.
       -4    1    3    3    0  502 -0.15762244619E+03  0.42894375245E+03 -0.26439142969E+03  0.52796024405E+03  0.12699999809E+01 0.  1.
</event>
<event>
 5   0  0.2217251E-04  0.1402448E+04  0.7818609E-02  0.8952048E-01
       -1   -1    0    0    0  501  0.00000000000E+00  0.00000000000E+00  0.87887830963E+03  0.87887830964E+03  0.50400001928E-02 0.  1.
        1   -1    0    0  501    0  0.00000000000E+00  0.00000000000E+00 -0.55948062168E+03  0.55948062171E+03  0.50400001928E-02 0. -1.
    10030    2    1    2    0    0  0.00000000000E+00  0.00000000000E+00  0.31939768795E+03  0.14383589314E+04  0.14024484063E+04 0.  0.
        5    1    3    3  502    0  0.58633152512E+03 -0.33260794225E+03  0.35772464744E+03  0.76315248409E+03  0.46999998093E+01 0.  1.
       -5    1    3    3    0  502 -0.58633152512E+03  0.33260794225E+03 -0.38326959491E+02  0.67520644726E+03  0.46999998093E+01 0. -1.
</event>
<event>
 5   0  0.4310348E-04  0.1405622E+04  0.7818609E-02  0.8949759E-01
        2   -1    0    0  501    0  0.00000000000E+00  0.00000000000E+00  0.25929157691E+04  0.25929157691E+04  0.25500000920E-02 0.  1.
       -2   -1    0    0    0  501  0.00000000000E+00  0.00000000000E+00 -0.19049724772E+03  0.19049724774E+03  0.25500000920E-02 0. -1.
    10030    2    1    2    0    0  0.00000000000E+00  0.00000000000E+00  0.24024185214E+04  0.27834130169E+04  0.14056220226E+04 0.  0.
        1    1    3    3  502    0  0.38050279766E+03 -0.58881474691E+03  0.11030318135E+04  0.13069676227E+04  0.50400001928E-02 0. -1.
       -1    1    3    3    0  502 -0.38050279766E+03  0.58881474691E+03  0.12993867079E+04  0.14764453941E+04  0.50400001928E-02 0.  1.
</event>
<event>
 5   0  0.2217251E-04  0.1400634E+04  0.7818609E-02  0.8953360E-01
       -1   -1    0    0    0  501  0.00000000000E+00  0.00000000000E+00  0.69897420366E+03  0.69897420367E+03  0.50400001928E-02 0.  1.
        1   -1    0    0  501    0  0.00000000000E+00  0.00000000000E+00 -0.70166247957E+03  0.70166247959E+03  0.50400001928E-02 0. -1.
    10030    2    1    2    0    0  0.00000000000E+00  0.00000000000E+00 -0.26882759169E+01  0.14006366833E+04  0.14006341034E+04 0.  0.
        5    1    3    3  502    0  0.61065064031E+03 -0.45083320792E+02  0.33850229510E+03  0.69966606614E+03  0.46999998093E+01 0.  1.
       -5    1    3    3    0  502 -0.61065064031E+03  0.45083320792E+02 -0.34119057102E+03  0.70097061712E+03  0.46999998093E+01 0. -1.
</event>
<event>
 5   0  0.4310348E-04  0.1401172E+04  0.7818609E-02  0.8952971E-01
        2   -1    0    0  501    0  0.00000000000E+00  0.00000000000E+00  0.16065291926E+04  0.16065291926E+04  0.25500000920E-02 0.  1.
       -2   -1    0    0    0  501  0.00000000000E+00  0.00000000000E+00 -0.30551615565E+03  0.30551615566E+03  0.25500000920E-02 0. -1.
    10030    2    1    2    0    0  0.00000000000E+00  0.00000000000E+00  0.13010130369E+04  0.19120453482E+04  0.14011718280E+04 0.  0.
        1    1    3    3  502    0 -0.21421791634E+03 -0.64841943467E+03  0.86402915911E+03  0.11013098868E+04  0.50400001928E-02 0.  1.
       -1    1    3    3    0  502  0.21421791634E+03  0.64841943467E+03  0.43698387779E+03  0.81073546142E+03  0.50400001928E-02 0. -1.
</event>
<event>
 5   0  0.2215876E-04  0.1400416E+04  0.7818609E-02  0.8953518E-01
        1   -1    0    0  501    0  0.00000000000E+00  0.00000000000E+00  0.58624020615E+03  0.58624020617E+03  0.50400001928E-02 0. -1.
       -1   -1    0    0    0  501  0.00000000000E+00  0.00000000000E+00 -0.83633128786E+03  0.83633128787E+03  0.50400001928E-02 0.  1.
    10030    2    1    2    0    0  0.00000000000E+00  0.00000000000E+00 -0.25009108171E+03  0.14225714940E+04  0.14004156906E+04 0.  0.
        3    1    3    3  502    0  0.94301322465E+01 -0.60809296593E+03 -0.47755885315E+03  0.77325833396E+03  0.10100000352E+00 0. -1.
       -3    1    3    3    0  502 -0.94301322465E+01  0.60809296593E+03  0.22746777145E+03  0.64931316008E+03  0.10100000352E+00 0.  1.
</event>
<event>
 5   0  0.2217251E-04  0.1398655E+04  0.7818609E-02  0.8954793E-01
        1   -1    0    0  501    0  0.00000000000E+00  0.00000000000E+00  0.13344591226E+04  0.13344591226E+04  0.50400001928E-02 0.  1.
       -1   -1    0    0    0  501  0.00000000000E+00  0.00000000000E+00 -0.36648477728E+03  0.36648477731E+03  0.50400001928E-02 0. -1.
    10030    2    1    2    0    0  0.00000000000E+00  0.00000000000E+00  0.96797434532E+03  0.17009438999E+04  0.13986550030E+04 0.  0.
        5    1    3    3  502    0  0.14985357188E+03 -0.50157240772E+03 -0.79916037342E+02  0.52956551645E+03  0.46999998093E+01 0. -1.
       -5    1    3    3    0  502 -0.14985357188E+03  0.50157240772E+03  0.10478903827E+04  0.11713783835E+04  0.46999998093E+01 0.  1.
</event>
<event>
 5   0  0.4208622E-04  0.1398579E+04  0.7818609E-02  0.8954848E-01
       -2   -1    0    0    0  501  0.00000000000E+00  0.00000000000E+00  0.38924318834E+03  0.38924318835E+03  0.25500000920E-02 0. -1.
        2   -1    0    0  501    0  0.00000000000E+00  0.00000000000E+00 -0.12562987605E+04  0.12562987605E+04  0.25500000920E-02 0.  1.
    10030    2    1    2    0    0  0.00000000000E+00  0.00000000000E+00 -0.86705557213E+03  0.16455419488E+04  0.13985789002E+04 0.  0.
        4    1    3    3  502    0 -0.54928935572E+03  0.28550736845E+03 -0.50874875514E+02  0.62114661684E+03  0.12699999809E+01 0. -1.
       -4    1    3    3    0  502  0.54928935572E+03 -0.28550736845E+03 -0.81618069662E+03  0.10243953320E+04  0.12699999809E+01 0.  1.
</event>
<event>
 5   0  0.3932568E-04  0.1402530E+04  0.7818609E-02  0.8951989E-01
        2   -1    0    0  501    0  0.00000000000E+00  0.00000000000E+00  0.14010979870E+04  0.14010979870E+04  0.25500000920E-02 0. -1.
       -2   -1    0    0    0  501  0.00000000000E+00  0.00000000000E+00 -0.35099071920E+03  0.35099071921E+03  0.25500000920E-02 0.  1.
    10030    2    1    2    0    0  0.00000000000E+00  0.00000000000E+00  0.10501072678E+04  0.17520887062E+04  0.14025297004E+04 0.  0.
        2    1    3    3  502    0 -0.46845449251E+03  0.24130608425E+03 -0.52971104787E+02  0.52960756773E+03  0.25500000920E-02 0.  1.
       -2    1    3    3    0  502  0.46845449251E+03 -0.24130608425E+03  0.11030783726E+04  0.12224811385E+04  0.25500000920E-02 0. -1.
</event>
<event>
 5   0  0.2143942E-04  0.1398880E+04  0.7818609E-02  0.8954630E-01
        1   -1    0    0  501    0  0.00000000000E+00  0.00000000000E+00  0.77227840190E+03  0.77227840192E+03  0.50400001928E-02 0.  1.
       -1   -1    0    0    0  501  0.00000000000E+00  0.00000000000E+00 -0.63347148999E+03  0.63347149001E+03  0.50400001928E-02 0. -1.
    10030    2    1    2    0    0  0.00000000000E+00  0.00000000000E+00  0.13880691191E+03  0.14057498919E+04  0.13988800520E+04 0.  0.
        4    1    3    3  502    0 -0.27358086641E+03 -0.12962462045E+02 -0.57734104514E+03  0.63901393661E+03  0.12699999809E+01 0. -1.
       -4    1    3    3    0  502  0.27358086641E+03  0.12962462045E+02  0.71614795704E+03  0.76673595531E+03  0.12699999809E+01 0.  1.
</event>
<event>
 5   0  0.3975164E-04  0.1400404E+04  0.7818609E-02  0.8953526E-01
       -2   -1    0    0    0  501  0.00000000000E+00  0.00000000000E+00  0.75572440791E+03  0.75572440791E+03  0.25500000920E-02 0.  1.
        2   -1    0    0  501    0  0.00000000000E+00  0.00000000000E+00 -0.64875865514E+03  0.64875865514E+03  0.25500000920E-02 0. -1.
    10030    2    1    2    0    0  0.00000000000E+00  0.00000000000E+00  0.10696575277E+03  0.14044830631E+04  0.14004038711E+04 0.  0.
        5    1    3    3  502    0 -0.53330307987E+03  0.15865876612E+03 -0.37281512331E+03  0.66977457793E+03  0.46999998093E+01 0. -1.
       -5    1    3    3    0  502  0.53330307987E+03 -0.15865876612E+03  0.47978087608E+03  0.73470848513E+03  0.46999998093E+01 0.  1.
</event>
<event>
 5   0  0.2223112E-04  0.1322427E+04  0.7818609E-02  0.9011967E-01
        1   -1    0    0  501    0  0.00000000000E+00  0.00000000000E+00  0.40946233440E+03  0.40946233444E+03  0.50400001928E-02 0. -1.
       -1   -1    0    0    0  501  0.00000000000E+00  0.00000000000E+00 -0.10677495115E+04  0.10677495115E+04  0.50400001928E-02 0.  1.
    10030    2    1    2    0    0  0.00000000000E+00  0.00000000000E+00 -0.65828717711E+03  0.14772118460E+04  0.13224268714E+04 0.  0.
        1    1    3    3  502    0  0.65005186944E+03  0.35720312006E+01 -0.46422313123E+03  0.79880116923E+03  0.50400001928E-02 0.  1.
       -1    1    3    3    0  502 -0.65005186944E+03 -0.35720312006E+01 -0.19406404588E+03  0.67841067673E+03  0.50400001928E-02 0. -1.
</event>
<event>
 5   0  0.4208622E-04  0.1379919E+04  0.7818609E-02  0.8968484E-01
        2   -1    0    0  501    0  0.00000000000E+00  0.00000000000E+00  0.16736690512E+04  0.16736690512E+04  0.25500000920E-02 0.  1.
       -2   -1    0    0    0  501  0.00000000000E+00  0.00000000000E+00 -0.28443141128E+03  0.28443141129E+03  0.25500000920E-02 0. -1.
    10030    2    1    2    0    0  0.00000000000E+00  0.00000000000E+00  0.13892376399E+04  0.19581004625E+04  0.13799189110E+04 0.  0.
        4    1    3    3  502    0 -0.54581122924E+02  0.39013372019E+03  0.14984012877E+04  0.15493196734E+04  0.12699999809E+01 0.  1.
       -4    1    3    3    0  502  0.54581122924E+02 -0.39013372019E+03 -0.10916364778E+03  0.40878078906E+03  0.12699999809E+01 0. -1.
</event>
<event>
 5   0  0.2155352E-04  0.1402683E+04  0.7818609E-02  0.8951879E-01
        1   -1    0    0  501    0  0.00000000000E+00  0.00000000000E+00  0.98793621672E+03  0.98793621673E+03  0.50400001928E-02 0. -1.
       -1   -1    0    0    0  501  0.00000000000E+00  0.00000000000E+00 -0.49788620497E+03  0.49788620499E+03  0.50400001928E-02 0.  1.
    10030    2    1    2    0    0  0.00000000000E+00  0.00000000000E+00  0.49005001175E+03  0.14858224217E+04  0.14026828775E+04 0.  0.
        2    1    3    3  502    0  0.12445489760E+03 -0.39673526597E+02  0.97493691927E+03  0.98364882291E+03  0.25500000920E-02 0. -1.
       -2    1    3    3    0  502 -0.12445489760E+03  0.39673526597E+02 -0.48488690752E+03  0.50217359881E+03  0.25500000920E-02 0.  1.
</event>
<event>
 5   0  0.2155352E-04  0.1426142E+04  0.7818609E-02  0.8935110E-01
        1   -1    0    0  501    0  0.00000000000E+00  0.00000000000E+00  0.13919552906E+04  0.13919552906E+04  0.50400001928E-02 0.  1.
       -1   -1    0    0    0  501  0.00000000000E+00  0.00000000000E+00 -0.36529204176E+03  0.36529204180E+03  0.50400001928E-02 0. -1.
    10030    2    1    2    0    0  0.00000000000E+00  0.00000000000E+00  0.10266632488E+04  0.17572473324E+04  0.14261419147E+04 0.  0.
        2    1    3    3  502    0 -0.42910311685E+02  0.62664831797E+03  0.97411681859E+02  0.63562445283E+03  0.25500000920E-02 0.  1.
       -2    1    3    3    0  502  0.42910311685E+02 -0.62664831797E+03  0.92925156698E+03  0.11216228796E+04  0.25500000920E-02 0. -1.
</event>
<event>
 5   0  0.3932568E-04  0.1395629E+04  0.7818609E-02  0.8956989E-01
       -2   -1    0    0    0  501  0.00000000000E+00  0.00000000000E+00  0.50089048133E+03  0.50089048134E+03  0.25500000920E-02 0.  1.
        2   -1    0    0  501    0  0.00000000000E+00  0.00000000000E+00 -0.97215859510E+03  0.97215859511E+03  0.25500000920E-02 0. -1.
    10030    2    1    2    0    0  0.00000000000E+00  0.00000000000E+00 -0.47126811377E+03  0.14730490764E+04  0.13956288714E+04 0.  0.
        2    1    3    3  502    0  0.77446521518E+02 -0.27032339286E+03  0.43844272689E+03  0.52086920161E+03  0.25500000920E-02 0.  1.
       -2    1    3    3    0  502 -0.77446521518E+02  0.27032339286E+03 -0.90971084066E+03  0.95217987483E+03  0.25500000920E-02 0. -1.
</event>
<event>
 5   0  0.2217251E-04  0.1365549E+04  0.7818609E-02  0.8979140E-01
        1   -1    0    0  501    0  0.00000000000E+00  0.00000000000E+00  0.17497530892E+04  0.17497530892E+04  0.50400001928E-02 0.  1.
       -1   -1    0    0    0  501  0.00000000000E+00  0.00000000000E+00 -0.26642682323E+03  0.26642682328E+03  0.50400001928E-02 0. -1.
    10030    2    1    2    0    0  0.00000000000E+00  0.00000000000E+00  0.14833262659E+04  0.20161799124E+04  0.13655492039E+04 0.  0.
        5    1    3    3  502    0 -0.67285013637E+03  0.91532089756E+01  0.57108250829E+03  0.88259186973E+03  0.46999998093E+01 0.  1.
       -5    1    3    3    0  502  0.67285013637E+03 -0.91532089756E+01  0.91224375763E+03  0.11335880427E+04  0.46999998093E+01 0. -1.
</event>
<event>
 5   0  0.2143942E-04  0.1397822E+04  0.7818609E-02  0.8955397E-01
        1   -1    0    0  501    0  0.00000000000E+00  0.00000000000E+00  0.13096258389E+04  0.13096258390E+04  0.50400001928E-02 0. -1.
       -1   -1    0    0    0  501  0.00000000000E+00  0.00000000000E+00 -0.37298942121E+03  0.37298942124E+03  0.50400001928E-02 0.  1.
    10030    2    1    2    0    0  0.00000000000E+00  0.00000000000E+00  0.93663641774E+03  0.16826152602E+04  0.13978219968E+04 0.  0.
        4    1    3    3  502    0 -0.12183568261E+03 -0.45520399211E+03 -0.15300368961E+03  0.49544560744E+03  0.12699999809E+01 0.  1.
       -4    1    3    3    0  502  0.12183568261E+03  0.45520399211E+03  0.10896401073E+04  0.11871696528E+04  0.12699999809E+01 0. -1.
</event>
<event>
 5   0  0.2217251E-04  0.1403189E+04  0.7818609E-02  0.8951513E-01
       -1   -1    0    0    0  501  0.00000000000E+00  0.00000000000E+00  0.69597174496E+03  0.69597174498E+03  0.50400001928E-02 0. -1.
        1   -1    0    0  501    0  0.00000000000E+00  0.00000000000E+00 -0.70726262637E+03  0.70726262639E+03  0.50400001928E-02 0.  1.
    10030    2    1    2    0    0  0.00000000000E+00  0.00000000000E+00 -0.11290881409E+02  0.14032343714E+04  0.14031889456E+04 0.  0.
        5    1    3    3  502    0 -0.21858899561E+02 -0.35728240514E+03 -0.60905886390E+03  0.70647244688E+03  0.46999998093E+01 0.  1.
       -5    1    3    3    0  502  0.21858899561E+02  0.35728240514E+03  0.59776798249E+03  0.69676192448E+03  0.46999998093E+01 0. -1.
</event>
<event>
 5   0  0.3932568E-04  0.1399615E+04  0.7818609E-02  0.8954097E-01
       -2   -1    0    0    0  501  0.00000000000E+00  0.00000000000E+00  0.71449739754E+03  0.71449739755E+03  0.25500000920E-02 0. -1.
        2   -1    0    0  501    0  0.00000000000E+00  0.00000000000E+00 -0.68541984359E+03  0.68541984360E+03  0.25500000920E-02 0.  1.
    10030    2    1    2    0    0  0.00000000000E+00  0.00000000000E+00  0.29077553948E+02  0.13999172411E+04  0.13996152249E+04 0.  0.
        2    1    3    3  502    0  0.19639090409E+03 -0.45311628428E+03 -0.48139776319E+03  0.68965756771E+03  0.25500000920E-02 0.  1.
       -2    1    3    3    0  502 -0.19639090409E+03  0.45311628428E+03  0.51047531714E+03  0.71025967343E+03  0.25500000920E-02 0. -1.
</event>
<event>
 5   0  0.3932568E-04  0.1388217E+04  0.7818609E-02  0.8962392E-01
       -2   -1    0    0    0  501  0.00000000000E+00  0.00000000000E+00  0.58796154232E+03  0.58796154233E+03  0.25500000920E-02 0.  1.
        2   -1    0    0  501    0  0.00000000000E+00  0.00000000000E+00 -0.81941798654E+03  0.81941798654E+03  0.25500000920E-02 0. -1.
    10030    2    1    2    0    0  0.00000000000E+00  0.00000000000E+00 -0.23145644422E+03  0.14073795289E+04  0.13882165007E+04 0.  0.
        2    1    3    3  502    0  0.62416173307E+03 -0.28686658992E+03 -0.14774746986E+02  0.68708704150E+03  0.25500000920E-02 0. -1.
       -2    1    3    3    0  502 -0.62416173307E+03  0.28686658992E+03 -0.21668169723E+03  0.72029248737E+03  0.25500000920E-02 0.  1.
</event>
<event>
 5   0  0.2223112E-04  0.1399665E+04  0.7818609E-02  0.8954061E-01
        1   -1    0    0  501    0  0.00000000000E+00  0.00000000000E+00  0.79185067976E+03  0.79185067978E+03  0.50400001928E-02 0.  1.
       -1   -1    0    0    0  501  0.00000000000E+00  0.00000000000E+00 -0.61850720660E+03  0.61850720662E+03  0.50400001928E-02 0. -1.
    10030    2    1    2    0    0  0.00000000000E+00  0.00000000000E+00  0.17334347316E+03  0.14103578864E+04  0.13996647484E+04 0.  0.
        1    1    3    3  502    0  0.65129841846E+03  0.11263616292E+03 -0.14506091588E+03  0.67669727680E+03  0.50400001928E-02 0. -1.
       -1    1    3    3    0  502 -0.65129841846E+03 -0.11263616292E+03  0.31840438905E+03  0.73366060960E+03  0.50400001928E-02 0.  1.
</event>
<event>
 5   0  0.3917598E-04  0.1399019E+04  0.7818609E-02  0.8954529E-01
        2   -1    0    0  501    0  0.00000000000E+00  0.00000000000E+00  0.11693367840E+04  0.11693367840E+04  0.25500000920E-02 0. -1.
       -2   -1    0    0    0  501  0.00000000000E+00  0.00000000000E+00 -0.41845417884E+03  0.41845417885E+03  0.25500000920E-02 0.  1.
    10030    2    1    2    0    0  0.00000000000E+00  0.00000000000E+00  0.75088260517E+03  0.15877909629E+04  0.13990194620E+04 0.  0.
        3    1    3    3  502    0  0.56166988726E+03  0.38446846084E+03  0.19235189510E+03  0.70731062581E+03  0.10100000352E+00 0. -1.
       -3    1    3    3    0  502 -0.56166988726E+03 -0.38446846084E+03  0.55853071006E+03  0.88048033704E+03  0.10100000352E+00 0.  1.
</event>
<event>
 5   0  0.3917598E-04  0.1393635E+04  0.7818609E-02  0.8958439E-01
       -2   -1    0    0    0  501  0.00000000000E+00  0.00000000000E+00  0.31221748641E+03  0.31221748642E+03  0.25500000920E-02 0. -1.
        2   -1    0    0  501    0  0.00000000000E+00  0.00000000000E+00 -0.15551803331E+04  0.15551803331E+04  0.25500000920E-02 0.  1.
    10030    2    1    2    0    0  0.00000000000E+00  0.00000000000E+00 -0.12429628467E+04  0.18673978195E+04  0.13936348080E+04 0.  0.
        3    1    3    3  502    0 -0.26758354879E+02  0.44571943190E+03 -0.13382879231E+04  0.14108140901E+04  0.10100000352E+00 0.  1.
       -3    1    3    3    0  502  0.26758354879E+02 -0.44571943190E+03  0.95325076451E+02  0.45658372938E+03  0.10100000352E+00 0. -1.
</event>
<event>
 5   0  0.4208622E-04  0.1397721E+04  0.7818609E-02  0.8955470E-01
        2   -1    0    0  501    0  0.00000000000E+00  0.00000000000E+00  0.96092524306E+03  0.96092524306E+03  0.25500000920E-02 0.  1.
       -2   -1    0    0    0  501  0.00000000000E+00  0.00000000000E+00 -0.50826614756E+03  0.50826614756E+03  0.25500000920E-02 0. -1.
    10030    2    1    2    0    0  0.00000000000E+00  0.00000000000E+00  0.45265909550E+03  0.14691913906E+04  0.13977206751E+04 0.  0.
        4    1    3    3  502    0 -0.43686441102E+03 -0.42840275410E+03  0.58127163796E+03  0.84395364999E+03  0.12699999809E+01 0.  1.
       -4    1    3    3    0  502  0.43686441102E+03  0.42840275410E+03 -0.12861254246E+03  0.62523774063E+03  0.12699999809E+01 0. -1.
</event>
<event>
 5   0  0.2143942E-04  0.1396526E+04  0.7818609E-02  0.8956337E-01
       -1   -1    0    0    0  501  0.00000000000E+00  0.00000000000E+00  0.40046443090E+03  0.40046443093E+03  0.50400001928E-02 0. -1.
        1   -1    0    0  501    0  0.00000000000E+00  0.00000000000E+00 -0.12175135740E+04  0.12175135740E+04  0.50400001928E-02 0.  1.
    10030    2    1    2    0    0  0.00000000000E+00  0.00000000000E+00 -0.81704914312E+03  0.16179780050E+04  0.13965255179E+04 0.  0.
        4    1    3    3  502    0 -0.39956265829E+03 -0.51350546895E+03 -0.11489731967E+03  0.66071263913E+03  0.12699999809E+01 0. -1.
       -4    1    3    3    0  502  0.39956265829E+03  0.51350546895E+03 -0.70215182345E+03  0.95726536583E+03  0.12699999809E+01 0.  1.
</event>
<event>
 5   0  0.2143942E-04  0.1402390E+04  0.7818609E-02  0.8952090E-01
        1   -1    0    0  501    0  0.00000000000E+00  0.00000000000E+00  0.14385285524E+04  0.14385285524E+04  0.50400001928E-02 0. -1.
       -1   -1    0    0    0  501  0.00000000000E+00  0.00000000000E+00 -0.34178983617E+03  0.34178983621E+03  0.50400001928E-02 0.  1.
    10030    2    1    2    0    0  0.00000000000E+00  0.00000000000E+00  0.10967387162E+04  0.17803183886E+04  0.14023900146E+04 0.  0.
        4    1    3    3  502    0 -0.93038497697E+01  0.13590254096E+03  0.14215679662E+04  0.14280802350E+04  0.12699999809E+01 0. -1.
       -4    1    3    3    0  502  0.93038497697E+01 -0.13590254096E+03 -0.32482925000E+03  0.35223815355E+03  0.12699999809E+01 0.  1.
</event>
<event>
 5   0  0.3975164E-04  0.1389140E+04  0.7818609E-02  0.8961717E-01
        2   -1    0    0  501    0  0.00000000000E+00  0.00000000000E+00  0.16448254324E+04  0.16448254324E+04  0.25500000920E-02 0.  1.
       -2   -1    0    0    0  501  0.00000000000E+00  0.00000000000E+00 -0.29330006646E+03  0.29330006648E+03  0.25500000920E-02 0. -1.
    10030    2    1    2    0    0  0.00000000000E+00  0.00000000000E+00  0.13515253659E+04  0.19381254989E+04  0.13891398902E+04 0.  0.
        5    1    3    3  502    0 -0.66271640476E+03  0.20665196674E+03  0.70718563708E+03  0.99097511764E+03  0.46999998093E+01 0.  1.
       -5    1    3    3    0  502  0.66271640476E+03 -0.20665196674E+03  0.64433972885E+03  0.94715038123E+03  0.46999998093E+01 0. -1.
</event>
<event>
 5   0  0.2143942E-04  0.1393384E+04  0.7818609E-02  0.8958622E-01
        1   -1    0    0  501    0  0.00000000000E+00  0.00000000000E+00  0.50702676477E+03  0.50702676480E+03  0.50400001928E-02 0. -1.
       -1   -1    0    0    0  501  0.00000000000E+00  0.00000000000E+00 -0.95730560048E+03  0.95730560049E+03  0.50400001928E-02 0.  1.
    10030    2    1    2    0    0  0.00000000000E+00  0.00000000000E+00 -0.45027883570E+03  0.14643323653E+04  0.13933837397E+04 0.  0.
        4    1    3    3  502    0  0.59797655836E+03  0.14756913600E+03  0.11705565240E+03  0.62694198528E+03  0.12699999809E+01 0. -1.
       -4    1    3    3    0  502 -0.59797655836E+03 -0.14756913600E+03 -0.56733448810E+03  0.83739038001E+03  0.12699999809E+01 0.  1.
</event>
<event>
 5   0  0.3917598E-04  0.1394896E+04  0.7818609E-02  0.8957521E-01
        2   -1    0    0  501    0  0.00000000000E+00  0.00000000000E+00  0.15642306071E+04  0.15642306071E+04  0.25500000920E-02 0.  1.
       -2   -1    0    0    0  501  0.00000000000E+00  0.00000000000E+00 -0.31097312552E+03  0.31097312553E+03  0.25500000920E-02 0. -1.
    10030    2    1    2    0    0  0.00000000000E+00  0.00000000000E+00  0.12532574816E+04  0.18752037326E+04  0.13948959545E+04 0.  0.
        3    1    3    3  502    0 -0.40190689566E+03 -0.51751261436E+03  0.94782350185E+03  0.11522664013E+04  0.10100000352E+00 0.  1.
       -3    1    3    3    0  502  0.40190689566E+03  0.51751261436E+03  0.30543397972E+03  0.72293733129E+03  0.10100000352E+00 0. -1.
</event>
<event>
 5   0  0.3975164E-04  0.1410973E+04  0.7818609E-02  0.8945914E-01
        2   -1    0    0  501    0  0.00000000000E+00  0.00000000000E+00  0.48940527898E+03  0.48940527899E+03  0.25500000920E-02 0. -1.
       -2   -1    0    0    0  501  0.00000000000E+00  0.00000000000E+00 -0.10169713418E+04  0.10169713418E+04  0.25500000920E-02 0.  1.
    10030    2    1    2    0    0  0.00000000000E+00  0.00000000000E+00 -0.52756606286E+03  0.15063766208E+04  0.14109729172E+04 0.  0.
        5    1    3    3  502    0 -0.62610607682E+03 -0.25595061184E+03 -0.47775811274E+03  0.82812706719E+03  0.46999998093E+01 0.  1.
       -5    1    3    3    0  502  0.62610607682E+03  0.25595061184E+03 -0.49807950113E+02  0.67824955364E+03  0.46999998093E+01 0. -1.
</event>
<event>
 5   0  0.2143942E-04  0.1390015E+04  0.7818609E-02  0.8961078E-01
        1   -1    0    0  501    0  0.00000000000E+00  0.00000000000E+00  0.54661917419E+03  0.54661917422E+03  0.50400001928E-02 0.  1.
       -1   -1    0    0    0  501  0.00000000000E+00  0.00000000000E+00 -0.88367776591E+03  0.88367776592E+03  0.50400001928E-02 0. -1.
    10030    2    1    2    0    0  0.00000000000E+00  0.00000000000E+00 -0.33705859171E+03  0.14302969401E+04  0.13900146915E+04 0.  0.
        4    1    3    3  502    0 -0.15580030710E+02 -0.33677894746E+02  0.54559795162E+03  0.54685983183E+03  0.12699999809E+01 0.  1.
       -4    1    3    3    0  502  0.15580030710E+02  0.33677894746E+02 -0.88265654334E+03  0.88343710831E+03  0.12699999809E+01 0. -1.
</event>
<event>
 5   0  0.2215876E-04  0.1399043E+04  0.7818609E-02  0.8954512E-01
        1   -1    0    0  501    0  0.00000000000E+00  0.00000000000E+00  0.65993867645E+03  0.65993867647E+03  0.50400001928E-02 0.  1.
       -1   -1    0    0    0  501  0.00000000000E+00  0.00000000000E+00 -0.74147829250E+03  0.74147829252E+03  0.50400001928E-02 0. -1.
    10030    2    1    2    0    0  0.00000000000E+00  0.00000000000E+00 -0.81539616057E+02  0.14014169690E+04  0.13990428199E+04 0.  0.
        3    1    3    3  502    0 -0.10707745752E+03  0.10265663632E+03  0.64400289815E+03  0.66086587891E+03  0.10100000352E+00 0.  1.
       -3    1    3    3    0  502  0.10707745752E+03 -0.10265663632E+03 -0.72554251420E+03  0.74055109007E+03  0.10100000352E+00 0. -1.
</event>
<event>
 5   0  0.2143942E-04  0.1392911E+04  0.7818609E-02  0.8958966E-01
        1   -1    0    0  501    0  0.00000000000E+00  0.00000000000E+00  0.22334995874E+04  0.22334995874E+04  0.50400001928E-02 0.  1.
       -1   -1    0    0    0  501  0.00000000000E+00  0.00000000000E+00 -0.21717045286E+03  0.21717045292E+03  0.50400001928E-02 0. -1.
    10030    2    1    2    0    0  0.00000000000E+00  0.00000000000E+00  0.20163291346E+04  0.24506700404E+04  0.13929107896E+04 0.  0.
        4    1    3    3  502    0 -0.64800803430E+03  0.24484327258E+03  0.11348632430E+04  0.13295784421E+04  0.12699999809E+01 0. -1.
       -4    1    3    3    0  502  0.64800803430E+03 -0.24484327258E+03  0.88146589162E+03  0.11210915982E+04  0.12699999809E+01 0.  1.
</event>
<event>
 5   0  0.3975164E-04  0.1402288E+04  0.7818609E-02  0.8952164E-01
        2   -1    0    0  501    0  0.00000000000E+00  0.00000000000E+00  0.47176026836E+03  0.47176026837E+03  0.25500000920E-02 0. -1.
       -2   -1    0    0    0  501  0.00000000000E+00  0.00000000000E+00 -0.10420612609E+04  0.10420612609E+04  0.25500000920E-02 0.  1.
    10030    2    1    2    0    0  0.00000000000E+00  0.00000000000E+00 -0.57030099257E+03  0.15138215293E+04  0.14022882730E+04 0.  0.
        5    1    3    3  502    0  0.21358585383E+03 -0.21875435354E+03  0.39599230190E+03  0.50030428472E+03  0.46999998093E+01 0. -1.
       -5    1    3    3    0  502 -0.21358585383E+03  0.21875435354E+03 -0.96629329447E+03  0.10135172446E+04  0.46999998093E+01 0.  1.
</event>
<event>
 5   0  0.2143942E-04  0.1396464E+04  0.7818609E-02  0.8956382E-01
       -1   -1    0    0    0  501  0.00000000000E+00  0.00000000000E+00  0.27183991558E+03  0.27183991562E+03  0.50400001928E-02 0. -1.
        1   -1    0    0  501    0  0.00000000000E+00  0.00000000000E+00 -0.17934374724E+04  0.17934374724E+04  0.50400001928E-02 0.  1.
    10030    2    1    2    0    0  0.00000000000E+00  0.00000000000E+00 -0.15215975568E+04  0.20652773880E+04  0.13964639503E+04 0.  0.
        4    1    3    3  502    0 -0.26036109403E+03  0.46434968196E+03 -0.92625582983E+02  0.54036065544E+03  0.12699999809E+01 0. -1.
       -4    1    3    3    0  502  0.26036109403E+03 -0.46434968196E+03 -0.14289719738E+04  0.15249167326E+04  0.12699999809E+01 0.  1.
</event>
<event>
 5   0  0.2155352E-04  0.1389772E+04  0.7818609E-02  0.8961256E-01
       -1   -1    0    0    0  501  0.00000000000E+00  0.00000000000E+00  0.47406372520E+03  0.47406372523E+03  0.50400001928E-02 0. -1.
        1   -1    0    0  501    0  0.00000000000E+00  0.00000000000E+00 -0.10185687077E+04  0.10185687077E+04  0.50400001928E-02 0.  1.
    10030    2    1    2    0    0  0.00000000000E+00  0.00000000000E+00 -0.54450498249E+03  0.14926324329E+04  0.13897718892E+04 0.  0.
        2    1    3    3  502    0  0.49791897979E+03 -0.45928709122E+03 -0.10587226838E+03  0.68562152811E+03  0.25500000920E-02 0. -1.
       -2    1    3    3    0  502 -0.49791897979E+03  0.45928709122E+03 -0.43863271412E+03  0.80701090482E+03  0.25500000920E-02 0.  1.
</event>
<event>
 5   0  0.2217251E-04  0.1361282E+04  0.7818609E-02  0.8982331E-01
       -1   -1    0    0    0  501  0.00000000000E+00  0.00000000000E+00  0.86498692154E+03  0.86498692156E+03  0.50400001928E-02 0. -1.
        1   -1    0    0  501    0  0.00000000000E+00  0.00000000000E+00 -0.53558318512E+03  0.53558318515E+03  0.50400001928E-02 0.  1.
    10030    2    1    2    0    0  0.00000000000E+00  0.00000000000E+00  0.32940373642E+03  0.14005701067E+04  0.13612824109E+04 0.  0.
        5    1    3    3  502    0 -0.24174269992E+03  0.56375892822E+03  0.46814900460E+03  0.77165357682E+03  0.46999998093E+01 0. -1.
       -5    1    3    3    0  502  0.24174269992E+03 -0.56375892822E+03 -0.13874526818E+03  0.62891652988E+03  0.46999998093E+01 0.  1.
</event>
<event>
 5   0  0.3932568E-04  0.1400709E+04  0.7818609E-02  0.8953306E-01
        2   -1    0    0  501    0  0.00000000000E+00  0.00000000000E+00  0.16171738692E+04  0.16171738692E+04  0.25500000920E-02 0.  1.
       -2   -1    0    0    0  501  0.00000000000E+00  0.00000000000E+00 -0.30330450643E+03  0.30330450644E+03  0.25500000920E-02 0. -1.
    10030    2    1    2    0    0  0.00000000000E+00  0.00000000000E+00  0.13138693628E+04  0.19204783756E+04  0.14007085667E+04 0.  0.
        2    1    3    3  502    0 -0.47991533699E+03 -0.28007705483E+03  0.72440745011E+02  0.56036554932E+03  0.25500000920E-02 0. -1.
       -2    1    3    3    0  502  0.47991533699E+03  0.28007705483E+03  0.12414286177E+04  0.13601128263E+04  0.25500000920E-02 0.  1.
</event>
<event>
 5   0  0.4208622E-04  0.1402791E+04  0.7818609E-02  0.8951801E-01
       -2   -1    0    0    0  501  0.00000000000E+00  0.00000000000E+00  0.41109751884E+03  0.41109751885E+03  0.25500000920E-02 0. -1.
        2   -1    0    0  501    0  0.00000000000E+00  0.00000000000E+00 -0.11966881331E+04  0.11966881331E+04  0.25500000920E-02 0.  1.
    10030    2    1    2    0    0  0.00000000000E+00  0.00000000000E+00 -0.78559061424E+03  0.16077856519E+04  0.14027908217E+04 0.  0.
        4    1    3    3  502    0 -0.27607489474E+03  0.19757553574E+03 -0.10962454364E+04  0.11476101732E+04  0.12699999809E+01 0.  1.
       -4    1    3    3    0  502  0.27607489474E+03 -0.19757553574E+03  0.31065482217E+03  0.46017547877E+03  0.12699999809E+01 0. -1.
</event>
<event>
 5   0  0.3917598E-04  0.1399783E+04  0.7818609E-02  0.8953976E-01
       -2   -1    0    0    0  501  0.00000000000E+00  0.00000000000E+00  0.52300889342E+03  0.52300889342E+03  0.25500000920E-02 0. -1.
        2   -1    0    0  501    0  0.00000000000E+00  0.00000000000E+00 -0.93659591444E+03  0.93659591444E+03  0.25500000920E-02 0.  1.
    10030    2    1    2    0    0  0.00000000000E+00  0.00000000000E+00 -0.41358702102E+03  0.14596048079E+04  0.13997828300E+04 0.  0.
        3    1    3    3  502    0  0.64472764393E+02 -0.65587147521E+03  0.38911731498E+02  0.66018047713E+03  0.10100000352E+00 0. -1.
       -3    1    3    3    0  502 -0.64472764393E+02  0.65587147521E+03 -0.45249875252E+03  0.79942433073E+03  0.10100000352E+00 0.  1.
</event>
<event>
 5   0  0.2223112E-04  0.1397859E+04  0.7818609E-02  0.8955370E-01
       -1   -1    0    0    0  501  0.00000000000E+00  0.00000000000E+00  0.60242444666E+03  0.60242444668E+03  0.50400001928E-02 0. -1.
        1   -1    0    0  501    0  0.00000000000E+00  0.00000000000E+00 -0.81089436515E+03  0.81089436516E+03  0.50400001928E-02 0.  1.
    10030    2    1    2    0    0  0.00000000000E+00  0.00000000000E+00 -0.20846991849E+03  0.14133188118E+04  0.13978592050E+04 0.  0.
        1    1    3    3  502    0  0.32222824835E+03  0.14133056772E+03 -0.71481546302E+03  0.79672236043E+03  0.50400001928E-02 0.  1.
       -1    1    3    3    0  502 -0.32222824835E+03 -0.14133056772E+03  0.50634554453E+03  0.61659645142E+03  0.50400001928E-02 0. -1.
</event>
<event>
 5   0  0.2215876E-04  0.1399384E+04  0.7818609E-02  0.8954265E-01
       -1   -1    0    0    0  501  0.00000000000E+00  0.00000000000E+00  0.75278071818E+03  0.75278071820E+03  0.50400001928E-02 0.  1.
        1   -1    0    0  501    0  0.00000000000E+00  0.00000000000E+00 -0.65034688079E+03  0.65034688081E+03  0.50400001928E-02 0. -1.
    10030    2    1    2    0    0  0.00000000000E+00  0.00000000000E+00  0.10243383739E+03  0.14031275990E+04  0.13993835672E+04 0.  0.
        3    1    3    3  502    0 -0.30342010407E+03 -0.20213734525E+02  0.68305860843E+03  0.74769072976E+03  0.10100000352E+00 0.  1.
       -3    1    3    3    0  502  0.30342010407E+03  0.20213734525E+02 -0.58062477104E+03  0.65543686925E+03  0.10100000352E+00 0. -1.
</event>
<event>
 5   0  0.2217251E-04  0.1405143E+04  0.7818609E-02  0.8950104E-01
        1   -1    0    0  501    0  0.00000000000E+00  0.00000000000E+00  0.44421669697E+03  0.44421669700E+03  0.50400001928E-02 0. -1.
       -1   -1    0    0    0  501  0.00000000000E+00  0.00000000000E+00 -0.11111851356E+04  0.11111851356E+04  0.50400001928E-02 0.  1.
    10030    2    1    2    0    0  0.00000000000E+00  0.00000000000E+00 -0.66696843864E+03  0.15554018326E+04  0.14051433958E+04 0.  0.
        5    1    3    3  502    0  0.17189717851E+03 -0.24343748143E+01 -0.10875255408E+04  0.11010397168E+04  0.46999998093E+01 0.  1.
       -5    1    3    3    0  502 -0.17189717851E+03  0.24343748143E+01  0.42055710211E+03  0.45436211583E+03  0.46999998093E+01 0. -1.
</event>
<event>
 5   0  0.2217251E-04  0.1398742E+04  0.7818609E-02  0.8954729E-01
        1   -1    0    0  501    0  0.00000000000E+00  0.00000000000E+00  0.10909052089E+04  0.10909052089E+04  0.50400001928E-02 0. -1.
       -1   -1    0    0    0  501  0.00000000000E+00  0.00000000000E+00 -0.44836168981E+03  0.44836168984E+03  0.50400001928E-02 0.  1.
    10030    2    1    2    0    0  0.00000000000E+00  0.00000000000E+00  0.64254351908E+03  0.15392668987E+04  0.13987424394E+04 0.  0.
        5    1    3    3  502    0  0.53453984172E+03  0.28557594564E+03  0.70535062712E+03  0.92996132194E+03  0.46999998093E+01 0. -1.
       -5    1    3    3    0  502 -0.53453984172E+03 -0.28557594564E+03 -0.62807108044E+02  0.60930557681E+03  0.46999998093E+01 0.  1.
</event>
<event>
 5   0  0.3932568E-04  0.1400199E+04  0.7818609E-02  0.8953675E-01
        2   -1    0    0  501    0  0.00000000000E+00  0.00000000000E+00  0.48411509079E+03  0.48411509079E+03  0.25500000920E-02 0.  1.
       -2   -1    0    0    0  501  0.00000000000E+00  0.00000000000E+00 -0.10124432038E+04  0.10124432038E+04  0.25500000920E-02 0. -1.
    10030    2    1    2    0    0  0.00000000000E+00  0.00000000000E+00 -0.52832811306E+03  0.14965582946E+04  0.14001986053E+04 0.  0.
        2    1    3    3  502    0  0.57199987307E+03  0.19025055578E+03 -0.64469935643E+03  0.88261905086E+03  0.25500000920E-02 0. -1.
       -2    1    3    3    0  502 -0.57199987307E+03 -0.19025055578E+03  0.11637124337E+03  0.61393924378E+03  0.25500000920E-02 0.  1.
</event>
<event>
 5   0  0.3932568E-04  0.1400436E+04  0.7818609E-02  0.8953503E-01
       -2   -1    0    0    0  501  0.00000000000E+00  0.00000000000E+00  0.45116659155E+03  0.45116659156E+03  0.25500000920E-02 0. -1.
        2   -1    0    0  501    0  0.00000000000E+00  0.00000000000E+00 -0.10867492411E+04  0.10867492411E+04  0.25500000920E-02 0.  1.
    10030    2    1    2    0    0  0.00000000000E+00  0.00000000000E+00 -0.63558264954E+03  0.15379158327E+04  0.14004355765E+04 0.  0.
        2    1    3    3  502    0 -0.16486799428E+03 -0.65577605509E+03 -0.11805343332E+03  0.68641117641E+03  0.25500000920E-02 0. -1.
       -2    1    3    3    0  502  0.16486799428E+03  0.65577605509E+03 -0.51752921622E+03  0.85150465625E+03  0.25500000920E-02 0.  1.
</event>
<event>
 5   0  0.2215876E-04  0.1399744E+04  0.7818609E-02  0.8954004E-01
       -1   -1    0    0    0  501  0.00000000000E+00  0.00000000000E+00  0.34190081648E+03  0.34190081652E+03  0.50400001928E-02 0.  1.
        1   -1    0    0  501    0  0.00000000000E+00  0.00000000000E+00 -0.14326390805E+04  0.14326390805E+04  0.50400001928E-02 0. -1.
    10030    2    1    2    0    0  0.00000000000E+00  0.00000000000E+00 -0.10907382640E+04  0.17745398970E+04  0.13997435070E+04 0.  0.
        3    1    3    3  502    0  0.58231900168E+03  0.34364703390E+03 -0.77438076268E+03  0.10280341820E+04  0.10100000352E+00 0.  1.
       -3    1    3    3    0  502 -0.58231900168E+03 -0.34364703390E+03 -0.31635750129E+03  0.74650571495E+03  0.10100000352E+00 0. -1.
</event>
<event>
 5   0  0.2223112E-04  0.1400499E+04  0.7818609E-02  0.8953457E-01
        1   -1    0    0  501    0  0.00000000000E+00  0.00000000000E+00  0.16956197220E+04  0.16956197220E+04  0.50400001928E-02 0. -1.
       -1   -1    0    0    0  501  0.00000000000E+00  0.00000000000E+00 -0.28918595561E+03  0.28918595565E+03  0.50400001928E-02 0.  1.
    10030    2    1    2    0    0  0.00000000000E+00  0.00000000000E+00  0.14064337664E+04  0.19848056777E+04  0.14004990678E+04 0.  0.
        1    1    3    3  502    0 -0.21044113981E+03 -0.30404514777E+03 -0.13954304396E+03  0.39522295777E+03  0.50400001928E-02 0.  1.
       -1    1    3    3    0  502  0.21044113981E+03  0.30404514777E+03  0.15459768103E+04  0.15895827199E+04  0.50400001928E-02 0. -1.
</event>
<event>
 5   0  0.3917598E-04  0.1392243E+04  0.7818609E-02  0.8959452E-01
       -2   -1    0    0    0  501  0.00000000000E+00  0.00000000000E+00  0.19239875242E+03  0.19239875243E+03  0.25500000920E-02 0.  1.
        2   -1    0    0  501    0  0.00000000000E+00  0.00000000000E+00 -0.25186516805E+04  0.25186516805E+04  0.25500000920E-02 0. -1.
    10030    2    1    2    0    0  0.00000000000E+00  0.00000000000E+00 -0.23262529280E+04  0.27110504329E+04  0.13922434286E+04 0.  0.
        3    1    3    3  502    0  0.50522870638E+02  0.62015478171E+03 -0.55528110996E+03  0.83395541549E+03  0.10100000352E+00 0.  1.
       -3    1    3    3    0  502 -0.50522870638E+02 -0.62015478171E+03 -0.17709718181E+04  0.18770950174E+04  0.10100000352E+00 0. -1.
</event>
<event>
 5   0  0.3975164E-04  0.1401631E+04  0.7818609E-02  0.8952639E-01
       -2   -1    0    0    0  501  0.00000000000E+00  0.00000000000E+00  0.21012287977E+03  0.21012287979E+03  0.25500000920E-02 0. -1.
        2   -1    0    0  501    0  0.00000000000E+00  0.00000000000E+00 -0.23374067797E+04  0.23374067797E+04  0.25500000920E-02 0.  1.
    10030    2    1    2    0    0  0.00000000000E+00  0.00000000000E+00 -0.21272839000E+04  0.25475296595E+04  0.14016313977E+04 0.  0.
        5    1    3    3  502    0  0.43928972570E+03 -0.32281397248E+03 -0.26322752699E+03  0.60538842482E+03  0.46999998093E+01 0. -1.
       -5    1    3    3    0  502 -0.43928972570E+03  0.32281397248E+03 -0.18640563730E+04  0.19421412347E+04  0.46999998093E+01 0.  1.
</event>
<event>
 5   0  0.2155352E-04  0.1402379E+04  0.7818609E-02  0.8952098E-01
       -1   -1    0    0    0  501  0.00000000000E+00  0.00000000000E+00  0.45502754839E+03  0.45502754842E+03  0.50400001928E-02 0.  1.
        1   -1    0    0  501    0  0.00000000000E+00  0.00000000000E+00 -0.10805211464E+04  0.10805211464E+04  0.50400001928E-02 0. -1.
    10030    2    1    2    0    0  0.00000000000E+00  0.00000000000E+00 -0.62549359802E+03  0.15355486948E+04  0.14023792472E+04 0.  0.
        2    1    3    3  502    0  0.14748811572E+03  0.39829294347E+03 -0.92364879753E+03  0.10166204377E+04  0.25500000920E-02 0. -1.
       -2    1    3    3    0  502 -0.14748811572E+03 -0.39829294347E+03  0.29815519951E+03  0.51892825717E+03  0.25500000920E-02 0.  1.
</event>
<event>
 5   0  0.2155352E-04  0.1391664E+04  0.7818609E-02  0.8959875E-01
        1   -1    0    0  501    0  0.00000000000E+00  0.00000000000E+00  0.33032556304E+03  0.33032556308E+03  0.50400001928E-02 0.  1.
       -1   -1    0    0    0  501  0.00000000000E+00  0.00000000000E+00 -0.14657727957E+04  0.14657727957E+04  0.50400001928E-02 0. -1.
    10030    2    1    2    0    0  0.00000000000E+00  0.00000000000E+00 -0.11354472326E+04  0.17960983588E+04  0.13916640745E+04 0.  0.
        2    1    3    3  502    0 -0.61003067806E+03 -0.65380135550E+02 -0.14403664213E+03  0.63020516071E+03  0.25500000920E-02 0.  1.
       -2    1    3    3    0  502  0.61003067806E+03  0.65380135550E+02 -0.99141059051E+03  0.11658931981E+04  0.25500000920E-02 0. -1.
</event>
<event>
 5   0  0.2215876E-04  0.1401547E+04  0.7818609E-02  0.8952699E-01
        1   -1    0    0  501    0  0.00000000000E+00  0.00000000000E+00  0.89493961182E+03  0.89493961184E+03  0.50400001928E-02 0.  1.
       -1   -1    0    0    0  501  0.00000000000E+00  0.00000000000E+00 -0.54873379011E+03  0.54873379013E+03  0.50400001928E-02 0. -1.
    10030    2    1    2    0    0  0.00000000000E+00  0.00000000000E+00  0.34620582171E+03  0.14436734020E+04  0.14015471525E+04 0.  0.
        3    1    3    3  502    0 -0.40315758314E+03 -0.54419333597E+03  0.35851651506E+03  0.76630054517E+03  0.10100000352E+00 0.  1.
       -3    1    3    3    0  502  0.40315758314E+03  0.54419333597E+03 -0.12310693348E+02  0.67737285680E+03  0.10100000352E+00 0. -1.
</event>
<event>
 5   0  0.3917598E-04  0.1397956E+04  0.7818609E-02  0.8955299E-01
        2   -1    0    0  501    0  0.00000000000E+00  0.00000000000E+00  0.25988270549E+04  0.25988270549E+04  0.25500000920E-02 0.  1.
       -2   -1    0    0    0  501  0.00000000000E+00  0.00000000000E+00 -0.18799652042E+03  0.18799652044E+03  0.25500000920E-02 0. -1.
    10030    2    1    2    0    0  0.00000000000E+00  0.00000000000E+00  0.24108305345E+04  0.27868235753E+04  0.13979562847E+04 0.  0.
        3    1    3    3  502    0 -0.28801301381E+03 -0.52206189096E+03  0.47821089017E+03  0.76432046931E+03  0.10100000352E+00 0. -1.
       -3    1    3    3    0  502  0.28801301381E+03  0.52206189096E+03  0.19326196443E+04  0.20225031060E+04  0.10100000352E+00 0.  1.
</event>
<event>
 5   0  0.2217251E-04  0.1401851E+04  0.7818609E-02  0.8952480E-01
        1   -1    0    0  501    0  0.00000000000E+00  0.00000000000E+00  0.99779417022E+03  0.99779417023E+03  0.50400001928E-02 0. -1.
       -1   -1    0    0    0  501  0.00000000000E+00  0.00000000000E+00 -0.49238273034E+03  0.49238273037E+03  0.50400001928E-02 0.  1.
    10030    2    1    2    0    0  0.00000000000E+00  0.00000000000E+00  0.50541143988E+03  0.14901769006E+04  0.14018510875E+04 0.  0.
        5    1    3    3  502    0  0.67455687721E+03 -0.11940964804E+02  0.50720597373E+02  0.67658276377E+03  0.46999998093E+01 0.  1.
       -5    1    3    3    0  502 -0.67455687721E+03  0.11940964804E+02  0.45469084250E+03  0.81359413683E+03  0.46999998093E+01 0. -1.
</event>
<event>
 5   0  0.2155352E-04  0.1399158E+04  0.7818609E-02  0.8954428E-01
       -1   -1    0    0    0  501  0.00000000000E+00  0.00000000000E+00  0.39348762906E+03  0.39348762909E+03  0.50400001928E-02 0.  1.
        1   -1    0    0  501    0  0.00000000000E+00  0.00000000000E+00 -0.12437764962E+04  0.12437764962E+04  0.50400001928E-02 0. -1.
    10030    2    1    2    0    0  0.00000000000E+00  0.00000000000E+00 -0.85028886715E+03  0.16372641253E+04  0.13991578390E+04 0.  0.
        2    1    3    3  502    0 -0.19376213337E+03 -0.28844485727E+03  0.28536337137E+03  0.44964036044E+03  0.25500000920E-02 0.  1.
       -2    1    3    3    0  502  0.19376213337E+03  0.28844485727E+03 -0.11356522385E+04  0.11876237649E+04  0.25500000920E-02 0. -1.
</event>
<event>
 5   0  0.3917598E-04  0.1402643E+04  0.7818609E-02  0.8951907E-01
        2   -1    0    0  501    0  0.00000000000E+00  0.00000000000E+00  0.11007012814E+04  0.11007012814E+04  0.25500000920E-02 0. -1.
       -2   -1    0    0    0  501  0.00000000000E+00  0.00000000000E+00 -0.44685347714E+03  0.44685347715E+03  0.25500000920E-02 0.  1.
    10030    2    1    2    0    0  0.00000000000E+00  0.00000000000E+00  0.65384780429E+03  0.15475547586E+04  0.14026434970E+04 0.  0.
        3    1    3    3  502    0  0.44249089839E+03 -0.45582502518E+03 -0.88732510572E+00  0.63527588203E+03  0.10100000352E+00 0.  1.
       -3    1    3    3    0  502 -0.44249089839E+03  0.45582502518E+03  0.65473512939E+03  0.91227887655E+03  0.10100000352E+00 0. -1.
</event>
<event>
 5   0  0.3975164E-04  0.1404295E+04  0.7818609E-02  0.8950715E-01
        2   -1    0    0  501    0  0.00000000000E+00  0.00000000000E+00  0.80095173298E+03  0.80095173299E+03  0.25500000920E-02 0. -1.
       -2   -1    0    0    0  501  0.00000000000E+00  0.00000000000E+00 -0.61553198013E+03  0.61553198014E+03  0.25500000920E-02 0.  1.
    10030    2    1    2    0    0  0.00000000000E+00  0.00000000000E+00  0.18541975285E+03  0.14164837131E+04  0.14042954193E+04 0.  0.
        5    1    3    3  502    0 -0.31176930515E+02  0.25200933772E+03 -0.56757732890E+03  0.62180931287E+03  0.46999998093E+01 0.  1.
       -5    1    3    3    0  502  0.31176930515E+02 -0.25200933772E+03  0.75299708175E+03  0.79467440025E+03  0.46999998093E+01 0. -1.
</event>
<event>
 5   0  0.3975164E-04  0.1403758E+04  0.7818609E-02  0.8951103E-01
       -2   -1    0    0    0  501  0.00000000000E+00  0.00000000000E+00  0.63346179102E+03  0.63346179103E+03  0.25500000920E-02 0.  1.
        2   -1    0    0  501    0  0.00000000000E+00  0.00000000000E+00 -0.77768541797E+03  0.77768541797E+03  0.25500000920E-02 0. -1.
    10030    2    1    2    0    0  0.00000000000E+00  0.00000000000E+00 -0.14422362695E+03  0.14111472090E+04  0.14037578106E+04 0.  0.
        5    1    3    3  502    0 -0.41437853116E+03  0.13435774809E+03 -0.62532709154E+03  0.76211392388E+03  0.46999998093E+01 0. -1.
       -5    1    3    3    0  502  0.41437853116E+03 -0.13435774809E+03  0.48110346459E+03  0.64903328512E+03  0.46999998093E+01 0.  1.
</event>
<event>
 5   0  0.3975164E-04  0.1398447E+04  0.7818609E-02  0.8954943E-01
        2   -1    0    0  501    0  0.00000000000E+00  0.00000000000E+00  0.12031791231E+04  0.12031791231E+04  0.25500000920E-02 0.  1.
       -2   -1    0    0    0  501  0.00000000000E+00  0.00000000000E+00 -0.40635152183E+03  0.40635152184E+03  0.25500000920E-02 0. -1.
    10030    2    1    2    0    0  0.00000000000E+00  0.00000000000E+00  0.79682760127E+03  0.16095306450E+04  0.13984472356E+04 0.  0.
        5    1    3    3  502    0 -0.55104729874E+03 -0.42663618540E+03  0.46372419205E+03  0.83709842697E+03  0.46999998093E+01 0. -1.
       -5    1    3    3    0  502  0.55104729874E+03  0.42663618540E+03  0.33310340923E+03  0.77243221799E+03  0.46999998093E+01 0.  1.
</event>
<event>
 5   0  0.3932568E-04  0.1389236E+04  0.7818609E-02  0.8961647E-01
       -2   -1    0    0    0  501  0.00000000000E+00  0.00000000000E+00  0.40136658221E+03  0.40136658221E+03  0.25500000920E-02 0.  1.
        2   -1    0    0  501    0  0.00000000000E+00  0.00000000000E+00 -0.12021283169E+04  0.12021283169E+04  0.25500000920E-02 0. -1.
    10030    2    1    2    0    0  0.00000000000E+00  0.00000000000E+00 -0.80076173472E+03  0.16034948991E+04  0.13892359540E+04 0.  0.
        2    1    3    3  502    0  0.28759693041E+03  0.56745469131E+03 -0.78483047331E+02  0.64099641949E+03  0.25500000920E-02 0.  1.
       -2    1    3    3    0  502 -0.28759693041E+03 -0.56745469131E+03 -0.72227868739E+03  0.96249847966E+03  0.25500000920E-02 0. -1.
</event>
<event>
 5   0  0.4208622E-04  0.1401214E+04  0.7818609E-02  0.8952941E-01
        2   -1    0    0  501    0  0.00000000000E+00  0.00000000000E+00  0.60947929740E+03  0.60947929740E+03  0.25500000920E-02 0.  1.
       -2   -1    0    0    0  501  0.00000000000E+00  0.00000000000E+00 -0.80535947202E+03  0.80535947203E+03  0.25500000920E-02 0. -1.
    10030    2    1    2    0    0  0.00000000000E+00  0.00000000000E+00 -0.19588017463E+03  0.14148387694E+04  0.14012136528E+04 0.  0.
        4    1    3    3  502    0 -0.21738497544E+03  0.99158876547E+02  0.56706833009E+03  0.61535096834E+03  0.12699999809E+01 0.  1.
       -4    1    3    3    0  502  0.21738497544E+03 -0.99158876547E+02 -0.76294850472E+03  0.79948780109E+03  0.12699999809E+01 0. -1.
</event>
<event>
 5   0  0.3975164E-04  0.1387465E+04  0.7818609E-02  0.8962943E-01
       -2   -1    0    0    0  501  0.00000000000E+00  0.00000000000E+00  0.40434218149E+03  0.40434218149E+03  0.25500000920E-02 0. -1.
        2   -1    0    0  501    0  0.00000000000E+00  0.00000000000E+00 -0.11902407023E+04  0.11902407023E+04  0.25500000920E-02 0.  1.
    10030    2    1    2    0    0  0.00000000000E+00  0.00000000000E+00 -0.78589852079E+03  0.15945828838E+04  0.13874646259E+04 0.  0.
        5    1    3    3  502    0  0.42958209695E+03  0.74659335075E+02 -0.10130566360E+04  0.11029146078E+04  0.46999998093E+01 0.  1.
       -5    1    3    3    0  502 -0.42958209695E+03 -0.74659335075E+02  0.22715811519E+03  0.49166827600E+03  0.46999998093E+01 0. -1.
</event>
<event>
 5   0  0.3975164E-04  0.1407173E+04  0.7818609E-02  0.8948643E-01
       -2   -1    0    0    0  501  0.00000000000E+00  0.00000000000E+00  0.52589679342E+03  0.52589679343E+03  0.25500000920E-02 0. -1.
        2   -1    0    0  501    0  0.00000000000E+00  0.00000000000E+00 -0.94131355756E+03  0.94131355756E+03  0.25500000920E-02 0.  1.
    10030    2    1    2    0    0  0.00000000000E+00  0.00000000000E+00 -0.41541676414E+03  0.14672103510E+04  0.14071727421E+04 0.  0.
        5    1    3    3  502    0  0.47456056492E+03  0.32366569365E+03 -0.63129815965E+03  0.85353773636E+03  0.46999998093E+01 0.  1.
       -5    1    3    3    0  502 -0.47456056492E+03 -0.32366569365E+03  0.21588139551E+03  0.61367261463E+03  0.46999998093E+01 0. -1.
</event>
<event>
 5   0  0.4310348E-04  0.1400198E+04  0.7818609E-02  0.8953675E-01
       -2   -1    0    0    0  501  0.00000000000E+00  0.00000000000E+00  0.12295359573E+04  0.12295359573E+04  0.25500000920E-02 0. -1.
        2   -1    0    0  501    0  0.00000000000E+00  0.00000000000E+00 -0.39863722955E+03  0.39863722956E+03  0.25500000920E-02 0.  1.
    10030    2    1    2    0    0  0.00000000000E+00  0.00000000000E+00  0.83089872779E+03  0.16281731869E+04  0.14001982826E+04 0.  0.
        1    1    3    3  502    0 -0.60020959309E+03 -0.32712713847E+03  0.59131963691E+03  0.90383772514E+03  0.50400001928E-02 0. -1.
       -1    1    3    3    0  502  0.60020959309E+03  0.32712713847E+03  0.23957909088E+03  0.72433546177E+03  0.50400001928E-02 0.  1.
</event>
<event>
 5   0  0.1497625E-04  0.1401364E+04  0.7818609E-02  0.8952832E-01
       -3   -1    0    0    0  501  0.00000000000E+00  0.00000000000E+00  0.67083146170E+03  0.67083146930E+03  0.10100000352E+00 0.  1.
        3   -1    0    0  501    0  0.00000000000E+00  0.00000000000E+00 -0.73186041057E+03  0.73186041754E+03  0.10100000352E+00 0. -1.
    10030    2    1    2    0    0  0.00000000000E+00  0.00000000000E+00 -0.61028948866E+02  0.14026918868E+04  0.14013636205E+04 0.  0.
        3    1    3    3  502    0  0.18677908404E+02 -0.52360723556E+03 -0.49618827162E+03  0.72160668822E+03  0.10100000352E+00 0. -1.
       -3    1    3    3    0  502 -0.18677908404E+02  0.52360723556E+03  0.43515932276E+03  0.68108519862E+03  0.10100000352E+00 0.  1.
</event>
<event>
 5   0  0.4310348E-04  0.1401324E+04  0.7818609E-02  0.8952861E-01
       -2   -1    0    0    0  501  0.00000000000E+00  0.00000000000E+00  0.36484746553E+03  0.36484746554E+03  0.25500000920E-02 0. -1.
        2   -1    0    0  501    0  0.00000000000E+00  0.00000000000E+00 -0.13455690186E+04  0.13455690186E+04  0.25500000920E-02 0.  1.
    10030    2    1    2    0    0  0.00000000000E+00  0.00000000000E+00 -0.98072155308E+03  0.17104164842E+04  0.14013242967E+04 0.  0.
        1    1    3    3  502    0  0.20552967171E+03  0.26478828249E+03  0.26063511494E+03  0.42460092282E+03  0.50400001928E-02 0. -1.
       -1    1    3    3    0  502 -0.20552967171E+03 -0.26478828249E+03 -0.12413566680E+04  0.12858155613E+04  0.50400001928E-02 0.  1.
</event>
<event>
 5   0  0.2155352E-04  0.1400632E+04  0.7818609E-02  0.8953361E-01
        1   -1    0    0  501    0  0.00000000000E+00  0.00000000000E+00  0.61519468971E+03  0.61519468973E+03  0.50400001928E-02 0. -1.
       -1   -1    0    0    0  501  0.00000000000E+00  0.00000000000E+00 -0.79721554682E+03  0.79721554684E+03  0.50400001928E-02 0.  1.
    10030    2    1    2    0    0  0.00000000000E+00  0.00000000000E+00 -0.18202085711E+03  0.14124102366E+04  0.14006323872E+04 0.  0.
        2    1    3    3  502    0 -0.15916392574E+03  0.28962279129E+03 -0.71363926735E+03  0.78644486164E+03  0.25500000920E-02 0.  1.
       -2    1    3    3    0  502  0.15916392574E+03 -0.28962279129E+03  0.53161841025E+03  0.62596537493E+03  0.25500000920E-02 0. -1.
</event>
<event>
 5   0  0.3917598E-04  0.1402784E+04  0.7818609E-02  0.8951806E-01
        2   -1    0    0  501    0  0.00000000000E+00  0.00000000000E+00  0.13051617728E+04  0.13051617728E+04  0.25500000920E-02 0. -1.
       -2   -1    0    0    0  501  0.00000000000E+00  0.00000000000E+00 -0.37692698877E+03  0.37692698878E+03  0.25500000920E-02 0.  1.
    10030    2    1    2    0    0  0.00000000000E+00  0.00000000000E+00  0.92823478407E+03  0.16820887616E+04  0.14027839419E+04 0.  0.
        3    1    3    3  502    0 -0.27444093989E+03  0.64545623076E+03  0.45887530356E+03  0.83815161500E+03  0.10100000352E+00 0. -1.
       -3    1    3    3    0  502  0.27444093989E+03 -0.64545623076E+03  0.46935948051E+03  0.84393714662E+03  0.10100000352E+00 0.  1.
</event>
<event>
 5   0  0.2143942E-04  0.1397554E+04  0.7818609E-02  0.8955591E-01
       -1   -1    0    0    0  501  0.00000000000E+00  0.00000000000E+00  0.73401914655E+03  0.73401914657E+03  0.50400001928E-02 0.  1.
        1   -1    0    0  501    0  0.00000000000E+00  0.00000000000E+00 -0.66522676595E+03  0.66522676597E+03  0.50400001928E-02 0. -1.
    10030    2    1    2    0    0  0.00000000000E+00  0.00000000000E+00  0.68792380600E+02  0.13992459125E+04  0.13975538387E+04 0.  0.
        4    1    3    3  502    0 -0.56672113724E+03  0.38042877299E+03 -0.11541341536E+03  0.69225773239E+03  0.12699999809E+01 0.  1.
       -4    1    3    3    0  502  0.56672113724E+03 -0.38042877299E+03  0.18420579596E+03  0.70698818015E+03  0.12699999809E+01 0. -1.
</event>
<event>
 5   0  0.2223112E-04  0.1399586E+04  0.7818609E-02  0.8954118E-01
       -1   -1    0    0    0  501  0.00000000000E+00  0.00000000000E+00  0.54347089764E+03  0.54347089766E+03  0.50400001928E-02 0.  1.
        1   -1    0    0  501    0  0.00000000000E+00  0.00000000000E+00 -0.90107918587E+03  0.90107918588E+03  0.50400001928E-02 0. -1.
    10030    2    1    2    0    0  0.00000000000E+00  0.00000000000E+00 -0.35760828823E+03  0.14445500835E+04  0.13995861017E+04 0.  0.
        1    1    3    3  502    0 -0.95300863842E+02  0.82358182305E+02  0.53167481437E+03  0.54639109904E+03  0.50400001928E-02 0.  1.
       -1    1    3    3    0  502  0.95300863842E+02 -0.82358182305E+02 -0.88928310260E+03  0.89815898450E+03  0.50400001928E-02 0. -1.
</event>
<event>
 5   0  0.2217251E-04  0.1347061E+04  0.7818609E-02  0.8993056E-01
        1   -1    0    0  501    0  0.00000000000E+00  0.00000000000E+00  0.47945222071E+03  0.47945222074E+03  0.50400001928E-02 0. -1.
       -1   -1    0    0    0  501  0.00000000000E+00  0.00000000000E+00 -0.94616946866E+03  0.94616946868E+03  0.50400001928E-02 0.  1.
    10030    2    1    2    0    0  0.00000000000E+00  0.00000000000E+00 -0.46671724795E+03  0.14256216894E+04  0.13470605821E+04 0.  0.
        5    1    3    3  502    0 -0.33042946119E+03 -0.45244909291E+03  0.16224254882E+03  0.58329970439E+03  0.46999998093E+01 0. -1.
       -5    1    3    3    0  502  0.33042946119E+03  0.45244909291E+03 -0.62895979677E+03  0.84232198502E+03  0.46999998093E+01 0.  1.
</event>
<event>
 5   0  0.4208622E-04  0.1359122E+04  0.7818609E-02  0.8983951E-01
       -2   -1    0    0    0  501  0.00000000000E+00  0.00000000000E+00  0.47262055124E+03  0.47262055124E+03  0.25500000920E-02 0. -1.
        2   -1    0    0  501    0  0.00000000000E+00  0.00000000000E+00 -0.97711245284E+03  0.97711245285E+03  0.25500000920E-02 0.  1.
    10030    2    1    2    0    0  0.00000000000E+00  0.00000000000E+00 -0.50449190161E+03  0.14497330041E+04  0.13591224023E+04 0.  0.
        4    1    3    3  502    0  0.59515385464E+03 -0.83466040008E+02 -0.59061215726E+03  0.84261439801E+03  0.12699999809E+01 0. -1.
       -4    1    3    3    0  502 -0.59515385464E+03  0.83466040008E+02  0.86120255652E+02  0.60711860609E+03  0.12699999809E+01 0.  1.
</event>
<event>
 5   0  0.2155352E-04  0.1401602E+04  0.7818609E-02  0.8952660E-01
       -1   -1    0    0    0  501  0.00000000000E+00  0.00000000000E+00  0.38023776461E+03  0.38023776464E+03  0.50400001928E-02 0.  1.
        1   -1    0    0  501    0  0.00000000000E+00  0.00000000000E+00 -0.12916176639E+04  0.12916176639E+04  0.50400001928E-02 0. -1.
    10030    2    1    2    0    0  0.00000000000E+00  0.00000000000E+00 -0.91137989932E+03  0.16718554286E+04  0.14016016742E+04 0.  0.
        2    1    3    3  502    0 -0.27598305880E+03  0.56337906818E+03 -0.83119672195E+02  0.63282817819E+03  0.25500000920E-02 0.  1.
       -2    1    3    3    0  502  0.27598305880E+03 -0.56337906818E+03 -0.82826022712E+03  0.10390272504E+04  0.25500000920E-02 0. -1.
</event>
<event>
 5   0  0.3932568E-04  0.1387578E+04  0.7818609E-02  0.8962860E-01
       -2   -1    0    0    0  501  0.00000000000E+00  0.00000000000E+00  0.28199863786E+03  0.28199863787E+03  0.25500000920E-02 0. -1.
        2   -1    0    0  501    0  0.00000000000E+00  0.00000000000E+00 -0.17068982749E+04  0.17068982749E+04  0.25500000920E-02 0.  1.
    10030    2    1    2    0    0  0.00000000000E+00  0.00000000000E+00 -0.14248996370E+04  0.19888969128E+04  0.13875777290E+04 0.  0.
        2    1    3    3  502    0 -0.52877836543E+03 -0.49332100249E+02 -0.72550536024E+02  0.53600727247E+03  0.25500000920E-02 0. -1.
       -2    1    3    3    0  502  0.52877836543E+03  0.49332100249E+02 -0.13523491010E+04  0.14528896403E+04  0.25500000920E-02 0.  1.
</event>
<event>
 5   0  0.3917598E-04  0.1397369E+04  0.7818609E-02  0.8955725E-01
        2   -1    0    0  501    0  0.00000000000E+00  0.00000000000E+00  0.14584950133E+04  0.14584950133E+04  0.25500000920E-02 0. -1.
       -2   -1    0    0    0  501  0.00000000000E+00  0.00000000000E+00 -0.33470132944E+03  0.33470132945E+03  0.25500000920E-02 0.  1.
    10030    2    1    2    0    0  0.00000000000E+00  0.00000000000E+00  0.11237936839E+04  0.17931963428E+04  0.13973692711E+04 0.  0.
        3    1    3    3  502    0  0.94872472023E+02  0.13687515179E+03  0.14326517346E+04  0.14422990660E+04  0.10100000352E+00 0. -1.
       -3    1    3    3    0  502 -0.94872472023E+02 -0.13687515179E+03 -0.30885805071E+03  0.35089727672E+03  0.10100000352E+00 0.  1.
</event>
<event>
 5   0  0.3975164E-04  0.1398903E+04  0.7818609E-02  0.8954613E-01
        2   -1    0    0  501    0  0.00000000000E+00  0.00000000000E+00  0.15099516146E+04  0.15099516146E+04  0.25500000920E-02 0. -1.
       -2   -1    0    0    0  501  0.00000000000E+00  0.00000000000E+00 -0.32400533999E+03  0.32400534000E+03  0.25500000920E-02 0.  1.
    10030    2    1    2    0    0  0.00000000000E+00  0.00000000000E+00  0.11859462746E+04  0.18339569546E+04  0.13989029792E+04 0.  0.
        5    1    3    3  502    0 -0.57686044504E+03  0.15137988193E+03  0.11391833099E+03  0.60719298237E+03  0.46999998093E+01 0.  1.
       -5    1    3    3    0  502  0.57686044504E+03 -0.15137988193E+03  0.10720279437E+04  0.12267639723E+04  0.46999998093E+01 0. -1.
</event>
<event>
 5   0  0.2155352E-04  0.1399521E+04  0.7818609E-02  0.8954165E-01
       -1   -1    0    0    0  501  0.00000000000E+00  0.00000000000E+00  0.47294852975E+03  0.47294852978E+03  0.50400001928E-02 0. -1.
        1   -1    0    0  501    0  0.00000000000E+00  0.00000000000E+00 -0.10353451821E+04  0.10353451822E+04  0.50400001928E-02 0.  1.
    10030    2    1    2    0    0  0.00000000000E+00  0.00000000000E+00 -0.56239665239E+03  0.15082937119E+04  0.13995213206E+04 0.  0.
        2    1    3    3  502    0  0.37863645699E+03 -0.20828697375E+03 -0.87435233997E+03  0.97531586905E+03  0.25500000920E-02 0.  1.
       -2    1    3    3    0  502 -0.37863645699E+03  0.20828697375E+03  0.31195568758E+03  0.53297784289E+03  0.25500000920E-02 0. -1.
</event>
<event>
 5   0  0.2143942E-04  0.1400701E+04  0.7818609E-02  0.8953312E-01
       -1   -1    0    0    0  501  0.00000000000E+00  0.00000000000E+00  0.64629043632E+03  0.64629043634E+03  0.50400001928E-02 0.  1.
        1   -1    0    0  501    0  0.00000000000E+00  0.00000000000E+00 -0.75893201050E+03  0.75893201051E+03  0.50400001928E-02 0. -1.
    10030    2    1    2    0    0  0.00000000000E+00  0.00000000000E+00 -0.11264157417E+03  0.14052224469E+04  0.14007005393E+04 0.  0.
        4    1    3    3  502    0  0.59944289982E+03 -0.17145081519E+03  0.26371017108E+03  0.67695778259E+03  0.12699999809E+01 0.  1.
       -4    1    3    3    0  502 -0.59944289982E+03  0.17145081519E+03 -0.37635174525E+03  0.72826466427E+03  0.12699999809E+01 0. -1.
</event>
<event>
 5   0  0.4208622E-04  0.1392349E+04  0.7818609E-02  0.8959376E-01
        2   -1    0    0  501    0  0.00000000000E+00  0.00000000000E+00  0.86617269629E+03  0.86617269630E+03  0.25500000920E-02 0.  1.
       -2   -1    0    0    0  501  0.00000000000E+00  0.00000000000E+00 -0.55954050839E+03  0.55954050840E+03  0.25500000920E-02 0. -1.
    10030    2    1    2    0    0  0.00000000000E+00  0.00000000000E+00  0.30663218790E+03  0.14257132047E+04  0.13923486788E+04 0.  0.
        4    1    3    3  502    0  0.62195229490E+03  0.18988318390E+03  0.40782145199E+03  0.76759379249E+03  0.12699999809E+01 0.  1.
       -4    1    3    3    0  502 -0.62195229490E+03 -0.18988318390E+03 -0.10118926409E+03  0.65811941221E+03  0.12699999809E+01 0. -1.
</event>
<event>
 5   0  0.3917598E-04  0.1406115E+04  0.7818609E-02  0.8949404E-01
       -2   -1    0    0    0  501  0.00000000000E+00  0.00000000000E+00  0.89606977120E+03  0.89606977120E+03  0.25500000920E-02 0. -1.
        2   -1    0    0  501    0  0.00000000000E+00  0.00000000000E+00 -0.55161983135E+03  0.55161983136E+03  0.25500000920E-02 0.  1.
    10030    2    1    2    0    0  0.00000000000E+00  0.00000000000E+00  0.34444993984E+03  0.14476896026E+04  0.14061150110E+04 0.  0.
        3    1    3    3  502    0 -0.48358289980E+03 -0.26267969362E+03 -0.27824653837E+03  0.61666375663E+03  0.10100000352E+00 0.  1.
       -3    1    3    3    0  502  0.48358289980E+03  0.26267969362E+03  0.62269647821E+03  0.83102584593E+03  0.10100000352E+00 0. -1.
</event>
<event>
 5   0  0.2223112E-04  0.1435399E+04  0.7818609E-02  0.8928586E-01
        1   -1    0    0  501    0  0.00000000000E+00  0.00000000000E+00  0.68885659658E+03  0.68885659660E+03  0.50400001928E-02 0.  1.
       -1   -1    0    0    0  501  0.00000000000E+00  0.00000000000E+00 -0.74775007524E+03  0.74775007526E+03  0.50400001928E-02 0. -1.
    10030    2    1    2    0    0  0.00000000000E+00  0.00000000000E+00 -0.58893478657E+02  0.14366066719E+04  0.14353989995E+04 0.  0.
        1    1    3    3  502    0 -0.19014747063E+03 -0.25583478252E+02 -0.72160794906E+03  0.74667838265E+03  0.50400001928E-02 0. -1.
       -1    1    3    3    0  502  0.19014747063E+03  0.25583478252E+02  0.66271447040E+03  0.68992828921E+03  0.50400001928E-02 0.  1.
</event>
<event>
 5   0  0.2215876E-04  0.1412589E+04  0.7818609E-02  0.8944756E-01
        1   -1    0    0  501    0  0.00000000000E+00  0.00000000000E+00  0.43082964999E+03  0.43082965002E+03  0.50400001928E-02 0.  1.
       -1   -1    0    0    0  501  0.00000000000E+00  0.00000000000E+00 -0.11578873376E+04  0.11578873376E+04  0.50400001928E-02 0. -1.
    10030    2    1    2    0    0  0.00000000000E+00  0.00000000000E+00 -0.72705768764E+03  0.15887169877E+04  0.14125893904E+04 0.  0.
        3    1    3    3  502    0  0.63493005966E+03  0.21384208333E+03 -0.61498461495E+03  0.90943427694E+03  0.10100000352E+00 0. -1.
       -3    1    3    3    0  502 -0.63493005966E+03 -0.21384208333E+03 -0.11207307270E+03  0.67928271072E+03  0.10100000352E+00 0.  1.
</event>
<event>
 5   0  0.2155352E-04  0.1400848E+04  0.7818609E-02  0.8953205E-01
        1   -1    0    0  501    0  0.00000000000E+00  0.00000000000E+00  0.87529153235E+03  0.87529153236E+03  0.50400001928E-02 0.  1.
       -1   -1    0    0    0  501  0.00000000000E+00  0.00000000000E+00 -0.56049204832E+03  0.56049204834E+03  0.50400001928E-02 0. -1.
    10030    2    1    2    0    0  0.00000000000E+00  0.00000000000E+00  0.31479948403E+03  0.14357835807E+04  0.14008482343E+04 0.  0.
        2    1    3    3  502    0  0.39919775355E+03 -0.54623200853E+03 -0.28410339827E+02  0.67715242080E+03  0.25500000920E-02 0. -1.
       -2    1    3    3    0  502 -0.39919775355E+03  0.54623200853E+03  0.34320982386E+03  0.75863115991E+03  0.25500000920E-02 0.  1.
</event>
<event>
 5   0  0.2155352E-04  0.1397153E+04  0.7818609E-02  0.8955882E-01
        1   -1    0    0  501    0  0.00000000000E+00  0.00000000000E+00  0.46884009281E+03  0.46884009283E+03  0.50400001928E-02 0. -1.
       -1   -1    0    0    0  501  0.00000000000E+00  0.00000000000E+00 -0.10408859098E+04  0.10408859098E+04  0.50400001928E-02 0.  1.
    10030    2    1    2    0    0  0.00000000000E+00  0.00000000000E+00 -0.57204581696E+03  0.15097260026E+04  0.13971528858E+04 0.  0.
        2    1    3    3  502    0  0.36213950326E+03 -0.16986519728E+03 -0.90489035717E+03  0.98935623694E+03  0.25500000920E-02 0.  1.
       -2    1    3    3    0  502 -0.36213950326E+03  0.16986519728E+03  0.33284454021E+03  0.52036976567E+03  0.25500000920E-02 0. -1.
</event>
<event>
 5   0  0.3975164E-04  0.1418041E+04  0.7818609E-02  0.8940862E-01
        2   -1    0    0  501    0  0.00000000000E+00  0.00000000000E+00  0.12575811169E+04  0.12575811169E+04  0.25500000920E-02 0. -1.
       -2   -1    0    0    0  501  0.00000000000E+00  0.00000000000E+00 -0.39974376338E+03  0.39974376338E+03  0.25500000920E-02 0.  1.
    10030    2    1    2    0    0  0.00000000000E+00  0.00000000000E+00  0.85783735348E+03  0.16573248802E+04  0.14180411960E+04 0.  0.
        5    1    3    3  502    0  0.35786420015E+03 -0.61123073513E+03  0.46621458374E+03  0.84796693650E+03  0.46999998093E+01 0.  1.
       -5    1    3    3    0  502 -0.35786420015E+03  0.61123073513E+03  0.39162276973E+03  0.80935794373E+03  0.46999998093E+01 0. -1.
</event>
<event>
 5   0  0.2217251E-04  0.1400342E+04  0.7818609E-02  0.8953571E-01
       -1   -1    0    0    0  501  0.00000000000E+00  0.00000000000E+00  0.32372626518E+03  0.32372626521E+03  0.50400001928E-02 0.  1.
        1   -1    0    0  501    0  0.00000000000E+00  0.00000000000E+00 -0.15143642817E+04  0.15143642817E+04  0.50400001928E-02 0. -1.
    10030    2    1    2    0    0  0.00000000000E+00  0.00000000000E+00 -0.11906380166E+04  0.18380905470E+04  0.14003420912E+04 0.  0.
        5    1    3    3  502    0  0.15194930872E+03  0.55603336906E+03 -0.11169944761E+04  0.12569647766E+04  0.46999998093E+01 0. -1.
       -5    1    3    3    0  502 -0.15194930872E+03 -0.55603336906E+03 -0.73643540438E+02  0.58112577036E+03  0.46999998093E+01 0.  1.
</event>
<event>
 5   0  0.2215876E-04  0.1382104E+04  0.7818609E-02  0.8966875E-01
        1   -1    0    0  501    0  0.00000000000E+00  0.00000000000E+00  0.94679053581E+03  0.94679053583E+03  0.50400001928E-02 0.  1.
       -1   -1    0    0    0  501  0.00000000000E+00  0.00000000000E+00 -0.50439126457E+03  0.50439126460E+03  0.50400001928E-02 0. -1.
    10030    2    1    2    0    0  0.00000000000E+00  0.00000000000E+00  0.44239927124E+03  0.14511818004E+04  0.13821040130E+04 0.  0.
        3    1    3    3  502    0 -0.31016952946E+03  0.43403804158E+03 -0.24002583777E+03  0.58498424897E+03  0.10100000352E+00 0. -1.
       -3    1    3    3    0  502  0.31016952946E+03 -0.43403804158E+03  0.68242510901E+03  0.86619755146E+03  0.10100000352E+00 0.  1.
</event>
<event>
 5   0  0.2217251E-04  0.1387859E+04  0.7818609E-02  0.8962654E-01
       -1   -1    0    0    0  501  0.00000000000E+00  0.00000000000E+00  0.92294113855E+03  0.92294113856E+03  0.50400001928E-02 0.  1.
        1   -1    0    0  501    0  0.00000000000E+00  0.00000000000E+00 -0.52174328119E+03  0.52174328122E+03  0.50400001928E-02 0. -1.
    10030    2    1    2    0    0  0.00000000000E+00  0.00000000000E+00  0.40119785735E+03  0.14446844198E+04  0.13878592695E+04 0.  0.
        5    1    3    3  502    0  0.21795404674E+03  0.64852266851E+03  0.79963255997E+02  0.68884093256E+03  0.46999998093E+01 0. -1.
       -5    1    3    3    0  502 -0.21795404674E+03 -0.64852266851E+03  0.32123460136E+03  0.75584348722E+03  0.46999998093E+01 0.  1.
</event>
<event>
 5   0  0.2223112E-04  0.1392494E+04  0.7818609E-02  0.8959270E-01
       -1   -1    0    0    0  501  0.00000000000E+00  0.00000000000E+00  0.84551981521E+03  0.84551981523E+03  0.50400001928E-02 0.  1.
        1   -1    0    0  501    0  0.00000000000E+00  0.00000000000E+00 -0.57332733710E+03  0.57332733712E+03  0.50400001928E-02 0. -1.
    10030    2    1    2    0    0  0.00000000000E+00  0.00000000000E+00  0.27219247811E+03  0.14188471524E+04  0.13924936253E+04 0.  0.
        1    1    3    3  502    0  0.17560913337E+03 -0.67373266532E+03  0.13373899898E+03  0.70897136184E+03  0.50400001928E-02 0.  1.
       -1    1    3    3    0  502 -0.17560913337E+03  0.67373266532E+03  0.13845347913E+03  0.70987579051E+03  0.50400001928E-02 0. -1.
</event>
<event>
 5   0  0.3932568E-04  0.1403054E+04  0.7818609E-02  0.8951611E-01
        2   -1    0    0  501    0  0.00000000000E+00  0.00000000000E+00  0.10074989465E+04  0.10074989465E+04  0.25500000920E-02 0. -1.
       -2   -1    0    0    0  501  0.00000000000E+00  0.00000000000E+00 -0.48847710409E+03  0.48847710410E+03  0.25500000920E-02 0.  1.
    10030    2    1    2    0    0  0.00000000000E+00  0.00000000000E+00  0.51902184239E+03  0.14959760506E+04  0.14030540514E+04 0.  0.
        2    1    3    3  502    0 -0.10358695606E+03 -0.11022221620E+03 -0.47088351665E+03  0.49458111637E+03  0.25500000920E-02 0.  1.
       -2    1    3    3    0  502  0.10358695606E+03  0.11022221620E+03  0.98990535904E+03  0.10013949342E+04  0.25500000920E-02 0. -1.
</event>
<event>
 5   0  0.4310348E-04  0.1400672E+04  0.7818609E-02  0.8953333E-01
       -2   -1    0    0    0  501  0.00000000000E+00  0.00000000000E+00  0.39045210568E+03  0.39045210569E+03  0.25500000920E-02 0. -1.
        2   -1    0    0  501    0  0.00000000000E+00  0.00000000000E+00 -0.12561596185E+04  0.12561596185E+04  0.25500000920E-02 0.  1.
    10030    2    1    2    0    0  0.00000000000E+00  0.00000000000E+00 -0.86570751284E+03  0.16466117242E+04  0.14006715077E+04 0.  0.
        1    1    3    3  502    0  0.23734241821E+03 -0.10982631180E+02  0.34162381078E+03  0.41612362321E+03  0.50400001928E-02 0. -1.
       -1    1    3    3    0  502 -0.23734241821E+03  0.10982631180E+02 -0.12073313236E+04  0.12304881010E+04  0.50400001928E-02 0.  1.
</event>
<event>
 5   0  0.1497625E-04  0.1309197E+04  0.7818609E-02  0.9022303E-01
        3   -1    0    0  501    0  0.00000000000E+00  0.00000000000E+00  0.90586546219E+03  0.90586546782E+03  0.10100000352E+00 0.  1.
       -3   -1    0    0    0  501  0.00000000000E+00  0.00000000000E+00 -0.47302747165E+03  0.47302748243E+03  0.10100000352E+00 0. -1.
    10030    2    1    2    0    0  0.00000000000E+00  0.00000000000E+00  0.43283799054E+03  0.13788929502E+04  0.13091970983E+04 0.  0.
        2    1    3    3  502    0  0.25241310960E+03  0.19182298664E+03  0.81961209451E+03  0.87879031718E+03  0.25500000920E-02 0.  1.
       -2    1    3    3    0  502 -0.25241310960E+03 -0.19182298664E+03 -0.38677410397E+03  0.50010263307E+03  0.25500000920E-02 0. -1.
</event>
<event>
 5   0  0.2155352E-04  0.1398231E+04  0.7818609E-02  0.8955100E-01
       -1   -1    0    0    0  501  0.00000000000E+00  0.00000000000E+00  0.30861705445E+03  0.30861705449E+03  0.50400001928E-02 0. -1.
        1   -1    0    0  501    0  0.00000000000E+00  0.00000000000E+00 -0.15837172845E+04  0.15837172845E+04  0.50400001928E-02 0.  1.
    10030    2    1    2    0    0  0.00000000000E+00  0.00000000000E+00 -0.12751002301E+04  0.18923343390E+04  0.13982305439E+04 0.  0.
        2    1    3    3  502    0  0.12155526192E+03 -0.30062619200E+03  0.20068192557E+03  0.38134633114E+03  0.25500000920E-02 0. -1.
       -2    1    3    3    0  502 -0.12155526192E+03  0.30062619200E+03 -0.14757821556E+04  0.15109880079E+04  0.25500000920E-02 0.  1.
</event>
<event>
 5   0  0.2215876E-04  0.1409123E+04  0.7818609E-02  0.8947242E-01
        1   -1    0    0  501    0  0.00000000000E+00  0.00000000000E+00  0.12701505523E+04  0.12701505523E+04  0.50400001928E-02 0. -1.
       -1   -1    0    0    0  501  0.00000000000E+00  0.00000000000E+00 -0.39082498248E+03  0.39082498251E+03  0.50400001928E-02 0.  1.
    10030    2    1    2    0    0  0.00000000000E+00  0.00000000000E+00  0.87932556978E+03  0.16609755348E+04  0.14091225176E+04 0.  0.
        3    1    3    3  502    0 -0.52459587475E+02 -0.22349045633E+03  0.12248304531E+04  0.12461579520E+04  0.10100000352E+00 0. -1.
       -3    1    3    3    0  502  0.52459587475E+02  0.22349045633E+03 -0.34550488330E+03  0.41481758277E+03  0.10100000352E+00 0.  1.
</event>
<event>
 5   0  0.3932568E-04  0.1400656E+04  0.7818609E-02  0.8953344E-01
       -2   -1    0    0    0  501  0.00000000000E+00  0.00000000000E+00  0.33305713763E+03  0.33305713764E+03  0.25500000920E-02 0.  1.
        2   -1    0    0  501    0  0.00000000000E+00  0.00000000000E+00 -0.14725976228E+04  0.14725976228E+04  0.25500000920E-02 0. -1.
    10030    2    1    2    0    0  0.00000000000E+00  0.00000000000E+00 -0.11395404851E+04  0.18056547604E+04  0.14006557738E+04 0.  0.
        2    1    3    3  502    0 -0.50120251309E+02 -0.55204086696E+03 -0.11215473198E+04  0.12510513774E+04  0.25500000920E-02 0. -1.
       -2    1    3    3    0  502  0.50120251309E+02  0.55204086696E+03 -0.17993165293E+02  0.55460338296E+03  0.25500000920E-02 0.  1.
</event>
<event>
 5   0  0.3917598E-04  0.1398131E+04  0.7818609E-02  0.8955172E-01
        2   -1    0    0  501    0  0.00000000000E+00  0.00000000000E+00  0.13270887441E+04  0.13270887441E+04  0.25500000920E-02 0.  1.
       -2   -1    0    0    0  501  0.00000000000E+00  0.00000000000E+00 -0.36824420152E+03  0.36824420153E+03  0.25500000920E-02 0. -1.
    10030    2    1    2    0    0  0.00000000000E+00  0.00000000000E+00  0.95884454262E+03  0.16953329457E+04  0.13981312312E+04 0.  0.
        3    1    3    3  502    0 -0.59351000262E+03  0.27525357196E+03  0.18074055488E+03  0.67873839620E+03  0.10100000352E+00 0. -1.
       -3    1    3    3    0  502  0.59351000262E+03 -0.27525357196E+03  0.77810398774E+03  0.10165945495E+04  0.10100000352E+00 0.  1.
</event>
<event>
 5   0  0.2223112E-04  0.1410588E+04  0.7818609E-02  0.8946190E-01
       -1   -1    0    0    0  501  0.00000000000E+00  0.00000000000E+00  0.26091126015E+03  0.26091126020E+03  0.50400001928E-02 0. -1.
        1   -1    0    0  501    0  0.00000000000E+00  0.00000000000E+00 -0.19065484898E+04  0.19065484898E+04  0.50400001928E-02 0.  1.
    10030    2    1    2    0    0  0.00000000000E+00  0.00000000000E+00 -0.16456372297E+04  0.21674597500E+04  0.14105884858E+04 0.  0.
        1    1    3    3  502    0 -0.57230869698E+03  0.63471412970E+02 -0.14486250173E+04  0.15588714846E+04  0.50400001928E-02 0.  1.
       -1    1    3    3    0  502  0.57230869698E+03 -0.63471412970E+02 -0.19701221237E+03  0.60858826538E+03  0.50400001928E-02 0. -1.
</event>
<event>
 5   0  0.3932568E-04  0.1403513E+04  0.7818609E-02  0.8951280E-01
       -2   -1    0    0    0  501  0.00000000000E+00  0.00000000000E+00  0.13242774195E+04  0.13242774195E+04  0.25500000920E-02 0.  1.
        2   -1    0    0  501    0  0.00000000000E+00  0.00000000000E+00 -0.37187236198E+03  0.37187236199E+03  0.25500000920E-02 0. -1.
    10030    2    1    2    0    0  0.00000000000E+00  0.00000000000E+00  0.95240505750E+03  0.16961497815E+04  0.14035129809E+04 0.  0.
        2    1    3    3  502    0  0.39891419034E+03  0.54092393803E+03  0.72010149020E+03  0.98502659567E+03  0.25500000920E-02 0.  1.
       -2    1    3    3    0  502 -0.39891419034E+03 -0.54092393803E+03  0.23230356730E+03  0.71112318580E+03  0.25500000920E-02 0. -1.
</event>
<event>
 5   0  0.2143942E-04  0.1400428E+04  0.7818609E-02  0.8953509E-01
        1   -1    0    0  501    0  0.00000000000E+00  0.00000000000E+00  0.15961911239E+04  0.15961911239E+04  0.50400001928E-02 0.  1.
       -1   -1    0    0    0  501  0.00000000000E+00  0.00000000000E+00 -0.30716834991E+03  0.30716834995E+03  0.50400001928E-02 0. -1.
    10030    2    1    2    0    0  0.00000000000E+00  0.00000000000E+00  0.12890227740E+04  0.19033594739E+04  0.14004276400E+04 0.  0.
        4    1    3    3  502    0  0.67093033720E+03 -0.15358833984E+03  0.81941626383E+03  0.10701315442E+04  0.12699999809E+01 0.  1.
       -4    1    3    3    0  502 -0.67093033720E+03  0.15358833984E+03  0.46960651017E+03  0.83322792969E+03  0.12699999809E+01 0. -1.
</event>
<event>
 5   0  0.2215876E-04  0.1403564E+04  0.7818609E-02  0.8951243E-01
       -1   -1    0    0    0  501  0.00000000000E+00  0.00000000000E+00  0.34247230096E+03  0.34247230100E+03  0.50400001928E-02 0.  1.
        1   -1    0    0  501    0  0.00000000000E+00  0.00000000000E+00 -0.14380665492E+04  0.14380665492E+04  0.50400001928E-02 0. -1.
    10030    2    1    2    0    0  0.00000000000E+00  0.00000000000E+00 -0.10955942482E+04  0.17805388502E+04  0.14035639780E+04 0.  0.
        3    1    3    3  502    0  0.49744326876E+03 -0.47098036265E+03 -0.35446540776E+03  0.77130930445E+03  0.10100000352E+00 0.  1.
       -3    1    3    3    0  502 -0.49744326876E+03  0.47098036265E+03 -0.74112884049E+03  0.10092295458E+04  0.10100000352E+00 0. -1.
</event>
<event>
 5   0  0.3975164E-04  0.1390960E+04  0.7818609E-02  0.8960388E-01
        2   -1    0    0  501    0  0.00000000000E+00  0.00000000000E+00  0.68088509861E+03  0.68088509862E+03  0.25500000920E-02 0.  1.
       -2   -1    0    0    0  501  0.00000000000E+00  0.00000000000E+00 -0.71038811299E+03  0.71038811300E+03  0.25500000920E-02 0. -1.
    10030    2    1    2    0    0  0.00000000000E+00  0.00000000000E+00 -0.29503014378E+02  0.13912732116E+04  0.13909603594E+04 0.  0.
        5    1    3    3  502    0 -0.41002893636E+03  0.36262328325E+03  0.41435689215E+03  0.68653703344E+03  0.46999998093E+01 0.  1.
       -5    1    3    3    0  502  0.41002893636E+03 -0.36262328325E+03 -0.44385990653E+03  0.70473617818E+03  0.46999998093E+01 0. -1.
</event>
<event>
 5   0  0.3932568E-04  0.1444451E+04  0.7818609E-02  0.8922256E-01
        2   -1    0    0  501    0  0.00000000000E+00  0.00000000000E+00  0.12680280386E+04  0.12680280386E+04  0.25500000920E-02 0. -1.
       -2   -1    0    0    0  501  0.00000000000E+00  0.00000000000E+00 -0.41135520398E+03  0.41135520398E+03  0.25500000920E-02 0.  1.
    10030    2    1    2    0    0  0.00000000000E+00  0.00000000000E+00  0.85667283462E+03  0.16793832426E+04  0.14444513595E+04 0.  0.
        2    1    3    3  502    0 -0.14258617348E+02  0.68656596352E+03  0.16827337049E+03  0.70703045030E+03  0.25500000920E-02 0.  1.
       -2    1    3    3    0  502  0.14258617348E+02 -0.68656596352E+03  0.68839946413E+03  0.97235279228E+03  0.25500000920E-02 0. -1.
</event>
<event>
 5   0  0.1497625E-04  0.1382926E+04  0.7818609E-02  0.8966271E-01
       -3   -1    0    0    0  501  0.00000000000E+00  0.00000000000E+00  0.34603945886E+03  0.34603947360E+03  0.10100000352E+00 0.  1.
        3   -1    0    0  501    0  0.00000000000E+00  0.00000000000E+00 -0.13816958208E+04  0.13816958245E+04  0.10100000352E+00 0. -1.
    10030    2    1    2    0    0  0.00000000000E+00  0.00000000000E+00 -0.10356563619E+04  0.17277352981E+04  0.13829263032E+04 0.  0.
        1    1    3    3  502    0  0.40711512260E+03  0.19825924451E+03 -0.11706830186E+04  0.12552084214E+04  0.50400001928E-02 0. -1.
       -1    1    3    3    0  502 -0.40711512260E+03 -0.19825924451E+03  0.13502665673E+03  0.47252687663E+03  0.50400001928E-02 0.  1.
</event>
<event>
 5   0  0.2217251E-04  0.1401164E+04  0.7818609E-02  0.8952976E-01
       -1   -1    0    0    0  501  0.00000000000E+00  0.00000000000E+00  0.51569408862E+03  0.51569408864E+03  0.50400001928E-02 0. -1.
        1   -1    0    0  501    0  0.00000000000E+00  0.00000000000E+00 -0.95175655109E+03  0.95175655111E+03  0.50400001928E-02 0.  1.
    10030    2    1    2    0    0  0.00000000000E+00  0.00000000000E+00 -0.43606246247E+03  0.14674506397E+04  0.14011641263E+04 0.  0.
        5    1    3    3  502    0 -0.32861878366E+03  0.60342819938E+02  0.42686026816E+03  0.54209163378E+03  0.46999998093E+01 0. -1.
       -5    1    3    3    0  502  0.32861878366E+03 -0.60342819938E+02 -0.86292273063E+03  0.92535900597E+03  0.46999998093E+01 0.  1.
</event>
<event>
 5   0  0.2155352E-04  0.1397454E+04  0.7818609E-02  0.8955664E-01
        1   -1    0    0  501    0  0.00000000000E+00  0.00000000000E+00  0.63166861600E+03  0.63166861602E+03  0.50400001928E-02 0.  1.
       -1   -1    0    0    0  501  0.00000000000E+00  0.00000000000E+00 -0.77290386203E+03  0.77290386204E+03  0.50400001928E-02 0. -1.
    10030    2    1    2    0    0  0.00000000000E+00  0.00000000000E+00 -0.14123524603E+03  0.14045724781E+04  0.13974535597E+04 0.  0.
        2    1    3    3  502    0 -0.25825011972E+02 -0.47850148526E+03  0.44048885110E+03  0.65089248773E+03  0.25500000920E-02 0.  1.
       -2    1    3    3    0  502  0.25825011972E+02  0.47850148526E+03 -0.58172409713E+03  0.75367999033E+03  0.25500000920E-02 0. -1.
</event>
<event>
 5   0  0.2223112E-04  0.1383782E+04  0.7818609E-02  0.8965643E-01
        1   -1    0    0  501    0  0.00000000000E+00  0.00000000000E+00  0.14792703202E+04  0.14792703202E+04  0.50400001928E-02 0.  1.
       -1   -1    0    0    0  501  0.00000000000E+00  0.00000000000E+00 -0.32361419027E+03  0.32361419031E+03  0.50400001928E-02 0. -1.
    10030    2    1    2    0    0  0.00000000000E+00  0.00000000000E+00  0.11556561299E+04  0.18028845105E+04  0.13837815823E+04 0.  0.
        1    1    3    3  502    0 -0.42048035029E+03  0.24608293021E+03  0.12178960607E+04  0.13117283820E+04  0.50400001928E-02 0.  1.
       -1    1    3    3    0  502  0.42048035029E+03 -0.24608293021E+03 -0.62239930801E+02  0.49115612847E+03  0.50400001928E-02 0. -1.
</event>
<event>
 5   0  0.3932568E-04  0.1409218E+04  0.7818609E-02  0.8947173E-01
       -2   -1    0    0    0  501  0.00000000000E+00  0.00000000000E+00  0.54155341794E+03  0.54155341795E+03  0.25500000920E-02 0.  1.
        2   -1    0    0  501    0  0.00000000000E+00  0.00000000000E+00 -0.91675921409E+03  0.91675921409E+03  0.25500000920E-02 0. -1.
    10030    2    1    2    0    0  0.00000000000E+00  0.00000000000E+00 -0.37520579615E+03  0.14583126320E+04  0.14092183448E+04 0.  0.
        2    1    3    3  502    0 -0.53747451990E+03 -0.12603074355E+03  0.26549954859E+03  0.61257866285E+03  0.25500000920E-02 0.  1.
       -2    1    3    3    0  502  0.53747451990E+03  0.12603074355E+03 -0.64070534474E+03  0.84573396920E+03  0.25500000920E-02 0. -1.
</event>
<event>
 5   0  0.2223112E-04  0.1404322E+04  0.7818609E-02  0.8950696E-01
       -1   -1    0    0    0  501  0.00000000000E+00  0.00000000000E+00  0.35888294511E+03  0.35888294515E+03  0.50400001928E-02 0.  1.
        1   -1    0    0  501    0  0.00000000000E+00  0.00000000000E+00 -0.13737909473E+04  0.13737909473E+04  0.50400001928E-02 0. -1.
    10030    2    1    2    0    0  0.00000000000E+00  0.00000000000E+00 -0.10149080021E+04  0.17326738924E+04  0.14043221014E+04 0.  0.
        1    1    3    3  502    0 -0.33733003335E+03 -0.21066371314E+03  0.20651826375E+03  0.44813005335E+03  0.50400001928E-02 0.  1.
       -1    1    3    3    0  502  0.33733003335E+03  0.21066371314E+03 -0.12214262659E+04  0.12845438391E+04  0.50400001928E-02 0. -1.
</event>
<event>
 5   0  0.1497625E-04  0.1381493E+04  0.7818609E-02  0.8967325E-01
        4   -1    0    0  501    0  0.00000000000E+00  0.00000000000E+00  0.12972399604E+04  0.12972405821E+04  0.12699999809E+01 0. -1.
       -4   -1    0    0    0  501  0.00000000000E+00  0.00000000000E+00 -0.36780280441E+03  0.36780499702E+03  0.12699999809E+01 0.  1.
    10030    2    1    2    0    0  0.00000000000E+00  0.00000000000E+00  0.92943715600E+03  0.16650455791E+04  0.13814931609E+04 0.  0.
        4    1    3    3  502    0  0.72966773607E+01  0.69058674825E+03  0.44919341827E+03  0.82385656414E+03  0.12699999809E+01 0.  1.
       -4    1    3    3    0  502 -0.72966773607E+01 -0.69058674825E+03  0.48024373773E+03  0.84118901496E+03  0.12699999809E+01 0. -1.
</event>
<event>
 5   0  0.2215876E-04  0.1395463E+04  0.7818609E-02  0.8957109E-01
       -1   -1    0    0    0  501  0.00000000000E+00  0.00000000000E+00  0.11051744433E+04  0.11051744433E+04  0.50400001928E-02 0. -1.
        1   -1    0    0  501    0  0.00000000000E+00  0.00000000000E+00 -0.44050010496E+03  0.44050010499E+03  0.50400001928E-02 0.  1.
    10030    2    1    2    0    0  0.00000000000E+00  0.00000000000E+00  0.66467433837E+03  0.15456745483E+04  0.13954633042E+04 0.  0.
        3    1    3    3  502    0 -0.17664758326E+02 -0.24294754935E+03  0.10565472946E+04  0.10842636908E+04  0.10100000352E+00 0. -1.
       -3    1    3    3    0  502  0.17664758326E+02  0.24294754935E+03 -0.39187295618E+03  0.46141085749E+03  0.10100000352E+00 0.  1.
</event>
<event>
 5   0  0.1497625E-04  0.1400410E+04  0.7818609E-02  0.8953522E-01
        3   -1    0    0  501    0  0.00000000000E+00  0.00000000000E+00  0.67757636698E+03  0.67757637451E+03  0.10100000352E+00 0.  1.
       -3   -1    0    0    0  501  0.00000000000E+00  0.00000000000E+00 -0.72358914971E+03  0.72358915676E+03  0.10100000352E+00 0. -1.
    10030    2    1    2    0    0  0.00000000000E+00  0.00000000000E+00 -0.46012782734E+02  0.14011655313E+04  0.14004098221E+04 0.  0.
        4    1    3    3  502    0  0.24375230747E+03 -0.45719210884E+03 -0.49426533107E+03  0.71605840696E+03  0.12699999809E+01 0. -1.
       -4    1    3    3    0  502 -0.24375230747E+03  0.45719210884E+03  0.44825254834E+03  0.68510712431E+03  0.12699999809E+01 0.  1.
</event>
<event>
 5   0  0.2217251E-04  0.1399985E+04  0.7818609E-02  0.8953829E-01
        1   -1    0    0  501    0  0.00000000000E+00  0.00000000000E+00  0.11151825688E+04  0.11151825688E+04  0.50400001928E-02 0. -1.
       -1   -1    0    0    0  501  0.00000000000E+00  0.00000000000E+00 -0.43938044637E+03  0.43938044640E+03  0.50400001928E-02 0.  1.
    10030    2    1    2    0    0  0.00000000000E+00  0.00000000000E+00  0.67580212245E+03  0.15545630152E+04  0.13999848783E+04 0.  0.
        5    1    3    3  502    0  0.30311394499E+03 -0.27457195870E+03 -0.29288797051E+03  0.50306389000E+03  0.46999998093E+01 0.  1.
       -5    1    3    3    0  502 -0.30311394499E+03  0.27457195870E+03  0.96869009296E+03  0.10514991252E+04  0.46999998093E+01 0. -1.
</event>
<event>
 5   0  0.3932568E-04  0.1398392E+04  0.7818609E-02  0.8954984E-01
       -2   -1    0    0    0  501  0.00000000000E+00  0.00000000000E+00  0.14320367612E+04  0.14320367612E+04  0.25500000920E-02 0.  1.
        2   -1    0    0  501    0  0.00000000000E+00  0.00000000000E+00 -0.34138422665E+03  0.34138422666E+03  0.25500000920E-02 0. -1.
    10030    2    1    2    0    0  0.00000000000E+00  0.00000000000E+00  0.10906525346E+04  0.17734209879E+04  0.13983915936E+04 0.  0.
        2    1    3    3  502    0  0.24814351289E+03 -0.26658142067E+03 -0.21159492609E+03  0.42120454602E+03  0.25500000920E-02 0. -1.
       -2    1    3    3    0  502 -0.24814351289E+03  0.26658142067E+03  0.13022474606E+04  0.13522164418E+04  0.25500000920E-02 0.  1.
</event>
<event>
 5   0  0.1497625E-04  0.1412346E+04  0.7818609E-02  0.8944930E-01
        3   -1    0    0  501    0  0.00000000000E+00  0.00000000000E+00  0.34711362868E+03  0.34711364337E+03  0.10100000352E+00 0. -1.
       -3   -1    0    0    0  501  0.00000000000E+00  0.00000000000E+00 -0.14366481802E+04  0.14366481837E+04  0.10100000352E+00 0.  1.
    10030    2    1    2    0    0  0.00000000000E+00  0.00000000000E+00 -0.10895345515E+04  0.17837618271E+04  0.14123458206E+04 0.  0.
        1    1    3    3  502    0 -0.20709776427E+03 -0.27373250801E+03  0.23466643924E+03  0.41579719532E+03  0.50400001928E-02 0. -1.
       -1    1    3    3    0  502  0.20709776427E+03  0.27373250801E+03 -0.13242009907E+04  0.13679646318E+04  0.50400001928E-02 0.  1.
</event>
<event>
 5   0  0.2223112E-04  0.1405349E+04  0.7818609E-02  0.8949956E-01
        1   -1    0    0  501    0  0.00000000000E+00  0.00000000000E+00  0.74578479599E+03  0.74578479601E+03  0.50400001928E-02 0.  1.
       -1   -1    0    0    0  501  0.00000000000E+00  0.00000000000E+00 -0.66205600179E+03  0.66205600181E+03  0.50400001928E-02 0. -1.
    10030    2    1    2    0    0  0.00000000000E+00  0.00000000000E+00  0.83728794203E+02  0.14078407978E+04  0.14053487827E+04 0.  0.
        1    1    3    3  502    0 -0.95300781301E+02  0.32312250584E+03  0.65961085635E+03  0.74065975625E+03  0.50400001928E-02 0.  1.
       -1    1    3    3    0  502  0.95300781301E+02 -0.32312250584E+03 -0.57588206215E+03  0.66718104156E+03  0.50400001928E-02 0. -1.
</event>
<event>
 5   0  0.3932568E-04  0.1376423E+04  0.7818609E-02  0.8971064E-01
        2   -1    0    0  501    0  0.00000000000E+00  0.00000000000E+00  0.10999356280E+04  0.10999356280E+04  0.25500000920E-02 0. -1.
       -2   -1    0    0    0  501  0.00000000000E+00  0.00000000000E+00 -0.43060227395E+03  0.43060227396E+03  0.25500000920E-02 0.  1.
    10030    2    1    2    0    0  0.00000000000E+00  0.00000000000E+00  0.66933335406E+03  0.15305379020E+04  0.13764225843E+04 0.  0.
        2    1    3    3  502    0 -0.22752073667E+03  0.59563949870E+03  0.46663342445E+02  0.63931961143E+03  0.25500000920E-02 0.  1.
       -2    1    3    3    0  502  0.22752073667E+03 -0.59563949870E+03  0.62267001161E+03  0.89121829054E+03  0.25500000920E-02 0. -1.
</event>
<event>
 5   0  0.2155352E-04  0.1400180E+04  0.7818609E-02  0.8953689E-01
        1   -1    0    0  501    0  0.00000000000E+00  0.00000000000E+00  0.68576728045E+03  0.68576728047E+03  0.50400001928E-02 0. -1.
       -1   -1    0    0    0  501  0.00000000000E+00  0.00000000000E+00 -0.71471134981E+03  0.71471134982E+03  0.50400001928E-02 0.  1.
    10030    2    1    2    0    0  0.00000000000E+00  0.00000000000E+00 -0.28944069355E+02  0.14004786303E+04  0.14001795009E+04 0.  0.
        2    1    3    3  502    0 -0.36028859238E+03 -0.15138479113E+03  0.56651386134E+03  0.68823192303E+03  0.25500000920E-02 0. -1.
       -2    1    3    3    0  502  0.36028859238E+03  0.15138479113E+03 -0.59545793069E+03  0.71224670727E+03  0.25500000920E-02 0.  1.
</event>
<event>
 5   0  0.2155352E-04  0.1391924E+04  0.7818609E-02  0.8959685E-01
        1   -1    0    0  501    0  0.00000000000E+00  0.00000000000E+00  0.72915242717E+03  0.72915242718E+03  0.50400001928E-02 0. -1.
       -1   -1    0    0    0  501  0.00000000000E+00  0.00000000000E+00 -0.66428260718E+03  0.66428260720E+03  0.50400001928E-02 0.  1.
    10030    2    1    2    0    0  0.00000000000E+00  0.00000000000E+00  0.64869819985E+02  0.13934350344E+04  0.13919242442E+04 0.  0.
        2    1    3    3  502    0  0.57987848053E+03  0.22580795922E+01  0.41768910061E+03  0.71465259804E+03  0.25500000920E-02 0. -1.
       -2    1    3    3    0  502 -0.57987848053E+03 -0.22580795922E+01 -0.35281928063E+03  0.67878243635E+03  0.25500000920E-02 0.  1.
</event>
<event>
 5   0  0.2143942E-04  0.1402291E+04  0.7818609E-02  0.8952162E-01
       -1   -1    0    0    0  501  0.00000000000E+00  0.00000000000E+00  0.64995566643E+03  0.64995566645E+03  0.50400001928E-02 0.  1.
        1   -1    0    0  501    0  0.00000000000E+00  0.00000000000E+00 -0.75636722536E+03  0.75636722538E+03  0.50400001928E-02 0. -1.
    10030    2    1    2    0    0  0.00000000000E+00  0.00000000000E+00 -0.10641155893E+03  0.14063228918E+04  0.14022912166E+04 0.  0.
        4    1    3    3  502    0 -0.36840945985E+03  0.59460621329E+03 -0.10152596268E+03  0.70681766601E+03  0.12699999809E+01 0. -1.
       -4    1    3    3    0  502  0.36840945985E+03 -0.59460621329E+03 -0.48855962432E+01  0.69950522581E+03  0.12699999809E+01 0.  1.
</event>
<event>
 5   0  0.2143942E-04  0.1400658E+04  0.7818609E-02  0.8953342E-01
       -1   -1    0    0    0  501  0.00000000000E+00  0.00000000000E+00  0.39019955928E+03  0.39019955931E+03  0.50400001928E-02 0.  1.
        1   -1    0    0  501    0  0.00000000000E+00  0.00000000000E+00 -0.12569482498E+04  0.12569482498E+04  0.50400001928E-02 0. -1.
    10030    2    1    2    0    0  0.00000000000E+00  0.00000000000E+00 -0.86674869051E+03  0.16471478091E+04  0.14006579213E+04 0.  0.
        4    1    3    3  502    0  0.30268828294E+03  0.12139826861E+03 -0.11621995478E+04  0.12070903603E+04  0.12699999809E+01 0. -1.
       -4    1    3    3    0  502 -0.30268828294E+03 -0.12139826861E+03  0.29545085727E+03  0.44005744877E+03  0.12699999809E+01 0.  1.
</event>
<event>
 5   0  0.2217251E-04  0.1403914E+04  0.7818609E-02  0.8950991E-01
        1   -1    0    0  501    0  0.00000000000E+00  0.00000000000E+00  0.12922679582E+04  0.12922679582E+04  0.50400001928E-02 0.  1.
       -1   -1    0    0    0  501  0.00000000000E+00  0.00000000000E+00 -0.38130118947E+03  0.38130118950E+03  0.50400001928E-02 0. -1.
    10030    2    1    2    0    0  0.00000000000E+00  0.00000000000E+00  0.91096676872E+03  0.16735691477E+04  0.14039135438E+04 0.  0.
        5    1    3    3  502    0 -0.54283385822E+03  0.35174809879E+03  0.13049085586E+03  0.65988277451E+03  0.46999998093E+01 0. -1.
       -5    1    3    3    0  502  0.54283385822E+03 -0.35174809879E+03  0.78047591285E+03  0.10136863732E+04  0.46999998093E+01 0.  1.
</event>
<event>
 5   0  0.2215876E-04  0.1434745E+04  0.7818609E-02  0.8929046E-01
       -1   -1    0    0    0  501  0.00000000000E+00  0.00000000000E+00  0.31270634712E+03  0.31270634716E+03  0.50400001928E-02 0.  1.
        1   -1    0    0  501    0  0.00000000000E+00  0.00000000000E+00 -0.16457071231E+04  0.16457071231E+04  0.50400001928E-02 0. -1.
    10030    2    1    2    0    0  0.00000000000E+00  0.00000000000E+00 -0.13330007760E+04  0.19584134702E+04  0.14347446643E+04 0.  0.
        3    1    3    3  502    0 -0.63722886330E+03  0.28584459491E+03 -0.89018944652E+03  0.11314614521E+04  0.10100000352E+00 0. -1.
       -3    1    3    3    0  502  0.63722886330E+03 -0.28584459491E+03 -0.44281132944E+03  0.82695201816E+03  0.10100000352E+00 0.  1.
</event>
<event>
 5   0  0.3975164E-04  0.1399186E+04  0.7818609E-02  0.8954408E-01
       -2   -1    0    0    0  501  0.00000000000E+00  0.00000000000E+00  0.50030678380E+03  0.50030678381E+03  0.25500000920E-02 0. -1.
        2   -1    0    0  501    0  0.00000000000E+00  0.00000000000E+00 -0.97826009010E+03  0.97826009010E+03  0.25500000920E-02 0.  1.
    10030    2    1    2    0    0  0.00000000000E+00  0.00000000000E+00 -0.47795330630E+03  0.14785668739E+04  0.13991857052E+04 0.  0.
        5    1    3    3  502    0 -0.64622594109E+03  0.23122431855E+03 -0.95886085056E+02  0.69302877555E+03  0.46999998093E+01 0. -1.
       -5    1    3    3    0  502  0.64622594109E+03 -0.23122431855E+03 -0.38206722124E+03  0.78553809836E+03  0.46999998093E+01 0.  1.
</event>
<event>
 5   0  0.2217251E-04  0.1479595E+04  0.7818609E-02  0.8898137E-01
        1   -1    0    0  501    0  0.00000000000E+00  0.00000000000E+00  0.10472833457E+04  0.10472833457E+04  0.50400001928E-02 0.  1.
       -1   -1    0    0    0  501  0.00000000000E+00  0.00000000000E+00 -0.52259041733E+03  0.52259041735E+03  0.50400001928E-02 0. -1.
    10030    2    1    2    0    0  0.00000000000E+00  0.00000000000E+00  0.52469292836E+03  0.15698737631E+04  0.14795948644E+04 0.  0.
        5    1    3    3  502    0 -0.21811768950E+03 -0.49207113714E+03  0.80082520300E+03  0.96491057940E+03  0.46999998093E+01 0.  1.
       -5    1    3    3    0  502  0.21811768950E+03  0.49207113714E+03 -0.27613227464E+03  0.60496318366E+03  0.46999998093E+01 0. -1.
</event>
<event>
 5   0  0.4310348E-04  0.1401280E+04  0.7818609E-02  0.8952893E-01
        2   -1    0    0  501    0  0.00000000000E+00  0.00000000000E+00  0.10983062206E+04  0.10983062206E+04  0.25500000920E-02 0.  1.
       -2   -1    0    0    0  501  0.00000000000E+00  0.00000000000E+00 -0.44695771758E+03  0.44695771759E+03  0.25500000920E-02 0. -1.
    10030    2    1    2    0    0  0.00000000000E+00  0.00000000000E+00  0.65134850302E+03  0.15452639382E+04  0.14012800456E+04 0.  0.
        1    1    3    3  502    0  0.44256335236E+03 -0.99835138803E+02  0.91445181862E+03  0.10208092400E+04  0.50400001928E-02 0.  1.
       -1    1    3    3    0  502 -0.44256335236E+03  0.99835138803E+02 -0.26310331560E+03  0.52445469823E+03  0.50400001928E-02 0. -1.
</event>
<event>
 5   0  0.2215876E-04  0.1447999E+04  0.7818609E-02  0.8919789E-01
       -1   -1    0    0    0  501  0.00000000000E+00  0.00000000000E+00  0.75554536026E+03  0.75554536028E+03  0.50400001928E-02 0. -1.
        1   -1    0    0  501    0  0.00000000000E+00  0.00000000000E+00 -0.69377060700E+03  0.69377060702E+03  0.50400001928E-02 0.  1.
    10030    2    1    2    0    0  0.00000000000E+00  0.00000000000E+00  0.61774753259E+02  0.14493159673E+04  0.14479988442E+04 0.  0.
        3    1    3    3  502    0 -0.65285455033E+03 -0.19424598142E+03 -0.21474283361E+03  0.71418839250E+03  0.10100000352E+00 0.  1.
       -3    1    3    3    0  502  0.65285455033E+03  0.19424598142E+03  0.27651758687E+03  0.73512757480E+03  0.10100000352E+00 0. -1.
</event>
<event>
 5   0  0.2143942E-04  0.1399524E+04  0.7818609E-02  0.8954163E-01
        1   -1    0    0  501    0  0.00000000000E+00  0.00000000000E+00  0.95774503896E+03  0.95774503897E+03  0.50400001928E-02 0. -1.
       -1   -1    0    0    0  501  0.00000000000E+00  0.00000000000E+00 -0.51127069147E+03  0.51127069150E+03  0.50400001928E-02 0.  1.
    10030    2    1    2    0    0  0.00000000000E+00  0.00000000000E+00  0.44647434749E+03  0.14690157305E+04  0.13995241596E+04 0.  0.
        4    1    3    3  502    0  0.28508551781E+03  0.58343760211E+03 -0.50463262209E+02  0.65132276312E+03  0.12699999809E+01 0.  1.
       -4    1    3    3    0  502 -0.28508551781E+03 -0.58343760211E+03  0.49693760969E+03  0.81769296735E+03  0.12699999809E+01 0. -1.
</event>
<event>
 5   0  0.4310348E-04  0.1397516E+04  0.7818609E-02  0.8955619E-01
        2   -1    0    0  501    0  0.00000000000E+00  0.00000000000E+00  0.14225969021E+04  0.14225969021E+04  0.25500000920E-02 0.  1.
       -2   -1    0    0    0  501  0.00000000000E+00  0.00000000000E+00 -0.34321927019E+03  0.34321927020E+03  0.25500000920E-02 0. -1.
    10030    2    1    2    0    0  0.00000000000E+00  0.00000000000E+00  0.10793776319E+04  0.17658161723E+04  0.13975158969E+04 0.  0.
        1    1    3    3  502    0 -0.14540613799E+03 -0.67431995569E+03  0.68046048688E+03  0.96895656344E+03  0.50400001928E-02 0. -1.
       -1    1    3    3    0  502  0.14540613799E+03  0.67431995569E+03  0.39891714502E+03  0.79685960885E+03  0.50400001928E-02 0.  1.
</event>
<event>
 5   0  0.3975164E-04  0.1397842E+04  0.7818609E-02  0.8955382E-01
       -2   -1    0    0    0  501  0.00000000000E+00  0.00000000000E+00  0.26765747374E+03  0.26765747376E+03  0.25500000920E-02 0.  1.
        2   -1    0    0  501    0  0.00000000000E+00  0.00000000000E+00 -0.18250590532E+04  0.18250590532E+04  0.25500000920E-02 0. -1.
    10030    2    1    2    0    0  0.00000000000E+00  0.00000000000E+00 -0.15574015795E+04  0.20927165270E+04  0.13978421880E+04 0.  0.
        5    1    3    3  502    0  0.18436584117E+02 -0.10146165391E+03  0.25618134451E+03  0.27619801977E+03  0.46999998093E+01 0.  1.
       -5    1    3    3    0  502 -0.18436584117E+02  0.10146165391E+03 -0.18135829240E+04  0.18165185072E+04  0.46999998093E+01 0. -1.
</event>
<event>
 5   0  0.4310348E-04  0.1397999E+04  0.7818609E-02  0.8955268E-01
       -2   -1    0    0    0  501  0.00000000000E+00  0.00000000000E+00  0.14577874319E+04  0.14577874319E+04  0.25500000920E-02 0.  1.
        2   -1    0    0  501    0  0.00000000000E+00  0.00000000000E+00 -0.33516581450E+03  0.33516581451E+03  0.25500000920E-02 0. -1.
    10030    2    1    2    0    0  0.00000000000E+00  0.00000000000E+00  0.11226216174E+04  0.17929532464E+04  0.13979993018E+04 0.  0.
        1    1    3    3  502    0  0.51787147490E+03 -0.14388669210E+03 -0.11825414591E+02  0.53761890325E+03  0.50400001928E-02 0. -1.
       -1    1    3    3    0  502 -0.51787147490E+03  0.14388669210E+03  0.11344470320E+04  0.12553343432E+04  0.50400001928E-02 0.  1.
</event>
<event>
 5   0  0.3917598E-04  0.1401541E+04  0.7818609E-02  0.8952704E-01
        2   -1    0    0  501    0  0.00000000000E+00  0.00000000000E+00  0.78055982975E+03  0.78055982975E+03  0.25500000920E-02 0. -1.
       -2   -1    0    0    0  501  0.00000000000E+00  0.00000000000E+00 -0.62913690749E+03  0.62913690749E+03  0.25500000920E-02 0.  1.
    10030    2    1    2    0    0  0.00000000000E+00  0.00000000000E+00  0.15142292226E+03  0.14096967372E+04  0.14015405772E+04 0.  0.
        3    1    3    3  502    0  0.33675470039E+03 -0.18335462924E+03  0.66568807983E+03  0.76822085244E+03  0.10100000352E+00 0. -1.
       -3    1    3    3    0  502 -0.33675470039E+03  0.18335462924E+03 -0.51426515757E+03  0.64147588481E+03  0.10100000352E+00 0.  1.
</event>
<event>
 5   0  0.3932568E-04  0.1398972E+04  0.7818609E-02  0.8954563E-01
        2   -1    0    0  501    0  0.00000000000E+00  0.00000000000E+00  0.10734640211E+04  0.10734640211E+04  0.25500000920E-02 0.  1.
       -2   -1    0    0    0  501  0.00000000000E+00  0.00000000000E+00 -0.45579602691E+03  0.45579602692E+03  0.25500000920E-02 0. -1.
    10030    2    1    2    0    0  0.00000000000E+00  0.00000000000E+00  0.61766799419E+03  0.15292600480E+04  0.13989719595E+04 0.  0.
        2    1    3    3  502    0 -0.41079381788E+03 -0.70062746975E+02 -0.30528818993E+03  0.51658612857E+03  0.25500000920E-02 0. -1.
       -2    1    3    3    0  502  0.41079381788E+03  0.70062746975E+02  0.92295618411E+03  0.10126739194E+04  0.25500000920E-02 0.  1.
</event>
<event>
 5   0  0.4310348E-04  0.1399253E+04  0.7818609E-02  0.8954359E-01
        2   -1    0    0  501    0  0.00000000000E+00  0.00000000000E+00  0.37438214414E+03  0.37438214414E+03  0.25500000920E-02 0.  1.
       -2   -1    0    0    0  501  0.00000000000E+00  0.00000000000E+00 -0.13074270658E+04  0.13074270658E+04  0.25500000920E-02 0. -1.
    10030    2    1    2    0    0  0.00000000000E+00  0.00000000000E+00 -0.93304492165E+03  0.16818092099E+04  0.13992531554E+04 0.  0.
        1    1    3    3  502    0 -0.50767234323E+03  0.27542090322E+02 -0.10441857113E+04  0.11613843355E+04  0.50400001928E-02 0. -1.
       -1    1    3    3    0  502  0.50767234323E+03 -0.27542090322E+02  0.11114078970E+03  0.52042487448E+03  0.50400001928E-02 0.  1.
</event>
<event>
 5   0  0.2217251E-04  0.1404521E+04  0.7818609E-02  0.8950552E-01
        1   -1    0    0  501    0  0.00000000000E+00  0.00000000000E+00  0.42670070380E+03  0.42670070383E+03  0.50400001928E-02 0. -1.
       -1   -1    0    0    0  501  0.00000000000E+00  0.00000000000E+00 -0.11557751583E+04  0.11557751583E+04  0.50400001928E-02 0.  1.
    10030    2    1    2    0    0  0.00000000000E+00  0.00000000000E+00 -0.72907445453E+03  0.15824758622E+04  0.14045213754E+04 0.  0.
        5    1    3    3  502    0  0.27654451818E+03 -0.44767295674E+03  0.15942125746E+03  0.54984104436E+03  0.46999998093E+01 0. -1.
       -5    1    3    3    0  502 -0.27654451818E+03  0.44767295674E+03 -0.88849571199E+03  0.10326348178E+04  0.46999998093E+01 0.  1.
</event>
<event>
 5   0  0.2217251E-04  0.1404803E+04  0.7818609E-02  0.8950349E-01
       -1   -1    0    0    0  501  0.00000000000E+00  0.00000000000E+00  0.49180624721E+03  0.49180624724E+03  0.50400001928E-02 0. -1.
        1   -1    0    0  501    0  0.00000000000E+00  0.00000000000E+00 -0.10031758403E+04  0.10031758403E+04  0.50400001928E-02 0.  1.
    10030    2    1    2    0    0  0.00000000000E+00  0.00000000000E+00 -0.51136959305E+03  0.14949820875E+04  0.14048033959E+04 0.  0.
        5    1    3    3  502    0  0.18252853681E+02 -0.60492183078E+03  0.12368544380E+03  0.61772466927E+03  0.46999998093E+01 0. -1.
       -5    1    3    3    0  502 -0.18252853681E+02  0.60492183078E+03 -0.63505503685E+03  0.87725741823E+03  0.46999998093E+01 0.  1.
</event>
<event>
 5   0  0.3932568E-04  0.1390832E+04  0.7818609E-02  0.8960482E-01
       -2   -1    0    0    0  501  0.00000000000E+00  0.00000000000E+00  0.18674675518E+03  0.18674675520E+03  0.25500000920E-02 0. -1.
        2   -1    0    0  501    0  0.00000000000E+00  0.00000000000E+00 -0.25896208707E+04  0.25896208707E+04  0.25500000920E-02 0.  1.
    10030    2    1    2    0    0  0.00000000000E+00  0.00000000000E+00 -0.24028741155E+04  0.27763676259E+04  0.13908318299E+04 0.  0.
        2    1    3    3  502    0  0.56299691902E+03  0.61213127019E+02 -0.39577943982E+03  0.69090805664E+03  0.25500000920E-02 0. -1.
       -2    1    3    3    0  502 -0.56299691902E+03 -0.61213127019E+02 -0.20070946757E+04  0.20854595693E+04  0.25500000920E-02 0.  1.
</event>
<event>
 5   0  0.2215876E-04  0.1401879E+04  0.7818609E-02  0.8952459E-01
        1   -1    0    0  501    0  0.00000000000E+00  0.00000000000E+00  0.56197428100E+03  0.56197428103E+03  0.50400001928E-02 0.  1.
       -1   -1    0    0    0  501  0.00000000000E+00  0.00000000000E+00 -0.87426855898E+03  0.87426855899E+03  0.50400001928E-02 0. -1.
    10030    2    1    2    0    0  0.00000000000E+00  0.00000000000E+00 -0.31229427798E+03  0.14362428400E+04  0.14018793741E+04 0.  0.
        3    1    3    3  502    0  0.86579002435E+02  0.59980425804E+03  0.20470144271E+03  0.63965909864E+03  0.10100000352E+00 0.  1.
       -3    1    3    3    0  502 -0.86579002435E+02 -0.59980425804E+03 -0.51699572068E+03  0.79658374138E+03  0.10100000352E+00 0. -1.
</event>
<event>
 5   0  0.2217251E-04  0.1393323E+04  0.7818609E-02  0.8958666E-01
        1   -1    0    0  501    0  0.00000000000E+00  0.00000000000E+00  0.56802006071E+03  0.56802006073E+03  0.50400001928E-02 0.  1.
       -1   -1    0    0    0  501  0.00000000000E+00  0.00000000000E+00 -0.85443704565E+03  0.85443704566E+03  0.50400001928E-02 0. -1.
    10030    2    1    2    0    0  0.00000000000E+00  0.00000000000E+00 -0.28641698494E+03  0.14224571064E+04  0.13933231966E+04 0.  0.
        5    1    3    3  502    0  0.14461576590E+03  0.61775048013E+03  0.15053316696E+03  0.65208258664E+03  0.46999998093E+01 0.  1.
       -5    1    3    3    0  502 -0.14461576590E+03 -0.61775048013E+03 -0.43695015190E+03  0.77037451975E+03  0.46999998093E+01 0. -1.
</event>
<event>
 5   0  0.1497625E-04  0.1407557E+04  0.7818609E-02  0.8948367E-01
        4   -1    0    0  501    0  0.00000000000E+00  0.00000000000E+00  0.51784410425E+03  0.51784566156E+03  0.12699999809E+01 0. -1.
       -4   -1    0    0    0  501  0.00000000000E+00  0.00000000000E+00 -0.95646943724E+03  0.95647028039E+03  0.12699999809E+01 0.  1.
    10030    2    1    2    0    0  0.00000000000E+00  0.00000000000E+00 -0.43862533299E+03  0.14743159420E+04  0.14075565047E+04 0.  0.
        3    1    3    3  502    0 -0.27785571078E+02 -0.26114650067E+03 -0.90322408289E+03  0.94062919734E+03  0.10100000352E+00 0.  1.
       -3    1    3    3    0  502  0.27785571078E+02  0.26114650067E+03  0.46459874990E+03  0.53368674462E+03  0.10100000352E+00 0. -1.
</event>
<event>
 5   0  0.3917598E-04  0.1397555E+04  0.7818609E-02  0.8955590E-01
       -2   -1    0    0    0  501  0.00000000000E+00  0.00000000000E+00  0.59673568540E+03  0.59673568541E+03  0.25500000920E-02 0.  1.
        2   -1    0    0  501    0  0.00000000000E+00  0.00000000000E+00 -0.81826879493E+03  0.81826879493E+03  0.25500000920E-02 0. -1.
    10030    2    1    2    0    0  0.00000000000E+00  0.00000000000E+00 -0.22153310953E+03  0.14150044803E+04  0.13975552800E+04 0.  0.
        3    1    3    3  502    0  0.63771209443E+03  0.12144901488E+03 -0.37257503038E+03  0.74849097661E+03  0.10100000352E+00 0. -1.
       -3    1    3    3    0  502 -0.63771209443E+03 -0.12144901488E+03  0.15104192085E+03  0.66651350373E+03  0.10100000352E+00 0.  1.
</event>
<event>
 5   0  0.2217251E-04  0.1409161E+04  0.7818609E-02  0.8947214E-01
        1   -1    0    0  501    0  0.00000000000E+00  0.00000000000E+00  0.93955531269E+03  0.93955531271E+03  0.50400001928E-02 0. -1.
       -1   -1    0    0    0  501  0.00000000000E+00  0.00000000000E+00 -0.52837054290E+03  0.52837054293E+03  0.50400001928E-02 0.  1.
    10030    2    1    2    0    0  0.00000000000E+00  0.00000000000E+00  0.41118476979E+03  0.14679258556E+04  0.14091605312E+04 0.  0.
        5    1    3    3  502    0  0.40437660066E+03 -0.57462913861E+03  0.25964237050E+03  0.74910301872E+03  0.46999998093E+01 0. -1.
       -5    1    3    3    0  502 -0.40437660066E+03  0.57462913861E+03  0.15154239929E+03  0.71882283692E+03  0.46999998093E+01 0.  1.
</event>
<event>
 5   0  0.3932568E-04  0.1399807E+04  0.7818609E-02  0.8953958E-01
        2   -1    0    0  501    0  0.00000000000E+00  0.00000000000E+00  0.78487849816E+03  0.78487849817E+03  0.25500000920E-02 0.  1.
       -2   -1    0    0    0  501  0.00000000000E+00  0.00000000000E+00 -0.62412815604E+03  0.62412815605E+03  0.25500000920E-02 0. -1.
    10030    2    1    2    0    0  0.00000000000E+00  0.00000000000E+00  0.16075034212E+03  0.14090066542E+04  0.13998068006E+04 0.  0.
        2    1    3    3  502    0  0.19535658579E+03 -0.67190202906E+03  0.64516067162E+02  0.70269399827E+03  0.25500000920E-02 0.  1.
       -2    1    3    3    0  502 -0.19535658579E+03  0.67190202906E+03  0.96234274958E+02  0.70631265595E+03  0.25500000920E-02 0. -1.
</event>
<event>
 5   0  0.2223112E-04  0.1407714E+04  0.7818609E-02  0.8948254E-01
        1   -1    0    0  501    0  0.00000000000E+00  0.00000000000E+00  0.10097663208E+04  0.10097663208E+04  0.50400001928E-02 0.  1.
       -1   -1    0    0    0  501  0.00000000000E+00  0.00000000000E+00 -0.49062292570E+03  0.49062292573E+03  0.50400001928E-02 0. -1.
    10030    2    1    2    0    0  0.00000000000E+00  0.00000000000E+00  0.51914339506E+03  0.15003892465E+04  0.14077137587E+04 0.  0.
        1    1    3    3  502    0  0.50831864090E+03 -0.39419236819E+03  0.56410762762E+03  0.85556582411E+03  0.50400001928E-02 0. -1.
       -1    1    3    3    0  502 -0.50831864090E+03  0.39419236819E+03 -0.44964232564E+02  0.64482342238E+03  0.50400001928E-02 0.  1.
</event>
<event>
 5   0  0.1497625E-04  0.1404410E+04  0.7818609E-02  0.8950632E-01
        3   -1    0    0  501    0  0.00000000000E+00  0.00000000000E+00  0.30941555839E+03  0.30941557487E+03  0.10100000352E+00 0. -1.
       -3   -1    0    0    0  501  0.00000000000E+00  0.00000000000E+00 -0.15936240356E+04  0.15936240388E+04  0.10100000352E+00 0.  1.
    10030    2    1    2    0    0  0.00000000000E+00  0.00000000000E+00 -0.12842084772E+04  0.19030396136E+04  0.14044103240E+04 0.  0.
        5    1    3    3  502    0  0.10763697988E+03  0.47624844815E+02 -0.15801403120E+04  0.15845249575E+04  0.46999998093E+01 0.  1.
       -5    1    3    3    0  502 -0.10763697988E+03 -0.47624844815E+02  0.29593183486E+03  0.31851465612E+03  0.46999998093E+01 0. -1.
</event>
<event>
 5   0  0.3917598E-04  0.1398932E+04  0.7818609E-02  0.8954592E-01
       -2   -1    0    0    0  501  0.00000000000E+00  0.00000000000E+00  0.46551825515E+03  0.46551825516E+03  0.25500000920E-02 0. -1.
        2   -1    0    0  501    0  0.00000000000E+00  0.00000000000E+00 -0.10509848408E+04  0.10509848408E+04  0.25500000920E-02 0.  1.
    10030    2    1    2    0    0  0.00000000000E+00  0.00000000000E+00 -0.58546658561E+03  0.15165030959E+04  0.13989319201E+04 0.  0.
        3    1    3    3  502    0 -0.49750964750E+03 -0.21276556984E+03  0.18776535689E+03  0.57274852817E+03  0.10100000352E+00 0. -1.
       -3    1    3    3    0  502  0.49750964750E+03  0.21276556984E+03 -0.77323194250E+03  0.94375456776E+03  0.10100000352E+00 0.  1.
</event>
<event>
 5   0  0.2155352E-04  0.1400917E+04  0.7818609E-02  0.8953155E-01
       -1   -1    0    0    0  501  0.00000000000E+00  0.00000000000E+00  0.93208399837E+03  0.93208399838E+03  0.50400001928E-02 0.  1.
        1   -1    0    0  501    0  0.00000000000E+00  0.00000000000E+00 -0.52639280985E+03  0.52639280988E+03  0.50400001928E-02 0. -1.
    10030    2    1    2    0    0  0.00000000000E+00  0.00000000000E+00  0.40569118851E+03  0.14584768083E+04  0.14009172923E+04 0.  0.
        2    1    3    3  502    0  0.34799044999E+03  0.19267745159E+03 -0.39740256954E+03  0.56227284829E+03  0.25500000920E-02 0. -1.
       -2    1    3    3    0  502 -0.34799044999E+03 -0.19267745159E+03  0.80309375805E+03  0.89620395997E+03  0.25500000920E-02 0.  1.
</event>
<event>
 5   0  0.2215876E-04  0.1401823E+04  0.7818609E-02  0.8952500E-01
       -1   -1    0    0    0  501  0.00000000000E+00  0.00000000000E+00  0.25234431359E+03  0.25234431364E+03  0.50400001928E-02 0.  1.
        1   -1    0    0  501    0  0.00000000000E+00  0.00000000000E+00 -0.19468528672E+04  0.19468528672E+04  0.50400001928E-02 0. -1.
    10030    2    1    2    0    0  0.00000000000E+00  0.00000000000E+00 -0.16945085536E+04  0.21991971808E+04  0.14018234561E+04 0.  0.
        3    1    3    3  502    0 -0.15685072815E+03  0.11552533106E+03  0.20902216206E+03  0.28572456575E+03  0.10100000352E+00 0.  1.
       -3    1    3    3    0  502  0.15685072815E+03 -0.11552533106E+03 -0.19035307157E+04  0.19134726151E+04  0.10100000352E+00 0. -1.
</event>
<event>
 5   0  0.2217251E-04  0.1394946E+04  0.7818609E-02  0.8957485E-01
       -1   -1    0    0    0  501  0.00000000000E+00  0.00000000000E+00  0.48894436576E+03  0.48894436578E+03  0.50400001928E-02 0. -1.
        1   -1    0    0  501    0  0.00000000000E+00  0.00000000000E+00 -0.99493664707E+03  0.99493664708E+03  0.50400001928E-02 0.  1.
    10030    2    1    2    0    0  0.00000000000E+00  0.00000000000E+00 -0.50599228131E+03  0.14838810129E+04  0.13949461178E+04 0.  0.
        5    1    3    3  502    0 -0.65182718948E+03 -0.22971372747E+03 -0.15320992476E+03  0.70791415622E+03  0.46999998093E+01 0.  1.
       -5    1    3    3    0  502  0.65182718948E+03  0.22971372747E+03 -0.35278235655E+03  0.77596685665E+03  0.46999998093E+01 0. -1.
</event>
<event>
 5   0  0.2155352E-04  0.1402140E+04  0.7818609E-02  0.8952271E-01
        1   -1    0    0  501    0  0.00000000000E+00  0.00000000000E+00  0.12263312125E+04  0.12263312125E+04  0.50400001928E-02 0.  1.
       -1   -1    0    0    0  501  0.00000000000E+00  0.00000000000E+00 -0.40078845226E+03  0.40078845229E+03  0.50400001928E-02 0. -1.
    10030    2    1    2    0    0  0.00000000000E+00  0.00000000000E+00  0.82554276023E+03  0.16271196648E+04  0.14021403477E+04 0.  0.
        2    1    3    3  502    0 -0.29932272000E+02  0.29996800067E+03 -0.32173530836E+03  0.44089721136E+03  0.25500000920E-02 0. -1.
       -2    1    3    3    0  502  0.29932272000E+02 -0.29996800067E+03  0.11472780686E+04  0.11862224534E+04  0.25500000920E-02 0.  1.
</event>
<event>
 5   0  0.4208622E-04  0.1396146E+04  0.7818609E-02  0.8956613E-01
        2   -1    0    0  501    0  0.00000000000E+00  0.00000000000E+00  0.10000516298E+04  0.10000516298E+04  0.25500000920E-02 0.  1.
       -2   -1    0    0    0  501  0.00000000000E+00  0.00000000000E+00 -0.48728109741E+03  0.48728109741E+03  0.25500000920E-02 0. -1.
    10030    2    1    2    0    0  0.00000000000E+00  0.00000000000E+00  0.51277053240E+03  0.14873327272E+04  0.13961464904E+04 0.  0.
        4    1    3    3  502    0  0.67952371343E+03 -0.81328477387E+02  0.40298811754E+03  0.79420893607E+03  0.12699999809E+01 0.  1.
       -4    1    3    3    0  502 -0.67952371343E+03  0.81328477387E+02  0.10978241486E+03  0.69312379115E+03  0.12699999809E+01 0. -1.
</event>
<event>
 5   0  0.2143942E-04  0.1393965E+04  0.7818609E-02  0.8958198E-01
        1   -1    0    0  501    0  0.00000000000E+00  0.00000000000E+00  0.10850042791E+04  0.10850042791E+04  0.50400001928E-02 0.  1.
       -1   -1    0    0    0  501  0.00000000000E+00  0.00000000000E+00 -0.44772613067E+03  0.44772613070E+03  0.50400001928E-02 0. -1.
    10030    2    1    2    0    0  0.00000000000E+00  0.00000000000E+00  0.63727814838E+03  0.15327304098E+04  0.13939652329E+04 0.  0.
        4    1    3    3  502    0  0.61600071614E+03 -0.32463021374E+03  0.35237737888E+03  0.78039290617E+03  0.12699999809E+01 0. -1.
       -4    1    3    3    0  502 -0.61600071614E+03  0.32463021374E+03  0.28490076951E+03  0.75233750360E+03  0.12699999809E+01 0.  1.
</event>
<event>
 5   0  0.2217251E-04  0.1407614E+04  0.7818609E-02  0.8948326E-01
        1   -1    0    0  501    0  0.00000000000E+00  0.00000000000E+00  0.64404177341E+03  0.64404177343E+03  0.50400001928E-02 0.  1.
       -1   -1    0    0    0  501  0.00000000000E+00  0.00000000000E+00 -0.76911788680E+03  0.76911788681E+03  0.50400001928E-02 0. -1.
    10030    2    1    2    0    0  0.00000000000E+00  0.00000000000E+00 -0.12507611339E+03  0.14131596602E+04  0.14076136512E+04 0.  0.
        5    1    3    3  502    0 -0.56687581614E+03 -0.22194049634E+03  0.29200514874E+03  0.67519987539E+03  0.46999998093E+01 0.  1.
       -5    1    3    3    0  502  0.56687581614E+03  0.22194049634E+03 -0.41708126213E+03  0.73795978485E+03  0.46999998093E+01 0. -1.
</event>
<event>
 5   0  0.2155352E-04  0.1396986E+04  0.7818609E-02  0.8956003E-01
       -1   -1    0    0    0  501  0.00000000000E+00  0.00000000000E+00  0.64126583645E+03  0.64126583647E+03  0.50400001928E-02 0.  1.
        1   -1    0    0  501    0  0.00000000000E+00  0.00000000000E+00 -0.76082672991E+03  0.76082672993E+03  0.50400001928E-02 0. -1.
    10030    2    1    2    0    0  0.00000000000E+00  0.00000000000E+00 -0.11956089346E+03  0.14020925664E+04  0.13969855967E+04 0.  0.
        2    1    3    3  502    0  0.24782812527E+03  0.37739575122E+03  0.47512742329E+03  0.65543298748E+03  0.25500000920E-02 0.  1.
       -2    1    3    3    0  502 -0.24782812527E+03 -0.37739575122E+03 -0.59468831675E+03  0.74665957892E+03  0.25500000920E-02 0. -1.
</event>
<event>
 5   0  0.4310348E-04  0.1402003E+04  0.7818609E-02  0.8952370E-01
        2   -1    0    0  501    0  0.00000000000E+00  0.00000000000E+00  0.12192320820E+04  0.12192320820E+04  0.25500000920E-02 0.  1.
       -2   -1    0    0    0  501  0.00000000000E+00  0.00000000000E+00 -0.40304323537E+03  0.40304323537E+03  0.25500000920E-02 0. -1.
    10030    2    1    2    0    0  0.00000000000E+00  0.00000000000E+00  0.81618884665E+03  0.16222753174E+04  0.14020031997E+04 0.  0.
        1    1    3    3  502    0  0.25895368301E+03  0.38929969840E+03 -0.19625951010E+03  0.50707894893E+03  0.50400001928E-02 0. -1.
       -1    1    3    3    0  502 -0.25895368301E+03 -0.38929969840E+03  0.10124483568E+04  0.11151963685E+04  0.50400001928E-02 0.  1.
</event>
<event>
 5   0  0.3917598E-04  0.1407278E+04  0.7818609E-02  0.8948567E-01
       -2   -1    0    0    0  501  0.00000000000E+00  0.00000000000E+00  0.74296007449E+03  0.74296007450E+03  0.25500000920E-02 0. -1.
        2   -1    0    0  501    0  0.00000000000E+00  0.00000000000E+00 -0.66639861320E+03  0.66639861320E+03  0.25500000920E-02 0.  1.
    10030    2    1    2    0    0  0.00000000000E+00  0.00000000000E+00  0.76561461297E+02  0.14093586877E+04  0.14072776035E+04 0.  0.
        3    1    3    3  502    0  0.62154355629E+03 -0.25475751584E+03  0.24808938955E+03  0.71607690904E+03  0.10100000352E+00 0. -1.
       -3    1    3    3    0  502 -0.62154355629E+03  0.25475751584E+03 -0.17152792826E+03  0.69328177866E+03  0.10100000352E+00 0.  1.
</event>
<event>
 5   0  0.3917598E-04  0.1395671E+04  0.7818609E-02  0.8956958E-01
        2   -1    0    0  501    0  0.00000000000E+00  0.00000000000E+00  0.76838373185E+03  0.76838373185E+03  0.25500000920E-02 0.  1.
       -2   -1    0    0    0  501  0.00000000000E+00  0.00000000000E+00 -0.63376429513E+03  0.63376429514E+03  0.25500000920E-02 0. -1.
    10030    2    1    2    0    0  0.00000000000E+00  0.00000000000E+00  0.13461943671E+03  0.14021480270E+04  0.13956706979E+04 0.  0.
        3    1    3    3  502    0 -0.54717776065E+02 -0.66178439195E+03  0.28283167138E+03  0.72176615395E+03  0.10100000352E+00 0.  1.
       -3    1    3    3    0  502  0.54717776065E+02  0.66178439195E+03 -0.14821223467E+03  0.68038187304E+03  0.10100000352E+00 0. -1.
</event>
<event>
 5   0  0.2143942E-04  0.1413143E+04  0.7818609E-02  0.8944359E-01
        1   -1    0    0  501    0  0.00000000000E+00  0.00000000000E+00  0.61111622605E+03  0.61111622608E+03  0.50400001928E-02 0. -1.
       -1   -1    0    0    0  501  0.00000000000E+00  0.00000000000E+00 -0.81693681285E+03  0.81693681286E+03  0.50400001928E-02 0.  1.
    10030    2    1    2    0    0  0.00000000000E+00  0.00000000000E+00 -0.20582058679E+03  0.14280530389E+04  0.14131430812E+04 0.  0.
        4    1    3    3  502    0  0.97719121342E+01  0.12683681904E+03  0.59944706610E+03  0.61279806371E+03  0.12699999809E+01 0. -1.
       -4    1    3    3    0  502 -0.97719121342E+01 -0.12683681904E+03 -0.80526765290E+03  0.81525497523E+03  0.12699999809E+01 0.  1.
</event>
<event>
 5   0  0.4310348E-04  0.1375578E+04  0.7818609E-02  0.8971689E-01
       -2   -1    0    0    0  501  0.00000000000E+00  0.00000000000E+00  0.80174795419E+03  0.80174795419E+03  0.25500000920E-02 0.  1.
        2   -1    0    0  501    0  0.00000000000E+00  0.00000000000E+00 -0.59002780409E+03  0.59002780410E+03  0.25500000920E-02 0. -1.
    10030    2    1    2    0    0  0.00000000000E+00  0.00000000000E+00  0.21172015010E+03  0.13917757583E+04  0.13755778202E+04 0.  0.
        1    1    3    3  502    0  0.53354228293E+03 -0.41597542173E+03 -0.19496670803E+02  0.67681832078E+03  0.50400001928E-02 0. -1.
       -1    1    3    3    0  502 -0.53354228293E+03  0.41597542173E+03  0.23121682090E+03  0.71495743751E+03  0.50400001928E-02 0.  1.
</event>
<event>
 5   0  0.2155352E-04  0.1398724E+04  0.7818609E-02  0.8954743E-01
        1   -1    0    0  501    0  0.00000000000E+00  0.00000000000E+00  0.64804907213E+03  0.64804907215E+03  0.50400001928E-02 0.  1.
       -1   -1    0    0    0  501  0.00000000000E+00  0.00000000000E+00 -0.75473783334E+03  0.75473783336E+03  0.50400001928E-02 0. -1.
    10030    2    1    2    0    0  0.00000000000E+00  0.00000000000E+00 -0.10668876121E+03  0.14027869055E+04  0.13987239222E+04 0.  0.
        2    1    3    3  502    0  0.68235485693E+03 -0.10395711983E+03  0.59641284882E+02  0.69280034383E+03  0.25500000920E-02 0. -1.
       -2    1    3    3    0  502 -0.68235485693E+03  0.10395711983E+03 -0.16633004609E+03  0.70998656169E+03  0.25500000920E-02 0.  1.
</event>
<event>
 5   0  0.2223112E-04  0.1393997E+04  0.7818609E-02  0.8958175E-01
       -1   -1    0    0    0  501  0.00000000000E+00  0.00000000000E+00  0.92409638844E+03  0.92409638846E+03  0.50400001928E-02 0.  1.
        1   -1    0    0  501    0  0.00000000000E+00  0.00000000000E+00 -0.52571050760E+03  0.52571050762E+03  0.50400001928E-02 0. -1.
    10030    2    1    2    0    0  0.00000000000E+00  0.00000000000E+00  0.39838588084E+03  0.14498068961E+04  0.13939973909E+04 0.  0.
        1    1    3    3  502    0 -0.82813862241E+02  0.26097850906E+02 -0.52006363119E+03  0.52726218726E+03  0.50400001928E-02 0. -1.
       -1    1    3    3    0  502  0.82813862241E+02 -0.26097850906E+02  0.91844951203E+03  0.92254470882E+03  0.50400001928E-02 0.  1.
</event>
<event>
 5   0  0.2217251E-04  0.1406059E+04  0.7818609E-02  0.8949445E-01
        1   -1    0    0  501    0  0.00000000000E+00  0.00000000000E+00  0.44937857514E+03  0.44937857517E+03  0.50400001928E-02 0.  1.
       -1   -1    0    0    0  501  0.00000000000E+00  0.00000000000E+00 -0.10998528569E+04  0.10998528569E+04  0.50400001928E-02 0. -1.
    10030    2    1    2    0    0  0.00000000000E+00  0.00000000000E+00 -0.65047428176E+03  0.15492314321E+04  0.14060587608E+04 0.  0.
        5    1    3    3  502    0 -0.33315775731E+03  0.36471196094E+03 -0.87639149611E+03  0.10060283545E+04  0.46999998093E+01 0. -1.
       -5    1    3    3    0  502  0.33315775731E+03 -0.36471196094E+03  0.22591721435E+03  0.54320307754E+03  0.46999998093E+01 0.  1.
</event>
<event>
 5   0  0.3932568E-04  0.1397713E+04  0.7818609E-02  0.8955475E-01
       -2   -1    0    0    0  501  0.00000000000E+00  0.00000000000E+00  0.27384184223E+03  0.27384184225E+03  0.25500000920E-02 0. -1.
        2   -1    0    0  501    0  0.00000000000E+00  0.00000000000E+00 -0.17835138585E+04  0.17835138585E+04  0.25500000920E-02 0.  1.
    10030    2    1    2    0    0  0.00000000000E+00  0.00000000000E+00 -0.15096720163E+04  0.20573557008E+04  0.13977134480E+04 0.  0.
        2    1    3    3  502    0 -0.66771698290E+03 -0.88786690434E+02 -0.10289168328E+04  0.12297962817E+04  0.25500000920E-02 0.  1.
       -2    1    3    3    0  502  0.66771698290E+03  0.88786690434E+02 -0.48075518350E+03  0.82755941909E+03  0.25500000920E-02 0. -1.
</event>
<event>
 5   0  0.4310348E-04  0.1402291E+04  0.7818609E-02  0.8952162E-01
       -2   -1    0    0    0  501  0.00000000000E+00  0.00000000000E+00  0.25046976273E+03  0.25046976275E+03  0.25500000920E-02 0. -1.
        2   -1    0    0  501    0  0.00000000000E+00  0.00000000000E+00 -0.19627325072E+04  0.19627325072E+04  0.25500000920E-02 0.  1.
    10030    2    1    2    0    0  0.00000000000E+00  0.00000000000E+00 -0.17122627444E+04  0.22132022699E+04  0.14022911900E+04 0.  0.
        1    1    3    3  502    0  0.10358616940E+03 -0.12194228064E+03  0.22127180201E+03  0.27305901320E+03  0.50400001928E-02 0. -1.
       -1    1    3    3    0  502 -0.10358616940E+03  0.12194228064E+03 -0.19335345464E+04  0.19401432567E+04  0.50400001928E-02 0.  1.
</event>
<event>
 5   0  0.3975164E-04  0.1400695E+04  0.7818609E-02  0.8953315E-01
        2   -1    0    0  501    0  0.00000000000E+00  0.00000000000E+00  0.88045344746E+03  0.88045344746E+03  0.25500000920E-02 0. -1.
       -2   -1    0    0    0  501  0.00000000000E+00  0.00000000000E+00 -0.55708438940E+03  0.55708438940E+03  0.25500000920E-02 0.  1.
    10030    2    1    2    0    0  0.00000000000E+00  0.00000000000E+00  0.32336905806E+03  0.14375378369E+04  0.14006953576E+04 0.  0.
        5    1    3    3  502    0 -0.55104814822E+03  0.86634894940E+02  0.59626672884E+03  0.81652664905E+03  0.46999998093E+01 0. -1.
       -5    1    3    3    0  502  0.55104814822E+03 -0.86634894940E+02 -0.27289767077E+03  0.62101118782E+03  0.46999998093E+01 0.  1.
</event>
<event>
 5   0  0.1497625E-04  0.1394563E+04  0.7818609E-02  0.8957763E-01
        3   -1    0    0  501    0  0.00000000000E+00  0.00000000000E+00  0.43370758948E+03  0.43370760124E+03  0.10100000352E+00 0.  1.
       -3   -1    0    0    0  501  0.00000000000E+00  0.00000000000E+00 -0.11210357406E+04  0.11210357451E+04  0.10100000352E+00 0. -1.
    10030    2    1    2    0    0  0.00000000000E+00  0.00000000000E+00 -0.68732815110E+03  0.15547433464E+04  0.13945633316E+04 0.  0.
        3    1    3    3  502    0  0.20568016463E+03  0.13623158449E+03  0.38342518383E+03  0.45593668039E+03  0.10100000352E+00 0.  1.
       -3    1    3    3    0  502 -0.20568016463E+03 -0.13623158449E+03 -0.10707533349E+04  0.10988066660E+04  0.10100000352E+00 0. -1.
</event>
<event>
 5   0  0.2155352E-04  0.1405302E+04  0.7818609E-02  0.8949990E-01
       -1   -1    0    0    0  501  0.00000000000E+00  0.00000000000E+00  0.37365050285E+03  0.37365050288E+03  0.50400001928E-02 0.  1.
        1   -1    0    0  501    0  0.00000000000E+00  0.00000000000E+00 -0.13213375657E+04  0.13213375657E+04  0.50400001928E-02 0. -1.
    10030    2    1    2    0    0  0.00000000000E+00  0.00000000000E+00 -0.94768706282E+03  0.16949880686E+04  0.14053020257E+04 0.  0.
        2    1    3    3  502    0 -0.67701885385E+03  0.16912284982E+03 -0.37466569815E+03  0.79204258230E+03  0.25500000920E-02 0.  1.
       -2    1    3    3    0  502  0.67701885385E+03 -0.16912284982E+03 -0.57302136467E+03  0.90294548627E+03  0.25500000920E-02 0. -1.
</event>
<event>
 5   0  0.4208622E-04  0.1395977E+04  0.7818609E-02  0.8956736E-01
       -2   -1    0    0    0  501  0.00000000000E+00  0.00000000000E+00  0.58614009311E+03  0.58614009312E+03  0.25500000920E-02 0. -1.
        2   -1    0    0  501    0  0.00000000000E+00  0.00000000000E+00 -0.83117965125E+03  0.83117965125E+03  0.25500000920E-02 0.  1.
    10030    2    1    2    0    0  0.00000000000E+00  0.00000000000E+00 -0.24503955814E+03  0.14173197444E+04  0.13959766734E+04 0.  0.
        4    1    3    3  502    0 -0.32020511885E+03 -0.82248284785E+02  0.50160637126E+03  0.60075507744E+03  0.12699999809E+01 0. -1.
       -4    1    3    3    0  502  0.32020511885E+03  0.82248284785E+02 -0.74664592939E+03  0.81656466692E+03  0.12699999809E+01 0.  1.
</event>
<event>
 5   0  0.4310348E-04  0.1406089E+04  0.7818609E-02  0.8949423E-01
        2   -1    0    0  501    0  0.00000000000E+00  0.00000000000E+00  0.67457492887E+03  0.67457492887E+03  0.25500000920E-02 0. -1.
       -2   -1    0    0    0  501  0.00000000000E+00  0.00000000000E+00 -0.73271571449E+03  0.73271571449E+03  0.25500000920E-02 0.  1.
    10030    2    1    2    0    0  0.00000000000E+00  0.00000000000E+00 -0.58140785619E+02  0.14072906434E+04  0.14060891166E+04 0.  0.
        1    1    3    3  502    0  0.74902610325E+02  0.62710780892E+03  0.28005765886E+03  0.69087400975E+03  0.50400001928E-02 0. -1.
       -1    1    3    3    0  502 -0.74902610325E+02 -0.62710780892E+03 -0.33819844448E+03  0.71641663361E+03  0.50400001928E-02 0.  1.
</event>
<event>
 5   0  0.2223112E-04  0.1399318E+04  0.7818609E-02  0.8954313E-01
        1   -1    0    0  501    0  0.00000000000E+00  0.00000000000E+00  0.57225671442E+03  0.57225671445E+03  0.50400001928E-02 0.  1.
       -1   -1    0    0    0  501  0.00000000000E+00  0.00000000000E+00 -0.85542467729E+03  0.85542467731E+03  0.50400001928E-02 0. -1.
    10030    2    1    2    0    0  0.00000000000E+00  0.00000000000E+00 -0.28316796287E+03  0.14276813918E+04  0.13993177127E+04 0.  0.
        1    1    3    3  502    0 -0.32335311822E+03 -0.24673326775E+03  0.43924251937E+03  0.59863890228E+03  0.50400001928E-02 0.  1.
       -1    1    3    3    0  502  0.32335311822E+03  0.24673326775E+03 -0.72241048223E+03  0.82904248947E+03  0.50400001928E-02 0. -1.
</event>
<event>
 5   0  0.2217251E-04  0.1385208E+04  0.7818609E-02  0.8964596E-01
       -1   -1    0    0    0  501  0.00000000000E+00  0.00000000000E+00  0.58126878285E+03  0.58126878287E+03  0.50400001928E-02 0. -1.
        1   -1    0    0  501    0  0.00000000000E+00  0.00000000000E+00 -0.82526364541E+03  0.82526364542E+03  0.50400001928E-02 0.  1.
    10030    2    1    2    0    0  0.00000000000E+00  0.00000000000E+00 -0.24399486256E+03  0.14065324283E+04  0.13852075580E+04 0.  0.
        5    1    3    3  502    0  0.63443510636E+03  0.13432349874E+03 -0.36890167077E+03  0.74609733895E+03  0.46999998093E+01 0.  1.
       -5    1    3    3    0  502 -0.63443510636E+03 -0.13432349874E+03  0.12490680821E+03  0.66043508934E+03  0.46999998093E+01 0. -1.
</event>
<event>
 5   0  0.3975164E-04  0.1400057E+04  0.7818609E-02  0.8953777E-01
       -2   -1    0    0    0  501  0.00000000000E+00  0.00000000000E+00  0.53131177388E+03  0.53131177388E+03  0.25500000920E-02 0. -1.
        2   -1    0    0  501    0  0.00000000000E+00  0.00000000000E+00 -0.92232061710E+03  0.92232061710E+03  0.25500000920E-02 0.  1.
    10030    2    1    2    0    0  0.00000000000E+00  0.00000000000E+00 -0.39100884322E+03  0.14536323910E+04  0.14000568605E+04 0.  0.
        5    1    3    3  502    0  0.48041324265E+03 -0.22282739286E+02  0.33260940202E+03  0.58476021453E+03  0.46999998093E+01 0. -1.
       -5    1    3    3    0  502 -0.48041324265E+03  0.22282739286E+02 -0.72361824524E+03  0.86887217646E+03  0.46999998093E+01 0.  1.
</event>
<event>
 5   0  0.3975164E-04  0.1401465E+04  0.7818609E-02  0.8952759E-01
        2   -1    0    0  501    0  0.00000000000E+00  0.00000000000E+00  0.16579621919E+04  0.16579621919E+04  0.25500000920E-02 0. -1.
       -2   -1    0    0    0  501  0.00000000000E+00  0.00000000000E+00 -0.29616217684E+03  0.29616217685E+03  0.25500000920E-02 0.  1.
    10030    2    1    2    0    0  0.00000000000E+00  0.00000000000E+00  0.13618000151E+04  0.19541243688E+04  0.14014645081E+04 0.  0.
        5    1    3    3  502    0 -0.47840703642E+02 -0.54498823713E+03  0.12913979445E+04  0.14025090562E+04  0.46999998093E+01 0. -1.
       -5    1    3    3    0  502  0.47840703642E+02  0.54498823713E+03  0.70402070532E+02  0.55161531258E+03  0.46999998093E+01 0.  1.
</event>
<event>
 5   0  0.3975164E-04  0.1397944E+04  0.7818609E-02  0.8955308E-01
        2   -1    0    0  501    0  0.00000000000E+00  0.00000000000E+00  0.11182709653E+04  0.11182709653E+04  0.25500000920E-02 0.  1.
       -2   -1    0    0    0  501  0.00000000000E+00  0.00000000000E+00 -0.43689054561E+03  0.43689054562E+03  0.25500000920E-02 0. -1.
    10030    2    1    2    0    0  0.00000000000E+00  0.00000000000E+00  0.68138041969E+03  0.15551615109E+04  0.13979442223E+04 0.  0.
        5    1    3    3  502    0 -0.10095308749E+03 -0.15651945752E+03  0.10901388092E+04  0.11059451071E+04  0.46999998093E+01 0.  1.
       -5    1    3    3    0  502  0.10095308749E+03  0.15651945752E+03 -0.40875838955E+03  0.44921640385E+03  0.46999998093E+01 0. -1.
</event>
<event>
 5   0  0.4208622E-04  0.1391295E+04  0.7818609E-02  0.8960144E-01
       -2   -1    0    0    0  501  0.00000000000E+00  0.00000000000E+00  0.28474398336E+03  0.28474398338E+03  0.25500000920E-02 0.  1.
        2   -1    0    0  501    0  0.00000000000E+00  0.00000000000E+00 -0.16995113788E+04  0.16995113788E+04  0.25500000920E-02 0. -1.
    10030    2    1    2    0    0  0.00000000000E+00  0.00000000000E+00 -0.14147673955E+04  0.19842553622E+04  0.13912952811E+04 0.  0.
        4    1    3    3  502    0  0.22663863477E+03 -0.37231921978E+03  0.65840864198E+02  0.44082117065E+03  0.12699999809E+01 0.  1.
       -4    1    3    3    0  502 -0.22663863477E+03  0.37231921978E+03 -0.14806082597E+04  0.15434341916E+04  0.12699999809E+01 0. -1.
</event>
<event>
 5   0  0.4208622E-04  0.1401928E+04  0.7818609E-02  0.8952424E-01
       -2   -1    0    0    0  501  0.00000000000E+00  0.00000000000E+00  0.53784969207E+03  0.53784969207E+03  0.25500000920E-02 0.  1.
        2   -1    0    0  501    0  0.00000000000E+00  0.00000000000E+00 -0.91354581716E+03  0.91354581716E+03  0.25500000920E-02 0. -1.
    10030    2    1    2    0    0  0.00000000000E+00  0.00000000000E+00 -0.37569612509E+03  0.14513955092E+04  0.14019277249E+04 0.  0.
        4    1    3    3  502    0  0.26581851548E+03 -0.52644335511E+02  0.48142846262E+03  0.55245442052E+03  0.12699999809E+01 0.  1.
       -4    1    3    3    0  502 -0.26581851548E+03  0.52644335511E+02 -0.85712458771E+03  0.89894108872E+03  0.12699999809E+01 0. -1.
</event>
<event>
 5   0  0.2217251E-04  0.1400010E+04  0.7818609E-02  0.8953812E-01
        1   -1    0    0  501    0  0.00000000000E+00  0.00000000000E+00  0.15897994018E+04  0.15897994018E+04  0.50400001928E-02 0. -1.
       -1   -1    0    0    0  501  0.00000000000E+00  0.00000000000E+00 -0.30821918803E+03  0.30821918807E+03  0.50400001928E-02 0.  1.
    10030    2    1    2    0    0  0.00000000000E+00  0.00000000000E+00  0.12815802137E+04  0.18980185898E+04  0.14000095439E+04 0.  0.
        5    1    3    3  502    0  0.51665248585E+02 -0.11522147222E+03 -0.29262890405E+03  0.31874606045E+03  0.46999998093E+01 0.  1.
       -5    1    3    3    0  502 -0.51665248585E+02  0.11522147222E+03  0.15742091178E+04  0.15792725294E+04  0.46999998093E+01 0. -1.
</event>
<event>
 5   0  0.3917598E-04  0.1403785E+04  0.7818609E-02  0.8951083E-01
        2   -1    0    0  501    0  0.00000000000E+00  0.00000000000E+00  0.42825905264E+03  0.42825905265E+03  0.25500000920E-02 0.  1.
       -2   -1    0    0    0  501  0.00000000000E+00  0.00000000000E+00 -0.11503621823E+04  0.11503621823E+04  0.25500000920E-02 0. -1.
    10030    2    1    2    0    0  0.00000000000E+00  0.00000000000E+00 -0.72210312964E+03  0.15786212349E+04  0.14037849100E+04 0.  0.
        3    1    3    3  502    0 -0.67199405520E+03  0.14217746988E+03 -0.19862344305E+03  0.71501169606E+03  0.10100000352E+00 0. -1.
       -3    1    3    3    0  502  0.67199405520E+03 -0.14217746988E+03 -0.52347968659E+03  0.86360953888E+03  0.10100000352E+00 0.  1.
</event>
<event>
 5   0  0.3932568E-04  0.1397136E+04  0.7818609E-02  0.8955894E-01
       -2   -1    0    0    0  501  0.00000000000E+00  0.00000000000E+00  0.35524217653E+03  0.35524217654E+03  0.25500000920E-02 0. -1.
        2   -1    0    0  501    0  0.00000000000E+00  0.00000000000E+00 -0.13737039419E+04  0.13737039419E+04  0.25500000920E-02 0.  1.
    10030    2    1    2    0    0  0.00000000000E+00  0.00000000000E+00 -0.10184617653E+04  0.17289461184E+04  0.13971364690E+04 0.  0.
        2    1    3    3  502    0  0.61242633340E+02 -0.69568954877E+03 -0.48916327601E+03  0.85265193309E+03  0.25500000920E-02 0.  1.
       -2    1    3    3    0  502 -0.61242633340E+02  0.69568954877E+03 -0.52929848932E+03  0.87629418531E+03  0.25500000920E-02 0. -1.
</event>
<event>
 5   0  0.2215876E-04  0.1398736E+04  0.7818609E-02  0.8954734E-01
       -1   -1    0    0    0  501  0.00000000000E+00  0.00000000000E+00  0.50776724785E+03  0.50776724787E+03  0.50400001928E-02 0. -1.
        1   -1    0    0  501    0  0.00000000000E+00  0.00000000000E+00 -0.96326767563E+03  0.96326767564E+03  0.50400001928E-02 0.  1.
    10030    2    1    2    0    0  0.00000000000E+00  0.00000000000E+00 -0.45550042778E+03  0.14710349235E+04  0.13987362534E+04 0.  0.
        3    1    3    3  502    0 -0.57463371216E+03 -0.13868089813E+03 -0.62080532133E+03  0.85722549650E+03  0.10100000352E+00 0.  1.
       -3    1    3    3    0  502  0.57463371216E+03  0.13868089813E+03  0.16530489355E+03  0.61380942701E+03  0.10100000352E+00 0. -1.
</event>
<event>
 5   0  0.3975164E-04  0.1398840E+04  0.7818609E-02  0.8954659E-01
       -2   -1    0    0    0  501  0.00000000000E+00  0.00000000000E+00  0.10622206478E+04  0.10622206478E+04  0.25500000920E-02 0. -1.
        2   -1    0    0  501    0  0.00000000000E+00  0.00000000000E+00 -0.46053362469E+03  0.46053362469E+03  0.25500000920E-02 0.  1.
    10030    2    1    2    0    0  0.00000000000E+00  0.00000000000E+00  0.60168702308E+03  0.15227542725E+04  0.13988399839E+04 0.  0.
        5    1    3    3  502    0 -0.24235236433E+03  0.21931277878E+03  0.97394871726E+03  0.10273416945E+04  0.46999998093E+01 0. -1.
       -5    1    3    3    0  502  0.24235236433E+03 -0.21931277878E+03 -0.37226169418E+03  0.49541257795E+03  0.46999998093E+01 0.  1.
</event>
<event>
 5   0  0.3932568E-04  0.1398193E+04  0.7818609E-02  0.8955128E-01
       -2   -1    0    0    0  501  0.00000000000E+00  0.00000000000E+00  0.12124126377E+04  0.12124126377E+04  0.25500000920E-02 0. -1.
        2   -1    0    0  501    0  0.00000000000E+00  0.00000000000E+00 -0.40311005233E+03  0.40311005234E+03  0.25500000920E-02 0.  1.
    10030    2    1    2    0    0  0.00000000000E+00  0.00000000000E+00  0.80930258536E+03  0.16155226900E+04  0.13981927218E+04 0.  0.
        2    1    3    3  502    0  0.40115441461E+03 -0.49170374140E+03  0.74356716263E+03  0.97754261238E+03  0.25500000920E-02 0. -1.
       -2    1    3    3    0  502 -0.40115441461E+03  0.49170374140E+03  0.65735422724E+02  0.63798007765E+03  0.25500000920E-02 0.  1.
</event>
<event>
 5   0  0.2223112E-04  0.1484475E+04  0.7818609E-02  0.8894843E-01
        1   -1    0    0  501    0  0.00000000000E+00  0.00000000000E+00  0.13195371531E+04  0.13195371531E+04  0.50400001928E-02 0.  1.
       -1   -1    0    0    0  501  0.00000000000E+00  0.00000000000E+00 -0.41750751787E+03  0.41750751790E+03  0.50400001928E-02 0. -1.
    10030    2    1    2    0    0  0.00000000000E+00  0.00000000000E+00  0.90202963521E+03  0.17370446710E+04  0.14844752360E+04 0.  0.
        1    1    3    3  502    0 -0.12351838528E+03 -0.26809812456E+03  0.12478996791E+04  0.12823365413E+04  0.50400001928E-02 0.  1.
       -1    1    3    3    0  502  0.12351838528E+03  0.26809812456E+03 -0.34587004393E+03  0.45470812969E+03  0.50400001928E-02 0. -1.
</event>
<event>
 5   0  0.3975164E-04  0.1401148E+04  0.7818609E-02  0.8952988E-01
       -2   -1    0    0    0  501  0.00000000000E+00  0.00000000000E+00  0.21291598522E+04  0.21291598522E+04  0.25500000920E-02 0. -1.
        2   -1    0    0  501    0  0.00000000000E+00  0.00000000000E+00 -0.23051523964E+03  0.23051523965E+03  0.25500000920E-02 0.  1.
    10030    2    1    2    0    0  0.00000000000E+00  0.00000000000E+00  0.18986446126E+04  0.23596750919E+04  0.14011478060E+04 0.  0.
        5    1    3    3  502    0  0.47945276097E+03 -0.43204879638E+03  0.49045304332E+03  0.81062160726E+03  0.46999998093E+01 0.  1.
       -5    1    3    3    0  502 -0.47945276097E+03  0.43204879638E+03  0.14081915693E+04  0.15490534846E+04  0.46999998093E+01 0. -1.
</event>
<event>
 5   0  0.1497625E-04  0.1409452E+04  0.7818609E-02  0.8947005E-01
        4   -1    0    0  501    0  0.00000000000E+00  0.00000000000E+00  0.91989489374E+03  0.91989577041E+03  0.12699999809E+01 0. -1.
       -4   -1    0    0    0  501  0.00000000000E+00  0.00000000000E+00 -0.53988443180E+03  0.53988592554E+03  0.12699999809E+01 0.  1.
    10030    2    1    2    0    0  0.00000000000E+00  0.00000000000E+00  0.38001046194E+03  0.14597816960E+04  0.14094518965E+04 0.  0.
        3    1    3    3  502    0  0.33528129727E+03 -0.40438409458E+03  0.67656640659E+03  0.85655248350E+03  0.10100000352E+00 0. -1.
       -3    1    3    3    0  502 -0.33528129727E+03  0.40438409458E+03 -0.29655594466E+03  0.60322921246E+03  0.10100000352E+00 0.  1.
</event>
<event>
 5   0  0.3917598E-04  0.1407456E+04  0.7818609E-02  0.8948439E-01
       -2   -1    0    0    0  501  0.00000000000E+00  0.00000000000E+00  0.58799612986E+03  0.58799612987E+03  0.25500000920E-02 0. -1.
        2   -1    0    0  501    0  0.00000000000E+00  0.00000000000E+00 -0.84223921922E+03  0.84223921922E+03  0.25500000920E-02 0.  1.
    10030    2    1    2    0    0  0.00000000000E+00  0.00000000000E+00 -0.25424308936E+03  0.14302353491E+04  0.14074564310E+04 0.  0.
        3    1    3    3  502    0 -0.55793356744E+03 -0.20080648212E+03  0.25798458895E+03  0.64666000902E+03  0.10100000352E+00 0.  1.
       -3    1    3    3    0  502  0.55793356744E+03  0.20080648212E+03 -0.51222767830E+03  0.78357534006E+03  0.10100000352E+00 0. -1.
</event>
<event>
 5   0  0.2155352E-04  0.1402227E+04  0.7818609E-02  0.8952208E-01
       -1   -1    0    0    0  501  0.00000000000E+00  0.00000000000E+00  0.32841970122E+03  0.32841970126E+03  0.50400001928E-02 0. -1.
        1   -1    0    0  501    0  0.00000000000E+00  0.00000000000E+00 -0.14967440608E+04  0.14967440609E+04  0.50400001928E-02 0.  1.
    10030    2    1    2    0    0  0.00000000000E+00  0.00000000000E+00 -0.11683243596E+04  0.18251637621E+04  0.14022271390E+04 0.  0.
        2    1    3    3  502    0  0.54531676836E+03  0.11955392430E+02 -0.11575346739E+04  0.12796092492E+04  0.25500000920E-02 0.  1.
       -2    1    3    3    0  502 -0.54531676836E+03 -0.11955392430E+02 -0.10789685719E+02  0.54555451294E+03  0.25500000920E-02 0. -1.
</event>
<event>
 5   0  0.2217251E-04  0.1410790E+04  0.7818609E-02  0.8946045E-01
        1   -1    0    0  501    0  0.00000000000E+00  0.00000000000E+00  0.66947192542E+03  0.66947192544E+03  0.50400001928E-02 0. -1.
       -1   -1    0    0    0  501  0.00000000000E+00  0.00000000000E+00 -0.74324600259E+03  0.74324600261E+03  0.50400001928E-02 0.  1.
    10030    2    1    2    0    0  0.00000000000E+00  0.00000000000E+00 -0.73774077166E+02  0.14127179280E+04  0.14107903210E+04 0.  0.
        5    1    3    3  502    0  0.30443984740E+03 -0.14848099525E+03 -0.65646502061E+03  0.73871418013E+03  0.46999998093E+01 0.  1.
       -5    1    3    3    0  502 -0.30443984740E+03  0.14848099525E+03  0.58269094345E+03  0.67400374792E+03  0.46999998093E+01 0. -1.
</event>
<event>
 5   0  0.3932568E-04  0.1391512E+04  0.7818609E-02  0.8959985E-01
       -2   -1    0    0    0  501  0.00000000000E+00  0.00000000000E+00  0.27473646422E+03  0.27473646423E+03  0.25500000920E-02 0.  1.
        2   -1    0    0  501    0  0.00000000000E+00  0.00000000000E+00 -0.17619672961E+04  0.17619672961E+04  0.25500000920E-02 0. -1.
    10030    2    1    2    0    0  0.00000000000E+00  0.00000000000E+00 -0.14872308319E+04  0.20367037603E+04  0.13915123643E+04 0.  0.
        2    1    3    3  502    0  0.16802354637E+02 -0.58479426921E+03 -0.19243441740E+03  0.61587146502E+03  0.25500000920E-02 0.  1.
       -2    1    3    3    0  502 -0.16802354637E+02  0.58479426921E+03 -0.12947964145E+04  0.14208322953E+04  0.25500000920E-02 0. -1.
</event>
<event>
 5   0  0.4310348E-04  0.1402890E+04  0.7818609E-02  0.8951729E-01
       -2   -1    0    0    0  501  0.00000000000E+00  0.00000000000E+00  0.10776342826E+04  0.10776342826E+04  0.25500000920E-02 0. -1.
        2   -1    0    0  501    0  0.00000000000E+00  0.00000000000E+00 -0.45657889535E+03  0.45657889536E+03  0.25500000920E-02 0.  1.
    10030    2    1    2    0    0  0.00000000000E+00  0.00000000000E+00  0.62105538730E+03  0.15342131780E+04  0.14028899748E+04 0.  0.
        1    1    3    3  502    0  0.80968015491E+02 -0.49620123119E+02 -0.44951651090E+03  0.45943777571E+03  0.50400001928E-02 0.  1.
       -1    1    3    3    0  502 -0.80968015491E+02  0.49620123119E+02  0.10705718982E+04  0.10747754023E+04  0.50400001928E-02 0. -1.
</event>
<event>
 5   0  0.2143942E-04  0.1402621E+04  0.7818609E-02  0.8951923E-01
        1   -1    0    0  501    0  0.00000000000E+00  0.00000000000E+00  0.11300679301E+04  0.11300679301E+04  0.50400001928E-02 0. -1.
       -1   -1    0    0    0  501  0.00000000000E+00  0.00000000000E+00 -0.43522756778E+03  0.43522756781E+03  0.50400001928E-02 0.  1.
    10030    2    1    2    0    0  0.00000000000E+00  0.00000000000E+00  0.69484036234E+03  0.15652954979E+04  0.14026214267E+04 0.  0.
        4    1    3    3  502    0  0.12515277500E+03 -0.34306663170E+03  0.10155896391E+04  0.10792506005E+04  0.12699999809E+01 0. -1.
       -4    1    3    3    0  502 -0.12515277500E+03  0.34306663170E+03 -0.32074927672E+03  0.48604489740E+03  0.12699999809E+01 0.  1.
</event>
<event>
 5   0  0.2215876E-04  0.1401043E+04  0.7818609E-02  0.8953064E-01
        1   -1    0    0  501    0  0.00000000000E+00  0.00000000000E+00  0.42982999754E+03  0.42982999757E+03  0.50400001928E-02 0. -1.
       -1   -1    0    0    0  501  0.00000000000E+00  0.00000000000E+00 -0.11416850222E+04  0.11416850222E+04  0.50400001928E-02 0.  1.
    10030    2    1    2    0    0  0.00000000000E+00  0.00000000000E+00 -0.71185502467E+03  0.15715150198E+04  0.14010431404E+04 0.  0.
        3    1    3    3  502    0  0.28127499071E+03  0.62905034159E+03 -0.21444295386E+03  0.72166872131E+03  0.10100000352E+00 0.  1.
       -3    1    3    3    0  502 -0.28127499071E+03 -0.62905034159E+03 -0.49741207081E+03  0.84984629848E+03  0.10100000352E+00 0. -1.
</event>
<event>
 5   0  0.3932568E-04  0.1402086E+04  0.7818609E-02  0.8952310E-01
        2   -1    0    0  501    0  0.00000000000E+00  0.00000000000E+00  0.90069840767E+03  0.90069840767E+03  0.25500000920E-02 0.  1.
       -2   -1    0    0    0  501  0.00000000000E+00  0.00000000000E+00 -0.54564499794E+03  0.54564499794E+03  0.25500000920E-02 0. -1.
    10030    2    1    2    0    0  0.00000000000E+00  0.00000000000E+00  0.35505340973E+03  0.14463434056E+04  0.14020864179E+04 0.  0.
        2    1    3    3  502    0  0.49664121547E+03  0.17987542774E+03 -0.29794973926E+03  0.60645009155E+03  0.25500000920E-02 0. -1.
       -2    1    3    3    0  502 -0.49664121547E+03 -0.17987542774E+03  0.65300314899E+03  0.83989331407E+03  0.25500000920E-02 0.  1.
</event>
<event>
 5   0  0.2223112E-04  0.1394558E+04  0.7818609E-02  0.8957767E-01
       -1   -1    0    0    0  501  0.00000000000E+00  0.00000000000E+00  0.72916442702E+03  0.72916442704E+03  0.50400001928E-02 0.  1.
        1   -1    0    0  501    0  0.00000000000E+00  0.00000000000E+00 -0.66678752359E+03  0.66678752361E+03  0.50400001928E-02 0. -1.
    10030    2    1    2    0    0  0.00000000000E+00  0.00000000000E+00  0.62376903437E+02  0.13959519506E+04  0.13945576254E+04 0.  0.
        1    1    3    3  502    0  0.17350949444E+03 -0.47694613128E+03 -0.44742618169E+03  0.67658949511E+03  0.50400001928E-02 0. -1.
       -1    1    3    3    0  502 -0.17350949444E+03  0.47694613128E+03  0.50980308513E+03  0.71936245554E+03  0.50400001928E-02 0.  1.
</event>
<event>
 5   0  0.2223112E-04  0.1403234E+04  0.7818609E-02  0.8951481E-01
       -1   -1    0    0    0  501  0.00000000000E+00  0.00000000000E+00  0.47414477773E+03  0.47414477775E+03  0.50400001928E-02 0. -1.
        1   -1    0    0  501    0  0.00000000000E+00  0.00000000000E+00 -0.10382195967E+04  0.10382195967E+04  0.50400001928E-02 0.  1.
    10030    2    1    2    0    0  0.00000000000E+00  0.00000000000E+00 -0.56407481896E+03  0.15123643745E+04  0.14032339790E+04 0.  0.
        1    1    3    3  502    0  0.95654577772E+02 -0.66996849269E+03 -0.48152346776E+03  0.83058559431E+03  0.50400001928E-02 0. -1.
       -1    1    3    3    0  502 -0.95654577772E+02  0.66996849269E+03 -0.82551351194E+02  0.68177878014E+03  0.50400001928E-02 0.  1.
</event>
<event>
 5   0  0.2155352E-04  0.1394896E+04  0.7818609E-02  0.8957521E-01
       -1   -1    0    0    0  501  0.00000000000E+00  0.00000000000E+00  0.55664075400E+03  0.55664075402E+03  0.50400001928E-02 0.  1.
        1   -1    0    0  501    0  0.00000000000E+00  0.00000000000E+00 -0.87387375467E+03  0.87387375469E+03  0.50400001928E-02 0. -1.
    10030    2    1    2    0    0  0.00000000000E+00  0.00000000000E+00 -0.31723300067E+03  0.14305145087E+04  0.13948960473E+04 0.  0.
        2    1    3    3  502    0  0.20032467616E+03 -0.40901142877E+03 -0.70032165761E+03  0.83538658648E+03  0.25500000920E-02 0. -1.
       -2    1    3    3    0  502 -0.20032467616E+03  0.40901142877E+03  0.38308865693E+03  0.59512792223E+03  0.25500000920E-02 0.  1.
</event>
<event>
 5   0  0.4208622E-04  0.1394102E+04  0.7818609E-02  0.8958099E-01
       -2   -1    0    0    0  501  0.00000000000E+00  0.00000000000E+00  0.15478332131E+04  0.15478332131E+04  0.25500000920E-02 0. -1.
        2   -1    0    0  501    0  0.00000000000E+00  0.00000000000E+00 -0.31390969983E+03  0.31390969985E+03  0.25500000920E-02 0.  1.
    10030    2    1    2    0    0  0.00000000000E+00  0.00000000000E+00  0.12339235133E+04  0.18617429130E+04  0.13941016596E+04 0.  0.
        4    1    3    3  502    0 -0.80065668668E+02 -0.28225228044E+03  0.14613601774E+04  0.14905207285E+04  0.12699999809E+01 0. -1.
       -4    1    3    3    0  502  0.80065668668E+02  0.28225228044E+03 -0.22743666415E+03  0.37122218443E+03  0.12699999809E+01 0.  1.
</event>
<event>
 5   0  0.1497625E-04  0.1400501E+04  0.7818609E-02  0.8953456E-01
        4   -1    0    0  501    0  0.00000000000E+00  0.00000000000E+00  0.13580192543E+04  0.13580198481E+04  0.12699999809E+01 0. -1.
       -4   -1    0    0    0  501  0.00000000000E+00  0.00000000000E+00 -0.36107636770E+03  0.36107860115E+03  0.12699999809E+01 0.  1.
    10030    2    1    2    0    0  0.00000000000E+00  0.00000000000E+00  0.99694288659E+03  0.17190984493E+04  0.14005014670E+04 0.  0.
        5    1    3    3  502    0  0.42630690534E+03  0.10240118008E+03 -0.17172499735E+03  0.47088761285E+03  0.46999998093E+01 0.  1.
       -5    1    3    3    0  502 -0.42630690534E+03 -0.10240118008E+03  0.11686678839E+04  0.12482108364E+04  0.46999998093E+01 0. -1.
</event>
<event>
 5   0  0.4208622E-04  0.1396390E+04  0.7818609E-02  0.8956436E-01
       -2   -1    0    0    0  501  0.00000000000E+00  0.00000000000E+00  0.13208496104E+04  0.13208496104E+04  0.25500000920E-02 0.  1.
        2   -1    0    0  501    0  0.00000000000E+00  0.00000000000E+00 -0.36906263775E+03  0.36906263775E+03  0.25500000920E-02 0. -1.
    10030    2    1    2    0    0  0.00000000000E+00  0.00000000000E+00  0.95178697261E+03  0.16899122481E+04  0.13963899760E+04 0.  0.
        4    1    3    3  502    0  0.20560157383E+03  0.47876681704E+03  0.10383243986E+04  0.11617266640E+04  0.12699999809E+01 0.  1.
       -4    1    3    3    0  502 -0.20560157383E+03 -0.47876681704E+03 -0.86537425978E+02  0.52818558410E+03  0.12699999809E+01 0. -1.
</event>
<event>
 5   0  0.4310348E-04  0.1401517E+04  0.7818609E-02  0.8952721E-01
       -2   -1    0    0    0  501  0.00000000000E+00  0.00000000000E+00  0.86277371984E+03  0.86277371984E+03  0.25500000920E-02 0.  1.
        2   -1    0    0  501    0  0.00000000000E+00  0.00000000000E+00 -0.56916688300E+03  0.56916688301E+03  0.25500000920E-02 0. -1.
    10030    2    1    2    0    0  0.00000000000E+00  0.00000000000E+00  0.29360683683E+03  0.14319406028E+04  0.14015166483E+04 0.  0.
        1    1    3    3  502    0 -0.67275161786E+02  0.69257667596E+03  0.62095089168E+02  0.69860160292E+03  0.50400001928E-02 0.  1.
       -1    1    3    3    0  502  0.67275161786E+02 -0.69257667596E+03  0.23151174766E+03  0.73333899993E+03  0.50400001928E-02 0. -1.
</event>
<event>
 5   0  0.1497625E-04  0.1403374E+04  0.7818609E-02  0.8951380E-01
        4   -1    0    0  501    0  0.00000000000E+00  0.00000000000E+00  0.10739641107E+04  0.10739648617E+04  0.12699999809E+01 0. -1.
       -4   -1    0    0    0  501  0.00000000000E+00  0.00000000000E+00 -0.45845352507E+03  0.45845528413E+03  0.12699999809E+01 0.  1.
    10030    2    1    2    0    0  0.00000000000E+00  0.00000000000E+00  0.61551058567E+03  0.15324201458E+04  0.14033738711E+04 0.  0.
        1    1    3    3  502    0  0.58692004335E+03  0.14815916939E+03  0.69526567545E+03  0.92185716695E+03  0.50400001928E-02 0. -1.
       -1    1    3    3    0  502 -0.58692004335E+03 -0.14815916939E+03 -0.79755089777E+02  0.61056297884E+03  0.50400001928E-02 0.  1.
</event>
<event>
 5   0  0.3917598E-04  0.1400468E+04  0.7818609E-02  0.8953480E-01
       -2   -1    0    0    0  501  0.00000000000E+00  0.00000000000E+00  0.59582541858E+03  0.59582541859E+03  0.25500000920E-02 0. -1.
        2   -1    0    0  501    0  0.00000000000E+00  0.00000000000E+00 -0.82293840542E+03  0.82293840542E+03  0.25500000920E-02 0.  1.
    10030    2    1    2    0    0  0.00000000000E+00  0.00000000000E+00 -0.22711298683E+03  0.14187638240E+04  0.14004679502E+04 0.  0.
        3    1    3    3  502    0 -0.10326533731E+02  0.51135054829E+03  0.37096104124E+03  0.63182127604E+03  0.10100000352E+00 0. -1.
       -3    1    3    3    0  502  0.10326533731E+02 -0.51135054829E+03 -0.59807402808E+03  0.78694254797E+03  0.10100000352E+00 0.  1.
</event>
<event>
 5   0  0.4208622E-04  0.1399845E+04  0.7818609E-02  0.8953931E-01
       -2   -1    0    0    0  501  0.00000000000E+00  0.00000000000E+00  0.94840499107E+03  0.94840499108E+03  0.25500000920E-02 0.  1.
        2   -1    0    0  501    0  0.00000000000E+00  0.00000000000E+00 -0.51654242637E+03  0.51654242638E+03  0.25500000920E-02 0. -1.
    10030    2    1    2    0    0  0.00000000000E+00  0.00000000000E+00  0.43186256470E+03  0.14649474175E+04  0.13998448704E+04 0.  0.
        4    1    3    3  502    0 -0.16312716771E+03 -0.10799183502E+03  0.91920973547E+03  0.93979830812E+03  0.12699999809E+01 0.  1.
       -4    1    3    3    0  502  0.16312716771E+03  0.10799183502E+03 -0.48734717077E+03  0.52514910933E+03  0.12699999809E+01 0. -1.
</event>
<event>
 5   0  0.2215876E-04  0.1403522E+04  0.7818609E-02  0.8951273E-01
        1   -1    0    0  501    0  0.00000000000E+00  0.00000000000E+00  0.14896178973E+04  0.14896178973E+04  0.50400001928E-02 0. -1.
       -1   -1    0    0    0  501  0.00000000000E+00  0.00000000000E+00 -0.33060038064E+03  0.33060038068E+03  0.50400001928E-02 0.  1.
    10030    2    1    2    0    0  0.00000000000E+00  0.00000000000E+00  0.11590175166E+04  0.18202182780E+04  0.14035216334E+04 0.  0.
        3    1    3    3  502    0  0.23886949531E+03  0.65100247898E+03  0.43979670983E+03  0.82114798886E+03  0.10100000352E+00 0.  1.
       -3    1    3    3    0  502 -0.23886949531E+03 -0.65100247898E+03  0.71922080679E+03  0.99907028909E+03  0.10100000352E+00 0. -1.
</event>
<event>
 5   0  0.2155352E-04  0.1390773E+04  0.7818609E-02  0.8960525E-01
        1   -1    0    0  501    0  0.00000000000E+00  0.00000000000E+00  0.83528337981E+03  0.83528337982E+03  0.50400001928E-02 0.  1.
       -1   -1    0    0    0  501  0.00000000000E+00  0.00000000000E+00 -0.57892004684E+03  0.57892004686E+03  0.50400001928E-02 0. -1.
    10030    2    1    2    0    0  0.00000000000E+00  0.00000000000E+00  0.25636333297E+03  0.14142034267E+04  0.13907728691E+04 0.  0.
        2    1    3    3  502    0 -0.14630749252E+03  0.34708511309E+03 -0.46620731722E+03  0.59935233439E+03  0.25500000920E-02 0. -1.
       -2    1    3    3    0  502  0.14630749252E+03 -0.34708511309E+03  0.72257065019E+03  0.81485109230E+03  0.25500000920E-02 0.  1.
</event>
<event>
 5   0  0.2217251E-04  0.1401662E+04  0.7818609E-02  0.8952616E-01
       -1   -1    0    0    0  501  0.00000000000E+00  0.00000000000E+00  0.58044682216E+03  0.58044682218E+03  0.50400001928E-02 0. -1.
        1   -1    0    0  501    0  0.00000000000E+00  0.00000000000E+00 -0.84618268977E+03  0.84618268979E+03  0.50400001928E-02 0.  1.
    10030    2    1    2    0    0  0.00000000000E+00  0.00000000000E+00 -0.26573586762E+03  0.14266295120E+04  0.14016619468E+04 0.  0.
        5    1    3    3  502    0  0.20277202298E+02  0.64493436352E+03 -0.41121781340E+03  0.76516251753E+03  0.46999998093E+01 0.  1.
       -5    1    3    3    0  502 -0.20277202298E+02 -0.64493436352E+03  0.14548194579E+03  0.66146699443E+03  0.46999998093E+01 0. -1.
</event>
<event>
 5   0  0.4208622E-04  0.1396915E+04  0.7818609E-02  0.8956055E-01
        2   -1    0    0  501    0  0.00000000000E+00  0.00000000000E+00  0.62986329549E+03  0.62986329549E+03  0.25500000920E-02 0.  1.
       -2   -1    0    0    0  501  0.00000000000E+00  0.00000000000E+00 -0.77452149974E+03  0.77452149975E+03  0.25500000920E-02 0. -1.
    10030    2    1    2    0    0  0.00000000000E+00  0.00000000000E+00 -0.14465820425E+03  0.14043847952E+04  0.13969146921E+04 0.  0.
        4    1    3    3  502    0  0.65620438838E+03  0.12270153775E+03  0.13414977043E+03  0.68092410775E+03  0.12699999809E+01 0.  1.
       -4    1    3    3    0  502 -0.65620438838E+03 -0.12270153775E+03 -0.27880797469E+03  0.72346068750E+03  0.12699999809E+01 0. -1.
</event>
<event>
 5   0  0.2223112E-04  0.1409741E+04  0.7818609E-02  0.8946797E-01
        1   -1    0    0  501    0  0.00000000000E+00  0.00000000000E+00  0.19313070985E+04  0.19313070985E+04  0.50400001928E-02 0.  1.
       -1   -1    0    0    0  501  0.00000000000E+00  0.00000000000E+00 -0.25725711491E+03  0.25725711496E+03  0.50400001928E-02 0. -1.
    10030    2    1    2    0    0  0.00000000000E+00  0.00000000000E+00  0.16740499836E+04  0.21885642135E+04  0.14097411000E+04 0.  0.
        1    1    3    3  502    0 -0.20508074885E+03 -0.24684565814E+03 -0.13726050784E+03  0.34904346367E+03  0.50400001928E-02 0. -1.
       -1    1    3    3    0  502  0.20508074885E+03  0.24684565814E+03  0.18113104914E+04  0.18395207498E+04  0.50400001928E-02 0.  1.
</event>
<event>
 5   0  0.2217251E-04  0.1388107E+04  0.7818609E-02  0.8962472E-01
       -1   -1    0    0    0  501  0.00000000000E+00  0.00000000000E+00  0.46702939762E+03  0.46702939765E+03  0.50400001928E-02 0. -1.
        1   -1    0    0  501    0  0.00000000000E+00  0.00000000000E+00 -0.10314350667E+04  0.10314350667E+04  0.50400001928E-02 0.  1.
    10030    2    1    2    0    0  0.00000000000E+00  0.00000000000E+00 -0.56440566904E+03  0.14984644643E+04  0.13881073415E+04 0.  0.
        5    1    3    3  502    0 -0.43858983578E+03 -0.18770833718E+03 -0.82635417034E+03  0.95419011142E+03  0.46999998093E+01 0.  1.
       -5    1    3    3    0  502  0.43858983578E+03  0.18770833718E+03  0.26194850130E+03  0.54427435290E+03  0.46999998093E+01 0. -1.
</event>
<event>
 5   0  0.2223112E-04  0.1395339E+04  0.7818609E-02  0.8957199E-01
       -1   -1    0    0    0  501  0.00000000000E+00  0.00000000000E+00  0.22500557006E+03  0.22500557012E+03  0.50400001928E-02 0.  1.
        1   -1    0    0  501    0  0.00000000000E+00  0.00000000000E+00 -0.21632483617E+04  0.21632483617E+04  0.50400001928E-02 0. -1.
    10030    2    1    2    0    0  0.00000000000E+00  0.00000000000E+00 -0.19382427917E+04  0.23882539318E+04  0.13953392862E+04 0.  0.
        1    1    3    3  502    0 -0.34206843534E+03 -0.60016565886E+03 -0.11362390271E+04  0.13297551501E+04  0.50400001928E-02 0.  1.
       -1    1    3    3    0  502  0.34206843534E+03  0.60016565886E+03 -0.80200376460E+03  0.10584987818E+04  0.50400001928E-02 0. -1.
</event>
<event>
 5   0  0.2155352E-04  0.1366308E+04  0.7818609E-02  0.8978574E-01
        1   -1    0    0  501    0  0.00000000000E+00  0.00000000000E+00  0.63697226530E+03  0.63697226532E+03  0.50400001928E-02 0. -1.
       -1   -1    0    0    0  501  0.00000000000E+00  0.00000000000E+00 -0.73268373481E+03  0.73268373483E+03  0.50400001928E-02 0.  1.
    10030    2    1    2    0    0  0.00000000000E+00  0.00000000000E+00 -0.95711469503E+02  0.13696560001E+04  0.13663077521E+04 0.  0.
        2    1    3    3  502    0 -0.16806234661E+03  0.49129267590E+03  0.39717561868E+03  0.65372923892E+03  0.25500000920E-02 0. -1.
       -2    1    3    3    0  502  0.16806234661E+03 -0.49129267590E+03 -0.49288708818E+03  0.71592676123E+03  0.25500000920E-02 0.  1.
</event>
<event>
 5   0  0.3975164E-04  0.1386491E+04  0.7818609E-02  0.8963656E-01
       -2   -1    0    0    0  501  0.00000000000E+00  0.00000000000E+00  0.80461648995E+03  0.80461648996E+03  0.25500000920E-02 0.  1.
        2   -1    0    0  501    0  0.00000000000E+00  0.00000000000E+00 -0.59728987982E+03  0.59728987983E+03  0.25500000920E-02 0. -1.
    10030    2    1    2    0    0  0.00000000000E+00  0.00000000000E+00  0.20732661013E+03  0.14019063698E+04  0.13864909471E+04 0.  0.
        5    1    3    3  502    0 -0.17147720777E+03 -0.23320814309E+03 -0.53324229199E+03  0.60676181715E+03  0.46999998093E+01 0. -1.
       -5    1    3    3    0  502  0.17147720777E+03  0.23320814309E+03  0.74056890212E+03  0.79514455263E+03  0.46999998093E+01 0.  1.
</event>
<event>
 5   0  0.4208622E-04  0.1399291E+04  0.7818609E-02  0.8954332E-01
       -2   -1    0    0    0  501  0.00000000000E+00  0.00000000000E+00  0.95972851658E+03  0.95972851658E+03  0.25500000920E-02 0. -1.
        2   -1    0    0  501    0  0.00000000000E+00  0.00000000000E+00 -0.51004436434E+03  0.51004436435E+03  0.25500000920E-02 0.  1.
    10030    2    1    2    0    0  0.00000000000E+00  0.00000000000E+00  0.44968415224E+03  0.14697728809E+04  0.13992914224E+04 0.  0.
        4    1    3    3  502    0 -0.18838498853E+03 -0.51820214230E+03 -0.22752477228E+03  0.59648260586E+03  0.12699999809E+01 0.  1.
       -4    1    3    3    0  502  0.18838498853E+03  0.51820214230E+03  0.67720892452E+03  0.87329027507E+03  0.12699999809E+01 0. -1.
</event>
<event>
 5   0  0.2215876E-04  0.1402026E+04  0.7818609E-02  0.8952353E-01
       -1   -1    0    0    0  501  0.00000000000E+00  0.00000000000E+00  0.65785825730E+03  0.65785825732E+03  0.50400001928E-02 0. -1.
        1   -1    0    0  501    0  0.00000000000E+00  0.00000000000E+00 -0.74699866311E+03  0.74699866312E+03  0.50400001928E-02 0.  1.
    10030    2    1    2    0    0  0.00000000000E+00  0.00000000000E+00 -0.89140405809E+02  0.14048569204E+04  0.14020260179E+04 0.  0.
        3    1    3    3  502    0  0.29959394913E+03  0.80825973100E+02 -0.67443298243E+03  0.74239425528E+03  0.10100000352E+00 0.  1.
       -3    1    3    3    0  502 -0.29959394913E+03 -0.80825973100E+02  0.58529257662E+03  0.66246266516E+03  0.10100000352E+00 0. -1.
</event>
<event>
 5   0  0.2155352E-04  0.1389636E+04  0.7818609E-02  0.8961355E-01
       -1   -1    0    0    0  501  0.00000000000E+00  0.00000000000E+00  0.70613775514E+03  0.70613775516E+03  0.50400001928E-02 0. -1.
        1   -1    0    0  501    0  0.00000000000E+00  0.00000000000E+00 -0.68367933150E+03  0.68367933152E+03  0.50400001928E-02 0.  1.
    10030    2    1    2    0    0  0.00000000000E+00  0.00000000000E+00  0.22458423640E+02  0.13898170867E+04  0.13896356190E+04 0.  0.
        2    1    3    3  502    0  0.93258977908E+02 -0.58485258514E+03 -0.35216656133E+03  0.68903633447E+03  0.25500000920E-02 0.  1.
       -2    1    3    3    0  502 -0.93258977908E+02  0.58485258514E+03  0.37462498497E+03  0.70078075221E+03  0.25500000920E-02 0. -1.
</event>
<event>
 5   0  0.4208622E-04  0.1393862E+04  0.7818609E-02  0.8958273E-01
        2   -1    0    0  501    0  0.00000000000E+00  0.00000000000E+00  0.58861896010E+03  0.58861896011E+03  0.25500000920E-02 0. -1.
       -2   -1    0    0    0  501  0.00000000000E+00  0.00000000000E+00 -0.82517411671E+03  0.82517411671E+03  0.25500000920E-02 0.  1.
    10030    2    1    2    0    0  0.00000000000E+00  0.00000000000E+00 -0.23655515661E+03  0.14137930768E+04  0.13938624473E+04 0.  0.
        4    1    3    3  502    0  0.14290950603E+03  0.46041914689E+02  0.57201857934E+03  0.59139652758E+03  0.12699999809E+01 0. -1.
       -4    1    3    3    0  502 -0.14290950603E+03 -0.46041914689E+02 -0.80857373595E+03  0.82239654924E+03  0.12699999809E+01 0.  1.
</event>
<event>
 5   0  0.2223112E-04  0.1387894E+04  0.7818609E-02  0.8962629E-01
       -1   -1    0    0    0  501  0.00000000000E+00  0.00000000000E+00  0.64506956061E+03  0.64506956063E+03  0.50400001928E-02 0. -1.
        1   -1    0    0  501    0  0.00000000000E+00  0.00000000000E+00 -0.74652765501E+03  0.74652765502E+03  0.50400001928E-02 0.  1.
    10030    2    1    2    0    0  0.00000000000E+00  0.00000000000E+00 -0.10145809439E+03  0.13915972157E+04  0.13878937516E+04 0.  0.
        1    1    3    3  502    0 -0.11888865572E+03  0.43982191964E+03 -0.57556100816E+03  0.73406287714E+03  0.50400001928E-02 0.  1.
       -1    1    3    3    0  502  0.11888865572E+03 -0.43982191964E+03  0.47410291377E+03  0.65753433851E+03  0.50400001928E-02 0. -1.
</event>
<event>
 5   0  0.4310348E-04  0.1397064E+04  0.7818609E-02  0.8955947E-01
        2   -1    0    0  501    0  0.00000000000E+00  0.00000000000E+00  0.17992605213E+04  0.17992605213E+04  0.25500000920E-02 0. -1.
       -2   -1    0    0    0  501  0.00000000000E+00  0.00000000000E+00 -0.27119289018E+03  0.27119289019E+03  0.25500000920E-02 0.  1.
    10030    2    1    2    0    0  0.00000000000E+00  0.00000000000E+00  0.15280676311E+04  0.20704534115E+04  0.13970635790E+04 0.  0.
        1    1    3    3  502    0  0.28658038261E+03  0.37677716607E+03  0.15252953025E+04  0.15970645286E+04  0.50400001928E-02 0. -1.
       -1    1    3    3    0  502 -0.28658038261E+03 -0.37677716607E+03  0.27723285428E+01  0.47338888285E+03  0.50400001928E-02 0.  1.
</event>
<event>
 5   0  0.2223112E-04  0.1407231E+04  0.7818609E-02  0.8948601E-01
        1   -1    0    0  501    0  0.00000000000E+00  0.00000000000E+00  0.22419938637E+04  0.22419938637E+04  0.50400001928E-02 0. -1.
       -1   -1    0    0    0  501  0.00000000000E+00  0.00000000000E+00 -0.22081889221E+03  0.22081889226E+03  0.50400001928E-02 0.  1.
    10030    2    1    2    0    0  0.00000000000E+00  0.00000000000E+00  0.20211749715E+04  0.24628127560E+04  0.14072307578E+04 0.  0.
        1    1    3    3  502    0  0.33143180714E+03  0.54468673630E+03  0.48981810341E+03  0.80402267253E+03  0.50400001928E-02 0.  1.
       -1    1    3    3    0  502 -0.33143180714E+03 -0.54468673630E+03  0.15313568681E+04  0.16587900835E+04  0.50400001928E-02 0. -1.
</event>
<event>
 5   0  0.2223112E-04  0.1391437E+04  0.7818609E-02  0.8960040E-01
       -1   -1    0    0    0  501  0.00000000000E+00  0.00000000000E+00  0.10437888970E+04  0.10437888970E+04  0.50400001928E-02 0.  1.
        1   -1    0    0  501    0  0.00000000000E+00  0.00000000000E+00 -0.46371859865E+03  0.46371859868E+03  0.50400001928E-02 0. -1.
    10030    2    1    2    0    0  0.00000000000E+00  0.00000000000E+00  0.58007029832E+03  0.15075074957E+04  0.13914371342E+04 0.  0.
        1    1    3    3  502    0 -0.62322287834E+03  0.29624441466E+03  0.19400244410E+03  0.71680154691E+03  0.50400001928E-02 0. -1.
       -1    1    3    3    0  502  0.62322287834E+03 -0.29624441466E+03  0.38606785422E+03  0.79070594875E+03  0.50400001928E-02 0.  1.
</event>
<event>
 5   0  0.3975164E-04  0.1395461E+04  0.7818609E-02  0.8957110E-01
       -2   -1    0    0    0  501  0.00000000000E+00  0.00000000000E+00  0.28502407108E+03  0.28502407110E+03  0.25500000920E-02 0. -1.
        2   -1    0    0  501    0  0.00000000000E+00  0.00000000000E+00 -0.17080243550E+04  0.17080243550E+04  0.25500000920E-02 0.  1.
    10030    2    1    2    0    0  0.00000000000E+00  0.00000000000E+00 -0.14230002839E+04  0.19930484261E+04  0.13954612932E+04 0.  0.
        5    1    3    3  502    0 -0.54486715916E+02 -0.67482000128E+03 -0.95242429158E+03  0.11685396688E+04  0.46999998093E+01 0. -1.
       -5    1    3    3    0  502  0.54486715916E+02  0.67482000128E+03 -0.47057599236E+03  0.82450875734E+03  0.46999998093E+01 0.  1.
</event>
<event>
 5   0  0.2217251E-04  0.1410624E+04  0.7818609E-02  0.8946164E-01
        1   -1    0    0  501    0  0.00000000000E+00  0.00000000000E+00  0.58159672890E+03  0.58159672893E+03  0.50400001928E-02 0.  1.
       -1   -1    0    0    0  501  0.00000000000E+00  0.00000000000E+00 -0.85534404401E+03  0.85534404403E+03  0.50400001928E-02 0. -1.
    10030    2    1    2    0    0  0.00000000000E+00  0.00000000000E+00 -0.27374731511E+03  0.14369407730E+04  0.14106243981E+04 0.  0.
        5    1    3    3  502    0  0.43661982809E+03 -0.37536584568E+03  0.27804177726E+03  0.63942608040E+03  0.46999998093E+01 0.  1.
       -5    1    3    3    0  502 -0.43661982809E+03  0.37536584568E+03 -0.55178909237E+03  0.79751469256E+03  0.46999998093E+01 0. -1.
</event>
<event>
 5   0  0.3917598E-04  0.1406342E+04  0.7818609E-02  0.8949241E-01
        2   -1    0    0  501    0  0.00000000000E+00  0.00000000000E+00  0.88898760127E+03  0.88898760128E+03  0.25500000920E-02 0. -1.
       -2   -1    0    0    0  501  0.00000000000E+00  0.00000000000E+00 -0.55619366332E+03  0.55619366333E+03  0.25500000920E-02 0.  1.
    10030    2    1    2    0    0  0.00000000000E+00  0.00000000000E+00  0.33279393795E+03  0.14451812646E+04  0.14063417374E+04 0.  0.
        3    1    3    3  502    0  0.41414900290E+03 -0.17331817746E+02  0.75008861204E+03  0.85700217306E+03  0.10100000352E+00 0. -1.
       -3    1    3    3    0  502 -0.41414900290E+03  0.17331817746E+02 -0.41729467409E+03  0.58817909155E+03  0.10100000352E+00 0.  1.
</event>
<event>
 5   0  0.4208622E-04  0.1395749E+04  0.7818609E-02  0.8956902E-01
       -2   -1    0    0    0  501  0.00000000000E+00  0.00000000000E+00  0.95353594527E+03  0.95353594527E+03  0.25500000920E-02 0. -1.
        2   -1    0    0  501    0  0.00000000000E+00  0.00000000000E+00 -0.51076057246E+03  0.51076057246E+03  0.25500000920E-02 0.  1.
    10030    2    1    2    0    0  0.00000000000E+00  0.00000000000E+00  0.44277537282E+03  0.14642965177E+04  0.13957486382E+04 0.  0.
        4    1    3    3  502    0 -0.28834069679E+02  0.69521187355E+03  0.16512554824E+03  0.71513566005E+03  0.12699999809E+01 0. -1.
       -4    1    3    3    0  502  0.28834069679E+02 -0.69521187355E+03  0.27764982457E+03  0.74916085768E+03  0.12699999809E+01 0.  1.
</event>
<event>
 5   0  0.3917598E-04  0.1398083E+04  0.7818609E-02  0.8955207E-01
        2   -1    0    0  501    0  0.00000000000E+00  0.00000000000E+00  0.10866177829E+04  0.10866177829E+04  0.25500000920E-02 0.  1.
       -2   -1    0    0    0  501  0.00000000000E+00  0.00000000000E+00 -0.44970635178E+03  0.44970635179E+03  0.25500000920E-02 0. -1.
    10030    2    1    2    0    0  0.00000000000E+00  0.00000000000E+00  0.63691143116E+03  0.15363241347E+04  0.13980828573E+04 0.  0.
        3    1    3    3  502    0  0.41483350683E+03 -0.86264946116E+02 -0.29251560004E+03  0.51487266949E+03  0.10100000352E+00 0. -1.
       -3    1    3    3    0  502 -0.41483350683E+03  0.86264946116E+02  0.92942703120E+03  0.10214514652E+04  0.10100000352E+00 0.  1.
</event>
<event>
 5   0  0.4310348E-04  0.1399113E+04  0.7818609E-02  0.8954461E-01
       -2   -1    0    0    0  501  0.00000000000E+00  0.00000000000E+00  0.11865587499E+04  0.11865587499E+04  0.25500000920E-02 0. -1.
        2   -1    0    0  501    0  0.00000000000E+00  0.00000000000E+00 -0.41243603169E+03  0.41243603170E+03  0.25500000920E-02 0.  1.
    10030    2    1    2    0    0  0.00000000000E+00  0.00000000000E+00  0.77412271825E+03  0.15989947816E+04  0.13991134081E+04 0.  0.
        1    1    3    3  502    0 -0.35528577095E+03  0.30629683291E+03  0.98017730487E+03  0.10866431235E+04  0.50400001928E-02 0. -1.
       -1    1    3    3    0  502  0.35528577095E+03 -0.30629683291E+03 -0.20605458662E+03  0.51235165812E+03  0.50400001928E-02 0.  1.
</event>
<event>
 5   0  0.2155352E-04  0.1393324E+04  0.7818609E-02  0.8958665E-01
       -1   -1    0    0    0  501  0.00000000000E+00  0.00000000000E+00  0.72702694401E+03  0.72702694402E+03  0.50400001928E-02 0.  1.
        1   -1    0    0  501    0  0.00000000000E+00  0.00000000000E+00 -0.66756536944E+03  0.66756536946E+03  0.50400001928E-02 0. -1.
    10030    2    1    2    0    0  0.00000000000E+00  0.00000000000E+00  0.59461574564E+02  0.13945923135E+04  0.13933240980E+04 0.  0.
        2    1    3    3  502    0 -0.15839856968E+03 -0.56891261965E+03 -0.34018148890E+03  0.68152411628E+03  0.25500000920E-02 0. -1.
       -2    1    3    3    0  502  0.15839856968E+03  0.56891261965E+03  0.39964306347E+03  0.71306819720E+03  0.25500000920E-02 0.  1.
</event>
<event>
 5   0  0.2143942E-04  0.1398137E+04  0.7818609E-02  0.8955168E-01
        1   -1    0    0  501    0  0.00000000000E+00  0.00000000000E+00  0.38866119564E+03  0.38866119567E+03  0.50400001928E-02 0.  1.
       -1   -1    0    0    0  501  0.00000000000E+00  0.00000000000E+00 -0.12573846291E+04  0.12573846291E+04  0.50400001928E-02 0. -1.
    10030    2    1    2    0    0  0.00000000000E+00  0.00000000000E+00 -0.86872343348E+03  0.16460458248E+04  0.13981367792E+04 0.  0.
        4    1    3    3  502    0 -0.75086461757E+02 -0.12112852249E+03  0.37137602346E+03  0.39778368418E+03  0.12699999809E+01 0.  1.
       -4    1    3    3    0  502  0.75086461757E+02  0.12112852249E+03 -0.12400994569E+04  0.12482621406E+04  0.12699999809E+01 0. -1.
</event>
<event>
 5   0  0.3975164E-04  0.1399093E+04  0.7818609E-02  0.8954475E-01
       -2   -1    0    0    0  501  0.00000000000E+00  0.00000000000E+00  0.45363649721E+03  0.45363649722E+03  0.25500000920E-02 0. -1.
        2   -1    0    0  501    0  0.00000000000E+00  0.00000000000E+00 -0.10787613276E+04  0.10787613276E+04  0.25500000920E-02 0.  1.
    10030    2    1    2    0    0  0.00000000000E+00  0.00000000000E+00 -0.62512483040E+03  0.15323978248E+04  0.13990932921E+04 0.  0.
        5    1    3    3  502    0 -0.54934559332E+03  0.21398299624E+03 -0.72496685028E+03  0.93443476368E+03  0.46999998093E+01 0.  1.
       -5    1    3    3    0  502  0.54934559332E+03 -0.21398299624E+03  0.99842019872E+02  0.59796306116E+03  0.46999998093E+01 0. -1.
</event>
<event>
 5   0  0.2223112E-04  0.1398803E+04  0.7818609E-02  0.8954685E-01
        1   -1    0    0  501    0  0.00000000000E+00  0.00000000000E+00  0.15117989044E+04  0.15117989044E+04  0.50400001928E-02 0.  1.
       -1   -1    0    0    0  501  0.00000000000E+00  0.00000000000E+00 -0.32356337845E+03  0.32356337849E+03  0.50400001928E-02 0. -1.
    10030    2    1    2    0    0  0.00000000000E+00  0.00000000000E+00  0.11882355260E+04  0.18353622829E+04  0.13988034331E+04 0.  0.
        1    1    3    3  502    0  0.68319339195E+03 -0.14848197213E+03  0.61910461127E+03  0.93385792633E+03  0.50400001928E-02 0.  1.
       -1    1    3    3    0  502 -0.68319339195E+03  0.14848197213E+03  0.56913091471E+03  0.90150435660E+03  0.50400001928E-02 0. -1.
</event>
<event>
 5   0  0.2143942E-04  0.1399333E+04  0.7818609E-02  0.8954301E-01
        1   -1    0    0  501    0  0.00000000000E+00  0.00000000000E+00  0.43512416896E+03  0.43512416899E+03  0.50400001928E-02 0.  1.
       -1   -1    0    0    0  501  0.00000000000E+00  0.00000000000E+00 -0.11250426935E+04  0.11250426935E+04  0.50400001928E-02 0. -1.
    10030    2    1    2    0    0  0.00000000000E+00  0.00000000000E+00 -0.68991852452E+03  0.15601668625E+04  0.13993330798E+04 0.  0.
        4    1    3    3  502    0 -0.99278431427E+02 -0.40296112045E+03 -0.97299371233E+03  0.10578053926E+04  0.12699999809E+01 0. -1.
       -4    1    3    3    0  502  0.99278431427E+02  0.40296112045E+03  0.28307518781E+03  0.50236146985E+03  0.12699999809E+01 0.  1.
</event>
<event>
 5   0  0.2217251E-04  0.1395930E+04  0.7818609E-02  0.8956770E-01
       -1   -1    0    0    0  501  0.00000000000E+00  0.00000000000E+00  0.11849889792E+04  0.11849889792E+04  0.50400001928E-02 0. -1.
        1   -1    0    0  501    0  0.00000000000E+00  0.00000000000E+00 -0.41110516993E+03  0.41110516996E+03  0.50400001928E-02 0.  1.
    10030    2    1    2    0    0  0.00000000000E+00  0.00000000000E+00  0.77388380925E+03  0.15960941491E+04  0.13959299347E+04 0.  0.
        5    1    3    3  502    0  0.36455745366E+03  0.48460258332E+03 -0.81344634629E+01  0.60648995068E+03  0.46999998093E+01 0. -1.
       -5    1    3    3    0  502 -0.36455745366E+03 -0.48460258332E+03  0.78201827271E+03  0.98960419847E+03  0.46999998093E+01 0.  1.
</event>
<event>
 5   0  0.4208622E-04  0.1403576E+04  0.7818609E-02  0.8951234E-01
       -2   -1    0    0    0  501  0.00000000000E+00  0.00000000000E+00  0.13621569268E+04  0.13621569268E+04  0.25500000920E-02 0. -1.
        2   -1    0    0  501    0  0.00000000000E+00  0.00000000000E+00 -0.36156382237E+03  0.36156382238E+03  0.25500000920E-02 0.  1.
    10030    2    1    2    0    0  0.00000000000E+00  0.00000000000E+00  0.10005931044E+04  0.17237207492E+04  0.14035763822E+04 0.  0.
        4    1    3    3  502    0 -0.47418817757E+03  0.15219125436E+03  0.11075360722E+04  0.12143534781E+04  0.12699999809E+01 0. -1.
       -4    1    3    3    0  502  0.47418817757E+03 -0.15219125436E+03 -0.10694296773E+03  0.50936727113E+03  0.12699999809E+01 0.  1.
</event>
<event>
 5   0  0.2223112E-04  0.1401769E+04  0.7818609E-02  0.8952539E-01
       -1   -1    0    0    0  501  0.00000000000E+00  0.00000000000E+00  0.51174440558E+03  0.51174440560E+03  0.50400001928E-02 0. -1.
        1   -1    0    0  501    0  0.00000000000E+00  0.00000000000E+00 -0.95993085297E+03  0.95993085298E+03  0.50400001928E-02 0.  1.
    10030    2    1    2    0    0  0.00000000000E+00  0.00000000000E+00 -0.44818644739E+03  0.14716752586E+04  0.14017692303E+04 0.  0.
        1    1    3    3  502    0 -0.50647022025E+02  0.11989083539E+03 -0.94713296807E+03  0.95603336368E+03  0.50400001928E-02 0.  1.
       -1    1    3    3    0  502  0.50647022025E+02 -0.11989083539E+03  0.49894652068E+03  0.51564189490E+03  0.50400001928E-02 0. -1.
</event>
<event>
 5   0  0.3932568E-04  0.1374436E+04  0.7818609E-02  0.8972533E-01
        2   -1    0    0  501    0  0.00000000000E+00  0.00000000000E+00  0.32267380278E+03  0.32267380279E+03  0.25500000920E-02 0.  1.
       -2   -1    0    0    0  501  0.00000000000E+00  0.00000000000E+00 -0.14636107897E+04  0.14636107897E+04  0.25500000920E-02 0. -1.
    10030    2    1    2    0    0  0.00000000000E+00  0.00000000000E+00 -0.11409369869E+04  0.17862845925E+04  0.13744364071E+04 0.  0.
        2    1    3    3  502    0  0.29727321694E+03  0.27947843581E+03  0.14821412665E+03  0.43410481331E+03  0.25500000920E-02 0.  1.
       -2    1    3    3    0  502 -0.29727321694E+03 -0.27947843581E+03 -0.12891511136E+04  0.13521797792E+04  0.25500000920E-02 0. -1.
</event>
<event>
 5   0  0.3975164E-04  0.1388059E+04  0.7818609E-02  0.8962508E-01
       -2   -1    0    0    0  501  0.00000000000E+00  0.00000000000E+00  0.50192383244E+03  0.50192383245E+03  0.25500000920E-02 0.  1.
        2   -1    0    0  501    0  0.00000000000E+00  0.00000000000E+00 -0.95966090474E+03  0.95966090474E+03  0.25500000920E-02 0. -1.
    10030    2    1    2    0    0  0.00000000000E+00  0.00000000000E+00 -0.45773707229E+03  0.14615847372E+04  0.13880586143E+04 0.  0.
        5    1    3    3  502    0 -0.11641469350E+03  0.16159571339E+03  0.47116998803E+03  0.51155527861E+03  0.46999998093E+01 0.  1.
       -5    1    3    3    0  502  0.11641469350E+03 -0.16159571339E+03 -0.92890706033E+03  0.95002945858E+03  0.46999998093E+01 0. -1.
</event>
<event>
 5   0  0.2215876E-04  0.1389148E+04  0.7818609E-02  0.8961712E-01
       -1   -1    0    0    0  501  0.00000000000E+00  0.00000000000E+00  0.49530045229E+03  0.49530045232E+03  0.50400001928E-02 0.  1.
        1   -1    0    0  501    0  0.00000000000E+00  0.00000000000E+00 -0.97402061564E+03  0.97402061565E+03  0.50400001928E-02 0. -1.
    10030    2    1    2    0    0  0.00000000000E+00  0.00000000000E+00 -0.47872016335E+03  0.14693210680E+04  0.13891477265E+04 0.  0.
        3    1    3    3  502    0 -0.71273890230E+02 -0.61105141241E+03  0.10169168321E+03  0.62354230383E+03  0.10100000352E+00 0.  1.
       -3    1    3    3    0  502  0.71273890230E+02  0.61105141241E+03 -0.58041184656E+03  0.84577876414E+03  0.10100000352E+00 0. -1.
</event>
<event>
 5   0  0.2217251E-04  0.1414209E+04  0.7818609E-02  0.8943597E-01
        1   -1    0    0  501    0  0.00000000000E+00  0.00000000000E+00  0.51520873844E+03  0.51520873847E+03  0.50400001928E-02 0.  1.
       -1   -1    0    0    0  501  0.00000000000E+00  0.00000000000E+00 -0.97047471125E+03  0.97047471127E+03  0.50400001928E-02 0. -1.
    10030    2    1    2    0    0  0.00000000000E+00  0.00000000000E+00 -0.45526597281E+03  0.14856834497E+04  0.14142093928E+04 0.  0.
        5    1    3    3  502    0 -0.40999201711E+02 -0.50227532932E+03  0.29343219790E+03  0.58316891699E+03  0.46999998093E+01 0.  1.
       -5    1    3    3    0  502  0.40999201711E+02  0.50227532932E+03 -0.74869817071E+03  0.90251453274E+03  0.46999998093E+01 0. -1.
</event>
<event>
 5   0  0.3932568E-04  0.1425179E+04  0.7818609E-02  0.8935792E-01
        2   -1    0    0  501    0  0.00000000000E+00  0.00000000000E+00  0.53887908685E+03  0.53887908685E+03  0.25500000920E-02 0. -1.
       -2   -1    0    0    0  501  0.00000000000E+00  0.00000000000E+00 -0.94229592325E+03  0.94229592325E+03  0.25500000920E-02 0.  1.
    10030    2    1    2    0    0  0.00000000000E+00  0.00000000000E+00 -0.40341683641E+03  0.14811750101E+04  0.14251786789E+04 0.  0.
        2    1    3    3  502    0 -0.47374226052E+03  0.15586888932E+03 -0.73068262548E+03  0.88466035248E+03  0.25500000920E-02 0.  1.
       -2    1    3    3    0  502  0.47374226052E+03 -0.15586888932E+03  0.32726578908E+03  0.59651465763E+03  0.25500000920E-02 0. -1.
</event>
<event>
 5   0  0.2143942E-04  0.1400945E+04  0.7818609E-02  0.8953135E-01
       -1   -1    0    0    0  501  0.00000000000E+00  0.00000000000E+00  0.85491921728E+03  0.85491921730E+03  0.50400001928E-02 0. -1.
        1   -1    0    0  501    0  0.00000000000E+00  0.00000000000E+00 -0.57392763546E+03  0.57392763548E+03  0.50400001928E-02 0.  1.
    10030    2    1    2    0    0  0.00000000000E+00  0.00000000000E+00  0.28099158182E+03  0.14288468528E+04  0.14009450595E+04 0.  0.
        4    1    3    3  502    0  0.20965941366E+03  0.17144558880E+03 -0.51836507141E+03  0.58485435778E+03  0.12699999809E+01 0.  1.
       -4    1    3    3    0  502 -0.20965941366E+03 -0.17144558880E+03  0.79935665323E+03  0.84399249500E+03  0.12699999809E+01 0. -1.
</event>
<event>
 5   0  0.3917598E-04  0.1397175E+04  0.7818609E-02  0.8955866E-01
        2   -1    0    0  501    0  0.00000000000E+00  0.00000000000E+00  0.97403782604E+03  0.97403782605E+03  0.25500000920E-02 0. -1.
       -2   -1    0    0    0  501  0.00000000000E+00  0.00000000000E+00 -0.50103218421E+03  0.50103218422E+03  0.25500000920E-02 0.  1.
    10030    2    1    2    0    0  0.00000000000E+00  0.00000000000E+00  0.47300564183E+03  0.14750700103E+04  0.13971747199E+04 0.  0.
        3    1    3    3  502    0 -0.49770353991E+03 -0.37917932027E+03 -0.91526171383E+02  0.63234707306E+03  0.10100000352E+00 0.  1.
       -3    1    3    3    0  502  0.49770353991E+03  0.37917932027E+03  0.56453181321E+03  0.84272293721E+03  0.10100000352E+00 0. -1.
</event>
<event>
 5   0  0.3975164E-04  0.1398948E+04  0.7818609E-02  0.8954580E-01
        2   -1    0    0  501    0  0.00000000000E+00  0.00000000000E+00  0.10409764300E+04  0.10409764300E+04  0.25500000920E-02 0.  1.
       -2   -1    0    0    0  501  0.00000000000E+00  0.00000000000E+00 -0.47000486015E+03  0.47000486015E+03  0.25500000920E-02 0. -1.
    10030    2    1    2    0    0  0.00000000000E+00  0.00000000000E+00  0.57097156981E+03  0.15109812901E+04  0.13989481497E+04 0.  0.
        5    1    3    3  502    0  0.34450745033E+03  0.41782313423E+03  0.76363529820E+03  0.93617440335E+03  0.46999998093E+01 0.  1.
       -5    1    3    3    0  502 -0.34450745033E+03 -0.41782313423E+03 -0.19266372839E+03  0.57480688676E+03  0.46999998093E+01 0. -1.
</event>
<event>
 5   0  0.4310348E-04  0.1387307E+04  0.7818609E-02  0.8963058E-01
       -2   -1    0    0    0  501  0.00000000000E+00  0.00000000000E+00  0.99355954744E+03  0.99355954745E+03  0.25500000920E-02 0.  1.
        2   -1    0    0  501    0  0.00000000000E+00  0.00000000000E+00 -0.48427400418E+03  0.48427400419E+03  0.25500000920E-02 0. -1.
    10030    2    1    2    0    0  0.00000000000E+00  0.00000000000E+00  0.50928554326E+03  0.14778335516E+04  0.13873068304E+04 0.  0.
        1    1    3    3  502    0 -0.43942493588E+03  0.52782575709E+03  0.35825617173E+03  0.77462364328E+03  0.50400001928E-02 0. -1.
       -1    1    3    3    0  502  0.43942493588E+03 -0.52782575709E+03  0.15102937153E+03  0.70320990836E+03  0.50400001928E-02 0.  1.
</event>
<event>
 5   0  0.2143942E-04  0.1399790E+04  0.7818609E-02  0.8953971E-01
        1   -1    0    0  501    0  0.00000000000E+00  0.00000000000E+00  0.11793379558E+04  0.11793379558E+04  0.50400001928E-02 0.  1.
       -1   -1    0    0    0  501  0.00000000000E+00  0.00000000000E+00 -0.41536248949E+03  0.41536248952E+03  0.50400001928E-02 0. -1.
    10030    2    1    2    0    0  0.00000000000E+00  0.00000000000E+00  0.76397546635E+03  0.15947004454E+04  0.13997896261E+04 0.  0.
        4    1    3    3  502    0  0.48113276639E+03 -0.18925975934E+03  0.91941964635E+03  0.10548185125E+04  0.12699999809E+01 0.  1.
       -4    1    3    3    0  502 -0.48113276639E+03  0.18925975934E+03 -0.15544418000E+03  0.53988193283E+03  0.12699999809E+01 0. -1.
</event>
<event>
 5   0  0.4310348E-04  0.1397332E+04  0.7818609E-02  0.8955752E-01
        2   -1    0    0  501    0  0.00000000000E+00  0.00000000000E+00  0.86476669051E+03  0.86476669051E+03  0.25500000920E-02 0. -1.
       -2   -1    0    0    0  501  0.00000000000E+00  0.00000000000E+00 -0.56446909797E+03  0.56446909797E+03  0.25500000920E-02 0.  1.
    10030    2    1    2    0    0  0.00000000000E+00  0.00000000000E+00  0.30029759254E+03  0.14292357885E+04  0.13973318486E+04 0.  0.
        1    1    3    3  502    0  0.45609676903E+03  0.39962350254E+03  0.50507426690E+03  0.78919149870E+03  0.50400001928E-02 0. -1.
       -1    1    3    3    0  502 -0.45609676903E+03 -0.39962350254E+03 -0.20477667437E+03  0.64004428979E+03  0.50400001928E-02 0.  1.
</event>
<event>
 5   0  0.2223112E-04  0.1374930E+04  0.7818609E-02  0.8972168E-01
       -1   -1    0    0    0  501  0.00000000000E+00  0.00000000000E+00  0.39189652637E+03  0.39189652640E+03  0.50400001928E-02 0.  1.
        1   -1    0    0  501    0  0.00000000000E+00  0.00000000000E+00 -0.12059513062E+04  0.12059513062E+04  0.50400001928E-02 0. -1.
    10030    2    1    2    0    0  0.00000000000E+00  0.00000000000E+00 -0.81405477979E+03  0.15978478326E+04  0.13749300024E+04 0.  0.
        1    1    3    3  502    0  0.28774340647E+03 -0.61996928001E+03 -0.49282025211E+03  0.84263276523E+03  0.50400001928E-02 0. -1.
       -1    1    3    3    0  502 -0.28774340647E+03  0.61996928001E+03 -0.32123452767E+03  0.75521506733E+03  0.50400001928E-02 0.  1.
</event>
<event>
 5   0  0.4208622E-04  0.1399039E+04  0.7818609E-02  0.8954515E-01
        2   -1    0    0  501    0  0.00000000000E+00  0.00000000000E+00  0.20711859522E+04  0.20711859522E+04  0.25500000920E-02 0.  1.
       -2   -1    0    0    0  501  0.00000000000E+00  0.00000000000E+00 -0.23625463292E+03  0.23625463293E+03  0.25500000920E-02 0. -1.
    10030    2    1    2    0    0  0.00000000000E+00  0.00000000000E+00  0.18349313193E+04  0.23074405851E+04  0.13990386369E+04 0.  0.
        4    1    3    3  502    0 -0.50642259514E+03 -0.35156723846E+03  0.37229060007E+03  0.72018419299E+03  0.12699999809E+01 0. -1.
       -4    1    3    3    0  502  0.50642259514E+03  0.35156723846E+03  0.14626407192E+04  0.15872563922E+04  0.12699999809E+01 0.  1.
</event>
<event>
 5   0  0.2223112E-04  0.1399604E+04  0.7818609E-02  0.8954105E-01
        1   -1    0    0  501    0  0.00000000000E+00  0.00000000000E+00  0.20778799698E+03  0.20778799704E+03  0.50400001928E-02 0.  1.
       -1   -1    0    0    0  501  0.00000000000E+00  0.00000000000E+00 -0.23568384801E+04  0.23568384801E+04  0.50400001928E-02 0. -1.
    10030    2    1    2    0    0  0.00000000000E+00  0.00000000000E+00 -0.21490504831E+04  0.25646264771E+04  0.13996038683E+04 0.  0.
        1    1    3    3  502    0  0.28967214092E+03 -0.30923125894E+03 -0.20950700134E+04  0.21374873758E+04  0.50400001928E-02 0. -1.
       -1    1    3    3    0  502 -0.28967214092E+03  0.30923125894E+03 -0.53980469713E+02  0.42713910131E+03  0.50400001928E-02 0.  1.
</event>
<event>
 5   0  0.3975164E-04  0.1379745E+04  0.7818609E-02  0.8968612E-01
        2   -1    0    0  501    0  0.00000000000E+00  0.00000000000E+00  0.30366665219E+03  0.30366665220E+03  0.25500000920E-02 0. -1.
       -2   -1    0    0    0  501  0.00000000000E+00  0.00000000000E+00 -0.15672584271E+04  0.15672584271E+04  0.25500000920E-02 0.  1.
    10030    2    1    2    0    0  0.00000000000E+00  0.00000000000E+00 -0.12635917749E+04  0.18709250793E+04  0.13797450774E+04 0.  0.
        5    1    3    3  502    0 -0.50522500071E+03  0.18445346280E+03 -0.12175891491E+04  0.13310975949E+04  0.46999998093E+01 0.  1.
       -5    1    3    3    0  502  0.50522500071E+03 -0.18445346280E+03 -0.46002625816E+02  0.53982748435E+03  0.46999998093E+01 0. -1.
</event>
<event>
 5   0  0.3975164E-04  0.1398772E+04  0.7818609E-02  0.8954708E-01
        2   -1    0    0  501    0  0.00000000000E+00  0.00000000000E+00  0.73372274372E+03  0.73372274373E+03  0.25500000920E-02 0.  1.
       -2   -1    0    0    0  501  0.00000000000E+00  0.00000000000E+00 -0.66665585144E+03  0.66665585144E+03  0.25500000920E-02 0. -1.
    10030    2    1    2    0    0  0.00000000000E+00  0.00000000000E+00  0.67066892287E+02  0.14003785952E+04  0.13987716904E+04 0.  0.
        5    1    3    3  502    0 -0.13136769117E+03 -0.25657385831E+03 -0.60440407850E+03  0.66963721160E+03  0.46999998093E+01 0. -1.
       -5    1    3    3    0  502  0.13136769117E+03  0.25657385831E+03  0.67147097079E+03  0.73074138357E+03  0.46999998093E+01 0.  1.
</event>
<event>
 5   0  0.3932568E-04  0.1393224E+04  0.7818609E-02  0.8958738E-01
        2   -1    0    0  501    0  0.00000000000E+00  0.00000000000E+00  0.89216631465E+03  0.89216631466E+03  0.25500000920E-02 0.  1.
       -2   -1    0    0    0  501  0.00000000000E+00  0.00000000000E+00 -0.54392158741E+03  0.54392158742E+03  0.25500000920E-02 0. -1.
    10030    2    1    2    0    0  0.00000000000E+00  0.00000000000E+00  0.34824472724E+03  0.14360879021E+04  0.13932243439E+04 0.  0.
        2    1    3    3  502    0  0.93753163383E+02  0.57453219942E+03 -0.22026053010E+03  0.62240790881E+03  0.25500000920E-02 0. -1.
       -2    1    3    3    0  502 -0.93753163383E+02 -0.57453219942E+03  0.56850525734E+03  0.81367999327E+03  0.25500000920E-02 0.  1.
</event>
<event>
 5   0  0.3932568E-04  0.1414396E+04  0.7818609E-02  0.8943463E-01
       -2   -1    0    0    0  501  0.00000000000E+00  0.00000000000E+00  0.93314544293E+03  0.93314544293E+03  0.25500000920E-02 0. -1.
        2   -1    0    0  501    0  0.00000000000E+00  0.00000000000E+00 -0.53596060656E+03  0.53596060656E+03  0.25500000920E-02 0.  1.
    10030    2    1    2    0    0  0.00000000000E+00  0.00000000000E+00  0.39718483637E+03  0.14691060495E+04  0.14143962636E+04 0.  0.
        2    1    3    3  502    0 -0.35606370930E+03 -0.45859920303E+03  0.61798615695E+03  0.84793955227E+03  0.25500000920E-02 0. -1.
       -2    1    3    3    0  502  0.35606370930E+03  0.45859920303E+03 -0.22080132058E+03  0.62116649723E+03  0.25500000920E-02 0.  1.
</event>
<event>
 5   0  0.4310348E-04  0.1402518E+04  0.7818609E-02  0.8951998E-01
        2   -1    0    0  501    0  0.00000000000E+00  0.00000000000E+00  0.82964135752E+03  0.82964135752E+03  0.25500000920E-02 0.  1.
       -2   -1    0    0    0  501  0.00000000000E+00  0.00000000000E+00 -0.59274299230E+03  0.59274299230E+03  0.25500000920E-02 0. -1.
    10030    2    1    2    0    0  0.00000000000E+00  0.00000000000E+00  0.23689836522E+03  0.14223843498E+04  0.14025178798E+04 0.  0.
        1    1    3    3  502    0 -0.43334356668E+02  0.35422194730E+03  0.73066636895E+03  0.81315705566E+03  0.50400001928E-02 0.  1.
       -1    1    3    3    0  502  0.43334356668E+02 -0.35422194730E+03 -0.49376800373E+03  0.60922729417E+03  0.50400001928E-02 0. -1.
</event>
<event>
 5   0  0.2217251E-04  0.1404708E+04  0.7818609E-02  0.8950418E-01
       -1   -1    0    0    0  501  0.00000000000E+00  0.00000000000E+00  0.10839351775E+04  0.10839351775E+04  0.50400001928E-02 0.  1.
        1   -1    0    0  501    0  0.00000000000E+00  0.00000000000E+00 -0.45510183906E+03  0.45510183908E+03  0.50400001928E-02 0. -1.
    10030    2    1    2    0    0  0.00000000000E+00  0.00000000000E+00  0.62883333848E+03  0.15390370166E+04  0.14047076461E+04 0.  0.
        5    1    3    3  502    0  0.61778341985E+02  0.20162292442E+03  0.10484141889E+04  0.10694216983E+04  0.46999998093E+01 0.  1.
       -5    1    3    3    0  502 -0.61778341985E+02 -0.20162292442E+03 -0.41958085044E+03  0.46961531837E+03  0.46999998093E+01 0. -1.
</event>
<event>
 5   0  0.2215876E-04  0.1399152E+04  0.7818609E-02  0.8954433E-01
       -1   -1    0    0    0  501  0.00000000000E+00  0.00000000000E+00  0.55080713471E+03  0.55080713473E+03  0.50400001928E-02 0. -1.
        1   -1    0    0  501    0  0.00000000000E+00  0.00000000000E+00 -0.88852572613E+03  0.88852572614E+03  0.50400001928E-02 0.  1.
    10030    2    1    2    0    0  0.00000000000E+00  0.00000000000E+00 -0.33771859142E+03  0.14393328609E+04  0.13991516134E+04 0.  0.
        3    1    3    3  502    0  0.50209745676E+03 -0.21558406391E+03 -0.61824314565E+03  0.82510783661E+03  0.10100000352E+00 0.  1.
       -3    1    3    3    0  502 -0.50209745676E+03  0.21558406391E+03  0.28052455423E+03  0.61422502426E+03  0.10100000352E+00 0. -1.
</event>
<event>
 5   0  0.3917598E-04  0.1399109E+04  0.7818609E-02  0.8954464E-01
       -2   -1    0    0    0  501  0.00000000000E+00  0.00000000000E+00  0.36121672333E+03  0.36121672334E+03  0.25500000920E-02 0. -1.
        2   -1    0    0  501    0  0.00000000000E+00  0.00000000000E+00 -0.13548001745E+04  0.13548001745E+04  0.25500000920E-02 0.  1.
    10030    2    1    2    0    0  0.00000000000E+00  0.00000000000E+00 -0.99358345118E+03  0.17160168979E+04  0.13991089733E+04 0.  0.
        3    1    3    3  502    0  0.65164837118E+02  0.31791417409E+03  0.26330680215E+03  0.41790711928E+03  0.10100000352E+00 0. -1.
       -3    1    3    3    0  502 -0.65164837118E+02 -0.31791417409E+03 -0.12568902533E+04  0.12981097786E+04  0.10100000352E+00 0.  1.
</event>
<event>
 5   0  0.2223112E-04  0.1399357E+04  0.7818609E-02  0.8954284E-01
        1   -1    0    0  501    0  0.00000000000E+00  0.00000000000E+00  0.18764198195E+04  0.18764198195E+04  0.50400001928E-02 0. -1.
       -1   -1    0    0    0  501  0.00000000000E+00  0.00000000000E+00 -0.26089583831E+03  0.26089583835E+03  0.50400001928E-02 0.  1.
    10030    2    1    2    0    0  0.00000000000E+00  0.00000000000E+00  0.16155239812E+04  0.21373156579E+04  0.13993571694E+04 0.  0.
        1    1    3    3  502    0 -0.10914069798E+03  0.39274980627E+02 -0.24610866884E+03  0.27207295522E+03  0.50400001928E-02 0.  1.
       -1    1    3    3    0  502  0.10914069798E+03 -0.39274980627E+02  0.18616326500E+04  0.18652427026E+04  0.50400001928E-02 0. -1.
</event>
<event>
 5   0  0.3932568E-04  0.1399565E+04  0.7818609E-02  0.8954133E-01
       -2   -1    0    0    0  501  0.00000000000E+00  0.00000000000E+00  0.66513780337E+03  0.66513780338E+03  0.25500000920E-02 0. -1.
        2   -1    0    0  501    0  0.00000000000E+00  0.00000000000E+00 -0.73623180432E+03  0.73623180433E+03  0.25500000920E-02 0.  1.
    10030    2    1    2    0    0  0.00000000000E+00  0.00000000000E+00 -0.71094000951E+02  0.14013696077E+04  0.13995650826E+04 0.  0.
        2    1    3    3  502    0  0.29362989609E+03  0.52867563957E+03 -0.38810772968E+03  0.71857084382E+03  0.25500000920E-02 0.  1.
       -2    1    3    3    0  502 -0.29362989609E+03 -0.52867563957E+03  0.31701372872E+03  0.68279876388E+03  0.25500000920E-02 0. -1.
</event>
<event>
 5   0  0.2143942E-04  0.1400881E+04  0.7818609E-02  0.8953181E-01
       -1   -1    0    0    0  501  0.00000000000E+00  0.00000000000E+00  0.33293110853E+03  0.33293110857E+03  0.50400001928E-02 0. -1.
        1   -1    0    0  501    0  0.00000000000E+00  0.00000000000E+00 -0.14736283995E+04  0.14736283996E+04  0.50400001928E-02 0.  1.
    10030    2    1    2    0    0  0.00000000000E+00  0.00000000000E+00 -0.11406972910E+04  0.18065595081E+04  0.14008807753E+04 0.  0.
        4    1    3    3  502    0  0.34390951497E+03 -0.51829191247E+03 -0.15503940428E+03  0.64104531103E+03  0.12699999809E+01 0.  1.
       -4    1    3    3    0  502 -0.34390951497E+03  0.51829191247E+03 -0.98565788673E+03  0.11655141971E+04  0.12699999809E+01 0. -1.
</event>
<event>
 5   0  0.2223112E-04  0.1386082E+04  0.7818609E-02  0.8963955E-01
        1   -1    0    0  501    0  0.00000000000E+00  0.00000000000E+00  0.37309165164E+03  0.37309165167E+03  0.50400001928E-02 0.  1.
       -1   -1    0    0    0  501  0.00000000000E+00  0.00000000000E+00 -0.12873669135E+04  0.12873669135E+04  0.50400001928E-02 0. -1.
    10030    2    1    2    0    0  0.00000000000E+00  0.00000000000E+00 -0.91427526190E+03  0.16604585652E+04  0.13860820294E+04 0.  0.
        1    1    3    3  502    0  0.24201145511E+02 -0.48696658630E+03  0.13288669111E+03  0.50535237638E+03  0.50400001928E-02 0.  1.
       -1    1    3    3    0  502 -0.24201145511E+02  0.48696658630E+03 -0.10471619530E+04  0.11551061888E+04  0.50400001928E-02 0. -1.
</event>
<event>
 5   0  0.2155352E-04  0.1394970E+04  0.7818609E-02  0.8957468E-01
        1   -1    0    0  501    0  0.00000000000E+00  0.00000000000E+00  0.21113741234E+04  0.21113741234E+04  0.50400001928E-02 0. -1.
       -1   -1    0    0    0  501  0.00000000000E+00  0.00000000000E+00 -0.23041168652E+03  0.23041168658E+03  0.50400001928E-02 0.  1.
    10030    2    1    2    0    0  0.00000000000E+00  0.00000000000E+00  0.18809624369E+04  0.23417858100E+04  0.13949699247E+04 0.  0.
        2    1    3    3  502    0  0.64263929993E+03 -0.93151169747E+02  0.51306949707E+03  0.82758849622E+03  0.25500000920E-02 0.  1.
       -2    1    3    3    0  502 -0.64263929993E+03  0.93151169747E+02  0.13678929398E+04  0.15141973138E+04  0.25500000920E-02 0. -1.
</event>
<event>
 5   0  0.2215876E-04  0.1407928E+04  0.7818609E-02  0.8948100E-01
        1   -1    0    0  501    0  0.00000000000E+00  0.00000000000E+00  0.57465414454E+03  0.57465414456E+03  0.50400001928E-02 0.  1.
       -1   -1    0    0    0  501  0.00000000000E+00  0.00000000000E+00 -0.86237081227E+03  0.86237081228E+03  0.50400001928E-02 0. -1.
    10030    2    1    2    0    0  0.00000000000E+00  0.00000000000E+00 -0.28771666772E+03  0.14370249568E+04  0.14079275002E+04 0.  0.
        3    1    3    3  502    0  0.15149625530E+03  0.13933658568E+03  0.54325529518E+03  0.58094072453E+03  0.10100000352E+00 0.  1.
       -3    1    3    3    0  502 -0.15149625530E+03 -0.13933658568E+03 -0.83097196291E+03  0.85608423231E+03  0.10100000352E+00 0. -1.
</event>
<event>
 5   0  0.4208622E-04  0.1426308E+04  0.7818609E-02  0.8934993E-01
        2   -1    0    0  501    0  0.00000000000E+00  0.00000000000E+00  0.18179428809E+04  0.18179428809E+04  0.25500000920E-02 0. -1.
       -2   -1    0    0    0  501  0.00000000000E+00  0.00000000000E+00 -0.27976038590E+03  0.27976038591E+03  0.25500000920E-02 0.  1.
    10030    2    1    2    0    0  0.00000000000E+00  0.00000000000E+00  0.15381824950E+04  0.20977032668E+04  0.14263076834E+04 0.  0.
        4    1    3    3  502    0 -0.25828952761E+03  0.26262264009E+03  0.16671992626E+04  0.17074071352E+04  0.12699999809E+01 0. -1.
       -4    1    3    3    0  502  0.25828952761E+03 -0.26262264009E+03 -0.12901676758E+03  0.39029613165E+03  0.12699999809E+01 0.  1.
</event>
<event>
 5   0  0.4208622E-04  0.1399799E+04  0.7818609E-02  0.8953964E-01
       -2   -1    0    0    0  501  0.00000000000E+00  0.00000000000E+00  0.43081784888E+03  0.43081784889E+03  0.25500000920E-02 0. -1.
        2   -1    0    0  501    0  0.00000000000E+00  0.00000000000E+00 -0.11370455999E+04  0.11370455999E+04  0.25500000920E-02 0.  1.
    10030    2    1    2    0    0  0.00000000000E+00  0.00000000000E+00 -0.70622775098E+03  0.15678634488E+04  0.13997993277E+04 0.  0.
        4    1    3    3  502    0 -0.34134915191E+03 -0.11665324486E+03  0.31867252611E+03  0.48133254081E+03  0.12699999809E+01 0. -1.
       -4    1    3    3    0  502  0.34134915191E+03  0.11665324486E+03 -0.10249002771E+04  0.10865309080E+04  0.12699999809E+01 0.  1.
</event>
<event>
 5   0  0.2155352E-04  0.1398617E+04  0.7818609E-02  0.8954820E-01
       -1   -1    0    0    0  501  0.00000000000E+00  0.00000000000E+00  0.74803054216E+03  0.74803054218E+03  0.50400001928E-02 0.  1.
        1   -1    0    0  501    0  0.00000000000E+00  0.00000000000E+00 -0.65375962667E+03  0.65375962669E+03  0.50400001928E-02 0. -1.
    10030    2    1    2    0    0  0.00000000000E+00  0.00000000000E+00  0.94270915487E+02  0.14017901689E+04  0.13986166995E+04 0.  0.
        2    1    3    3  502    0  0.42828525708E+03  0.36549371847E+03  0.46282735658E+03  0.72885052080E+03  0.25500000920E-02 0.  1.
       -2    1    3    3    0  502 -0.42828525708E+03 -0.36549371847E+03 -0.36855644109E+03  0.67293964807E+03  0.25500000920E-02 0. -1.
</event>
<event>
 5   0  0.4208622E-04  0.1397315E+04  0.7818609E-02  0.8955764E-01
        2   -1    0    0  501    0  0.00000000000E+00  0.00000000000E+00  0.93449275943E+03  0.93449275943E+03  0.25500000920E-02 0. -1.
       -2   -1    0    0    0  501  0.00000000000E+00  0.00000000000E+00 -0.52233945510E+03  0.52233945511E+03  0.25500000920E-02 0.  1.
    10030    2    1    2    0    0  0.00000000000E+00  0.00000000000E+00  0.41215330432E+03  0.14568322145E+04  0.13973151953E+04 0.  0.
        4    1    3    3  502    0  0.16526397437E+02 -0.68788114431E+03  0.33234348431E+03  0.76413833497E+03  0.12699999809E+01 0. -1.
       -4    1    3    3    0  502 -0.16526397437E+02  0.68788114431E+03  0.79809820016E+02  0.69269387957E+03  0.12699999809E+01 0.  1.
</event>
<event>
 5   0  0.4310348E-04  0.1403567E+04  0.7818609E-02  0.8951241E-01
        2   -1    0    0  501    0  0.00000000000E+00  0.00000000000E+00  0.75136184808E+03  0.75136184809E+03  0.25500000920E-02 0. -1.
       -2   -1    0    0    0  501  0.00000000000E+00  0.00000000000E+00 -0.65547613357E+03  0.65547613357E+03  0.25500000920E-02 0.  1.
    10030    2    1    2    0    0  0.00000000000E+00  0.00000000000E+00  0.95885714513E+02  0.14068379817E+04  0.14035665415E+04 0.  0.
        1    1    3    3  502    0  0.54731705155E+03  0.74529530433E+01 -0.39227126728E+03  0.67341536112E+03  0.50400001928E-02 0.  1.
       -1    1    3    3    0  502 -0.54731705155E+03 -0.74529530433E+01  0.48815698180E+03  0.73342262054E+03  0.50400001928E-02 0. -1.
</event>
<event>
 5   0  0.4208622E-04  0.1400951E+04  0.7818609E-02  0.8953130E-01
        2   -1    0    0  501    0  0.00000000000E+00  0.00000000000E+00  0.12699072438E+04  0.12699072438E+04  0.25500000920E-02 0. -1.
       -2   -1    0    0    0  501  0.00000000000E+00  0.00000000000E+00 -0.38637954001E+03  0.38637954002E+03  0.25500000920E-02 0.  1.
    10030    2    1    2    0    0  0.00000000000E+00  0.00000000000E+00  0.88352770380E+03  0.16562867838E+04  0.14009513578E+04 0.  0.
        4    1    3    3  502    0  0.10839295877E+03  0.64077736007E+03  0.75078350974E+03  0.99298648032E+03  0.12699999809E+01 0. -1.
       -4    1    3    3    0  502 -0.10839295877E+03 -0.64077736007E+03  0.13274419406E+03  0.66330030352E+03  0.12699999809E+01 0.  1.
</event>
<event>
 5   0  0.2217251E-04  0.1397645E+04  0.7818609E-02  0.8955525E-01
        1   -1    0    0  501    0  0.00000000000E+00  0.00000000000E+00  0.12513168007E+04  0.12513168007E+04  0.50400001928E-02 0.  1.
       -1   -1    0    0    0  501  0.00000000000E+00  0.00000000000E+00 -0.39027116730E+03  0.39027116734E+03  0.50400001928E-02 0. -1.
    10030    2    1    2    0    0  0.00000000000E+00  0.00000000000E+00  0.86104563340E+03  0.16415879681E+04  0.13976449743E+04 0.  0.
        5    1    3    3  502    0  0.48564726095E+03  0.32741831598E+03  0.87819734083E+03  0.10556082015E+04  0.46999998093E+01 0.  1.
       -5    1    3    3    0  502 -0.48564726095E+03 -0.32741831598E+03 -0.17151707428E+02  0.58597976652E+03  0.46999998093E+01 0. -1.
</event>
<event>
 5   0  0.3975164E-04  0.1394578E+04  0.7818609E-02  0.8957753E-01
       -2   -1    0    0    0  501  0.00000000000E+00  0.00000000000E+00  0.69322881055E+03  0.69322881056E+03  0.25500000920E-02 0.  1.
        2   -1    0    0  501    0  0.00000000000E+00  0.00000000000E+00 -0.70137263586E+03  0.70137263586E+03  0.25500000920E-02 0. -1.
    10030    2    1    2    0    0  0.00000000000E+00  0.00000000000E+00 -0.81438253048E+01  0.13946014464E+04  0.13945776681E+04 0.  0.
        5    1    3    3  502    0 -0.53628610148E+03  0.20342901362E+03 -0.40056761596E+03  0.69961607413E+03  0.46999998093E+01 0. -1.
       -5    1    3    3    0  502  0.53628610148E+03 -0.20342901362E+03  0.39242379065E+03  0.69498537229E+03  0.46999998093E+01 0.  1.
</event>
<event>
 5   0  0.2217251E-04  0.1404458E+04  0.7818609E-02  0.8950598E-01
       -1   -1    0    0    0  501  0.00000000000E+00  0.00000000000E+00  0.35548568738E+03  0.35548568741E+03  0.50400001928E-02 0. -1.
        1   -1    0    0  501    0  0.00000000000E+00  0.00000000000E+00 -0.13871877070E+04  0.13871877070E+04  0.50400001928E-02 0.  1.
    10030    2    1    2    0    0  0.00000000000E+00  0.00000000000E+00 -0.10317020196E+04  0.17426733944E+04  0.14044577253E+04 0.  0.
        5    1    3    3  502    0 -0.52848800259E+03  0.34666942381E+03 -0.89551638212E+03  0.10961071749E+04  0.46999998093E+01 0.  1.
       -5    1    3    3    0  502  0.52848800259E+03 -0.34666942381E+03 -0.13618563745E+03  0.64656621945E+03  0.46999998093E+01 0. -1.
</event>
<event>
 5   0  0.2215876E-04  0.1394997E+04  0.7818609E-02  0.8957448E-01
       -1   -1    0    0    0  501  0.00000000000E+00  0.00000000000E+00  0.30781815312E+03  0.30781815316E+03  0.50400001928E-02 0. -1.
        1   -1    0    0  501    0  0.00000000000E+00  0.00000000000E+00 -0.15804920935E+04  0.15804920935E+04  0.50400001928E-02 0.  1.
    10030    2    1    2    0    0  0.00000000000E+00  0.00000000000E+00 -0.12726739404E+04  0.18883102467E+04  0.13949969997E+04 0.  0.
        3    1    3    3  502    0 -0.10468607292E+03  0.12566513643E+03  0.28149351549E+03  0.32556030139E+03  0.10100000352E+00 0. -1.
       -3    1    3    3    0  502  0.10468607292E+03 -0.12566513643E+03 -0.15541674559E+04  0.15627499453E+04  0.10100000352E+00 0.  1.
</event>
<event>
 5   0  0.3975164E-04  0.1401856E+04  0.7818609E-02  0.8952476E-01
        2   -1    0    0  501    0  0.00000000000E+00  0.00000000000E+00  0.24585854997E+04  0.24585854997E+04  0.25500000920E-02 0.  1.
       -2   -1    0    0    0  501  0.00000000000E+00  0.00000000000E+00 -0.19983025469E+03  0.19983025471E+03  0.25500000920E-02 0. -1.
    10030    2    1    2    0    0  0.00000000000E+00  0.00000000000E+00  0.22587552450E+04  0.26584157544E+04  0.14018555797E+04 0.  0.
        5    1    3    3  502    0 -0.17803952603E+01 -0.34547618384E+03  0.22858754211E+04  0.23118402830E+04  0.46999998093E+01 0.  1.
       -5    1    3    3    0  502  0.17803952603E+01  0.34547618384E+03 -0.27120176101E+02  0.34657547138E+03  0.46999998093E+01 0. -1.
</event>
<event>
 5   0  0.2223112E-04  0.1402570E+04  0.7818609E-02  0.8951960E-01
        1   -1    0    0  501    0  0.00000000000E+00  0.00000000000E+00  0.54840570483E+03  0.54840570485E+03  0.50400001928E-02 0. -1.
       -1   -1    0    0    0  501  0.00000000000E+00  0.00000000000E+00 -0.89678276991E+03  0.89678276992E+03  0.50400001928E-02 0.  1.
    10030    2    1    2    0    0  0.00000000000E+00  0.00000000000E+00 -0.34837706508E+03  0.14451884748E+04  0.14025701937E+04 0.  0.
        1    1    3    3  502    0  0.59852372528E+03  0.21727089598E+03  0.12861782482E+03  0.64959975127E+03  0.50400001928E-02 0. -1.
       -1    1    3    3    0  502 -0.59852372528E+03 -0.21727089598E+03 -0.47699488990E+03  0.79558872351E+03  0.50400001928E-02 0.  1.
</event>
<event>
 5   0  0.2143942E-04  0.1402108E+04  0.7818609E-02  0.8952294E-01
       -1   -1    0    0    0  501  0.00000000000E+00  0.00000000000E+00  0.21430530895E+03  0.21430530901E+03  0.50400001928E-02 0.  1.
        1   -1    0    0  501    0  0.00000000000E+00  0.00000000000E+00 -0.22933488486E+04  0.22933488486E+04  0.50400001928E-02 0. -1.
    10030    2    1    2    0    0  0.00000000000E+00  0.00000000000E+00 -0.20790435396E+04  0.25076541576E+04  0.14021081750E+04 0.  0.
        4    1    3    3  502    0  0.34587605269E+03 -0.43648246764E+03 -0.18011071415E+04  0.18852415592E+04  0.12699999809E+01 0. -1.
       -4    1    3    3    0  502 -0.34587605269E+03  0.43648246764E+03 -0.27793639814E+03  0.62241259843E+03  0.12699999809E+01 0.  1.
</event>
<event>
 5   0  0.2217251E-04  0.1400702E+04  0.7818609E-02  0.8953311E-01
        1   -1    0    0  501    0  0.00000000000E+00  0.00000000000E+00  0.12942728162E+04  0.12942728162E+04  0.50400001928E-02 0.  1.
       -1   -1    0    0    0  501  0.00000000000E+00  0.00000000000E+00 -0.37897052847E+03  0.37897052851E+03  0.50400001928E-02 0. -1.
    10030    2    1    2    0    0  0.00000000000E+00  0.00000000000E+00  0.91530228773E+03  0.16732433447E+04  0.14007016145E+04 0.  0.
        5    1    3    3  502    0 -0.26554663247E+03 -0.71993907649E+02 -0.31168773947E+03  0.41577574928E+03  0.46999998093E+01 0. -1.
       -5    1    3    3    0  502  0.26554663247E+03  0.71993907649E+02  0.12269900272E+04  0.12574675954E+04  0.46999998093E+01 0.  1.
</event>
<event>
 5   0  0.2223112E-04  0.1397983E+04  0.7818609E-02  0.8955280E-01
        1   -1    0    0  501    0  0.00000000000E+00  0.00000000000E+00  0.10654925301E+04  0.10654925301E+04  0.50400001928E-02 0. -1.
       -1   -1    0    0    0  501  0.00000000000E+00  0.00000000000E+00 -0.45855695443E+03  0.45855695446E+03  0.50400001928E-02 0.  1.
    10030    2    1    2    0    0  0.00000000000E+00  0.00000000000E+00  0.60693557567E+03  0.15240494846E+04  0.13979828462E+04 0.  0.
        1    1    3    3  502    0 -0.57011340864E+03  0.32680077410E+03  0.43737790689E+02  0.65859019050E+03  0.50400001928E-02 0. -1.
       -1    1    3    3    0  502  0.57011340864E+03 -0.32680077410E+03  0.56319778498E+03  0.86545929407E+03  0.50400001928E-02 0.  1.
</event>
<event>
 5   0  0.2223112E-04  0.1402046E+04  0.7818609E-02  0.8952339E-01
        1   -1    0    0  501    0  0.00000000000E+00  0.00000000000E+00  0.97176163588E+03  0.97176163589E+03  0.50400001928E-02 0. -1.
       -1   -1    0    0    0  501  0.00000000000E+00  0.00000000000E+00 -0.50571410162E+03  0.50571410164E+03  0.50400001928E-02 0.  1.
    10030    2    1    2    0    0  0.00000000000E+00  0.00000000000E+00  0.46604753426E+03  0.14774757375E+04  0.14020464510E+04 0.  0.
        1    1    3    3  502    0 -0.22955722172E+03 -0.10760280684E+03  0.92175943344E+03  0.95598919201E+03  0.50400001928E-02 0. -1.
       -1    1    3    3    0  502  0.22955722172E+03  0.10760280684E+03 -0.45571189918E+03  0.52148654552E+03  0.50400001928E-02 0.  1.
</event>
<event>
 5   0  0.4208622E-04  0.1403333E+04  0.7818609E-02  0.8951410E-01
       -2   -1    0    0    0  501  0.00000000000E+00  0.00000000000E+00  0.20363371739E+03  0.20363371741E+03  0.25500000920E-02 0. -1.
        2   -1    0    0  501    0  0.00000000000E+00  0.00000000000E+00 -0.24177507015E+04  0.24177507015E+04  0.25500000920E-02 0.  1.
    10030    2    1    2    0    0  0.00000000000E+00  0.00000000000E+00 -0.22141169841E+04  0.26213844189E+04  0.14033325523E+04 0.  0.
        4    1    3    3  502    0  0.31531950338E+02 -0.54201797295E+03 -0.19373210438E+04  0.20119622726E+04  0.12699999809E+01 0.  1.
       -4    1    3    3    0  502 -0.31531950338E+02  0.54201797295E+03 -0.27679594032E+03  0.60942214627E+03  0.12699999809E+01 0. -1.
</event>
<event>
 5   0  0.2143942E-04  0.1399727E+04  0.7818609E-02  0.8954016E-01
       -1   -1    0    0    0  501  0.00000000000E+00  0.00000000000E+00  0.24629536762E+03  0.24629536768E+03  0.50400001928E-02 0.  1.
        1   -1    0    0  501    0  0.00000000000E+00  0.00000000000E+00 -0.19887049224E+04  0.19887049224E+04  0.50400001928E-02 0. -1.
    10030    2    1    2    0    0  0.00000000000E+00  0.00000000000E+00 -0.17424095548E+04  0.22350002901E+04  0.13997268448E+04 0.  0.
        4    1    3    3  502    0  0.35320855606E+03  0.24163041470E+03 -0.17554380696E+04  0.18068497365E+04  0.12699999809E+01 0. -1.
       -4    1    3    3    0  502 -0.35320855606E+03 -0.24163041470E+03  0.13028514834E+02  0.42815055352E+03  0.12699999809E+01 0.  1.
</event>
<event>
 5   0  0.2223112E-04  0.1399451E+04  0.7818609E-02  0.8954216E-01
        1   -1    0    0  501    0  0.00000000000E+00  0.00000000000E+00  0.78370336058E+03  0.78370336060E+03  0.50400001928E-02 0.  1.
       -1   -1    0    0    0  501  0.00000000000E+00  0.00000000000E+00 -0.62474631074E+03  0.62474631076E+03  0.50400001928E-02 0. -1.
    10030    2    1    2    0    0  0.00000000000E+00  0.00000000000E+00  0.15895704984E+03  0.14084496714E+04  0.13994510113E+04 0.  0.
        1    1    3    3  502    0 -0.21323317411E+03 -0.50838556251E+03 -0.35421173043E+03  0.65527873208E+03  0.50400001928E-02 0. -1.
       -1    1    3    3    0  502  0.21323317411E+03  0.50838556251E+03  0.51316878027E+03  0.75317093928E+03  0.50400001928E-02 0.  1.
</event>
<event>
 5   0  0.2215876E-04  0.1398562E+04  0.7818609E-02  0.8954860E-01
        1   -1    0    0  501    0  0.00000000000E+00  0.00000000000E+00  0.14755637927E+04  0.14755637927E+04  0.50400001928E-02 0.  1.
       -1   -1    0    0    0  501  0.00000000000E+00  0.00000000000E+00 -0.33139455784E+03  0.33139455788E+03  0.50400001928E-02 0. -1.
    10030    2    1    2    0    0  0.00000000000E+00  0.00000000000E+00  0.11441692348E+04  0.18069583506E+04  0.13985618480E+04 0.  0.
        3    1    3    3  502    0  0.18846506575E+03  0.28191331893E+03  0.13622209542E+04  0.14037949062E+04  0.10100000352E+00 0.  1.
       -3    1    3    3    0  502 -0.18846506575E+03 -0.28191331893E+03 -0.21805171933E+03  0.40316344440E+03  0.10100000352E+00 0. -1.
</event>
<event>
 5   0  0.2215876E-04  0.1396968E+04  0.7818609E-02  0.8956016E-01
       -1   -1    0    0    0  501  0.00000000000E+00  0.00000000000E+00  0.53243859065E+03  0.53243859067E+03  0.50400001928E-02 0.  1.
        1   -1    0    0  501    0  0.00000000000E+00  0.00000000000E+00 -0.91631198022E+03  0.91631198024E+03  0.50400001928E-02 0. -1.
    10030    2    1    2    0    0  0.00000000000E+00  0.00000000000E+00 -0.38387338957E+03  0.14487505709E+04  0.13969679443E+04 0.  0.
        3    1    3    3  502    0 -0.35254211142E+03  0.45452124027E-01  0.43340225186E+03  0.55868010928E+03  0.10100000352E+00 0.  1.
       -3    1    3    3    0  502  0.35254211142E+03 -0.45452124027E-01 -0.81727564143E+03  0.89007046163E+03  0.10100000352E+00 0. -1.
</event>
<event>
 5   0  0.4208622E-04  0.1397635E+04  0.7818609E-02  0.8955533E-01
       -2   -1    0    0    0  501  0.00000000000E+00  0.00000000000E+00  0.34312073681E+03  0.34312073682E+03  0.25500000920E-02 0. -1.
        2   -1    0    0  501    0  0.00000000000E+00  0.00000000000E+00 -0.14232471689E+04  0.14232471689E+04  0.25500000920E-02 0.  1.
    10030    2    1    2    0    0  0.00000000000E+00  0.00000000000E+00 -0.10801264321E+04  0.17663679057E+04  0.13976345978E+04 0.  0.
        4    1    3    3  502    0  0.49326444129E+03  0.49250414421E+03 -0.47720307271E+03  0.84474524362E+03  0.12699999809E+01 0. -1.
       -4    1    3    3    0  502 -0.49326444129E+03 -0.49250414421E+03 -0.60292335935E+03  0.92162266208E+03  0.12699999809E+01 0.  1.
</event>
<event>
 5   0  0.2155352E-04  0.1395489E+04  0.7818609E-02  0.8957091E-01
       -1   -1    0    0    0  501  0.00000000000E+00  0.00000000000E+00  0.53790393525E+03  0.53790393528E+03  0.50400001928E-02 0. -1.
        1   -1    0    0  501    0  0.00000000000E+00  0.00000000000E+00 -0.90508181430E+03  0.90508181431E+03  0.50400001928E-02 0.  1.
    10030    2    1    2    0    0  0.00000000000E+00  0.00000000000E+00 -0.36717787905E+03  0.14429857496E+04  0.13954885448E+04 0.  0.
        2    1    3    3  502    0  0.30411808731E+03  0.17114473558E+02 -0.83270214415E+03  0.88666429787E+03  0.25500000920E-02 0.  1.
       -2    1    3    3    0  502 -0.30411808731E+03 -0.17114473558E+02  0.46552426510E+03  0.55632145172E+03  0.25500000920E-02 0. -1.
</event>
<event>
 5   0  0.2143942E-04  0.1400753E+04  0.7818609E-02  0.8953273E-01
        1   -1    0    0  501    0  0.00000000000E+00  0.00000000000E+00  0.19001978252E+04  0.19001978252E+04  0.50400001928E-02 0.  1.
       -1   -1    0    0    0  501  0.00000000000E+00  0.00000000000E+00 -0.25814553160E+03  0.25814553165E+03  0.50400001928E-02 0. -1.
    10030    2    1    2    0    0  0.00000000000E+00  0.00000000000E+00  0.16420522936E+04  0.21583433568E+04  0.14007534798E+04 0.  0.
        4    1    3    3  502    0  0.34916940927E+03 -0.60427053724E+03  0.73034111153E+03  0.10101791478E+04  0.12699999809E+01 0.  1.
       -4    1    3    3    0  502 -0.34916940927E+03  0.60427053724E+03  0.91171118204E+03  0.11481642090E+04  0.12699999809E+01 0. -1.
</event>
<event>
 5   0  0.4208622E-04  0.1400067E+04  0.7818609E-02  0.8953770E-01
       -2   -1    0    0    0  501  0.00000000000E+00  0.00000000000E+00  0.24870075345E+03  0.24870075346E+03  0.25500000920E-02 0. -1.
        2   -1    0    0  501    0  0.00000000000E+00  0.00000000000E+00 -0.19704271139E+04  0.19704271139E+04  0.25500000920E-02 0.  1.
    10030    2    1    2    0    0  0.00000000000E+00  0.00000000000E+00 -0.17217263604E+04  0.22191278673E+04  0.14000667239E+04 0.  0.
        4    1    3    3  502    0  0.21077078605E+03 -0.66557346577E+03 -0.77953576874E+03  0.10464654749E+04  0.12699999809E+01 0.  1.
       -4    1    3    3    0  502 -0.21077078605E+03  0.66557346577E+03 -0.94219059170E+03  0.11726623924E+04  0.12699999809E+01 0. -1.
</event>
<event>
 5   0  0.3975164E-04  0.1397343E+04  0.7818609E-02  0.8955744E-01
        2   -1    0    0  501    0  0.00000000000E+00  0.00000000000E+00  0.12598794389E+04  0.12598794389E+04  0.25500000920E-02 0.  1.
       -2   -1    0    0    0  501  0.00000000000E+00  0.00000000000E+00 -0.38745144256E+03  0.38745144257E+03  0.25500000920E-02 0. -1.
    10030    2    1    2    0    0  0.00000000000E+00  0.00000000000E+00  0.87242799635E+03  0.16473308815E+04  0.13973433452E+04 0.  0.
        5    1    3    3  502    0 -0.76794580612E+02 -0.57418417191E+03 -0.24215000903E+02  0.57982180638E+03  0.46999998093E+01 0. -1.
       -5    1    3    3    0  502  0.76794580612E+02  0.57418417191E+03  0.89664299726E+03  0.10675090751E+04  0.46999998093E+01 0.  1.
</event>
<event>
 5   0  0.2143942E-04  0.1396339E+04  0.7818609E-02  0.8956473E-01
       -1   -1    0    0    0  501  0.00000000000E+00  0.00000000000E+00  0.36268990443E+03  0.36268990447E+03  0.50400001928E-02 0.  1.
        1   -1    0    0  501    0  0.00000000000E+00  0.00000000000E+00 -0.13439593430E+04  0.13439593430E+04  0.50400001928E-02 0. -1.
    10030    2    1    2    0    0  0.00000000000E+00  0.00000000000E+00 -0.98126943860E+03  0.17066492475E+04  0.13963387637E+04 0.  0.
        4    1    3    3  502    0  0.20684798492E+03  0.61960442211E+03 -0.18940202060E+03  0.68012533188E+03  0.12699999809E+01 0.  1.
       -4    1    3    3    0  502 -0.20684798492E+03 -0.61960442211E+03 -0.79186741799E+03  0.10265239156E+04  0.12699999809E+01 0. -1.
</event>
<event>
 5   0  0.4208622E-04  0.1395210E+04  0.7818609E-02  0.8957293E-01
       -2   -1    0    0    0  501  0.00000000000E+00  0.00000000000E+00  0.17718174928E+03  0.17718174929E+03  0.25500000920E-02 0. -1.
        2   -1    0    0  501    0  0.00000000000E+00  0.00000000000E+00 -0.27466291158E+04  0.27466291158E+04  0.25500000920E-02 0.  1.
    10030    2    1    2    0    0  0.00000000000E+00  0.00000000000E+00 -0.25694473665E+04  0.29238108651E+04  0.13952097353E+04 0.  0.
        4    1    3    3  502    0  0.35115913072E+03  0.19393894780E+03 -0.88710639838E+02  0.41084819713E+03  0.12699999809E+01 0. -1.
       -4    1    3    3    0  502 -0.35115913072E+03 -0.19393894780E+03 -0.24807367266E+04  0.25129626679E+04  0.12699999809E+01 0.  1.
</event>
<event>
 5   0  0.3917598E-04  0.1401630E+04  0.7818609E-02  0.8952640E-01
        2   -1    0    0  501    0  0.00000000000E+00  0.00000000000E+00  0.17871646294E+04  0.17871646294E+04  0.25500000920E-02 0. -1.
       -2   -1    0    0    0  501  0.00000000000E+00  0.00000000000E+00 -0.27481599541E+03  0.27481599543E+03  0.25500000920E-02 0.  1.
    10030    2    1    2    0    0  0.00000000000E+00  0.00000000000E+00  0.15123486340E+04  0.20619806248E+04  0.14016296610E+04 0.  0.
        3    1    3    3  502    0  0.12942199515E+03  0.16424152552E+03 -0.22785286998E+03  0.30926084798E+03  0.10100000352E+00 0.  1.
       -3    1    3    3    0  502 -0.12942199515E+03 -0.16424152552E+03  0.17402015040E+04  0.17527197769E+04  0.10100000352E+00 0. -1.
</event>
<event>
 5   0  0.2217251E-04  0.1399439E+04  0.7818609E-02  0.8954225E-01
       -1   -1    0    0    0  501  0.00000000000E+00  0.00000000000E+00  0.33951458708E+03  0.33951458712E+03  0.50400001928E-02 0.  1.
        1   -1    0    0  501    0  0.00000000000E+00  0.00000000000E+00 -0.14420798274E+04  0.14420798274E+04  0.50400001928E-02 0. -1.
    10030    2    1    2    0    0  0.00000000000E+00  0.00000000000E+00 -0.11025652403E+04  0.17815944145E+04  0.13994386548E+04 0.  0.
        5    1    3    3  502    0 -0.33472844703E+02  0.62764054825E+02 -0.14374447807E+04  0.14392113623E+04  0.46999998093E+01 0. -1.
       -5    1    3    3    0  502  0.33472844703E+02 -0.62764054825E+02  0.33487954035E+03  0.34238305223E+03  0.46999998093E+01 0.  1.
</event>
<event>
 5   0  0.3932568E-04  0.1400479E+04  0.7818609E-02  0.8953472E-01
        2   -1    0    0  501    0  0.00000000000E+00  0.00000000000E+00  0.11147965264E+04  0.11147965264E+04  0.25500000920E-02 0.  1.
       -2   -1    0    0    0  501  0.00000000000E+00  0.00000000000E+00 -0.43984310586E+03  0.43984310586E+03  0.25500000920E-02 0. -1.
    10030    2    1    2    0    0  0.00000000000E+00  0.00000000000E+00  0.67495342056E+03  0.15546396323E+04  0.14004792988E+04 0.  0.
        2    1    3    3  502    0 -0.60301342087E+03  0.29661966973E+03  0.55593112377E+03  0.87216273058E+03  0.25500000920E-02 0.  1.
       -2    1    3    3    0  502  0.60301342087E+03 -0.29661966973E+03  0.11902229679E+03  0.68247690171E+03  0.25500000920E-02 0. -1.
</event>
<event>
 5   0  0.1497625E-04  0.1398309E+04  0.7818609E-02  0.8955044E-01
        3   -1    0    0  501    0  0.00000000000E+00  0.00000000000E+00  0.43098151663E+03  0.43098152846E+03  0.10100000352E+00 0.  1.
       -3   -1    0    0    0  501  0.00000000000E+00  0.00000000000E+00 -0.11341947698E+04  0.11341947743E+04  0.10100000352E+00 0. -1.
    10030    2    1    2    0    0  0.00000000000E+00  0.00000000000E+00 -0.70321325313E+03  0.15651763027E+04  0.13983089713E+04 0.  0.
        4    1    3    3  502    0 -0.38256441638E+03 -0.58447760624E+03 -0.31905384813E+03  0.76796261354E+03  0.12699999809E+01 0. -1.
       -4    1    3    3    0  502  0.38256441638E+03  0.58447760624E+03 -0.38415940500E+03  0.79721368919E+03  0.12699999809E+01 0.  1.
</event>
<event>
 5   0  0.3932568E-04  0.1389386E+04  0.7818609E-02  0.8961538E-01
       -2   -1    0    0    0  501  0.00000000000E+00  0.00000000000E+00  0.70658335017E+03  0.70658335018E+03  0.25500000920E-02 0. -1.
        2   -1    0    0  501    0  0.00000000000E+00  0.00000000000E+00 -0.68300243932E+03  0.68300243932E+03  0.25500000920E-02 0.  1.
    10030    2    1    2    0    0  0.00000000000E+00  0.00000000000E+00  0.23580910855E+02  0.13895857895E+04  0.13893856941E+04 0.  0.
        2    1    3    3  502    0 -0.20287808329E+03  0.58597682533E+03 -0.30141561850E+03  0.68947786882E+03  0.25500000920E-02 0.  1.
       -2    1    3    3    0  502  0.20287808329E+03 -0.58597682533E+03  0.32499652935E+03  0.70010792068E+03  0.25500000920E-02 0. -1.
</event>
<event>
 5   0  0.2215876E-04  0.1401354E+04  0.7818609E-02  0.8952839E-01
        1   -1    0    0  501    0  0.00000000000E+00  0.00000000000E+00  0.10502535412E+04  0.10502535413E+04  0.50400001928E-02 0. -1.
       -1   -1    0    0    0  501  0.00000000000E+00  0.00000000000E+00 -0.46745687021E+03  0.46745687023E+03  0.50400001928E-02 0.  1.
    10030    2    1    2    0    0  0.00000000000E+00  0.00000000000E+00  0.58279667103E+03  0.15177104115E+04  0.14013539643E+04 0.  0.
        3    1    3    3  502    0  0.12270677150E+03  0.60011659783E+03 -0.77073316362E+02  0.61736309337E+03  0.10100000352E+00 0.  1.
       -3    1    3    3    0  502 -0.12270677150E+03 -0.60011659783E+03  0.65986998740E+03  0.90034731811E+03  0.10100000352E+00 0. -1.
</event>
<event>
 5   0  0.3917598E-04  0.1406143E+04  0.7818609E-02  0.8949384E-01
       -2   -1    0    0    0  501  0.00000000000E+00  0.00000000000E+00  0.82045428156E+03  0.82045428156E+03  0.25500000920E-02 0.  1.
        2   -1    0    0  501    0  0.00000000000E+00  0.00000000000E+00 -0.60248258312E+03  0.60248258313E+03  0.25500000920E-02 0. -1.
    10030    2    1    2    0    0  0.00000000000E+00  0.00000000000E+00  0.21797169843E+03  0.14229368647E+04  0.14061428304E+04 0.  0.
        3    1    3    3  502    0 -0.57749000569E+03 -0.82674723622E+02  0.50607477089E+03  0.77229625179E+03  0.10100000352E+00 0.  1.
       -3    1    3    3    0  502  0.57749000569E+03  0.82674723622E+02 -0.28810307246E+03  0.65064061290E+03  0.10100000352E+00 0. -1.
</event>
<event>
 5   0  0.2143942E-04  0.1397486E+04  0.7818609E-02  0.8955640E-01
        1   -1    0    0  501    0  0.00000000000E+00  0.00000000000E+00  0.14427744086E+04  0.14427744087E+04  0.50400001928E-02 0.  1.
       -1   -1    0    0    0  501  0.00000000000E+00  0.00000000000E+00 -0.33840501642E+03  0.33840501646E+03  0.50400001928E-02 0. -1.
    10030    2    1    2    0    0  0.00000000000E+00  0.00000000000E+00  0.11043693922E+04  0.17811794251E+04  0.13974864543E+04 0.  0.
        4    1    3    3  502    0  0.22877878682E+03  0.37182037763E+03  0.12475504007E+04  0.13217313425E+04  0.12699999809E+01 0.  1.
       -4    1    3    3    0  502 -0.22877878682E+03 -0.37182037763E+03 -0.14318100850E+03  0.45944808261E+03  0.12699999809E+01 0. -1.
</event>
<event>
 5   0  0.2223112E-04  0.1398335E+04  0.7818609E-02  0.8955025E-01
        1   -1    0    0  501    0  0.00000000000E+00  0.00000000000E+00  0.89595890403E+03  0.89595890405E+03  0.50400001928E-02 0. -1.
       -1   -1    0    0    0  501  0.00000000000E+00  0.00000000000E+00 -0.54559998622E+03  0.54559998624E+03  0.50400001928E-02 0.  1.
    10030    2    1    2    0    0  0.00000000000E+00  0.00000000000E+00  0.35035891781E+03  0.14415588903E+04  0.13983349609E+04 0.  0.
        1    1    3    3  502    0  0.27783481207E+03  0.47930999376E+03 -0.26450729994E+03  0.61391722949E+03  0.50400001928E-02 0.  1.
       -1    1    3    3    0  502 -0.27783481207E+03 -0.47930999376E+03  0.61486621776E+03  0.82764166079E+03  0.50400001928E-02 0. -1.
</event>
<event>
 5   0  0.3932568E-04  0.1395201E+04  0.7818609E-02  0.8957300E-01
       -2   -1    0    0    0  501  0.00000000000E+00  0.00000000000E+00  0.61859372415E+03  0.61859372416E+03  0.25500000920E-02 0.  1.
        2   -1    0    0  501    0  0.00000000000E+00  0.00000000000E+00 -0.78669795737E+03  0.78669795737E+03  0.25500000920E-02 0. -1.
    10030    2    1    2    0    0  0.00000000000E+00  0.00000000000E+00 -0.16810423322E+03  0.14052916815E+04  0.13952009450E+04 0.  0.
        2    1    3    3  502    0 -0.15778864921E+03  0.47266135342E+03 -0.57578420733E+03  0.76146796798E+03  0.25500000920E-02 0. -1.
       -2    1    3    3    0  502  0.15778864921E+03 -0.47266135342E+03  0.40767997411E+03  0.64382371356E+03  0.25500000920E-02 0.  1.
</event>
<event>
 5   0  0.2215876E-04  0.1388614E+04  0.7818609E-02  0.8962102E-01
       -1   -1    0    0    0  501  0.00000000000E+00  0.00000000000E+00  0.25401738771E+03  0.25401738776E+03  0.50400001928E-02 0. -1.
        1   -1    0    0  501    0  0.00000000000E+00  0.00000000000E+00 -0.18977522106E+04  0.18977522106E+04  0.50400001928E-02 0.  1.
    10030    2    1    2    0    0  0.00000000000E+00  0.00000000000E+00 -0.16437348229E+04  0.21517695984E+04  0.13886137823E+04 0.  0.
        3    1    3    3  502    0 -0.17551615556E+03 -0.26498934582E+03 -0.17783955316E+04  0.18065757530E+04  0.10100000352E+00 0.  1.
       -3    1    3    3    0  502  0.17551615556E+03  0.26498934582E+03  0.13466070867E+03  0.34519384542E+03  0.10100000352E+00 0. -1.
</event>
<event>
 5   0  0.4208622E-04  0.1403911E+04  0.7818609E-02  0.8950993E-01
        2   -1    0    0  501    0  0.00000000000E+00  0.00000000000E+00  0.19655600327E+04  0.19655600327E+04  0.25500000920E-02 0.  1.
       -2   -1    0    0    0  501  0.00000000000E+00  0.00000000000E+00 -0.25068748282E+03  0.25068748283E+03  0.25500000920E-02 0. -1.
    10030    2    1    2    0    0  0.00000000000E+00  0.00000000000E+00  0.17148725499E+04  0.22162475156E+04  0.14039106766E+04 0.  0.
        4    1    3    3  502    0 -0.48185241119E+03  0.43907328169E+03  0.44647033468E+03  0.79012939796E+03  0.12699999809E+01 0. -1.
       -4    1    3    3    0  502  0.48185241119E+03 -0.43907328169E+03  0.12684022152E+04  0.14261181176E+04  0.12699999809E+01 0.  1.
</event>
<event>
 5   0  0.3917598E-04  0.1400072E+04  0.7818609E-02  0.8953766E-01
       -2   -1    0    0    0  501  0.00000000000E+00  0.00000000000E+00  0.35799414768E+03  0.35799414769E+03  0.25500000920E-02 0.  1.
        2   -1    0    0  501    0  0.00000000000E+00  0.00000000000E+00 -0.13688790637E+04  0.13688790637E+04  0.25500000920E-02 0. -1.
    10030    2    1    2    0    0  0.00000000000E+00  0.00000000000E+00 -0.10108849160E+04  0.17268732113E+04  0.14000724177E+04 0.  0.
        3    1    3    3  502    0 -0.95700618569E+02 -0.14347545985E+03 -0.13422655959E+04  0.13532999505E+04  0.10100000352E+00 0. -1.
       -3    1    3    3    0  502  0.95700618569E+02  0.14347545985E+03  0.33138067992E+03  0.37357326082E+03  0.10100000352E+00 0.  1.
</event>
<event>
 5   0  0.1497625E-04  0.1395137E+04  0.7818609E-02  0.8957346E-01
       -4   -1    0    0    0  501  0.00000000000E+00  0.00000000000E+00  0.94838719461E+03  0.94838804495E+03  0.12699999809E+01 0. -1.
        4   -1    0    0  501    0  0.00000000000E+00  0.00000000000E+00 -0.51308150318E+03  0.51308307495E+03  0.12699999809E+01 0.  1.
    10030    2    1    2    0    0  0.00000000000E+00  0.00000000000E+00  0.43530569143E+03  0.14614711199E+04  0.13951368353E+04 0.  0.
        4    1    3    3  502    0  0.15130753988E+03 -0.23598298947E+03 -0.45148126393E+03  0.53143098096E+03  0.12699999809E+01 0.  1.
       -4    1    3    3    0  502 -0.15130753988E+03  0.23598298947E+03  0.88678695536E+03  0.93004013894E+03  0.12699999809E+01 0. -1.
</event>
<event>
 5   0  0.2143942E-04  0.1395298E+04  0.7818609E-02  0.8957229E-01
        1   -1    0    0  501    0  0.00000000000E+00  0.00000000000E+00  0.12902237012E+04  0.12902237012E+04  0.50400001928E-02 0. -1.
       -1   -1    0    0    0  501  0.00000000000E+00  0.00000000000E+00 -0.37723250543E+03  0.37723250546E+03  0.50400001928E-02 0.  1.
    10030    2    1    2    0    0  0.00000000000E+00  0.00000000000E+00  0.91299119578E+03  0.16674562067E+04  0.13952982755E+04 0.  0.
        4    1    3    3  502    0 -0.49351142526E+03  0.49001083009E+03  0.39051212291E+03  0.79759981914E+03  0.12699999809E+01 0. -1.
       -4    1    3    3    0  502  0.49351142526E+03 -0.49001083009E+03  0.52247907287E+03  0.86985638754E+03  0.12699999809E+01 0.  1.
</event>
<event>
 5   0  0.2215876E-04  0.1416971E+04  0.7818609E-02  0.8941625E-01
       -1   -1    0    0    0  501  0.00000000000E+00  0.00000000000E+00  0.50498766590E+03  0.50498766593E+03  0.50400001928E-02 0.  1.
        1   -1    0    0  501    0  0.00000000000E+00  0.00000000000E+00 -0.99398781631E+03  0.99398781632E+03  0.50400001928E-02 0. -1.
    10030    2    1    2    0    0  0.00000000000E+00  0.00000000000E+00 -0.48900015041E+03  0.14989754823E+04  0.14169708357E+04 0.  0.
        3    1    3    3  502    0  0.55674092477E+03  0.37764953777E+03 -0.47955737471E+03  0.82616881842E+03  0.10100000352E+00 0.  1.
       -3    1    3    3    0  502 -0.55674092477E+03 -0.37764953777E+03 -0.94427756993E+01  0.67280666384E+03  0.10100000352E+00 0. -1.
</event>
<event>
 5   0  0.2217251E-04  0.1403323E+04  0.7818609E-02  0.8951417E-01
        1   -1    0    0  501    0  0.00000000000E+00  0.00000000000E+00  0.75110455431E+03  0.75110455433E+03  0.50400001928E-02 0.  1.
       -1   -1    0    0    0  501  0.00000000000E+00  0.00000000000E+00 -0.65547318841E+03  0.65547318843E+03  0.50400001928E-02 0. -1.
    10030    2    1    2    0    0  0.00000000000E+00  0.00000000000E+00  0.95631365902E+02  0.14065777428E+04  0.14033230520E+04 0.  0.
        5    1    3    3  502    0  0.58244290396E+03  0.98321508861E+02 -0.33174444472E+03  0.67748307881E+03  0.46999998093E+01 0. -1.
       -5    1    3    3    0  502 -0.58244290396E+03 -0.98321508861E+02  0.42737581063E+03  0.72909466394E+03  0.46999998093E+01 0.  1.
</event>
<event>
 5   0  0.4208622E-04  0.1402731E+04  0.7818609E-02  0.8951844E-01
       -2   -1    0    0    0  501  0.00000000000E+00  0.00000000000E+00  0.25513384352E+03  0.25513384354E+03  0.25500000920E-02 0. -1.
        2   -1    0    0  501    0  0.00000000000E+00  0.00000000000E+00 -0.19280596347E+04  0.19280596347E+04  0.25500000920E-02 0.  1.
    10030    2    1    2    0    0  0.00000000000E+00  0.00000000000E+00 -0.16729257911E+04  0.21831934782E+04  0.14027305731E+04 0.  0.
        4    1    3    3  502    0  0.10815746845E+03 -0.51792016784E+03 -0.11989469232E+03  0.54250869890E+03  0.12699999809E+01 0. -1.
       -4    1    3    3    0  502 -0.10815746845E+03  0.51792016784E+03 -0.15530310988E+04  0.16406847793E+04  0.12699999809E+01 0.  1.
</event>
<event>
 5   0  0.4310348E-04  0.1394628E+04  0.7818609E-02  0.8957716E-01
       -2   -1    0    0    0  501  0.00000000000E+00  0.00000000000E+00  0.60252408568E+03  0.60252408568E+03  0.25500000920E-02 0.  1.
        2   -1    0    0  501    0  0.00000000000E+00  0.00000000000E+00 -0.80701619204E+03  0.80701619204E+03  0.25500000920E-02 0. -1.
    10030    2    1    2    0    0  0.00000000000E+00  0.00000000000E+00 -0.20449210636E+03  0.14095402777E+04  0.13946278260E+04 0.  0.
        1    1    3    3  502    0 -0.28290183320E+03 -0.25945885596E+03 -0.69061714588E+03  0.79012934851E+03  0.50400001928E-02 0. -1.
       -1    1    3    3    0  502  0.28290183320E+03  0.25945885596E+03  0.48612503952E+03  0.61941092922E+03  0.50400001928E-02 0.  1.
</event>
<event>
 5   0  0.3975164E-04  0.1412531E+04  0.7818609E-02  0.8944798E-01
       -2   -1    0    0    0  501  0.00000000000E+00  0.00000000000E+00  0.21961426364E+03  0.21961426365E+03  0.25500000920E-02 0.  1.
        2   -1    0    0  501    0  0.00000000000E+00  0.00000000000E+00 -0.22713037259E+04  0.22713037260E+04  0.25500000920E-02 0. -1.
    10030    2    1    2    0    0  0.00000000000E+00  0.00000000000E+00 -0.20516894623E+04  0.24909179896E+04  0.14125306302E+04 0.  0.
        5    1    3    3  502    0 -0.17191434315E+03 -0.86432787421E+02  0.17247118067E+03  0.25844451296E+03  0.46999998093E+01 0.  1.
       -5    1    3    3    0  502  0.17191434315E+03  0.86432787421E+02 -0.22241606430E+04  0.22324734766E+04  0.46999998093E+01 0. -1.
</event>
<event>
 5   0  0.4208622E-04  0.1497759E+04  0.7818609E-02  0.8885945E-01
       -2   -1    0    0    0  501  0.00000000000E+00  0.00000000000E+00  0.11170944060E+04  0.11170944060E+04  0.25500000920E-02 0. -1.
        2   -1    0    0  501    0  0.00000000000E+00  0.00000000000E+00 -0.50203493662E+03  0.50203493663E+03  0.25500000920E-02 0.  1.
    10030    2    1    2    0    0  0.00000000000E+00  0.00000000000E+00  0.61505946934E+03  0.16191293426E+04  0.14977588849E+04 0.  0.
        4    1    3    3  502    0 -0.49140924710E+03  0.46201685091E+03  0.65928352549E+03  0.94318555891E+03  0.12699999809E+01 0. -1.
       -4    1    3    3    0  502  0.49140924710E+03 -0.46201685091E+03 -0.44224056148E+02  0.67594378368E+03  0.12699999809E+01 0.  1.
</event>
<event>
 5   0  0.3932568E-04  0.1404561E+04  0.7818609E-02  0.8950524E-01
       -2   -1    0    0    0  501  0.00000000000E+00  0.00000000000E+00  0.46577946547E+03  0.46577946548E+03  0.25500000920E-02 0. -1.
        2   -1    0    0  501    0  0.00000000000E+00  0.00000000000E+00 -0.10588658407E+04  0.10588658407E+04  0.25500000920E-02 0.  1.
    10030    2    1    2    0    0  0.00000000000E+00  0.00000000000E+00 -0.59308637518E+03  0.15246453061E+04  0.14045610920E+04 0.  0.
        2    1    3    3  502    0  0.29616959816E+03 -0.45871614776E+03 -0.77596020318E+03  0.94881566809E+03  0.25500000920E-02 0.  1.
       -2    1    3    3    0  502 -0.29616959816E+03  0.45871614776E+03  0.18287382799E+03  0.57582963805E+03  0.25500000920E-02 0. -1.
</event>
<event>
 5   0  0.3975164E-04  0.1399375E+04  0.7818609E-02  0.8954271E-01
        2   -1    0    0  501    0  0.00000000000E+00  0.00000000000E+00  0.42823146740E+03  0.42823146741E+03  0.25500000920E-02 0.  1.
       -2   -1    0    0    0  501  0.00000000000E+00  0.00000000000E+00 -0.11432195787E+04  0.11432195787E+04  0.25500000920E-02 0. -1.
    10030    2    1    2    0    0  0.00000000000E+00  0.00000000000E+00 -0.71498811125E+03  0.15714510461E+04  0.13993750001E+04 0.  0.
        5    1    3    3  502    0  0.20189897801E+03  0.18665558697E+03 -0.10799874330E+04  0.11144498422E+04  0.46999998093E+01 0. -1.
       -5    1    3    3    0  502 -0.20189897801E+03 -0.18665558697E+03  0.36499932171E+03  0.45700120385E+03  0.46999998093E+01 0.  1.
</event>
<event>
 5   0  0.3975164E-04  0.1409236E+04  0.7818609E-02  0.8947160E-01
        2   -1    0    0  501    0  0.00000000000E+00  0.00000000000E+00  0.83676489429E+03  0.83676489429E+03  0.25500000920E-02 0. -1.
       -2   -1    0    0    0  501  0.00000000000E+00  0.00000000000E+00 -0.59334070586E+03  0.59334070587E+03  0.25500000920E-02 0.  1.
    10030    2    1    2    0    0  0.00000000000E+00  0.00000000000E+00  0.24342418843E+03  0.14301056002E+04  0.14092362088E+04 0.  0.
        5    1    3    3  502    0  0.89201976643E+02  0.49287103029E+03  0.62461701484E+03  0.80065432639E+03  0.46999998093E+01 0. -1.
       -5    1    3    3    0  502 -0.89201976643E+02 -0.49287103029E+03 -0.38119282642E+03  0.62945127377E+03  0.46999998093E+01 0.  1.
</event>
<event>
 5   0  0.2155352E-04  0.1399815E+04  0.7818609E-02  0.8953953E-01
        1   -1    0    0  501    0  0.00000000000E+00  0.00000000000E+00  0.83771602480E+03  0.83771602481E+03  0.50400001928E-02 0. -1.
       -1   -1    0    0    0  501  0.00000000000E+00  0.00000000000E+00 -0.58476911429E+03  0.58476911431E+03  0.50400001928E-02 0.  1.
    10030    2    1    2    0    0  0.00000000000E+00  0.00000000000E+00  0.25294691051E+03  0.14224851391E+04  0.13998149276E+04 0.  0.
        2    1    3    3  502    0  0.51199277051E+03  0.28191914192E+03 -0.26480187188E+03  0.64166582501E+03  0.25500000920E-02 0.  1.
       -2    1    3    3    0  502 -0.51199277051E+03 -0.28191914192E+03  0.51774878239E+03  0.78081931412E+03  0.25500000920E-02 0. -1.
</event>
<event>
 5   0  0.2155352E-04  0.1394630E+04  0.7818609E-02  0.8957715E-01
       -1   -1    0    0    0  501  0.00000000000E+00  0.00000000000E+00  0.55987066535E+03  0.55987066537E+03  0.50400001928E-02 0. -1.
        1   -1    0    0  501    0  0.00000000000E+00  0.00000000000E+00 -0.86850075576E+03  0.86850075578E+03  0.50400001928E-02 0.  1.
    10030    2    1    2    0    0  0.00000000000E+00  0.00000000000E+00 -0.30863009041E+03  0.14283714212E+04  0.13946298376E+04 0.  0.
        2    1    3    3  502    0  0.47378627732E+03 -0.14940315334E+03 -0.65549381396E+03  0.82247606589E+03  0.25500000920E-02 0.  1.
       -2    1    3    3    0  502 -0.47378627732E+03  0.14940315334E+03  0.34686372355E+03  0.60589535527E+03  0.25500000920E-02 0. -1.
</event>
<event>
 5   0  0.2155352E-04  0.1401990E+04  0.7818609E-02  0.8952379E-01
       -1   -1    0    0    0  501  0.00000000000E+00  0.00000000000E+00  0.55570142071E+03  0.55570142074E+03  0.50400001928E-02 0.  1.
        1   -1    0    0  501    0  0.00000000000E+00  0.00000000000E+00 -0.88427709707E+03  0.88427709709E+03  0.50400001928E-02 0. -1.
    10030    2    1    2    0    0  0.00000000000E+00  0.00000000000E+00 -0.32857567636E+03  0.14399785178E+04  0.14019900701E+04 0.  0.
        2    1    3    3  502    0  0.42139282277E+03  0.47864946608E+03  0.13466032530E+03  0.65177498086E+03  0.25500000920E-02 0.  1.
       -2    1    3    3    0  502 -0.42139282277E+03 -0.47864946608E+03 -0.46323600166E+03  0.78820353697E+03  0.25500000920E-02 0. -1.
</event>
<event>
 5   0  0.2217251E-04  0.1396059E+04  0.7818609E-02  0.8956676E-01
        1   -1    0    0  501    0  0.00000000000E+00  0.00000000000E+00  0.10654666298E+04  0.10654666298E+04  0.50400001928E-02 0. -1.
       -1   -1    0    0    0  501  0.00000000000E+00  0.00000000000E+00 -0.45730664243E+03  0.45730664246E+03  0.50400001928E-02 0.  1.
    10030    2    1    2    0    0  0.00000000000E+00  0.00000000000E+00  0.60815998738E+03  0.15227732723E+04  0.13960586909E+04 0.  0.
        5    1    3    3  502    0  0.66723077430E+03 -0.19364891494E+02  0.81470265669E+02  0.67248152345E+03  0.46999998093E+01 0. -1.
       -5    1    3    3    0  502 -0.66723077430E+03  0.19364891494E+02  0.52668972171E+03  0.85029174884E+03  0.46999998093E+01 0.  1.
</event>
<event>
 5   0  0.3975164E-04  0.1399583E+04  0.7818609E-02  0.8954121E-01
        2   -1    0    0  501    0  0.00000000000E+00  0.00000000000E+00  0.20720567668E+04  0.20720567668E+04  0.25500000920E-02 0. -1.
       -2   -1    0    0    0  501  0.00000000000E+00  0.00000000000E+00 -0.23633899236E+03  0.23633899237E+03  0.25500000920E-02 0.  1.
    10030    2    1    2    0    0  0.00000000000E+00  0.00000000000E+00  0.18357177744E+04  0.23083957592E+04  0.13995825212E+04 0.  0.
        5    1    3    3  502    0  0.20349629688E+03 -0.22046589838E+03 -0.12484838928E+03  0.32500025461E+03  0.46999998093E+01 0.  1.
       -5    1    3    3    0  502 -0.20349629688E+03  0.22046589838E+03  0.19605661637E+04  0.19833955046E+04  0.46999998093E+01 0. -1.
</event>
<event>
 5   0  0.2223112E-04  0.1400991E+04  0.7818609E-02  0.8953102E-01
       -1   -1    0    0    0  501  0.00000000000E+00  0.00000000000E+00  0.36907926376E+03  0.36907926380E+03  0.50400001928E-02 0. -1.
        1   -1    0    0  501    0  0.00000000000E+00  0.00000000000E+00 -0.13295076276E+04  0.13295076277E+04  0.50400001928E-02 0.  1.
    10030    2    1    2    0    0  0.00000000000E+00  0.00000000000E+00 -0.96042836388E+03  0.16985868914E+04  0.14009906444E+04 0.  0.
        1    1    3    3  502    0  0.44956425415E+03 -0.51053671120E+03 -0.27756271280E+03  0.73470865767E+03  0.50400001928E-02 0. -1.
       -1    1    3    3    0  502 -0.44956425415E+03  0.51053671120E+03 -0.68286565108E+03  0.96387823378E+03  0.50400001928E-02 0.  1.
</event>
<event>
 5   0  0.2155352E-04  0.1400176E+04  0.7818609E-02  0.8953691E-01
       -1   -1    0    0    0  501  0.00000000000E+00  0.00000000000E+00  0.84047725699E+03  0.84047725700E+03  0.50400001928E-02 0. -1.
        1   -1    0    0  501    0  0.00000000000E+00  0.00000000000E+00 -0.58314830216E+03  0.58314830218E+03  0.50400001928E-02 0.  1.
    10030    2    1    2    0    0  0.00000000000E+00  0.00000000000E+00  0.25732895483E+03  0.14236255592E+04  0.14001755396E+04 0.  0.
        2    1    3    3  502    0  0.12796530262E+03 -0.42042245682E+01 -0.57114331815E+03  0.58531827585E+03  0.25500000920E-02 0.  1.
       -2    1    3    3    0  502 -0.12796530262E+03  0.42042245682E+01  0.82847227298E+03  0.83830728333E+03  0.25500000920E-02 0. -1.
</event>
<event>
 5   0  0.2217251E-04  0.1402420E+04  0.7818609E-02  0.8952068E-01
       -1   -1    0    0    0  501  0.00000000000E+00  0.00000000000E+00  0.61572726027E+03  0.61572726029E+03  0.50400001928E-02 0. -1.
        1   -1    0    0  501    0  0.00000000000E+00  0.00000000000E+00 -0.79856083015E+03  0.79856083016E+03  0.50400001928E-02 0.  1.
    10030    2    1    2    0    0  0.00000000000E+00  0.00000000000E+00 -0.18283356987E+03  0.14142880905E+04  0.14024202967E+04 0.  0.
        5    1    3    3  502    0  0.42263455768E+03  0.53747509489E+03 -0.24821285337E+03  0.72741402072E+03  0.46999998093E+01 0.  1.
       -5    1    3    3    0  502 -0.42263455768E+03 -0.53747509489E+03  0.65379283493E+02  0.68687406973E+03  0.46999998093E+01 0. -1.
</event>
<event>
 5   0  0.3932568E-04  0.1403854E+04  0.7818609E-02  0.8951033E-01
       -2   -1    0    0    0  501  0.00000000000E+00  0.00000000000E+00  0.37678271113E+03  0.37678271114E+03  0.25500000920E-02 0. -1.
        2   -1    0    0  501    0  0.00000000000E+00  0.00000000000E+00 -0.13076546931E+04  0.13076546931E+04  0.25500000920E-02 0.  1.
    10030    2    1    2    0    0  0.00000000000E+00  0.00000000000E+00 -0.93087198198E+03  0.16844374042E+04  0.14038542382E+04 0.  0.
        2    1    3    3  502    0 -0.26866882889E+03  0.39290010866E+03 -0.10844417122E+04  0.11843003260E+04  0.25500000920E-02 0.  1.
       -2    1    3    3    0  502  0.26866882889E+03 -0.39290010866E+03  0.15356973020E+03  0.50013707826E+03  0.25500000920E-02 0. -1.
</event>
<event>
 5   0  0.4208622E-04  0.1392318E+04  0.7818609E-02  0.8959398E-01
        2   -1    0    0  501    0  0.00000000000E+00  0.00000000000E+00  0.19693100899E+04  0.19693100899E+04  0.25500000920E-02 0. -1.
       -2   -1    0    0    0  501  0.00000000000E+00  0.00000000000E+00 -0.24609515940E+03  0.24609515941E+03  0.25500000920E-02 0.  1.
    10030    2    1    2    0    0  0.00000000000E+00  0.00000000000E+00  0.17232149305E+04  0.22154052493E+04  0.13923184700E+04 0.  0.
        4    1    3    3  502    0 -0.58465870070E+02 -0.63457230580E+03  0.41569621723E+03  0.76085821752E+03  0.12699999809E+01 0. -1.
       -4    1    3    3    0  502  0.58465870070E+02  0.63457230580E+03  0.13075187132E+04  0.14545470318E+04  0.12699999809E+01 0.  1.
</event>
<event>
 5   0  0.2215876E-04  0.1399745E+04  0.7818609E-02  0.8954003E-01
       -1   -1    0    0    0  501  0.00000000000E+00  0.00000000000E+00  0.71221582889E+03  0.71221582891E+03  0.50400001928E-02 0. -1.
        1   -1    0    0  501    0  0.00000000000E+00  0.00000000000E+00 -0.68774264088E+03  0.68774264089E+03  0.50400001928E-02 0.  1.
    10030    2    1    2    0    0  0.00000000000E+00  0.00000000000E+00  0.24473188013E+02  0.13999584698E+04  0.13997445411E+04 0.  0.
        3    1    3    3  502    0 -0.21944419250E+03 -0.52982858439E+03 -0.38900685152E+03  0.69296495091E+03  0.10100000352E+00 0.  1.
       -3    1    3    3    0  502  0.21944419250E+03  0.52982858439E+03  0.41348003954E+03  0.70699351889E+03  0.10100000352E+00 0. -1.
</event>
<event>
 5   0  0.3932568E-04  0.1412566E+04  0.7818609E-02  0.8944772E-01
        2   -1    0    0  501    0  0.00000000000E+00  0.00000000000E+00  0.12074214049E+04  0.12074214049E+04  0.25500000920E-02 0.  1.
       -2   -1    0    0    0  501  0.00000000000E+00  0.00000000000E+00 -0.41314158582E+03  0.41314158583E+03  0.25500000920E-02 0. -1.
    10030    2    1    2    0    0  0.00000000000E+00  0.00000000000E+00  0.79427981908E+03  0.16205629907E+04  0.14125664501E+04 0.  0.
        2    1    3    3  502    0  0.55908305764E+03 -0.19561725504E+02 -0.97481304803E+02  0.56785485050E+03  0.25500000920E-02 0. -1.
       -2    1    3    3    0  502 -0.55908305764E+03  0.19561725504E+02  0.89176112388E+03  0.10527081402E+04  0.25500000920E-02 0.  1.
</event>
<event>
 5   0  0.2217251E-04  0.1399763E+04  0.7818609E-02  0.8953990E-01
       -1   -1    0    0    0  501  0.00000000000E+00  0.00000000000E+00  0.64990506759E+03  0.64990506761E+03  0.50400001928E-02 0. -1.
        1   -1    0    0  501    0  0.00000000000E+00  0.00000000000E+00 -0.75370067986E+03  0.75370067988E+03  0.50400001928E-02 0.  1.
    10030    2    1    2    0    0  0.00000000000E+00  0.00000000000E+00 -0.10379561227E+03  0.14036057475E+04  0.13997626818E+04 0.  0.
        5    1    3    3  502    0  0.64720226505E+03  0.13257676909E+03  0.17974385113E+03  0.68467314363E+03  0.46999998093E+01 0. -1.
       -5    1    3    3    0  502 -0.64720226505E+03 -0.13257676909E+03 -0.28353946340E+03  0.71893260386E+03  0.46999998093E+01 0.  1.
</event>
<event>
 5   0  0.2143942E-04  0.1402184E+04  0.7818609E-02  0.8952239E-01
       -1   -1    0    0    0  501  0.00000000000E+00  0.00000000000E+00  0.34456104044E+03  0.34456104047E+03  0.50400001928E-02 0. -1.
        1   -1    0    0  501    0  0.00000000000E+00  0.00000000000E+00 -0.14265393837E+04  0.14265393837E+04  0.50400001928E-02 0.  1.
    10030    2    1    2    0    0  0.00000000000E+00  0.00000000000E+00 -0.10819783433E+04  0.17711004242E+04  0.14021838600E+04 0.  0.
        4    1    3    3  502    0 -0.20496248214E+03  0.22051264543E+03  0.25875736999E+03  0.39697913712E+03  0.12699999809E+01 0. -1.
       -4    1    3    3    0  502  0.20496248214E+03 -0.22051264543E+03 -0.13407357133E+04  0.13741212871E+04  0.12699999809E+01 0.  1.
</event>
<event>
 5   0  0.2155352E-04  0.1387675E+04  0.7818609E-02  0.8962788E-01
        1   -1    0    0  501    0  0.00000000000E+00  0.00000000000E+00  0.52487132618E+03  0.52487132620E+03  0.50400001928E-02 0. -1.
       -1   -1    0    0    0  501  0.00000000000E+00  0.00000000000E+00 -0.91719755314E+03  0.91719755315E+03  0.50400001928E-02 0.  1.
    10030    2    1    2    0    0  0.00000000000E+00  0.00000000000E+00 -0.39232622696E+03  0.14420688794E+04  0.13876753166E+04 0.  0.
        2    1    3    3  502    0 -0.36041038050E+03 -0.20404692836E+02  0.41959870115E+03  0.55351157520E+03  0.25500000920E-02 0. -1.
       -2    1    3    3    0  502  0.36041038050E+03  0.20404692836E+02 -0.81192492811E+03  0.88855730415E+03  0.25500000920E-02 0.  1.
</event>
<event>
 5   0  0.2217251E-04  0.1401665E+04  0.7818609E-02  0.8952614E-01
       -1   -1    0    0    0  501  0.00000000000E+00  0.00000000000E+00  0.13410054291E+04  0.13410054291E+04  0.50400001928E-02 0. -1.
        1   -1    0    0  501    0  0.00000000000E+00  0.00000000000E+00 -0.36626727824E+03  0.36626727828E+03  0.50400001928E-02 0.  1.
    10030    2    1    2    0    0  0.00000000000E+00  0.00000000000E+00  0.97473815088E+03  0.17072727074E+04  0.14016653077E+04 0.  0.
        5    1    3    3  502    0  0.51637170205E+03  0.22037981774E+02 -0.89133052391E+02  0.52449232439E+03  0.46999998093E+01 0.  1.
       -5    1    3    3    0  502 -0.51637170205E+03 -0.22037981774E+02  0.10638712033E+04  0.11827803830E+04  0.46999998093E+01 0. -1.
</event>
<event>
 5   0  0.2223112E-04  0.1397499E+04  0.7818609E-02  0.8955631E-01
        1   -1    0    0  501    0  0.00000000000E+00  0.00000000000E+00  0.69806015118E+03  0.69806015120E+03  0.50400001928E-02 0.  1.
       -1   -1    0    0    0  501  0.00000000000E+00  0.00000000000E+00 -0.69943950933E+03  0.69943950935E+03  0.50400001928E-02 0. -1.
    10030    2    1    2    0    0  0.00000000000E+00  0.00000000000E+00 -0.13793581475E+01  0.13974996605E+04  0.13974989798E+04 0.  0.
        1    1    3    3  502    0 -0.76602033593E+02  0.47103255630E+03  0.50971365435E+03  0.69824605269E+03  0.50400001928E-02 0.  1.
       -1    1    3    3    0  502  0.76602033593E+02 -0.47103255630E+03 -0.51109301249E+03  0.69925360785E+03  0.50400001928E-02 0. -1.
</event>
<event>
 5   0  0.3917598E-04  0.1402478E+04  0.7818609E-02  0.8952027E-01
        2   -1    0    0  501    0  0.00000000000E+00  0.00000000000E+00  0.80310806542E+03  0.80310806543E+03  0.25500000920E-02 0.  1.
       -2   -1    0    0    0  501  0.00000000000E+00  0.00000000000E+00 -0.61229127044E+03  0.61229127045E+03  0.25500000920E-02 0. -1.
    10030    2    1    2    0    0  0.00000000000E+00  0.00000000000E+00  0.19081679498E+03  0.14153993359E+04  0.14024778896E+04 0.  0.
        3    1    3    3  502    0 -0.38171385338E+03 -0.45737832980E+03  0.46872953993E+03  0.75802888747E+03  0.10100000352E+00 0.  1.
       -3    1    3    3    0  502  0.38171385338E+03  0.45737832980E+03 -0.27791274495E+03  0.65737044841E+03  0.10100000352E+00 0. -1.
</event>
<event>
 5   0  0.3917598E-04  0.1398494E+04  0.7818609E-02  0.8954909E-01
       -2   -1    0    0    0  501  0.00000000000E+00  0.00000000000E+00  0.62713414122E+03  0.62713414122E+03  0.25500000920E-02 0.  1.
        2   -1    0    0  501    0  0.00000000000E+00  0.00000000000E+00 -0.77965218035E+03  0.77965218035E+03  0.25500000920E-02 0. -1.
    10030    2    1    2    0    0  0.00000000000E+00  0.00000000000E+00 -0.15251803914E+03  0.14067863216E+04  0.13984941910E+04 0.  0.
        3    1    3    3  502    0 -0.37877749936E+03 -0.82391147079E+02 -0.66167687087E+03  0.76686177815E+03  0.10100000352E+00 0. -1.
       -3    1    3    3    0  502  0.37877749936E+03  0.82391147079E+02  0.50915883174E+03  0.63992454342E+03  0.10100000352E+00 0.  1.
</event>
<event>
 5   0  0.2217251E-04  0.1414391E+04  0.7818609E-02  0.8943467E-01
       -1   -1    0    0    0  501  0.00000000000E+00  0.00000000000E+00  0.67437829840E+03  0.67437829842E+03  0.50400001928E-02 0. -1.
        1   -1    0    0  501    0  0.00000000000E+00  0.00000000000E+00 -0.74160954788E+03  0.74160954790E+03  0.50400001928E-02 0.  1.
    10030    2    1    2    0    0  0.00000000000E+00  0.00000000000E+00 -0.67231249482E+02  0.14159878463E+04  0.14143908724E+04 0.  0.
        5    1    3    3  502    0  0.10892940923E+02  0.70210007135E+03  0.50384586559E+02  0.70400558443E+03  0.46999998093E+01 0.  1.
       -5    1    3    3    0  502 -0.10892940923E+02 -0.70210007135E+03 -0.11761583604E+03  0.71198226188E+03  0.46999998093E+01 0. -1.
</event>
<event>
 5   0  0.2215876E-04  0.1402454E+04  0.7818609E-02  0.8952044E-01
       -1   -1    0    0    0  501  0.00000000000E+00  0.00000000000E+00  0.54117691240E+03  0.54117691242E+03  0.50400001928E-02 0.  1.
        1   -1    0    0  501    0  0.00000000000E+00  0.00000000000E+00 -0.90861046975E+03  0.90861046976E+03  0.50400001928E-02 0. -1.
    10030    2    1    2    0    0  0.00000000000E+00  0.00000000000E+00 -0.36743355735E+03  0.14497873822E+04  0.14024535766E+04 0.  0.
        3    1    3    3  502    0  0.63529960787E+02  0.67443001488E+03  0.35807573362E+01  0.67742507550E+03  0.10100000352E+00 0.  1.
       -3    1    3    3    0  502 -0.63529960787E+02 -0.67443001488E+03 -0.37101431469E+03  0.77236230669E+03  0.10100000352E+00 0. -1.
</event>
<event>
 5   0  0.2215876E-04  0.1401929E+04  0.7818609E-02  0.8952423E-01
       -1   -1    0    0    0  501  0.00000000000E+00  0.00000000000E+00  0.87390137787E+03  0.87390137789E+03  0.50400001928E-02 0. -1.
        1   -1    0    0  501    0  0.00000000000E+00  0.00000000000E+00 -0.56225044112E+03  0.56225044115E+03  0.50400001928E-02 0.  1.
    10030    2    1    2    0    0  0.00000000000E+00  0.00000000000E+00  0.31165093675E+03  0.14361518190E+04  0.14019292924E+04 0.  0.
        3    1    3    3  502    0  0.19922324000E+02  0.63632943768E+03  0.45631051209E+03  0.78328241771E+03  0.10100000352E+00 0. -1.
       -3    1    3    3    0  502 -0.19922324000E+02 -0.63632943768E+03 -0.14465957534E+03  0.65286940133E+03  0.10100000352E+00 0.  1.
</event>
<event>
 5   0  0.3932568E-04  0.1402420E+04  0.7818609E-02  0.8952069E-01
       -2   -1    0    0    0  501  0.00000000000E+00  0.00000000000E+00  0.25135342723E+03  0.25135342725E+03  0.25500000920E-02 0. -1.
        2   -1    0    0  501    0  0.00000000000E+00  0.00000000000E+00 -0.19561907299E+04  0.19561907300E+04  0.25500000920E-02 0.  1.
    10030    2    1    2    0    0  0.00000000000E+00  0.00000000000E+00 -0.17048373027E+04  0.22075441572E+04  0.14024196866E+04 0.  0.
        2    1    3    3  502    0 -0.23477849312E+03 -0.30919599889E+03  0.66740776466E+02  0.39392567549E+03  0.25500000920E-02 0. -1.
       -2    1    3    3    0  502  0.23477849312E+03  0.30919599889E+03 -0.17715780792E+04  0.18136184817E+04  0.25500000920E-02 0.  1.
</event>
<event>
 5   0  0.3932568E-04  0.1403263E+04  0.7818609E-02  0.8951460E-01
        2   -1    0    0  501    0  0.00000000000E+00  0.00000000000E+00  0.46444575170E+03  0.46444575171E+03  0.25500000920E-02 0. -1.
       -2   -1    0    0    0  501  0.00000000000E+00  0.00000000000E+00 -0.10599450222E+04  0.10599450222E+04  0.25500000920E-02 0.  1.
    10030    2    1    2    0    0  0.00000000000E+00  0.00000000000E+00 -0.59549927050E+03  0.15243907739E+04  0.14032632862E+04 0.  0.
        2    1    3    3  502    0  0.14753741683E+03 -0.98352268479E+02 -0.10352042500E+04  0.10502801042E+04  0.25500000920E-02 0.  1.
       -2    1    3    3    0  502 -0.14753741683E+03  0.98352268479E+02  0.43970497952E+03  0.47411066968E+03  0.25500000920E-02 0. -1.
</event>
<event>
 5   0  0.2143942E-04  0.1399671E+04  0.7818609E-02  0.8954057E-01
        1   -1    0    0  501    0  0.00000000000E+00  0.00000000000E+00  0.59202179309E+03  0.59202179311E+03  0.50400001928E-02 0. -1.
       -1   -1    0    0    0  501  0.00000000000E+00  0.00000000000E+00 -0.82728283447E+03  0.82728283448E+03  0.50400001928E-02 0.  1.
    10030    2    1    2    0    0  0.00000000000E+00  0.00000000000E+00 -0.23526104138E+03  0.14193046276E+04  0.13996706285E+04 0.  0.
        4    1    3    3  502    0  0.94597908534E+02  0.60271047167E+02 -0.81810745579E+03  0.82576194242E+03  0.12699999809E+01 0.  1.
       -4    1    3    3    0  502 -0.94597908534E+02 -0.60271047167E+02  0.58284641441E+03  0.59354268517E+03  0.12699999809E+01 0. -1.
</event>
<event>
 5   0  0.3917598E-04  0.1399686E+04  0.7818609E-02  0.8954046E-01
        2   -1    0    0  501    0  0.00000000000E+00  0.00000000000E+00  0.85713453188E+03  0.85713453188E+03  0.25500000920E-02 0. -1.
       -2   -1    0    0    0  501  0.00000000000E+00  0.00000000000E+00 -0.57141605774E+03  0.57141605775E+03  0.25500000920E-02 0.  1.
    10030    2    1    2    0    0  0.00000000000E+00  0.00000000000E+00  0.28571847413E+03  0.14285505896E+04  0.13996863008E+04 0.  0.
        3    1    3    3  502    0 -0.43802119150E+03 -0.44540762504E+03  0.46484874082E+03  0.77867507902E+03  0.10100000352E+00 0. -1.
       -3    1    3    3    0  502  0.43802119150E+03  0.44540762504E+03 -0.17913026668E+03  0.64987551061E+03  0.10100000352E+00 0.  1.
</event>
<event>
 5   0  0.1497625E-04  0.1400678E+04  0.7818609E-02  0.8953328E-01
       -3   -1    0    0    0  501  0.00000000000E+00  0.00000000000E+00  0.32090992061E+03  0.32090993651E+03  0.10100000352E+00 0. -1.
        3   -1    0    0  501    0  0.00000000000E+00  0.00000000000E+00 -0.15283881888E+04  0.15283881921E+04  0.10100000352E+00 0.  1.
    10030    2    1    2    0    0  0.00000000000E+00  0.00000000000E+00 -0.12074782682E+04  0.18492981286E+04  0.14006783358E+04 0.  0.
        5    1    3    3  502    0  0.19361132696E+03  0.44599158274E+03  0.61742125450E+02  0.49013061306E+03  0.46999998093E+01 0. -1.
       -5    1    3    3    0  502 -0.19361132696E+03 -0.44599158274E+03 -0.12692203936E+04  0.13591675156E+04  0.46999998093E+01 0.  1.
</event>
<event>
 5   0  0.1497625E-04  0.1395846E+04  0.7818609E-02  0.8956831E-01
        4   -1    0    0  501    0  0.00000000000E+00  0.00000000000E+00  0.10740336647E+04  0.10740344155E+04  0.12699999809E+01 0.  1.
       -4   -1    0    0    0  501  0.00000000000E+00  0.00000000000E+00 -0.45351890916E+03  0.45352068736E+03  0.12699999809E+01 0. -1.
    10030    2    1    2    0    0  0.00000000000E+00  0.00000000000E+00  0.62051475551E+03  0.15275551029E+04  0.13958459910E+04 0.  0.
        4    1    3    3  502    0 -0.92757578789E+02 -0.55384505970E+03  0.76378466866E+03  0.94800683097E+03  0.12699999809E+01 0.  1.
       -4    1    3    3    0  502  0.92757578789E+02  0.55384505970E+03 -0.14326991315E+03  0.57954827193E+03  0.12699999809E+01 0. -1.
</event>
<event>
 5   0  0.1497625E-04  0.1400708E+04  0.7818609E-02  0.8953307E-01
       -4   -1    0    0    0  501  0.00000000000E+00  0.00000000000E+00  0.74602230275E+03  0.74602338375E+03  0.12699999809E+01 0. -1.
        4   -1    0    0  501    0  0.00000000000E+00  0.00000000000E+00 -0.65747867716E+03  0.65747990373E+03  0.12699999809E+01 0.  1.
    10030    2    1    2    0    0  0.00000000000E+00  0.00000000000E+00  0.88543625593E+02  0.14035032875E+04  0.14007075013E+04 0.  0.
        4    1    3    3  502    0 -0.56221391206E+03 -0.32507226780E+03  0.30697311004E+03  0.71832483278E+03  0.12699999809E+01 0. -1.
       -4    1    3    3    0  502  0.56221391206E+03  0.32507226780E+03 -0.21842948445E+03  0.68517845470E+03  0.12699999809E+01 0.  1.
</event>
<event>
 5   0  0.3932568E-04  0.1398949E+04  0.7818609E-02  0.8954580E-01
       -2   -1    0    0    0  501  0.00000000000E+00  0.00000000000E+00  0.60964635153E+03  0.60964635153E+03  0.25500000920E-02 0. -1.
        2   -1    0    0  501    0  0.00000000000E+00  0.00000000000E+00 -0.80253824511E+03  0.80253824511E+03  0.25500000920E-02 0.  1.
    10030    2    1    2    0    0  0.00000000000E+00  0.00000000000E+00 -0.19289189358E+03  0.14121845966E+04  0.13989489099E+04 0.  0.
        2    1    3    3  502    0 -0.17897693816E+03 -0.67074412432E+03 -0.18289548659E+03  0.71790053888E+03  0.25500000920E-02 0.  1.
       -2    1    3    3    0  502  0.17897693816E+03  0.67074412432E+03 -0.99964069900E+01  0.69428405776E+03  0.25500000920E-02 0. -1.
</event>
<event>
 5   0  0.2217251E-04  0.1396670E+04  0.7818609E-02  0.8956233E-01
       -1   -1    0    0    0  501  0.00000000000E+00  0.00000000000E+00  0.27734164607E+03  0.27734164611E+03  0.50400001928E-02 0. -1.
        1   -1    0    0  501    0  0.00000000000E+00  0.00000000000E+00 -0.17583788801E+04  0.17583788802E+04  0.50400001928E-02 0.  1.
    10030    2    1    2    0    0  0.00000000000E+00  0.00000000000E+00 -0.14810372341E+04  0.20357205263E+04  0.13966698867E+04 0.  0.
        5    1    3    3  502    0  0.37587499577E+02  0.20216710042E+03  0.23218951875E+03  0.31019093996E+03  0.46999998093E+01 0. -1.
       -5    1    3    3    0  502 -0.37587499577E+02 -0.20216710042E+03 -0.17132267528E+04  0.17255295863E+04  0.46999998093E+01 0.  1.
</event>
<event>
 5   0  0.3975164E-04  0.1399027E+04  0.7818609E-02  0.8954523E-01
       -2   -1    0    0    0  501  0.00000000000E+00  0.00000000000E+00  0.19277290859E+03  0.19277290861E+03  0.25500000920E-02 0. -1.
        2   -1    0    0  501    0  0.00000000000E+00  0.00000000000E+00 -0.25383192342E+04  0.25383192342E+04  0.25500000920E-02 0.  1.
    10030    2    1    2    0    0  0.00000000000E+00  0.00000000000E+00 -0.23455463256E+04  0.27310921428E+04  0.13990270644E+04 0.  0.
        5    1    3    3  502    0 -0.28970445912E+03 -0.56372028653E+03 -0.17505128291E+04  0.18617267495E+04  0.46999998093E+01 0.  1.
       -5    1    3    3    0  502  0.28970445912E+03  0.56372028653E+03 -0.59503349655E+03  0.86936539332E+03  0.46999998093E+01 0. -1.
</event>
<event>
 5   0  0.2215876E-04  0.1403070E+04  0.7818609E-02  0.8951599E-01
       -1   -1    0    0    0  501  0.00000000000E+00  0.00000000000E+00  0.45013296273E+03  0.45013296276E+03  0.50400001928E-02 0.  1.
        1   -1    0    0  501    0  0.00000000000E+00  0.00000000000E+00 -0.10933470347E+04  0.10933470347E+04  0.50400001928E-02 0. -1.
    10030    2    1    2    0    0  0.00000000000E+00  0.00000000000E+00 -0.64321407198E+03  0.15434799975E+04  0.14030702620E+04 0.  0.
        3    1    3    3  502    0 -0.98903019504E+02  0.44767365313E+03  0.26252875105E+03  0.52831322367E+03  0.10100000352E+00 0.  1.
       -3    1    3    3    0  502  0.98903019504E+02 -0.44767365313E+03 -0.90574282303E+03  0.10151667738E+04  0.10100000352E+00 0. -1.
</event>
<event>
 5   0  0.4208622E-04  0.1395767E+04  0.7818609E-02  0.8956888E-01
        2   -1    0    0  501    0  0.00000000000E+00  0.00000000000E+00  0.21690487858E+04  0.21690487858E+04  0.25500000920E-02 0.  1.
       -2   -1    0    0    0  501  0.00000000000E+00  0.00000000000E+00 -0.22454159690E+03  0.22454159691E+03  0.25500000920E-02 0. -1.
    10030    2    1    2    0    0  0.00000000000E+00  0.00000000000E+00  0.19445071889E+04  0.23935903827E+04  0.13957674278E+04 0.  0.
        4    1    3    3  502    0 -0.54913275203E+02  0.10709462005E+02 -0.22068757779E+03  0.22767252856E+03  0.12699999809E+01 0. -1.
       -4    1    3    3    0  502  0.54913275203E+02 -0.10709462005E+02  0.21651947667E+04  0.21659178542E+04  0.12699999809E+01 0.  1.
</event>
<event>
 5   0  0.2155352E-04  0.1399855E+04  0.7818609E-02  0.8953923E-01
       -1   -1    0    0    0  501  0.00000000000E+00  0.00000000000E+00  0.70068181075E+03  0.70068181077E+03  0.50400001928E-02 0. -1.
        1   -1    0    0  501    0  0.00000000000E+00  0.00000000000E+00 -0.69917407460E+03  0.69917407462E+03  0.50400001928E-02 0.  1.
    10030    2    1    2    0    0  0.00000000000E+00  0.00000000000E+00  0.15077361564E+01  0.13998558854E+04  0.13998550734E+04 0.  0.
        2    1    3    3  502    0 -0.43306341075E+03 -0.19146570179E+02 -0.54878084246E+03  0.69933605794E+03  0.25500000920E-02 0.  1.
       -2    1    3    3    0  502  0.43306341075E+03  0.19146570179E+02  0.55028857862E+03  0.70051982745E+03  0.25500000920E-02 0. -1.
</event>
<event>
 5   0  0.2223112E-04  0.1400613E+04  0.7818609E-02  0.8953375E-01
       -1   -1    0    0    0  501  0.00000000000E+00  0.00000000000E+00  0.13434801870E+04  0.13434801870E+04  0.50400001928E-02 0. -1.
        1   -1    0    0  501    0  0.00000000000E+00  0.00000000000E+00 -0.36504401906E+03  0.36504401910E+03  0.50400001928E-02 0.  1.
    10030    2    1    2    0    0  0.00000000000E+00  0.00000000000E+00  0.97843616795E+03  0.17085242061E+04  0.14006133043E+04 0.  0.
        1    1    3    3  502    0 -0.15659776537E+03  0.26906300334E+03 -0.27599376170E+03  0.41604124364E+03  0.50400001928E-02 0.  1.
       -1    1    3    3    0  502  0.15659776537E+03 -0.26906300334E+03  0.12544299297E+04  0.12924829625E+04  0.50400001928E-02 0. -1.
</event>
<event>
 5   0  0.3975164E-04  0.1403300E+04  0.7818609E-02  0.8951433E-01
       -2   -1    0    0    0  501  0.00000000000E+00  0.00000000000E+00  0.23589472680E+03  0.23589472681E+03  0.25500000920E-02 0. -1.
        2   -1    0    0  501    0  0.00000000000E+00  0.00000000000E+00 -0.20870013297E+04  0.20870013297E+04  0.25500000920E-02 0.  1.
    10030    2    1    2    0    0  0.00000000000E+00  0.00000000000E+00 -0.18511066029E+04  0.23228960565E+04  0.14032998375E+04 0.  0.
        5    1    3    3  502    0 -0.39072477618E+03  0.56857855884E+03 -0.11371682732E+04  0.13300831553E+04  0.46999998093E+01 0.  1.
       -5    1    3    3    0  502  0.39072477618E+03 -0.56857855884E+03 -0.71393832965E+03  0.99281290122E+03  0.46999998093E+01 0. -1.
</event>
<event>
 5   0  0.2217251E-04  0.1400177E+04  0.7818609E-02  0.8953690E-01
       -1   -1    0    0    0  501  0.00000000000E+00  0.00000000000E+00  0.46519075944E+03  0.46519075947E+03  0.50400001928E-02 0. -1.
        1   -1    0    0  501    0  0.00000000000E+00  0.00000000000E+00 -0.10535981810E+04  0.10535981810E+04  0.50400001928E-02 0.  1.
    10030    2    1    2    0    0  0.00000000000E+00  0.00000000000E+00 -0.58840742156E+03  0.15187889405E+04  0.14001773288E+04 0.  0.
        5    1    3    3  502    0 -0.31304781056E+03 -0.24986634105E+03 -0.91701152252E+03  0.10006819387E+04  0.46999998093E+01 0.  1.
       -5    1    3    3    0  502  0.31304781056E+03  0.24986634105E+03  0.32860410096E+03  0.51810700174E+03  0.46999998093E+01 0. -1.
</event>
<event>
 5   0  0.3917598E-04  0.1402054E+04  0.7818609E-02  0.8952333E-01
       -2   -1    0    0    0  501  0.00000000000E+00  0.00000000000E+00  0.43667170586E+03  0.43667170587E+03  0.25500000920E-02 0. -1.
        2   -1    0    0  501    0  0.00000000000E+00  0.00000000000E+00 -0.11254197919E+04  0.11254197919E+04  0.25500000920E-02 0.  1.
    10030    2    1    2    0    0  0.00000000000E+00  0.00000000000E+00 -0.68874808608E+03  0.15620914978E+04  0.14020541792E+04 0.  0.
        3    1    3    3  502    0  0.62653155046E+03 -0.23986092492E+03 -0.57097019666E+03  0.88095517632E+03  0.10100000352E+00 0. -1.
       -3    1    3    3    0  502 -0.62653155046E+03  0.23986092492E+03 -0.11777788943E+03  0.68113632149E+03  0.10100000352E+00 0.  1.
</event>
<event>
 5   0  0.4310348E-04  0.1395112E+04  0.7818609E-02  0.8957365E-01
       -2   -1    0    0    0  501  0.00000000000E+00  0.00000000000E+00  0.42073355449E+03  0.42073355450E+03  0.25500000920E-02 0. -1.
        2   -1    0    0  501    0  0.00000000000E+00  0.00000000000E+00 -0.11565135366E+04  0.11565135366E+04  0.25500000920E-02 0.  1.
    10030    2    1    2    0    0  0.00000000000E+00  0.00000000000E+00 -0.73577998215E+03  0.15772470911E+04  0.13951115383E+04 0.  0.
        1    1    3    3  502    0  0.34224617512E+03 -0.19591762565E+02  0.31893148194E+03  0.46822384790E+03  0.50400001928E-02 0. -1.
       -1    1    3    3    0  502 -0.34224617512E+03  0.19591762565E+02 -0.10547114641E+04  0.11090232432E+04  0.50400001928E-02 0.  1.
</event>
<event>
 5   0  0.2155352E-04  0.1397238E+04  0.7818609E-02  0.8955821E-01
       -1   -1    0    0    0  501  0.00000000000E+00  0.00000000000E+00  0.38699754414E+03  0.38699754417E+03  0.50400001928E-02 0. -1.
        1   -1    0    0  501    0  0.00000000000E+00  0.00000000000E+00 -0.12611661542E+04  0.12611661542E+04  0.50400001928E-02 0.  1.
    10030    2    1    2    0    0  0.00000000000E+00  0.00000000000E+00 -0.87416861005E+03  0.16481636984E+04  0.13972375667E+04 0.  0.
        2    1    3    3  502    0  0.14250263877E+03 -0.24948201290E+03 -0.11882507698E+04  0.12224926048E+04  0.25500000920E-02 0.  1.
       -2    1    3    3    0  502 -0.14250263877E+03  0.24948201290E+03  0.31408215976E+03  0.42567109358E+03  0.25500000920E-02 0. -1.
</event>
<event>
 5   0  0.2155352E-04  0.1422694E+04  0.7818609E-02  0.8937554E-01
       -1   -1    0    0    0  501  0.00000000000E+00  0.00000000000E+00  0.69946600499E+03  0.69946600501E+03  0.50400001928E-02 0.  1.
        1   -1    0    0  501    0  0.00000000000E+00  0.00000000000E+00 -0.72342950114E+03  0.72342950116E+03  0.50400001928E-02 0. -1.
    10030    2    1    2    0    0  0.00000000000E+00  0.00000000000E+00 -0.23963496149E+02  0.14228955062E+04  0.14226937029E+04 0.  0.
        2    1    3    3  502    0  0.19511398209E+03 -0.23867127271E+03  0.62918710708E+03  0.70064959726E+03  0.25500000920E-02 0.  1.
       -2    1    3    3    0  502 -0.19511398209E+03  0.23867127271E+03 -0.65315060323E+03  0.72224590890E+03  0.25500000920E-02 0. -1.
</event>
<event>
 5   0  0.3917598E-04  0.1399945E+04  0.7818609E-02  0.8953858E-01
       -2   -1    0    0    0  501  0.00000000000E+00  0.00000000000E+00  0.73770596931E+03  0.73770596931E+03  0.25500000920E-02 0.  1.
        2   -1    0    0  501    0  0.00000000000E+00  0.00000000000E+00 -0.66416903454E+03  0.66416903454E+03  0.25500000920E-02 0. -1.
    10030    2    1    2    0    0  0.00000000000E+00  0.00000000000E+00  0.73536934768E+02  0.14018750039E+04  0.13999449438E+04 0.  0.
        3    1    3    3  502    0 -0.10739957718E+03 -0.66869613822E+03  0.21385190634E+03  0.71022661348E+03  0.10100000352E+00 0.  1.
       -3    1    3    3    0  502  0.10739957718E+03  0.66869613822E+03 -0.14031497157E+03  0.69164839037E+03  0.10100000352E+00 0. -1.
</event>
<event>
 5   0  0.3975164E-04  0.1401228E+04  0.7818609E-02  0.8952930E-01
       -2   -1    0    0    0  501  0.00000000000E+00  0.00000000000E+00  0.10478953149E+04  0.10478953149E+04  0.25500000920E-02 0.  1.
        2   -1    0    0  501    0  0.00000000000E+00  0.00000000000E+00 -0.46842479996E+03  0.46842479996E+03  0.25500000920E-02 0. -1.
    10030    2    1    2    0    0  0.00000000000E+00  0.00000000000E+00  0.57947051494E+03  0.15163201149E+04  0.14012282516E+04 0.  0.
        5    1    3    3  502    0 -0.53190426285E+03  0.44002378235E+03  0.16035323671E+03  0.70871596877E+03  0.46999998093E+01 0. -1.
       -5    1    3    3    0  502  0.53190426285E+03 -0.44002378235E+03  0.41911727823E+03  0.80760414609E+03  0.46999998093E+01 0.  1.
</event>
<event>
 5   0  0.2143942E-04  0.1398704E+04  0.7818609E-02  0.8954757E-01
       -1   -1    0    0    0  501  0.00000000000E+00  0.00000000000E+00  0.78079035842E+03  0.78079035843E+03  0.50400001928E-02 0.  1.
        1   -1    0    0  501    0  0.00000000000E+00  0.00000000000E+00 -0.62640770450E+03  0.62640770452E+03  0.50400001928E-02 0. -1.
    10030    2    1    2    0    0  0.00000000000E+00  0.00000000000E+00  0.15438265391E+03  0.14071980630E+04  0.13987038230E+04 0.  0.
        4    1    3    3  502    0 -0.48330595614E+03  0.11382964654E+02  0.58560893340E+03  0.75937714932E+03  0.12699999809E+01 0.  1.
       -4    1    3    3    0  502  0.48330595614E+03 -0.11382964654E+02 -0.43122627949E+03  0.64782091364E+03  0.12699999809E+01 0. -1.
</event>
<event>
 5   0  0.2143942E-04  0.1393642E+04  0.7818609E-02  0.8958434E-01
       -1   -1    0    0    0  501  0.00000000000E+00  0.00000000000E+00  0.10543517416E+04  0.10543517416E+04  0.50400001928E-02 0. -1.
        1   -1    0    0  501    0  0.00000000000E+00  0.00000000000E+00 -0.46052872223E+03  0.46052872226E+03  0.50400001928E-02 0.  1.
    10030    2    1    2    0    0  0.00000000000E+00  0.00000000000E+00  0.59382301936E+03  0.15148804639E+04  0.13936416474E+04 0.  0.
        4    1    3    3  502    0 -0.38261767526E+03  0.30381692038E+03  0.83698101545E+03  0.96914386943E+03  0.12699999809E+01 0. -1.
       -4    1    3    3    0  502  0.38261767526E+03 -0.30381692038E+03 -0.24315799609E+03  0.54573659442E+03  0.12699999809E+01 0.  1.
</event>
<event>
 5   0  0.2223112E-04  0.1398542E+04  0.7818609E-02  0.8954875E-01
        1   -1    0    0  501    0  0.00000000000E+00  0.00000000000E+00  0.16617583881E+04  0.16617583881E+04  0.50400001928E-02 0.  1.
       -1   -1    0    0    0  501  0.00000000000E+00  0.00000000000E+00 -0.29425432797E+03  0.29425432801E+03  0.50400001928E-02 0. -1.
    10030    2    1    2    0    0  0.00000000000E+00  0.00000000000E+00  0.13675040602E+04  0.19560127162E+04  0.13985415229E+04 0.  0.
        1    1    3    3  502    0 -0.10784543652E+03 -0.18379922844E+03 -0.24773288606E+03  0.32677878973E+03  0.50400001928E-02 0. -1.
       -1    1    3    3    0  502  0.10784543652E+03  0.18379922844E+03  0.16152369462E+04  0.16292339264E+04  0.50400001928E-02 0.  1.
</event>
<event>
 5   0  0.2223112E-04  0.1437824E+04  0.7818609E-02  0.8926886E-01
        1   -1    0    0  501    0  0.00000000000E+00  0.00000000000E+00  0.48961818233E+03  0.48961818235E+03  0.50400001928E-02 0.  1.
       -1   -1    0    0    0  501  0.00000000000E+00  0.00000000000E+00 -0.10555863930E+04  0.10555863931E+04  0.50400001928E-02 0. -1.
    10030    2    1    2    0    0  0.00000000000E+00  0.00000000000E+00 -0.56596821071E+03  0.15452045754E+04  0.14378237598E+04 0.  0.
        1    1    3    3  502    0  0.23443285212E+03  0.66953167158E+03 -0.40832581025E+03  0.81851169127E+03  0.50400001928E-02 0. -1.
       -1    1    3    3    0  502 -0.23443285212E+03 -0.66953167158E+03 -0.15764240047E+03  0.72669288414E+03  0.50400001928E-02 0.  1.
</event>
<event>
 5   0  0.2155352E-04  0.1393829E+04  0.7818609E-02  0.8958298E-01
        1   -1    0    0  501    0  0.00000000000E+00  0.00000000000E+00  0.49149332335E+03  0.49149332337E+03  0.50400001928E-02 0.  1.
       -1   -1    0    0    0  501  0.00000000000E+00  0.00000000000E+00 -0.98819143007E+03  0.98819143009E+03  0.50400001928E-02 0. -1.
    10030    2    1    2    0    0  0.00000000000E+00  0.00000000000E+00 -0.49669810673E+03  0.14796847535E+04  0.13938285262E+04 0.  0.
        2    1    3    3  502    0  0.63226743924E+02 -0.46330895413E+03  0.30023769409E+03  0.55569369357E+03  0.25500000920E-02 0.  1.
       -2    1    3    3    0  502 -0.63226743924E+02  0.46330895413E+03 -0.79693580082E+03  0.92399105989E+03  0.25500000920E-02 0. -1.
</event>
<event>
 5   0  0.2217251E-04  0.1400169E+04  0.7818609E-02  0.8953697E-01
        1   -1    0    0  501    0  0.00000000000E+00  0.00000000000E+00  0.73430442956E+03  0.73430442957E+03  0.50400001928E-02 0.  1.
       -1   -1    0    0    0  501  0.00000000000E+00  0.00000000000E+00 -0.66745886557E+03  0.66745886559E+03  0.50400001928E-02 0. -1.
    10030    2    1    2    0    0  0.00000000000E+00  0.00000000000E+00  0.66845563987E+02  0.14017632952E+04  0.14001685635E+04 0.  0.
        5    1    3    3  502    0  0.46535951620E+03  0.44831387062E+03 -0.23623712406E+03  0.68802243764E+03  0.46999998093E+01 0. -1.
       -5    1    3    3    0  502 -0.46535951620E+03 -0.44831387062E+03  0.30308268805E+03  0.71374085753E+03  0.46999998093E+01 0.  1.
</event>
<event>
 5   0  0.2155352E-04  0.1401005E+04  0.7818609E-02  0.8953092E-01
       -1   -1    0    0    0  501  0.00000000000E+00  0.00000000000E+00  0.45076728354E+03  0.45076728357E+03  0.50400001928E-02 0.  1.
        1   -1    0    0  501    0  0.00000000000E+00  0.00000000000E+00 -0.10885961679E+04  0.10885961679E+04  0.50400001928E-02 0. -1.
    10030    2    1    2    0    0  0.00000000000E+00  0.00000000000E+00 -0.63782888435E+03  0.15393634515E+04  0.14010046931E+04 0.  0.
        2    1    3    3  502    0 -0.26738555115E+03  0.12996526458E+03  0.37801058642E+03  0.48091372034E+03  0.25500000920E-02 0.  1.
       -2    1    3    3    0  502  0.26738555115E+03 -0.12996526458E+03 -0.10158394708E+04  0.10584497311E+04  0.25500000920E-02 0. -1.
</event>
<event>
 5   0  0.4310348E-04  0.1405223E+04  0.7818609E-02  0.8950046E-01
       -2   -1    0    0    0  501  0.00000000000E+00  0.00000000000E+00  0.47396800941E+03  0.47396800942E+03  0.25500000920E-02 0.  1.
        2   -1    0    0  501    0  0.00000000000E+00  0.00000000000E+00 -0.10415534721E+04  0.10415534721E+04  0.25500000920E-02 0. -1.
    10030    2    1    2    0    0  0.00000000000E+00  0.00000000000E+00 -0.56758546271E+03  0.15155214815E+04  0.14052231508E+04 0.  0.
        1    1    3    3  502    0 -0.12691153283E+03  0.63614362720E+03 -0.57494109313E+03  0.86680015700E+03  0.50400001928E-02 0. -1.
       -1    1    3    3    0  502  0.12691153283E+03 -0.63614362720E+03  0.73556304151E+01  0.64872132454E+03  0.50400001928E-02 0.  1.
</event>
<event>
 5   0  0.4310348E-04  0.1397757E+04  0.7818609E-02  0.8955444E-01
       -2   -1    0    0    0  501  0.00000000000E+00  0.00000000000E+00  0.29313766078E+03  0.29313766079E+03  0.25500000920E-02 0. -1.
        2   -1    0    0  501    0  0.00000000000E+00  0.00000000000E+00 -0.16662172404E+04  0.16662172404E+04  0.25500000920E-02 0.  1.
    10030    2    1    2    0    0  0.00000000000E+00  0.00000000000E+00 -0.13730795796E+04  0.19593549012E+04  0.13977568089E+04 0.  0.
        1    1    3    3  502    0  0.64337530171E+02 -0.34537646532E+03 -0.15334394739E+04  0.15731690439E+04  0.50400001928E-02 0.  1.
       -1    1    3    3    0  502 -0.64337530171E+02  0.34537646532E+03  0.16035989433E+03  0.38618585722E+03  0.50400001928E-02 0. -1.
</event>
<event>
 5   0  0.3932568E-04  0.1465420E+04  0.7818609E-02  0.8907780E-01
        2   -1    0    0  501    0  0.00000000000E+00  0.00000000000E+00  0.44876092808E+03  0.44876092809E+03  0.25500000920E-02 0.  1.
       -2   -1    0    0    0  501  0.00000000000E+00  0.00000000000E+00 -0.11963249633E+04  0.11963249633E+04  0.25500000920E-02 0. -1.
    10030    2    1    2    0    0  0.00000000000E+00  0.00000000000E+00 -0.74756403526E+03  0.16450858914E+04  0.14654199410E+04 0.  0.
        2    1    3    3  502    0 -0.93096409666E+02 -0.46656998647E+03 -0.99933465834E+03  0.11068081375E+04  0.25500000920E-02 0. -1.
       -2    1    3    3    0  502  0.93096409666E+02  0.46656998647E+03  0.25177062309E+03  0.53827775397E+03  0.25500000920E-02 0.  1.
</event>
<event>
 5   0  0.2143942E-04  0.1396439E+04  0.7818609E-02  0.8956400E-01
        1   -1    0    0  501    0  0.00000000000E+00  0.00000000000E+00  0.11837953162E+04  0.11837953162E+04  0.50400001928E-02 0.  1.
       -1   -1    0    0    0  501  0.00000000000E+00  0.00000000000E+00 -0.41181992880E+03  0.41181992883E+03  0.50400001928E-02 0. -1.
    10030    2    1    2    0    0  0.00000000000E+00  0.00000000000E+00  0.77197538741E+03  0.15956152451E+04  0.13964390468E+04 0.  0.
        4    1    3    3  502    0  0.23465668020E+03 -0.61811555073E+03  0.64245259640E+03  0.92188803178E+03  0.12699999809E+01 0.  1.
       -4    1    3    3    0  502 -0.23465668020E+03  0.61811555073E+03  0.12952279101E+03  0.67372721328E+03  0.12699999809E+01 0. -1.
</event>
<event>
 5   0  0.2143942E-04  0.1404733E+04  0.7818609E-02  0.8950400E-01
        1   -1    0    0  501    0  0.00000000000E+00  0.00000000000E+00  0.69598594984E+03  0.69598594986E+03  0.50400001928E-02 0.  1.
       -1   -1    0    0    0  501  0.00000000000E+00  0.00000000000E+00 -0.70880523884E+03  0.70880523886E+03  0.50400001928E-02 0. -1.
    10030    2    1    2    0    0  0.00000000000E+00  0.00000000000E+00 -0.12819289001E+02  0.14047911887E+04  0.14047326969E+04 0.  0.
        4    1    3    3  502    0  0.51509678445E+03 -0.37025509577E+03  0.29510471944E+03  0.69964415357E+03  0.12699999809E+01 0.  1.
       -4    1    3    3    0  502 -0.51509678445E+03  0.37025509577E+03 -0.30792400844E+03  0.70514703514E+03  0.12699999809E+01 0. -1.
</event>
<event>
 5   0  0.2223112E-04  0.1397295E+04  0.7818609E-02  0.8955779E-01
        1   -1    0    0  501    0  0.00000000000E+00  0.00000000000E+00  0.84353403544E+03  0.84353403546E+03  0.50400001928E-02 0. -1.
       -1   -1    0    0    0  501  0.00000000000E+00  0.00000000000E+00 -0.57864651466E+03  0.57864651468E+03  0.50400001928E-02 0.  1.
    10030    2    1    2    0    0  0.00000000000E+00  0.00000000000E+00  0.26488752079E+03  0.14221805501E+04  0.13972945711E+04 0.  0.
        1    1    3    3  502    0  0.35867972956E+03  0.93385174986E+02  0.73522120281E+03  0.82336028347E+03  0.50400001928E-02 0. -1.
       -1    1    3    3    0  502 -0.35867972956E+03 -0.93385174986E+02 -0.47033368203E+03  0.59882026667E+03  0.50400001928E-02 0.  1.
</event>
<event>
 5   0  0.2155352E-04  0.1396561E+04  0.7818609E-02  0.8956312E-01
        1   -1    0    0  501    0  0.00000000000E+00  0.00000000000E+00  0.15044177776E+04  0.15044177776E+04  0.50400001928E-02 0. -1.
       -1   -1    0    0    0  501  0.00000000000E+00  0.00000000000E+00 -0.32410915803E+03  0.32410915807E+03  0.50400001928E-02 0.  1.
    10030    2    1    2    0    0  0.00000000000E+00  0.00000000000E+00  0.11803086196E+04  0.18285269357E+04  0.13965608892E+04 0.  0.
        2    1    3    3  502    0  0.34188920702E+03  0.60195098431E+03  0.70988513229E+03  0.99154935250E+03  0.25500000920E-02 0.  1.
       -2    1    3    3    0  502 -0.34188920702E+03 -0.60195098431E+03  0.47042348731E+03  0.83697758321E+03  0.25500000920E-02 0. -1.
</event>
<event>
 5   0  0.2155352E-04  0.1395979E+04  0.7818609E-02  0.8956734E-01
       -1   -1    0    0    0  501  0.00000000000E+00  0.00000000000E+00  0.23332184014E+03  0.23332184020E+03  0.50400001928E-02 0.  1.
        1   -1    0    0  501    0  0.00000000000E+00  0.00000000000E+00 -0.20880573346E+04  0.20880573346E+04  0.50400001928E-02 0. -1.
    10030    2    1    2    0    0  0.00000000000E+00  0.00000000000E+00 -0.18547354944E+04  0.23213791748E+04  0.13959790538E+04 0.  0.
        2    1    3    3  502    0 -0.58336756350E+03 -0.32263937195E+03 -0.12712935310E+04  0.14354794044E+04  0.25500000920E-02 0. -1.
       -2    1    3    3    0  502  0.58336756350E+03  0.32263937195E+03 -0.58344196346E+03  0.88589977040E+03  0.25500000920E-02 0.  1.
</event>
<event>
 5   0  0.3917598E-04  0.1401862E+04  0.7818609E-02  0.8952472E-01
        2   -1    0    0  501    0  0.00000000000E+00  0.00000000000E+00  0.10063480395E+04  0.10063480395E+04  0.25500000920E-02 0. -1.
       -2   -1    0    0    0  501  0.00000000000E+00  0.00000000000E+00 -0.48820516177E+03  0.48820516178E+03  0.25500000920E-02 0.  1.
    10030    2    1    2    0    0  0.00000000000E+00  0.00000000000E+00  0.51814287768E+03  0.14945532012E+04  0.14018620580E+04 0.  0.
        3    1    3    3  502    0  0.39834794686E+03 -0.10449050334E+03  0.86376447337E+03  0.95691610275E+03  0.10100000352E+00 0. -1.
       -3    1    3    3    0  502 -0.39834794686E+03  0.10449050334E+03 -0.34562159569E+03  0.53763709848E+03  0.10100000352E+00 0.  1.
</event>
<event>
 5   0  0.4310348E-04  0.1390097E+04  0.7818609E-02  0.8961018E-01
       -2   -1    0    0    0  501  0.00000000000E+00  0.00000000000E+00  0.35579250266E+03  0.35579250267E+03  0.25500000920E-02 0.  1.
        2   -1    0    0  501    0  0.00000000000E+00  0.00000000000E+00 -0.13577926157E+04  0.13577926157E+04  0.25500000920E-02 0. -1.
    10030    2    1    2    0    0  0.00000000000E+00  0.00000000000E+00 -0.10020001130E+04  0.17135851184E+04  0.13900970223E+04 0.  0.
        1    1    3    3  502    0  0.32204108024E+03 -0.51643696125E+03 -0.87215721841E+02  0.61483670554E+03  0.50400001928E-02 0.  1.
       -1    1    3    3    0  502 -0.32204108024E+03  0.51643696125E+03 -0.91478439118E+03  0.10987484128E+04  0.50400001928E-02 0. -1.
</event>
<event>
 5   0  0.3917598E-04  0.1399327E+04  0.7818609E-02  0.8954306E-01
        2   -1    0    0  501    0  0.00000000000E+00  0.00000000000E+00  0.24505972881E+04  0.24505972881E+04  0.25500000920E-02 0. -1.
       -2   -1    0    0    0  501  0.00000000000E+00  0.00000000000E+00 -0.19975902767E+03  0.19975902768E+03  0.25500000920E-02 0.  1.
    10030    2    1    2    0    0  0.00000000000E+00  0.00000000000E+00  0.22508382604E+04  0.26503563158E+04  0.13993268832E+04 0.  0.
        3    1    3    3  502    0 -0.42636031640E+03  0.36574968496E+02  0.21738388698E+04  0.22155577830E+04  0.10100000352E+00 0. -1.
       -3    1    3    3    0  502  0.42636031640E+03 -0.36574968496E+02  0.76999390585E+02  0.43479853274E+03  0.10100000352E+00 0.  1.
</event>
<event>
 5   0  0.2223112E-04  0.1398995E+04  0.7818609E-02  0.8954546E-01
       -1   -1    0    0    0  501  0.00000000000E+00  0.00000000000E+00  0.66498196621E+03  0.66498196623E+03  0.50400001928E-02 0. -1.
        1   -1    0    0  501    0  0.00000000000E+00  0.00000000000E+00 -0.73580455780E+03  0.73580455782E+03  0.50400001928E-02 0.  1.
    10030    2    1    2    0    0  0.00000000000E+00  0.00000000000E+00 -0.70822591591E+02  0.14007865241E+04  0.13989950130E+04 0.  0.
        1    1    3    3  502    0 -0.33953538990E+03 -0.60489844357E+03 -0.12558412215E+03  0.70495232448E+03  0.50400001928E-02 0. -1.
       -1    1    3    3    0  502  0.33953538990E+03  0.60489844357E+03  0.54761530555E+02  0.69583419957E+03  0.50400001928E-02 0.  1.
</event>
<event>
 5   0  0.3932568E-04  0.1398476E+04  0.7818609E-02  0.8954923E-01
       -2   -1    0    0    0  501  0.00000000000E+00  0.00000000000E+00  0.33668823525E+03  0.33668823526E+03  0.25500000920E-02 0. -1.
        2   -1    0    0  501    0  0.00000000000E+00  0.00000000000E+00 -0.14521848293E+04  0.14521848293E+04  0.25500000920E-02 0.  1.
    10030    2    1    2    0    0  0.00000000000E+00  0.00000000000E+00 -0.11154965941E+04  0.17888730646E+04  0.13984756665E+04 0.  0.
        2    1    3    3  502    0  0.48687976003E+03 -0.46986023192E+03 -0.78337766108E+03  0.10351333722E+04  0.25500000920E-02 0.  1.
       -2    1    3    3    0  502 -0.48687976003E+03  0.46986023192E+03 -0.33211893299E+03  0.75373969242E+03  0.25500000920E-02 0. -1.
</event>
<event>
 5   0  0.3932568E-04  0.1413594E+04  0.7818609E-02  0.8944037E-01
        2   -1    0    0  501    0  0.00000000000E+00  0.00000000000E+00  0.85866050514E+03  0.85866050514E+03  0.25500000920E-02 0. -1.
       -2   -1    0    0    0  501  0.00000000000E+00  0.00000000000E+00 -0.58179238137E+03  0.58179238137E+03  0.25500000920E-02 0.  1.
    10030    2    1    2    0    0  0.00000000000E+00  0.00000000000E+00  0.27686812377E+03  0.14404528865E+04  0.14135941993E+04 0.  0.
        2    1    3    3  502    0  0.48266462546E+03  0.13045531783E+03 -0.37063629653E+03  0.62237849813E+03  0.25500000920E-02 0.  1.
       -2    1    3    3    0  502 -0.48266462546E+03 -0.13045531783E+03  0.64750442030E+03  0.81807438838E+03  0.25500000920E-02 0. -1.
</event>
<event>
 5   0  0.2223112E-04  0.1396807E+04  0.7818609E-02  0.8956133E-01
        1   -1    0    0  501    0  0.00000000000E+00  0.00000000000E+00  0.96157491559E+03  0.96157491560E+03  0.50400001928E-02 0. -1.
       -1   -1    0    0    0  501  0.00000000000E+00  0.00000000000E+00 -0.50725871734E+03  0.50725871736E+03  0.50400001928E-02 0.  1.
    10030    2    1    2    0    0  0.00000000000E+00  0.00000000000E+00  0.45431619825E+03  0.14688336330E+04  0.13968067273E+04 0.  0.
        1    1    3    3  502    0  0.29182018855E+03  0.28556024857E+02 -0.43939900210E+03  0.52824800243E+03  0.50400001928E-02 0.  1.
       -1    1    3    3    0  502 -0.29182018855E+03 -0.28556024857E+02  0.89371520035E+03  0.94058563053E+03  0.50400001928E-02 0. -1.
</event>
<event>
 5   0  0.2143942E-04  0.1400535E+04  0.7818609E-02  0.8953432E-01
       -1   -1    0    0    0  501  0.00000000000E+00  0.00000000000E+00  0.14498623439E+04  0.14498623439E+04  0.50400001928E-02 0. -1.
        1   -1    0    0  501    0  0.00000000000E+00  0.00000000000E+00 -0.33822124980E+03  0.33822124983E+03  0.50400001928E-02 0.  1.
    10030    2    1    2    0    0  0.00000000000E+00  0.00000000000E+00  0.11116410941E+04  0.17880835938E+04  0.14005345466E+04 0.  0.
        4    1    3    3  502    0 -0.17812160852E+03  0.78717105175E+02  0.14145943453E+04  0.14279364358E+04  0.12699999809E+01 0. -1.
       -4    1    3    3    0  502  0.17812160852E+03 -0.78717105175E+02 -0.30295325118E+03  0.36014715794E+03  0.12699999809E+01 0.  1.
</event>
<event>
 5   0  0.2217251E-04  0.1398529E+04  0.7818609E-02  0.8954884E-01
       -1   -1    0    0    0  501  0.00000000000E+00  0.00000000000E+00  0.11142150442E+04  0.11142150443E+04  0.50400001928E-02 0. -1.
        1   -1    0    0  501    0  0.00000000000E+00  0.00000000000E+00 -0.43884758705E+03  0.43884758708E+03  0.50400001928E-02 0.  1.
    10030    2    1    2    0    0  0.00000000000E+00  0.00000000000E+00  0.67536745719E+03  0.15530626313E+04  0.13985286320E+04 0.  0.
        5    1    3    3  502    0  0.42625843624E+03 -0.22663699190E+02 -0.27735408914E+03  0.50907492423E+03  0.46999998093E+01 0.  1.
       -5    1    3    3    0  502 -0.42625843624E+03  0.22663699190E+02  0.95272154633E+03  0.10439877071E+04  0.46999998093E+01 0. -1.
</event>
<event>
 5   0  0.4208622E-04  0.1393982E+04  0.7818609E-02  0.8958186E-01
       -2   -1    0    0    0  501  0.00000000000E+00  0.00000000000E+00  0.62556769130E+03  0.62556769130E+03  0.25500000920E-02 0.  1.
        2   -1    0    0  501    0  0.00000000000E+00  0.00000000000E+00 -0.77656858251E+03  0.77656858251E+03  0.25500000920E-02 0. -1.
    10030    2    1    2    0    0  0.00000000000E+00  0.00000000000E+00 -0.15100089121E+03  0.14021362738E+04  0.13939816574E+04 0.  0.
        4    1    3    3  502    0 -0.25227447071E+03 -0.44107506554E+03  0.40437004730E+03  0.64938922848E+03  0.12699999809E+01 0.  1.
       -4    1    3    3    0  502  0.25227447071E+03  0.44107506554E+03 -0.55537093852E+03  0.75274704533E+03  0.12699999809E+01 0. -1.
</event>
<event>
 5   0  0.2217251E-04  0.1399524E+04  0.7818609E-02  0.8954163E-01
        1   -1    0    0  501    0  0.00000000000E+00  0.00000000000E+00  0.16726219895E+04  0.16726219895E+04  0.50400001928E-02 0.  1.
       -1   -1    0    0    0  501  0.00000000000E+00  0.00000000000E+00 -0.29275398026E+03  0.29275398030E+03  0.50400001928E-02 0. -1.
    10030    2    1    2    0    0  0.00000000000E+00  0.00000000000E+00  0.13798680092E+04  0.19653759698E+04  0.13995238404E+04 0.  0.
        5    1    3    3  502    0  0.20549326465E+03  0.18209207848E+02 -0.24905537629E+03  0.32343427079E+03  0.46999998093E+01 0. -1.
       -5    1    3    3    0  502 -0.20549326465E+03 -0.18209207848E+02  0.16289233855E+04  0.16419416990E+04  0.46999998093E+01 0.  1.
</event>
<event>
 5   0  0.3917598E-04  0.1395067E+04  0.7818609E-02  0.8957397E-01
       -2   -1    0    0    0  501  0.00000000000E+00  0.00000000000E+00  0.36679851901E+03  0.36679851902E+03  0.25500000920E-02 0. -1.
        2   -1    0    0  501    0  0.00000000000E+00  0.00000000000E+00 -0.13264862163E+04  0.13264862163E+04  0.25500000920E-02 0.  1.
    10030    2    1    2    0    0  0.00000000000E+00  0.00000000000E+00 -0.95968769731E+03  0.16932847353E+04  0.13950672810E+04 0.  0.
        3    1    3    3  502    0 -0.57790618230E+03  0.34627677987E+03 -0.26045757844E+03  0.72230279259E+03  0.10100000352E+00 0. -1.
       -3    1    3    3    0  502  0.57790618230E+03 -0.34627677987E+03 -0.69923011887E+03  0.97098194275E+03  0.10100000352E+00 0.  1.
</event>
<event>
 5   0  0.2217251E-04  0.1399968E+04  0.7818609E-02  0.8953841E-01
        1   -1    0    0  501    0  0.00000000000E+00  0.00000000000E+00  0.10188361093E+04  0.10188361093E+04  0.50400001928E-02 0.  1.
       -1   -1    0    0    0  501  0.00000000000E+00  0.00000000000E+00 -0.48091921529E+03  0.48091921532E+03  0.50400001928E-02 0. -1.
    10030    2    1    2    0    0  0.00000000000E+00  0.00000000000E+00  0.53791689398E+03  0.14997553246E+04  0.13999683742E+04 0.  0.
        5    1    3    3  502    0 -0.59359457965E+03 -0.28829826827E+03  0.18899681413E+02  0.66018914292E+03  0.46999998093E+01 0.  1.
       -5    1    3    3    0  502  0.59359457965E+03  0.28829826827E+03  0.51901721257E+03  0.83956618168E+03  0.46999998093E+01 0. -1.
</event>
<event>
 5   0  0.2215876E-04  0.1416135E+04  0.7818609E-02  0.8942221E-01
        1   -1    0    0  501    0  0.00000000000E+00  0.00000000000E+00  0.26470593750E+04  0.26470593750E+04  0.50400001928E-02 0. -1.
       -1   -1    0    0    0  501  0.00000000000E+00  0.00000000000E+00 -0.18940248155E+03  0.18940248162E+03  0.50400001928E-02 0.  1.
    10030    2    1    2    0    0  0.00000000000E+00  0.00000000000E+00  0.24576568935E+04  0.28364618567E+04  0.14161350424E+04 0.  0.
        3    1    3    3  502    0  0.12911353753E+02  0.38219788480E+03  0.24224273867E+04  0.24524266310E+04  0.10100000352E+00 0. -1.
       -3    1    3    3    0  502 -0.12911353753E+02 -0.38219788480E+03  0.35229506742E+02  0.38403522566E+03  0.10100000352E+00 0.  1.
</event>
<event>
 5   0  0.2215876E-04  0.1393786E+04  0.7818609E-02  0.8958329E-01
       -1   -1    0    0    0  501  0.00000000000E+00  0.00000000000E+00  0.61801932796E+03  0.61801932798E+03  0.50400001928E-02 0.  1.
        1   -1    0    0  501    0  0.00000000000E+00  0.00000000000E+00 -0.78583311960E+03  0.78583311962E+03  0.50400001928E-02 0. -1.
    10030    2    1    2    0    0  0.00000000000E+00  0.00000000000E+00 -0.16781379164E+03  0.14038524476E+04  0.13937862914E+04 0.  0.
        3    1    3    3  502    0  0.36835634698E+03 -0.36982535899E+03  0.38116680289E+03  0.64633221824E+03  0.10100000352E+00 0.  1.
       -3    1    3    3    0  502 -0.36835634698E+03  0.36982535899E+03 -0.54898059453E+03  0.75752022935E+03  0.10100000352E+00 0. -1.
</event>
<event>
 5   0  0.2217251E-04  0.1396859E+04  0.7818609E-02  0.8956095E-01
        1   -1    0    0  501    0  0.00000000000E+00  0.00000000000E+00  0.19219760005E+04  0.19219760005E+04  0.50400001928E-02 0.  1.
       -1   -1    0    0    0  501  0.00000000000E+00  0.00000000000E+00 -0.25380319646E+03  0.25380319651E+03  0.50400001928E-02 0. -1.
    10030    2    1    2    0    0  0.00000000000E+00  0.00000000000E+00  0.16681728040E+04  0.21757791970E+04  0.13968588368E+04 0.  0.
        5    1    3    3  502    0 -0.19869167199E+03 -0.29402858853E+03  0.17710588310E+04  0.18062676059E+04  0.46999998093E+01 0.  1.
       -5    1    3    3    0  502  0.19869167199E+03  0.29402858853E+03 -0.10288602697E+03  0.36951159107E+03  0.46999998093E+01 0. -1.
</event>
<event>
 5   0  0.4208622E-04  0.1406669E+04  0.7818609E-02  0.8949006E-01
       -2   -1    0    0    0  501  0.00000000000E+00  0.00000000000E+00  0.66608506398E+03  0.66608506399E+03  0.25500000920E-02 0. -1.
        2   -1    0    0  501    0  0.00000000000E+00  0.00000000000E+00 -0.74266651156E+03  0.74266651156E+03  0.25500000920E-02 0.  1.
    10030    2    1    2    0    0  0.00000000000E+00  0.00000000000E+00 -0.76581447574E+02  0.14087515755E+04  0.14066685052E+04 0.  0.
        4    1    3    3  502    0 -0.27086439794E+03 -0.35633994490E+03  0.50503620328E+03  0.67483987576E+03  0.12699999809E+01 0. -1.
       -4    1    3    3    0  502  0.27086439794E+03  0.35633994490E+03 -0.58161765085E+03  0.73391169978E+03  0.12699999809E+01 0.  1.
</event>
<event>
 5   0  0.3917598E-04  0.1400096E+04  0.7818609E-02  0.8953749E-01
       -2   -1    0    0    0  501  0.00000000000E+00  0.00000000000E+00  0.30218148759E+03  0.30218148760E+03  0.25500000920E-02 0. -1.
        2   -1    0    0  501    0  0.00000000000E+00  0.00000000000E+00 -0.16217642575E+04  0.16217642575E+04  0.25500000920E-02 0.  1.
    10030    2    1    2    0    0  0.00000000000E+00  0.00000000000E+00 -0.13195827699E+04  0.19239457451E+04  0.14000959051E+04 0.  0.
        3    1    3    3  502    0 -0.63640689251E+03  0.25588142564E+02 -0.10590026236E+04  0.12357811508E+04  0.10100000352E+00 0.  1.
       -3    1    3    3    0  502  0.63640689251E+03 -0.25588142564E+02 -0.26058014630E+03  0.68816459421E+03  0.10100000352E+00 0. -1.
</event>
<event>
 5   0  0.3932568E-04  0.1403493E+04  0.7818609E-02  0.8951294E-01
       -2   -1    0    0    0  501  0.00000000000E+00  0.00000000000E+00  0.93803591220E+03  0.93803591220E+03  0.25500000920E-02 0.  1.
        2   -1    0    0  501    0  0.00000000000E+00  0.00000000000E+00 -0.52497781182E+03  0.52497781182E+03  0.25500000920E-02 0. -1.
    10030    2    1    2    0    0  0.00000000000E+00  0.00000000000E+00  0.41305810039E+03  0.14630137240E+04  0.14034928437E+04 0.  0.
        2    1    3    3  502    0 -0.13703809312E+03  0.35727108161E+03 -0.40665739873E+03  0.55838365366E+03  0.25500000920E-02 0. -1.
       -2    1    3    3    0  502  0.13703809312E+03 -0.35727108161E+03  0.81971549912E+03  0.90463007037E+03  0.25500000920E-02 0.  1.
</event>
<event>
 5   0  0.4310348E-04  0.1416530E+04  0.7818609E-02  0.8941939E-01
        2   -1    0    0  501    0  0.00000000000E+00  0.00000000000E+00  0.90721732797E+03  0.90721732798E+03  0.25500000920E-02 0.  1.
       -2   -1    0    0    0  501  0.00000000000E+00  0.00000000000E+00 -0.55294306214E+03  0.55294306215E+03  0.25500000920E-02 0. -1.
    10030    2    1    2    0    0  0.00000000000E+00  0.00000000000E+00  0.35427426583E+03  0.14601603901E+04  0.14165303066E+04 0.  0.
        1    1    3    3  502    0  0.32756485721E+03  0.31316024880E+03  0.73821042241E+03  0.86621169750E+03  0.50400001928E-02 0.  1.
       -1    1    3    3    0  502 -0.32756485721E+03 -0.31316024880E+03 -0.38393615659E+03  0.59394869262E+03  0.50400001928E-02 0. -1.
</event>
<event>
 5   0  0.3975164E-04  0.1399711E+04  0.7818609E-02  0.8954028E-01
        2   -1    0    0  501    0  0.00000000000E+00  0.00000000000E+00  0.63078810846E+03  0.63078810847E+03  0.25500000920E-02 0.  1.
       -2   -1    0    0    0  501  0.00000000000E+00  0.00000000000E+00 -0.77648492421E+03  0.77648492421E+03  0.25500000920E-02 0. -1.
    10030    2    1    2    0    0  0.00000000000E+00  0.00000000000E+00 -0.14569681575E+03  0.14072730327E+04  0.13997106224E+04 0.  0.
        5    1    3    3  502    0  0.19510031873E+02  0.29893783128E+03  0.56304873794E+03  0.63780125400E+03  0.46999998093E+01 0.  1.
       -5    1    3    3    0  502 -0.19510031873E+02 -0.29893783128E+03 -0.70874555369E+03  0.76947177868E+03  0.46999998093E+01 0. -1.
</event>
<event>
 5   0  0.3917598E-04  0.1388789E+04  0.7818609E-02  0.8961973E-01
        2   -1    0    0  501    0  0.00000000000E+00  0.00000000000E+00  0.19778368390E+04  0.19778368390E+04  0.25500000920E-02 0. -1.
       -2   -1    0    0    0  501  0.00000000000E+00  0.00000000000E+00 -0.24379365031E+03  0.24379365032E+03  0.25500000920E-02 0.  1.
    10030    2    1    2    0    0  0.00000000000E+00  0.00000000000E+00  0.17340431887E+04  0.22216304893E+04  0.13887894912E+04 0.  0.
        3    1    3    3  502    0 -0.30097935064E+03 -0.37887730291E+03  0.70306934718E+02  0.48895772358E+03  0.10100000352E+00 0.  1.
       -3    1    3    3    0  502  0.30097935064E+03  0.37887730291E+03  0.16637362540E+04  0.17326727658E+04  0.10100000352E+00 0. -1.
</event>
<event>
 5   0  0.2223112E-04  0.1399388E+04  0.7818609E-02  0.8954262E-01
        1   -1    0    0  501    0  0.00000000000E+00  0.00000000000E+00  0.26829348643E+03  0.26829348648E+03  0.50400001928E-02 0. -1.
       -1   -1    0    0    0  501  0.00000000000E+00  0.00000000000E+00 -0.18247614668E+04  0.18247614668E+04  0.50400001928E-02 0.  1.
    10030    2    1    2    0    0  0.00000000000E+00  0.00000000000E+00 -0.15564679803E+04  0.20930549533E+04  0.13993878889E+04 0.  0.
        1    1    3    3  502    0 -0.66461973610E+03  0.19383947094E+03 -0.92987162601E+03  0.11592904619E+04  0.50400001928E-02 0. -1.
       -1    1    3    3    0  502  0.66461973610E+03 -0.19383947094E+03 -0.62659635433E+03  0.93376449140E+03  0.50400001928E-02 0.  1.
</event>
<event>
 5   0  0.2215876E-04  0.1402248E+04  0.7818609E-02  0.8952193E-01
        1   -1    0    0  501    0  0.00000000000E+00  0.00000000000E+00  0.46249761194E+03  0.46249761196E+03  0.50400001928E-02 0. -1.
       -1   -1    0    0    0  501  0.00000000000E+00  0.00000000000E+00 -0.10628694429E+04  0.10628694429E+04  0.50400001928E-02 0.  1.
    10030    2    1    2    0    0  0.00000000000E+00  0.00000000000E+00 -0.60037183092E+03  0.15253670548E+04  0.14022475946E+04 0.  0.
        3    1    3    3  502    0  0.17472602633E+03 -0.51473416293E+02 -0.10366812626E+04  0.10525619922E+04  0.10100000352E+00 0.  1.
       -3    1    3    3    0  502 -0.17472602633E+03  0.51473416293E+02  0.43630943172E+03  0.47280506265E+03  0.10100000352E+00 0. -1.
</event>
<event>
 5   0  0.2217251E-04  0.1403750E+04  0.7818609E-02  0.8951109E-01
        1   -1    0    0  501    0  0.00000000000E+00  0.00000000000E+00  0.61249132982E+03  0.61249132984E+03  0.50400001928E-02 0. -1.
       -1   -1    0    0    0  501  0.00000000000E+00  0.00000000000E+00 -0.80430257677E+03  0.80430257679E+03  0.50400001928E-02 0.  1.
    10030    2    1    2    0    0  0.00000000000E+00  0.00000000000E+00 -0.19181124695E+03  0.14167939066E+04  0.14037497709E+04 0.  0.
        5    1    3    3  502    0  0.59137702156E+03 -0.37799239717E+03 -0.94785850839E+02  0.70824535400E+03  0.46999998093E+01 0. -1.
       -5    1    3    3    0  502 -0.59137702156E+03  0.37799239717E+03 -0.97025396109E+02  0.70854855263E+03  0.46999998093E+01 0.  1.
</event>
<event>
 5   0  0.2215876E-04  0.1402492E+04  0.7818609E-02  0.8952016E-01
        1   -1    0    0  501    0  0.00000000000E+00  0.00000000000E+00  0.15075408541E+04  0.15075408541E+04  0.50400001928E-02 0.  1.
       -1   -1    0    0    0  501  0.00000000000E+00  0.00000000000E+00 -0.32619097040E+03  0.32619097044E+03  0.50400001928E-02 0. -1.
    10030    2    1    2    0    0  0.00000000000E+00  0.00000000000E+00  0.11813498837E+04  0.18337318245E+04  0.14024923731E+04 0.  0.
        3    1    3    3  502    0 -0.67471311140E+03 -0.13163340656E+03  0.40959443505E+03  0.80020794038E+03  0.10100000352E+00 0. -1.
       -3    1    3    3    0  502  0.67471311140E+03  0.13163340656E+03  0.77175544864E+03  0.10335238842E+04  0.10100000352E+00 0.  1.
</event>
<event>
 5   0  0.3932568E-04  0.1386461E+04  0.7818609E-02  0.8963678E-01
       -2   -1    0    0    0  501  0.00000000000E+00  0.00000000000E+00  0.50557881954E+03  0.50557881955E+03  0.25500000920E-02 0. -1.
        2   -1    0    0  501    0  0.00000000000E+00  0.00000000000E+00 -0.95053108960E+03  0.95053108960E+03  0.25500000920E-02 0.  1.
    10030    2    1    2    0    0  0.00000000000E+00  0.00000000000E+00 -0.44495227006E+03  0.14561099092E+04  0.13864607982E+04 0.  0.
        2    1    3    3  502    0  0.33786104172E+03  0.28308784166E+03 -0.78440552350E+03  0.89976710037E+03  0.25500000920E-02 0.  1.
       -2    1    3    3    0  502 -0.33786104172E+03 -0.28308784166E+03  0.33945325344E+03  0.55634280878E+03  0.25500000920E-02 0. -1.
</event>
<event>
 5   0  0.3917598E-04  0.1399332E+04  0.7818609E-02  0.8954302E-01
        2   -1    0    0  501    0  0.00000000000E+00  0.00000000000E+00  0.13364091731E+04  0.13364091731E+04  0.25500000920E-02 0.  1.
       -2   -1    0    0    0  501  0.00000000000E+00  0.00000000000E+00 -0.36630430778E+03  0.36630430779E+03  0.25500000920E-02 0. -1.
    10030    2    1    2    0    0  0.00000000000E+00  0.00000000000E+00  0.97010486533E+03  0.17027134809E+04  0.13993318936E+04 0.  0.
        3    1    3    3  502    0  0.24441517863E+03  0.65351979069E+03  0.42176068902E+03  0.81529686947E+03  0.10100000352E+00 0.  1.
       -3    1    3    3    0  502 -0.24441517863E+03 -0.65351979069E+03  0.54834417631E+03  0.88741661144E+03  0.10100000352E+00 0. -1.
</event>
<event>
 5   0  0.2215876E-04  0.1411447E+04  0.7818609E-02  0.8945574E-01
       -1   -1    0    0    0  501  0.00000000000E+00  0.00000000000E+00  0.60414664044E+03  0.60414664046E+03  0.50400001928E-02 0.  1.
        1   -1    0    0  501    0  0.00000000000E+00  0.00000000000E+00 -0.82437827922E+03  0.82437827923E+03  0.50400001928E-02 0. -1.
    10030    2    1    2    0    0  0.00000000000E+00  0.00000000000E+00 -0.22023163878E+03  0.14285249197E+04  0.14114465882E+04 0.  0.
        3    1    3    3  502    0 -0.23111664935E+03 -0.66676636521E+03 -0.10274301539E+03  0.71312581555E+03  0.10100000352E+00 0. -1.
       -3    1    3    3    0  502  0.23111664935E+03  0.66676636521E+03 -0.11748862338E+03  0.71539910415E+03  0.10100000352E+00 0.  1.
</event>
<event>
 5   0  0.2155352E-04  0.1402477E+04  0.7818609E-02  0.8952028E-01
       -1   -1    0    0    0  501  0.00000000000E+00  0.00000000000E+00  0.10050929631E+04  0.10050929631E+04  0.50400001928E-02 0.  1.
        1   -1    0    0  501    0  0.00000000000E+00  0.00000000000E+00 -0.48924367864E+03  0.48924367867E+03  0.50400001928E-02 0. -1.
    10030    2    1    2    0    0  0.00000000000E+00  0.00000000000E+00  0.51584928446E+03  0.14943366418E+04  0.14024769213E+04 0.  0.
        2    1    3    3  502    0  0.34559056764E+03  0.80718199632E+02  0.90234154199E+03  0.96962287855E+03  0.25500000920E-02 0.  1.
       -2    1    3    3    0  502 -0.34559056764E+03 -0.80718199632E+02 -0.38649225753E+03  0.52471376324E+03  0.25500000920E-02 0. -1.
</event>
<event>
 5   0  0.3932568E-04  0.1406318E+04  0.7818609E-02  0.8949258E-01
       -2   -1    0    0    0  501  0.00000000000E+00  0.00000000000E+00  0.62001785368E+03  0.62001785369E+03  0.25500000920E-02 0.  1.
        2   -1    0    0  501    0  0.00000000000E+00  0.00000000000E+00 -0.79744929861E+03  0.79744929862E+03  0.25500000920E-02 0. -1.
    10030    2    1    2    0    0  0.00000000000E+00  0.00000000000E+00 -0.17743144493E+03  0.14174671523E+04  0.14063183175E+04 0.  0.
        2    1    3    3  502    0 -0.25517508971E+02  0.60362671285E+02  0.61693300120E+03  0.62040400008E+03  0.25500000920E-02 0.  1.
       -2    1    3    3    0  502  0.25517508971E+02 -0.60362671285E+02 -0.79436444613E+03  0.79706315222E+03  0.25500000920E-02 0. -1.
</event>
<event>
 5   0  0.2143942E-04  0.1401961E+04  0.7818609E-02  0.8952400E-01
       -1   -1    0    0    0  501  0.00000000000E+00  0.00000000000E+00  0.10598582507E+04  0.10598582507E+04  0.50400001928E-02 0. -1.
        1   -1    0    0  501    0  0.00000000000E+00  0.00000000000E+00 -0.46362220267E+03  0.46362220270E+03  0.50400001928E-02 0.  1.
    10030    2    1    2    0    0  0.00000000000E+00  0.00000000000E+00  0.59623604806E+03  0.15234804534E+04  0.14019612217E+04 0.  0.
        4    1    3    3  502    0 -0.67821292797E+03 -0.13196833800E+03  0.42662102479E+03  0.81203172942E+03  0.12699999809E+01 0. -1.
       -4    1    3    3    0  502  0.67821292797E+03  0.13196833800E+03  0.16961502327E+03  0.71144872402E+03  0.12699999809E+01 0.  1.
</event>
<event>
 5   0  0.4310348E-04  0.1395696E+04  0.7818609E-02  0.8956940E-01
        2   -1    0    0  501    0  0.00000000000E+00  0.00000000000E+00  0.13002620923E+04  0.13002620923E+04  0.25500000920E-02 0. -1.
       -2   -1    0    0    0  501  0.00000000000E+00  0.00000000000E+00 -0.37453362538E+03  0.37453362539E+03  0.25500000920E-02 0.  1.
    10030    2    1    2    0    0  0.00000000000E+00  0.00000000000E+00  0.92572846688E+03  0.16747957177E+04  0.13956960634E+04 0.  0.
        1    1    3    3  502    0 -0.23762620962E+03  0.14760583118E+03  0.12300377297E+04  0.12614461992E+04  0.50400001928E-02 0. -1.
       -1    1    3    3    0  502  0.23762620962E+03 -0.14760583118E+03 -0.30430926287E+03  0.41334951844E+03  0.50400001928E-02 0.  1.
</event>
<event>
 5   0  0.2143942E-04  0.1383793E+04  0.7818609E-02  0.8965634E-01
       -1   -1    0    0    0  501  0.00000000000E+00  0.00000000000E+00  0.76343922207E+03  0.76343922208E+03  0.50400001928E-02 0.  1.
        1   -1    0    0  501    0  0.00000000000E+00  0.00000000000E+00 -0.62705791656E+03  0.62705791658E+03  0.50400001928E-02 0. -1.
    10030    2    1    2    0    0  0.00000000000E+00  0.00000000000E+00  0.13638130551E+03  0.13904971387E+04  0.13837927707E+04 0.  0.
        4    1    3    3  502    0 -0.29382878668E+03  0.59584820595E+02 -0.55839545424E+03  0.63379239736E+03  0.12699999809E+01 0. -1.
       -4    1    3    3    0  502  0.29382878668E+03 -0.59584820595E+02  0.69477675975E+03  0.75670474131E+03  0.12699999809E+01 0.  1.
</event>
<event>
 5   0  0.2215876E-04  0.1401141E+04  0.7818609E-02  0.8952993E-01
       -1   -1    0    0    0  501  0.00000000000E+00  0.00000000000E+00  0.73839194953E+03  0.73839194955E+03  0.50400001928E-02 0.  1.
        1   -1    0    0  501    0  0.00000000000E+00  0.00000000000E+00 -0.66468647898E+03  0.66468647900E+03  0.50400001928E-02 0. -1.
    10030    2    1    2    0    0  0.00000000000E+00  0.00000000000E+00  0.73705470554E+02  0.14030784285E+04  0.14011411707E+04 0.  0.
        3    1    3    3  502    0  0.58259281859E+03 -0.38758228627E+03  0.26776432261E+01  0.69974395380E+03  0.10100000352E+00 0. -1.
       -3    1    3    3    0  502 -0.58259281859E+03  0.38758228627E+03  0.71027827328E+02  0.70333447475E+03  0.10100000352E+00 0.  1.
</event>
<event>
 5   0  0.2155352E-04  0.1360647E+04  0.7818609E-02  0.8982807E-01
        1   -1    0    0  501    0  0.00000000000E+00  0.00000000000E+00  0.15894702507E+04  0.15894702507E+04  0.50400001928E-02 0.  1.
       -1   -1    0    0    0  501  0.00000000000E+00  0.00000000000E+00 -0.29119144787E+03  0.29119144791E+03  0.50400001928E-02 0. -1.
    10030    2    1    2    0    0  0.00000000000E+00  0.00000000000E+00  0.12982788028E+04  0.18806616986E+04  0.13606471162E+04 0.  0.
        2    1    3    3  502    0 -0.64102789195E+03 -0.22546807235E+03  0.60355811791E+03  0.90886468279E+03  0.25500000920E-02 0.  1.
       -2    1    3    3    0  502  0.64102789195E+03  0.22546807235E+03  0.69472068489E+03  0.97179701581E+03  0.25500000920E-02 0. -1.
</event>
<event>
 5   0  0.4310348E-04  0.1399055E+04  0.7818609E-02  0.8954503E-01
       -2   -1    0    0    0  501  0.00000000000E+00  0.00000000000E+00  0.44631476301E+03  0.44631476301E+03  0.25500000920E-02 0. -1.
        2   -1    0    0  501    0  0.00000000000E+00  0.00000000000E+00 -0.10963987965E+04  0.10963987965E+04  0.25500000920E-02 0.  1.
    10030    2    1    2    0    0  0.00000000000E+00  0.00000000000E+00 -0.65008403346E+03  0.15427135595E+04  0.13990553513E+04 0.  0.
        1    1    3    3  502    0  0.16612623631E+03  0.60759534920E+03  0.10450649864E+02  0.62998353222E+03  0.50400001928E-02 0. -1.
       -1    1    3    3    0  502 -0.16612623631E+03 -0.60759534920E+03 -0.66053468333E+03  0.91273002726E+03  0.50400001928E-02 0.  1.
</event>
<event>
 5   0  0.3975164E-04  0.1396993E+04  0.7818609E-02  0.8955998E-01
        2   -1    0    0  501    0  0.00000000000E+00  0.00000000000E+00  0.12600558390E+04  0.12600558390E+04  0.25500000920E-02 0.  1.
       -2   -1    0    0    0  501  0.00000000000E+00  0.00000000000E+00 -0.38720315394E+03  0.38720315395E+03  0.25500000920E-02 0. -1.
    10030    2    1    2    0    0  0.00000000000E+00  0.00000000000E+00  0.87285268510E+03  0.16472589930E+04  0.13969933357E+04 0.  0.
        5    1    3    3  502    0  0.50836239012E+02 -0.66456864608E+03  0.68275129834E+03  0.95415262612E+03  0.46999998093E+01 0.  1.
       -5    1    3    3    0  502 -0.50836239012E+02  0.66456864608E+03  0.19010138676E+03  0.69310636687E+03  0.46999998093E+01 0. -1.
</event>
<event>
 5   0  0.2217251E-04  0.1390445E+04  0.7818609E-02  0.8960764E-01
       -1   -1    0    0    0  501  0.00000000000E+00  0.00000000000E+00  0.53373147943E+03  0.53373147946E+03  0.50400001928E-02 0.  1.
        1   -1    0    0  501    0  0.00000000000E+00  0.00000000000E+00 -0.90557607677E+03  0.90557607678E+03  0.50400001928E-02 0. -1.
    10030    2    1    2    0    0  0.00000000000E+00  0.00000000000E+00 -0.37184459733E+03  0.14393075562E+04  0.13904451938E+04 0.  0.
        5    1    3    3  502    0 -0.39861523208E+03 -0.55952170997E+03 -0.75623988389E+02  0.69115824873E+03  0.46999998093E+01 0.  1.
       -5    1    3    3    0  502  0.39861523208E+03  0.55952170997E+03 -0.29622060894E+03  0.74814930751E+03  0.46999998093E+01 0. -1.
</event>
<event>
 5   0  0.4208622E-04  0.1411264E+04  0.7818609E-02  0.8945705E-01
       -2   -1    0    0    0  501  0.00000000000E+00  0.00000000000E+00  0.11112148900E+04  0.11112148900E+04  0.25500000920E-02 0. -1.
        2   -1    0    0  501    0  0.00000000000E+00  0.00000000000E+00 -0.44808286807E+03  0.44808286808E+03  0.25500000920E-02 0.  1.
    10030    2    1    2    0    0  0.00000000000E+00  0.00000000000E+00  0.66313202194E+03  0.15592977581E+04  0.14112637669E+04 0.  0.
        4    1    3    3  502    0  0.25355951329E+03  0.91637134990E+02  0.10520597857E+04  0.10860576397E+04  0.12699999809E+01 0. -1.
       -4    1    3    3    0  502 -0.25355951329E+03 -0.91637134990E+02 -0.38892776375E+03  0.47324011834E+03  0.12699999809E+01 0.  1.
</event>
<event>
 5   0  0.2223112E-04  0.1398846E+04  0.7818609E-02  0.8954654E-01
        1   -1    0    0  501    0  0.00000000000E+00  0.00000000000E+00  0.11950311661E+04  0.11950311661E+04  0.50400001928E-02 0. -1.
       -1   -1    0    0    0  501  0.00000000000E+00  0.00000000000E+00 -0.40935564145E+03  0.40935564148E+03  0.50400001928E-02 0.  1.
    10030    2    1    2    0    0  0.00000000000E+00  0.00000000000E+00  0.78567552463E+03  0.16043868076E+04  0.13988463097E+04 0.  0.
        1    1    3    3  502    0  0.99259507060E+02  0.17621160929E+03 -0.37508668572E+03  0.42613730513E+03  0.50400001928E-02 0.  1.
       -1    1    3    3    0  502 -0.99259507060E+02 -0.17621160929E+03  0.11607622103E+04  0.11782495024E+04  0.50400001928E-02 0. -1.
</event>
<event>
 5   0  0.2217251E-04  0.1395627E+04  0.7818609E-02  0.8956990E-01
       -1   -1    0    0    0  501  0.00000000000E+00  0.00000000000E+00  0.49087687036E+03  0.49087687038E+03  0.50400001928E-02 0. -1.
        1   -1    0    0  501    0  0.00000000000E+00  0.00000000000E+00 -0.99198784686E+03  0.99198784687E+03  0.50400001928E-02 0.  1.
    10030    2    1    2    0    0  0.00000000000E+00  0.00000000000E+00 -0.50111097650E+03  0.14828647173E+04  0.13956272994E+04 0.  0.
        5    1    3    3  502    0  0.14276543399E+03 -0.33652056963E+03  0.38098332265E+03  0.52801367886E+03  0.46999998093E+01 0. -1.
       -5    1    3    3    0  502 -0.14276543399E+03  0.33652056963E+03 -0.88209429915E+03  0.95485103839E+03  0.46999998093E+01 0.  1.
</event>
<event>
 5   0  0.2155352E-04  0.1399875E+04  0.7818609E-02  0.8953909E-01
        1   -1    0    0  501    0  0.00000000000E+00  0.00000000000E+00  0.14662500768E+04  0.14662500768E+04  0.50400001928E-02 0.  1.
       -1   -1    0    0    0  501  0.00000000000E+00  0.00000000000E+00 -0.33412618980E+03  0.33412618984E+03  0.50400001928E-02 0. -1.
    10030    2    1    2    0    0  0.00000000000E+00  0.00000000000E+00  0.11321238870E+04  0.18003762666E+04  0.13998750680E+04 0.  0.
        2    1    3    3  502    0 -0.34587520873E+03 -0.31788000225E+03 -0.10126693092E+03  0.48055420834E+03  0.25500000920E-02 0. -1.
       -2    1    3    3    0  502  0.34587520873E+03  0.31788000225E+03  0.12333908179E+04  0.13198220583E+04  0.25500000920E-02 0.  1.
</event>
<event>
 5   0  0.2155352E-04  0.1399817E+04  0.7818609E-02  0.8953951E-01
       -1   -1    0    0    0  501  0.00000000000E+00  0.00000000000E+00  0.58507382246E+03  0.58507382248E+03  0.50400001928E-02 0.  1.
        1   -1    0    0  501    0  0.00000000000E+00  0.00000000000E+00 -0.83728202054E+03  0.83728202055E+03  0.50400001928E-02 0. -1.
    10030    2    1    2    0    0  0.00000000000E+00  0.00000000000E+00 -0.25220819807E+03  0.14223558430E+04  0.13998168341E+04 0.  0.
        2    1    3    3  502    0 -0.41857964625E+03 -0.26177440806E+03  0.37800615130E+03  0.62179048835E+03  0.25500000920E-02 0.  1.
       -2    1    3    3    0  502  0.41857964625E+03  0.26177440806E+03 -0.63021434937E+03  0.80056535469E+03  0.25500000920E-02 0. -1.
</event>
<event>
 5   0  0.2217251E-04  0.1399002E+04  0.7818609E-02  0.8954541E-01
        1   -1    0    0  501    0  0.00000000000E+00  0.00000000000E+00  0.13257069922E+04  0.13257069922E+04  0.50400001928E-02 0. -1.
       -1   -1    0    0    0  501  0.00000000000E+00  0.00000000000E+00 -0.36908721367E+03  0.36908721371E+03  0.50400001928E-02 0.  1.
    10030    2    1    2    0    0  0.00000000000E+00  0.00000000000E+00  0.95661977849E+03  0.16947942059E+04  0.13990017869E+04 0.  0.
        5    1    3    3  502    0  0.50221069225E+03 -0.23468369227E+03 -0.38486363232E+02  0.55569353513E+03  0.46999998093E+01 0.  1.
       -5    1    3    3    0  502 -0.50221069225E+03  0.23468369227E+03  0.99510614172E+03  0.11391006708E+04  0.46999998093E+01 0. -1.
</event>
<event>
 5   0  0.2217251E-04  0.1401791E+04  0.7818609E-02  0.8952523E-01
        1   -1    0    0  501    0  0.00000000000E+00  0.00000000000E+00  0.15429311040E+04  0.15429311040E+04  0.50400001928E-02 0.  1.
       -1   -1    0    0    0  501  0.00000000000E+00  0.00000000000E+00 -0.31839064063E+03  0.31839064067E+03  0.50400001928E-02 0. -1.
    10030    2    1    2    0    0  0.00000000000E+00  0.00000000000E+00  0.12245404634E+04  0.18613217447E+04  0.14017914577E+04 0.  0.
        5    1    3    3  502    0  0.51597901969E+03 -0.21420480777E+03  0.50312516878E+02  0.56095586973E+03  0.46999998093E+01 0. -1.
       -5    1    3    3    0  502 -0.51597901969E+03  0.21420480777E+03  0.11742279465E+04  0.13003658750E+04  0.46999998093E+01 0.  1.
</event>
<event>
 5   0  0.2155352E-04  0.1398374E+04  0.7818609E-02  0.8954996E-01
       -1   -1    0    0    0  501  0.00000000000E+00  0.00000000000E+00  0.36715678187E+03  0.36715678190E+03  0.50400001928E-02 0.  1.
        1   -1    0    0  501    0  0.00000000000E+00  0.00000000000E+00 -0.13314816340E+04  0.13314816340E+04  0.50400001928E-02 0. -1.
    10030    2    1    2    0    0  0.00000000000E+00  0.00000000000E+00 -0.96432485214E+03  0.16986384159E+04  0.13983740728E+04 0.  0.
        2    1    3    3  502    0 -0.38037649171E+03 -0.32379089720E+03 -0.10764290135E+04  0.11866870866E+04  0.25500000920E-02 0. -1.
       -2    1    3    3    0  502  0.38037649171E+03  0.32379089720E+03  0.11210416133E+03  0.51195132928E+03  0.25500000920E-02 0.  1.
</event>
<event>
 5   0  0.2155352E-04  0.1396642E+04  0.7818609E-02  0.8956253E-01
        1   -1    0    0  501    0  0.00000000000E+00  0.00000000000E+00  0.96832974198E+03  0.96832974199E+03  0.50400001928E-02 0. -1.
       -1   -1    0    0    0  501  0.00000000000E+00  0.00000000000E+00 -0.50360166133E+03  0.50360166135E+03  0.50400001928E-02 0.  1.
    10030    2    1    2    0    0  0.00000000000E+00  0.00000000000E+00  0.46472808065E+03  0.14719314033E+04  0.13966423548E+04 0.  0.
        2    1    3    3  502    0 -0.13857350916E+02  0.32753671453E+03 -0.41746194869E+03  0.53079827067E+03  0.25500000920E-02 0.  1.
       -2    1    3    3    0  502  0.13857350916E+02 -0.32753671453E+03  0.88219002934E+03  0.94113313267E+03  0.25500000920E-02 0. -1.
</event>
<event>
 5   0  0.2155352E-04  0.1404714E+04  0.7818609E-02  0.8950414E-01
       -1   -1    0    0    0  501  0.00000000000E+00  0.00000000000E+00  0.39296446742E+03  0.39296446745E+03  0.50400001928E-02 0. -1.
        1   -1    0    0  501    0  0.00000000000E+00  0.00000000000E+00 -0.12553429828E+04  0.12553429828E+04  0.50400001928E-02 0.  1.
    10030    2    1    2    0    0  0.00000000000E+00  0.00000000000E+00 -0.86237851539E+03  0.16483074503E+04  0.14047137597E+04 0.  0.
        2    1    3    3  502    0 -0.41865643820E+03  0.49439536296E+03 -0.74953909284E+03  0.99071127977E+03  0.25500000920E-02 0.  1.
       -2    1    3    3    0  502  0.41865643820E+03 -0.49439536296E+03 -0.11283942255E+03  0.65759617049E+03  0.25500000920E-02 0. -1.
</event>
<event>
 5   0  0.4310348E-04  0.1396014E+04  0.7818609E-02  0.8956709E-01
        2   -1    0    0  501    0  0.00000000000E+00  0.00000000000E+00  0.64011359713E+03  0.64011359714E+03  0.25500000920E-02 0. -1.
       -2   -1    0    0    0  501  0.00000000000E+00  0.00000000000E+00 -0.76113611777E+03  0.76113611778E+03  0.25500000920E-02 0.  1.
    10030    2    1    2    0    0  0.00000000000E+00  0.00000000000E+00 -0.12102252064E+03  0.14012497149E+04  0.13960137224E+04 0.  0.
        1    1    3    3  502    0  0.51454642001E+03  0.33987289647E+03  0.26773512206E+03  0.67227501791E+03  0.50400001928E-02 0. -1.
       -1    1    3    3    0  502 -0.51454642001E+03 -0.33987289647E+03 -0.38875764270E+03  0.72897469701E+03  0.50400001928E-02 0.  1.
</event>
<event>
 5   0  0.2217251E-04  0.1394953E+04  0.7818609E-02  0.8957480E-01
       -1   -1    0    0    0  501  0.00000000000E+00  0.00000000000E+00  0.51649148547E+03  0.51649148549E+03  0.50400001928E-02 0.  1.
        1   -1    0    0  501    0  0.00000000000E+00  0.00000000000E+00 -0.94188139059E+03  0.94188139060E+03  0.50400001928E-02 0. -1.
    10030    2    1    2    0    0  0.00000000000E+00  0.00000000000E+00 -0.42538990512E+03  0.14583728761E+04  0.13949533592E+04 0.  0.
        5    1    3    3  502    0 -0.18655738525E+03 -0.61064410508E+03  0.80709407379E+02  0.64360389953E+03  0.46999998093E+01 0.  1.
       -5    1    3    3    0  502  0.18655738525E+03  0.61064410508E+03 -0.50609931250E+03  0.81476897656E+03  0.46999998093E+01 0. -1.
</event>
<event>
 5   0  0.2155352E-04  0.1400524E+04  0.7818609E-02  0.8953440E-01
       -1   -1    0    0    0  501  0.00000000000E+00  0.00000000000E+00  0.13529834536E+04  0.13529834537E+04  0.50400001928E-02 0. -1.
        1   -1    0    0  501    0  0.00000000000E+00  0.00000000000E+00 -0.36243356064E+03  0.36243356068E+03  0.50400001928E-02 0.  1.
    10030    2    1    2    0    0  0.00000000000E+00  0.00000000000E+00  0.99054989300E+03  0.17154170143E+04  0.14005236315E+04 0.  0.
        2    1    3    3  502    0  0.36842143125E+03  0.22885283532E+03  0.11686680024E+04  0.12465523940E+04  0.25500000920E-02 0. -1.
       -2    1    3    3    0  502 -0.36842143125E+03 -0.22885283532E+03 -0.17811810941E+03  0.46886462028E+03  0.25500000920E-02 0.  1.
</event>
<event>
 5   0  0.2223112E-04  0.1403942E+04  0.7818609E-02  0.8950970E-01
        1   -1    0    0  501    0  0.00000000000E+00  0.00000000000E+00  0.12993045057E+04  0.12993045057E+04  0.50400001928E-02 0. -1.
       -1   -1    0    0    0  501  0.00000000000E+00  0.00000000000E+00 -0.37925175373E+03  0.37925175376E+03  0.50400001928E-02 0.  1.
    10030    2    1    2    0    0  0.00000000000E+00  0.00000000000E+00  0.92005275194E+03  0.16785562594E+04  0.14039423242E+04 0.  0.
        1    1    3    3  502    0  0.38454076412E+03 -0.68639153782E+02 -0.23730851179E+03  0.45705389452E+03  0.50400001928E-02 0.  1.
       -1    1    3    3    0  502 -0.38454076412E+03  0.68639153782E+02  0.11573612637E+04  0.12215023649E+04  0.50400001928E-02 0. -1.
</event>
<event>
 5   0  0.3975164E-04  0.1402084E+04  0.7818609E-02  0.8952311E-01
        2   -1    0    0  501    0  0.00000000000E+00  0.00000000000E+00  0.72429198560E+03  0.72429198561E+03  0.25500000920E-02 0. -1.
       -2   -1    0    0    0  501  0.00000000000E+00  0.00000000000E+00 -0.67853882475E+03  0.67853882475E+03  0.25500000920E-02 0.  1.
    10030    2    1    2    0    0  0.00000000000E+00  0.00000000000E+00  0.45753160855E+02  0.14028308104E+04  0.14020844949E+04 0.  0.
        5    1    3    3  502    0 -0.32841131399E+03 -0.15863163239E+03  0.62187726923E+03  0.72095174175E+03  0.46999998093E+01 0. -1.
       -5    1    3    3    0  502  0.32841131399E+03  0.15863163239E+03 -0.57612410838E+03  0.68187906860E+03  0.46999998093E+01 0.  1.
</event>
<event>
 5   0  0.3975164E-04  0.1391624E+04  0.7818609E-02  0.8959904E-01
        2   -1    0    0  501    0  0.00000000000E+00  0.00000000000E+00  0.35206095289E+03  0.35206095290E+03  0.25500000920E-02 0.  1.
       -2   -1    0    0    0  501  0.00000000000E+00  0.00000000000E+00 -0.13752001626E+04  0.13752001626E+04  0.25500000920E-02 0. -1.
    10030    2    1    2    0    0  0.00000000000E+00  0.00000000000E+00 -0.10231392097E+04  0.17272611155E+04  0.13916239142E+04 0.  0.
        5    1    3    3  502    0  0.14641712164E+03 -0.53289146211E+03 -0.10362849816E+04  0.11744445227E+04  0.46999998093E+01 0. -1.
       -5    1    3    3    0  502 -0.14641712164E+03  0.53289146211E+03  0.13145771909E+02  0.55281659274E+03  0.46999998093E+01 0.  1.
</event>
<event>
 5   0  0.4208622E-04  0.1398920E+04  0.7818609E-02  0.8954601E-01
        2   -1    0    0  501    0  0.00000000000E+00  0.00000000000E+00  0.45921802881E+03  0.45921802882E+03  0.25500000920E-02 0.  1.
       -2   -1    0    0    0  501  0.00000000000E+00  0.00000000000E+00 -0.10653856537E+04  0.10653856537E+04  0.25500000920E-02 0. -1.
    10030    2    1    2    0    0  0.00000000000E+00  0.00000000000E+00 -0.60616762490E+03  0.15246036825E+04  0.13989200118E+04 0.  0.
        4    1    3    3  502    0  0.15596524244E+01 -0.57920799817E+03 -0.73043354399E+03  0.93221194626E+03  0.12699999809E+01 0. -1.
       -4    1    3    3    0  502 -0.15596524244E+01  0.57920799817E+03  0.12426591909E+03  0.59239173627E+03  0.12699999809E+01 0.  1.
</event>
<event>
 5   0  0.2217251E-04  0.1387859E+04  0.7818609E-02  0.8962654E-01
       -1   -1    0    0    0  501  0.00000000000E+00  0.00000000000E+00  0.33302995455E+03  0.33302995459E+03  0.50400001928E-02 0.  1.
        1   -1    0    0  501    0  0.00000000000E+00  0.00000000000E+00 -0.14459301547E+04  0.14459301547E+04  0.50400001928E-02 0. -1.
    10030    2    1    2    0    0  0.00000000000E+00  0.00000000000E+00 -0.11129002002E+04  0.17789601093E+04  0.13878588599E+04 0.  0.
        5    1    3    3  502    0 -0.34657591939E+03 -0.35706698483E+03 -0.11763762798E+04  0.12772998635E+04  0.46999998093E+01 0. -1.
       -5    1    3    3    0  502  0.34657591939E+03  0.35706698483E+03  0.63476079642E+02  0.50166024583E+03  0.46999998093E+01 0.  1.
</event>
<event>
 5   0  0.3932568E-04  0.1400543E+04  0.7818609E-02  0.8953426E-01
       -2   -1    0    0    0  501  0.00000000000E+00  0.00000000000E+00  0.60088037853E+03  0.60088037853E+03  0.25500000920E-02 0.  1.
        2   -1    0    0  501    0  0.00000000000E+00  0.00000000000E+00 -0.81610237806E+03  0.81610237806E+03  0.25500000920E-02 0. -1.
    10030    2    1    2    0    0  0.00000000000E+00  0.00000000000E+00 -0.21522199953E+03  0.14169827566E+04  0.14005426175E+04 0.  0.
        2    1    3    3  502    0  0.33935858154E+03 -0.57924931533E+03 -0.30916262153E+03  0.73910455467E+03  0.25500000920E-02 0.  1.
       -2    1    3    3    0  502 -0.33935858154E+03  0.57924931533E+03  0.93940622000E+02  0.67787820192E+03  0.25500000920E-02 0. -1.
</event>
<event>
 5   0  0.2155352E-04  0.1393749E+04  0.7818609E-02  0.8958356E-01
        1   -1    0    0  501    0  0.00000000000E+00  0.00000000000E+00  0.15286755725E+04  0.15286755725E+04  0.50400001928E-02 0. -1.
       -1   -1    0    0    0  501  0.00000000000E+00  0.00000000000E+00 -0.31768300434E+03  0.31768300438E+03  0.50400001928E-02 0.  1.
    10030    2    1    2    0    0  0.00000000000E+00  0.00000000000E+00  0.12109925682E+04  0.18463585769E+04  0.13937492581E+04 0.  0.
        2    1    3    3  502    0  0.39223837894E+03  0.18707662854E+03 -0.11619729131E+03  0.44983377082E+03  0.25500000920E-02 0.  1.
       -2    1    3    3    0  502 -0.39223837894E+03 -0.18707662854E+03  0.13271898595E+04  0.13965248061E+04  0.25500000920E-02 0. -1.
</event>
<event>
 5   0  0.3932568E-04  0.1403142E+04  0.7818609E-02  0.8951547E-01
       -2   -1    0    0    0  501  0.00000000000E+00  0.00000000000E+00  0.48344038097E+03  0.48344038098E+03  0.25500000920E-02 0.  1.
        2   -1    0    0  501    0  0.00000000000E+00  0.00000000000E+00 -0.10181237296E+04  0.10181237296E+04  0.25500000920E-02 0. -1.
    10030    2    1    2    0    0  0.00000000000E+00  0.00000000000E+00 -0.53468334866E+03  0.15015641106E+04  0.14031423645E+04 0.  0.
        2    1    3    3  502    0  0.28718165968E+02 -0.68502000141E+03 -0.10816344572E+03  0.69410119319E+03  0.25500000920E-02 0.  1.
       -2    1    3    3    0  502 -0.28718165968E+02  0.68502000141E+03 -0.42651990294E+03  0.80746291742E+03  0.25500000920E-02 0. -1.
</event>
<event>
 5   0  0.2217251E-04  0.1389799E+04  0.7818609E-02  0.8961236E-01
        1   -1    0    0  501    0  0.00000000000E+00  0.00000000000E+00  0.37624866378E+03  0.37624866382E+03  0.50400001928E-02 0. -1.
       -1   -1    0    0    0  501  0.00000000000E+00  0.00000000000E+00 -0.12834199680E+04  0.12834199680E+04  0.50400001928E-02 0.  1.
    10030    2    1    2    0    0  0.00000000000E+00  0.00000000000E+00 -0.90717130421E+03  0.16596686318E+04  0.13897986157E+04 0.  0.
        5    1    3    3  502    0  0.57659457193E+03  0.12326159889E+03 -0.89269338397E+03  0.10698496576E+04  0.46999998093E+01 0.  1.
       -5    1    3    3    0  502 -0.57659457193E+03 -0.12326159889E+03 -0.14477920242E+02  0.58981897419E+03  0.46999998093E+01 0. -1.
</event>
<event>
 5   0  0.4208622E-04  0.1395930E+04  0.7818609E-02  0.8956770E-01
        2   -1    0    0  501    0  0.00000000000E+00  0.00000000000E+00  0.43503328877E+03  0.43503328878E+03  0.25500000920E-02 0. -1.
       -2   -1    0    0    0  501  0.00000000000E+00  0.00000000000E+00 -0.11198105729E+04  0.11198105730E+04  0.25500000920E-02 0.  1.
    10030    2    1    2    0    0  0.00000000000E+00  0.00000000000E+00 -0.68477728418E+03  0.15548438617E+04  0.13959296205E+04 0.  0.
        4    1    3    3  502    0 -0.54981494766E+03 -0.18751578604E+03 -0.77333811327E+03  0.96721874311E+03  0.12699999809E+01 0. -1.
       -4    1    3    3    0  502  0.54981494766E+03  0.18751578604E+03  0.88560829095E+02  0.58762511862E+03  0.12699999809E+01 0.  1.
</event>
<event>
 5   0  0.2223112E-04  0.1401383E+04  0.7818609E-02  0.8952818E-01
       -1   -1    0    0    0  501  0.00000000000E+00  0.00000000000E+00  0.56743801840E+03  0.56743801842E+03  0.50400001928E-02 0. -1.
        1   -1    0    0  501    0  0.00000000000E+00  0.00000000000E+00 -0.86523755838E+03  0.86523755839E+03  0.50400001928E-02 0.  1.
    10030    2    1    2    0    0  0.00000000000E+00  0.00000000000E+00 -0.29779953998E+03  0.14326755768E+04  0.14013831533E+04 0.  0.
        1    1    3    3  502    0  0.17071759469E+03 -0.56518138582E+03  0.23687791193E+03  0.63614907152E+03  0.50400001928E-02 0. -1.
       -1    1    3    3    0  502 -0.17071759469E+03  0.56518138582E+03 -0.53467745191E+03  0.79652650528E+03  0.50400001928E-02 0.  1.
</event>
<event>
 5   0  0.2217251E-04  0.1405595E+04  0.7818609E-02  0.8949778E-01
       -1   -1    0    0    0  501  0.00000000000E+00  0.00000000000E+00  0.96087006437E+03  0.96087006438E+03  0.50400001928E-02 0.  1.
        1   -1    0    0  501    0  0.00000000000E+00  0.00000000000E+00 -0.51403879099E+03  0.51403879101E+03  0.50400001928E-02 0. -1.
    10030    2    1    2    0    0  0.00000000000E+00  0.00000000000E+00  0.44683127338E+03  0.14749088554E+04  0.14055952280E+04 0.  0.
        5    1    3    3  502    0  0.32639140454E+03 -0.14280943831E+03  0.85907440656E+03  0.93003054285E+03  0.46999998093E+01 0.  1.
       -5    1    3    3    0  502 -0.32639140454E+03  0.14280943831E+03 -0.41224313318E+03  0.54487831254E+03  0.46999998093E+01 0. -1.
</event>
<event>
 5   0  0.2223112E-04  0.1398197E+04  0.7818609E-02  0.8955125E-01
        1   -1    0    0  501    0  0.00000000000E+00  0.00000000000E+00  0.11524526157E+04  0.11524526157E+04  0.50400001928E-02 0. -1.
       -1   -1    0    0    0  501  0.00000000000E+00  0.00000000000E+00 -0.42408547379E+03  0.42408547382E+03  0.50400001928E-02 0.  1.
    10030    2    1    2    0    0  0.00000000000E+00  0.00000000000E+00  0.72836714186E+03  0.15765380895E+04  0.13981965721E+04 0.  0.
        1    1    3    3  502    0 -0.35844057658E+03  0.31779570256E+03  0.93831046941E+03  0.10535180552E+04  0.50400001928E-02 0. -1.
       -1    1    3    3    0  502  0.35844057658E+03 -0.31779570256E+03 -0.20994332755E+03  0.52302003434E+03  0.50400001928E-02 0.  1.
</event>
<event>
 5   0  0.3932568E-04  0.1466291E+04  0.7818609E-02  0.8907183E-01
       -2   -1    0    0    0  501  0.00000000000E+00  0.00000000000E+00  0.38377612371E+03  0.38377612372E+03  0.25500000920E-02 0. -1.
        2   -1    0    0  501    0  0.00000000000E+00  0.00000000000E+00 -0.14005630944E+04  0.14005630944E+04  0.25500000920E-02 0.  1.
    10030    2    1    2    0    0  0.00000000000E+00  0.00000000000E+00 -0.10167869707E+04  0.17843392181E+04  0.14662914790E+04 0.  0.
        2    1    3    3  502    0 -0.94937933808E+02 -0.31816760221E+03 -0.13038247173E+04  0.13454377458E+04  0.25500000920E-02 0.  1.
       -2    1    3    3    0  502  0.94937933808E+02  0.31816760221E+03  0.28703774664E+03  0.43890147229E+03  0.25500000920E-02 0. -1.
</event>
<event>
 5   0  0.3917598E-04  0.1400153E+04  0.7818609E-02  0.8953708E-01
       -2   -1    0    0    0  501  0.00000000000E+00  0.00000000000E+00  0.42867494412E+03  0.42867494413E+03  0.25500000920E-02 0.  1.
        2   -1    0    0  501    0  0.00000000000E+00  0.00000000000E+00 -0.11433077823E+04  0.11433077823E+04  0.25500000920E-02 0. -1.
    10030    2    1    2    0    0  0.00000000000E+00  0.00000000000E+00 -0.71463283818E+03  0.15719827264E+04  0.14001534197E+04 0.  0.
        3    1    3    3  502    0 -0.34591764176E+03  0.20953156636E+02 -0.10402500303E+04  0.10964571060E+04  0.10100000352E+00 0. -1.
       -3    1    3    3    0  502  0.34591764176E+03 -0.20953156636E+02  0.32561719211E+03  0.47552562040E+03  0.10100000352E+00 0.  1.
</event>
<event>
 5   0  0.2217251E-04  0.1399438E+04  0.7818609E-02  0.8954225E-01
       -1   -1    0    0    0  501  0.00000000000E+00  0.00000000000E+00  0.65866719548E+03  0.65866719550E+03  0.50400001928E-02 0.  1.
        1   -1    0    0  501    0  0.00000000000E+00  0.00000000000E+00 -0.74332984585E+03  0.74332984587E+03  0.50400001928E-02 0. -1.
    10030    2    1    2    0    0  0.00000000000E+00  0.00000000000E+00 -0.84662650369E+02  0.14019970414E+04  0.13994384372E+04 0.  0.
        5    1    3    3  502    0 -0.52053742661E+03 -0.17595306618E+03 -0.47632792813E+03  0.72720635249E+03  0.46999998093E+01 0. -1.
       -5    1    3    3    0  502  0.52053742661E+03  0.17595306618E+03  0.39166527776E+03  0.67479068888E+03  0.46999998093E+01 0.  1.
</event>
<event>
 5   0  0.1497625E-04  0.1397953E+04  0.7818609E-02  0.8955302E-01
       -4   -1    0    0    0  501  0.00000000000E+00  0.00000000000E+00  0.90204243470E+03  0.90204332873E+03  0.12699999809E+01 0. -1.
        4   -1    0    0  501    0  0.00000000000E+00  0.00000000000E+00 -0.54162212709E+03  0.54162361604E+03  0.12699999809E+01 0.  1.
    10030    2    1    2    0    0  0.00000000000E+00  0.00000000000E+00  0.36042030761E+03  0.14436669448E+04  0.13979525919E+04 0.  0.
        2    1    3    3  502    0  0.58775168297E+03  0.29880067582E+03  0.41981897567E+03  0.78165328442E+03  0.25500000920E-02 0. -1.
       -2    1    3    3    0  502 -0.58775168297E+03 -0.29880067582E+03 -0.59398668058E+02  0.66201366034E+03  0.25500000920E-02 0.  1.
</event>
<event>
 5   0  0.3975164E-04  0.1382414E+04  0.7818609E-02  0.8966648E-01
        2   -1    0    0  501    0  0.00000000000E+00  0.00000000000E+00  0.57562252964E+03  0.57562252965E+03  0.25500000920E-02 0. -1.
       -2   -1    0    0    0  501  0.00000000000E+00  0.00000000000E+00 -0.83000061123E+03  0.83000061123E+03  0.25500000920E-02 0.  1.
    10030    2    1    2    0    0  0.00000000000E+00  0.00000000000E+00 -0.25437808159E+03  0.14056231409E+04  0.13824139054E+04 0.  0.
        5    1    3    3  502    0  0.31436514802E+03 -0.54415262195E+03 -0.41980075171E+03  0.75576602424E+03  0.46999998093E+01 0. -1.
       -5    1    3    3    0  502 -0.31436514802E+03  0.54415262195E+03  0.16542267012E+03  0.64985711664E+03  0.46999998093E+01 0.  1.
</event>
<event>
 5   0  0.3975164E-04  0.1401042E+04  0.7818609E-02  0.8953065E-01
        2   -1    0    0  501    0  0.00000000000E+00  0.00000000000E+00  0.16600768085E+04  0.16600768085E+04  0.25500000920E-02 0. -1.
       -2   -1    0    0    0  501  0.00000000000E+00  0.00000000000E+00 -0.29560645063E+03  0.29560645064E+03  0.25500000920E-02 0.  1.
    10030    2    1    2    0    0  0.00000000000E+00  0.00000000000E+00  0.13644703578E+04  0.19556832591E+04  0.14010416313E+04 0.  0.
        5    1    3    3  502    0  0.20895350384E+02  0.53308476940E+03  0.48544461785E+02  0.53571880852E+03  0.46999998093E+01 0.  1.
       -5    1    3    3    0  502 -0.20895350384E+02 -0.53308476940E+03  0.13159258961E+04  0.14199644506E+04  0.46999998093E+01 0. -1.
</event>
<event>
 5   0  0.2223112E-04  0.1401805E+04  0.7818609E-02  0.8952513E-01
       -1   -1    0    0    0  501  0.00000000000E+00  0.00000000000E+00  0.84885357769E+03  0.84885357771E+03  0.50400001928E-02 0. -1.
        1   -1    0    0  501    0  0.00000000000E+00  0.00000000000E+00 -0.57873818768E+03  0.57873818771E+03  0.50400001928E-02 0.  1.
    10030    2    1    2    0    0  0.00000000000E+00  0.00000000000E+00  0.27011539001E+03  0.14275917654E+04  0.14018045244E+04 0.  0.
        1    1    3    3  502    0 -0.82062383229E+02  0.66917974682E+03 -0.60113838867E+02  0.67686737397E+03  0.50400001928E-02 0.  1.
       -1    1    3    3    0  502  0.82062383229E+02 -0.66917974682E+03  0.33022922888E+03  0.75072439145E+03  0.50400001928E-02 0. -1.
</event>
<event>
 5   0  0.4208622E-04  0.1396912E+04  0.7818609E-02  0.8956057E-01
       -2   -1    0    0    0  501  0.00000000000E+00  0.00000000000E+00  0.10538227231E+04  0.10538227231E+04  0.25500000920E-02 0.  1.
        2   -1    0    0  501    0  0.00000000000E+00  0.00000000000E+00 -0.46292511139E+03  0.46292511139E+03  0.25500000920E-02 0. -1.
    10030    2    1    2    0    0  0.00000000000E+00  0.00000000000E+00  0.59089761170E+03  0.15167478345E+04  0.13969123115E+04 0.  0.
        4    1    3    3  502    0  0.49016184726E+03 -0.36146695423E+03  0.66672156572E+03  0.90301509101E+03  0.12699999809E+01 0.  1.
       -4    1    3    3    0  502 -0.49016184726E+03  0.36146695423E+03 -0.75823954021E+02  0.61373274347E+03  0.12699999809E+01 0. -1.
</event>
<event>
 5   0  0.2223112E-04  0.1421306E+04  0.7818609E-02  0.8938539E-01
       -1   -1    0    0    0  501  0.00000000000E+00  0.00000000000E+00  0.77684425958E+03  0.77684425960E+03  0.50400001928E-02 0.  1.
        1   -1    0    0  501    0  0.00000000000E+00  0.00000000000E+00 -0.65010176399E+03  0.65010176401E+03  0.50400001928E-02 0. -1.
    10030    2    1    2    0    0  0.00000000000E+00  0.00000000000E+00  0.12674249559E+03  0.14269460236E+04  0.14213061929E+04 0.  0.
        1    1    3    3  502    0 -0.90329124968E+02  0.33160401141E+03 -0.56111565203E+03  0.65800558218E+03  0.50400001928E-02 0. -1.
       -1    1    3    3    0  502  0.90329124968E+02 -0.33160401141E+03  0.68785814762E+03  0.76894044143E+03  0.50400001928E-02 0.  1.
</event>
<event>
 5   0  0.2215876E-04  0.1374885E+04  0.7818609E-02  0.8972201E-01
       -1   -1    0    0    0  501  0.00000000000E+00  0.00000000000E+00  0.37461515283E+03  0.37461515286E+03  0.50400001928E-02 0. -1.
        1   -1    0    0  501    0  0.00000000000E+00  0.00000000000E+00 -0.12615010412E+04  0.12615010412E+04  0.50400001928E-02 0.  1.
    10030    2    1    2    0    0  0.00000000000E+00  0.00000000000E+00 -0.88688588836E+03  0.16361161941E+04  0.13748853121E+04 0.  0.
        3    1    3    3  502    0  0.45589446869E+03  0.46709433733E+03 -0.18666570282E+03  0.67886742546E+03  0.10100000352E+00 0.  1.
       -3    1    3    3    0  502 -0.45589446869E+03 -0.46709433733E+03 -0.70022018554E+03  0.95724876860E+03  0.10100000352E+00 0. -1.
</event>
<event>
 5   0  0.2155352E-04  0.1403265E+04  0.7818609E-02  0.8951458E-01
        1   -1    0    0  501    0  0.00000000000E+00  0.00000000000E+00  0.34057752129E+03  0.34057752133E+03  0.50400001928E-02 0. -1.
       -1   -1    0    0    0  501  0.00000000000E+00  0.00000000000E+00 -0.14454516408E+04  0.14454516408E+04  0.50400001928E-02 0.  1.
    10030    2    1    2    0    0  0.00000000000E+00  0.00000000000E+00 -0.11048741195E+04  0.17860291622E+04  0.14032652451E+04 0.  0.
        2    1    3    3  502    0 -0.23108960962E+03 -0.46749268898E+03 -0.11498739212E+04  0.12626012263E+04  0.25500000920E-02 0.  1.
       -2    1    3    3    0  502  0.23108960962E+03  0.46749268898E+03  0.44999801662E+02  0.52342793590E+03  0.25500000920E-02 0. -1.
</event>
<event>
 5   0  0.4208622E-04  0.1402900E+04  0.7818609E-02  0.8951722E-01
       -2   -1    0    0    0  501  0.00000000000E+00  0.00000000000E+00  0.57911971496E+03  0.57911971497E+03  0.25500000920E-02 0.  1.
        2   -1    0    0  501    0  0.00000000000E+00  0.00000000000E+00 -0.84962059480E+03  0.84962059480E+03  0.25500000920E-02 0. -1.
    10030    2    1    2    0    0  0.00000000000E+00  0.00000000000E+00 -0.27050087983E+03  0.14287403098E+04  0.14028999062E+04 0.  0.
        4    1    3    3  502    0 -0.29486002326E+03  0.28027095553E+03 -0.71720927639E+03  0.82455139371E+03  0.12699999809E+01 0. -1.
       -4    1    3    3    0  502  0.29486002326E+03 -0.28027095553E+03  0.44670839656E+03  0.60418891606E+03  0.12699999809E+01 0.  1.
</event>
<event>
 5   0  0.2143942E-04  0.1400501E+04  0.7818609E-02  0.8953456E-01
        1   -1    0    0  501    0  0.00000000000E+00  0.00000000000E+00  0.13961011015E+04  0.13961011015E+04  0.50400001928E-02 0. -1.
       -1   -1    0    0    0  501  0.00000000000E+00  0.00000000000E+00 -0.35122882934E+03  0.35122882938E+03  0.50400001928E-02 0.  1.
    10030    2    1    2    0    0  0.00000000000E+00  0.00000000000E+00  0.10448722722E+04  0.17473299309E+04  0.14005012754E+04 0.  0.
        4    1    3    3  502    0  0.38051565341E+03 -0.35546749602E+03  0.11065691087E+04  0.12229661109E+04  0.12699999809E+01 0. -1.
       -4    1    3    3    0  502 -0.38051565341E+03  0.35546749602E+03 -0.61696836499E+02  0.52436382002E+03  0.12699999809E+01 0.  1.
</event>
<event>
 5   0  0.2215876E-04  0.1400218E+04  0.7818609E-02  0.8953661E-01
        1   -1    0    0  501    0  0.00000000000E+00  0.00000000000E+00  0.50792888067E+03  0.50792888069E+03  0.50400001928E-02 0.  1.
       -1   -1    0    0    0  501  0.00000000000E+00  0.00000000000E+00 -0.96500287286E+03  0.96500287287E+03  0.50400001928E-02 0. -1.
    10030    2    1    2    0    0  0.00000000000E+00  0.00000000000E+00 -0.45707399219E+03  0.14729317536E+04  0.14002183102E+04 0.  0.
        3    1    3    3  502    0 -0.39064674521E+02  0.52414463656E+03  0.25797261253E+03  0.58549425945E+03  0.10100000352E+00 0.  1.
       -3    1    3    3    0  502  0.39064674521E+02 -0.52414463656E+03 -0.71504660472E+03  0.88743749411E+03  0.10100000352E+00 0. -1.
</event>
<event>
 5   0  0.4310348E-04  0.1398211E+04  0.7818609E-02  0.8955115E-01
       -2   -1    0    0    0  501  0.00000000000E+00  0.00000000000E+00  0.41539357346E+03  0.41539357347E+03  0.25500000920E-02 0. -1.
        2   -1    0    0  501    0  0.00000000000E+00  0.00000000000E+00 -0.11765910690E+04  0.11765910690E+04  0.25500000920E-02 0.  1.
    10030    2    1    2    0    0  0.00000000000E+00  0.00000000000E+00 -0.76119749553E+03  0.15919846425E+04  0.13982108119E+04 0.  0.
        1    1    3    3  502    0  0.28422415796E+03  0.53726293997E+03 -0.77388708267E+03  0.98404067771E+03  0.50400001928E-02 0.  1.
       -1    1    3    3    0  502 -0.28422415796E+03 -0.53726293997E+03  0.12689587138E+02  0.60794396475E+03  0.50400001928E-02 0. -1.
</event>
<event>
 5   0  0.3975164E-04  0.1388440E+04  0.7818609E-02  0.8962229E-01
        2   -1    0    0  501    0  0.00000000000E+00  0.00000000000E+00  0.12346013252E+04  0.12346013252E+04  0.25500000920E-02 0.  1.
       -2   -1    0    0    0  501  0.00000000000E+00  0.00000000000E+00 -0.39036177938E+03  0.39036177939E+03  0.25500000920E-02 0. -1.
    10030    2    1    2    0    0  0.00000000000E+00  0.00000000000E+00  0.84423954580E+03  0.16249631046E+04  0.13884396568E+04 0.  0.
        5    1    3    3  502    0  0.31803970932E+03  0.52037705239E+03  0.33997550988E+02  0.61083504879E+03  0.46999998093E+01 0. -1.
       -5    1    3    3    0  502 -0.31803970932E+03 -0.52037705239E+03  0.81024199481E+03  0.10141280558E+04  0.46999998093E+01 0.  1.
</event>
<event>
 5   0  0.2143942E-04  0.1406453E+04  0.7818609E-02  0.8949161E-01
       -1   -1    0    0    0  501  0.00000000000E+00  0.00000000000E+00  0.42788937852E+03  0.42788937855E+03  0.50400001928E-02 0. -1.
        1   -1    0    0  501    0  0.00000000000E+00  0.00000000000E+00 -0.11557360362E+04  0.11557360362E+04  0.50400001928E-02 0.  1.
    10030    2    1    2    0    0  0.00000000000E+00  0.00000000000E+00 -0.72784665771E+03  0.15836254148E+04  0.14064525222E+04 0.  0.
        4    1    3    3  502    0  0.38373166490E+03  0.38662006834E+03 -0.86469652139E+03  0.10219719932E+04  0.12699999809E+01 0.  1.
       -4    1    3    3    0  502 -0.38373166490E+03 -0.38662006834E+03  0.13684986368E+03  0.56165342158E+03  0.12699999809E+01 0. -1.
</event>
<event>
 5   0  0.4208622E-04  0.1398462E+04  0.7818609E-02  0.8954932E-01
        2   -1    0    0  501    0  0.00000000000E+00  0.00000000000E+00  0.15496799200E+04  0.15496799200E+04  0.25500000920E-02 0. -1.
       -2   -1    0    0    0  501  0.00000000000E+00  0.00000000000E+00 -0.31550006435E+03  0.31550006436E+03  0.25500000920E-02 0.  1.
    10030    2    1    2    0    0  0.00000000000E+00  0.00000000000E+00  0.12341798556E+04  0.18651799844E+04  0.13984621761E+04 0.  0.
        4    1    3    3  502    0 -0.25267858882E+03 -0.33702095977E+03  0.13614689084E+04  0.14251416765E+04  0.12699999809E+01 0. -1.
       -4    1    3    3    0  502  0.25267858882E+03  0.33702095977E+03 -0.12728905274E+03  0.44003830791E+03  0.12699999809E+01 0.  1.
</event>
<event>
 5   0  0.3932568E-04  0.1404602E+04  0.7818609E-02  0.8950494E-01
        2   -1    0    0  501    0  0.00000000000E+00  0.00000000000E+00  0.10506102158E+04  0.10506102158E+04  0.25500000920E-02 0.  1.
       -2   -1    0    0    0  501  0.00000000000E+00  0.00000000000E+00 -0.46946688998E+03  0.46946688999E+03  0.25500000920E-02 0. -1.
    10030    2    1    2    0    0  0.00000000000E+00  0.00000000000E+00  0.58114332584E+03  0.15200771058E+04  0.14046020228E+04 0.  0.
        2    1    3    3  502    0 -0.33194555796E+03 -0.44026894057E+03  0.76130539944E+03  0.94000558759E+03  0.25500000920E-02 0.  1.
       -2    1    3    3    0  502  0.33194555796E+03  0.44026894057E+03 -0.18016207360E+03  0.58007151822E+03  0.25500000920E-02 0. -1.
</event>
<event>
 5   0  0.2223112E-04  0.1399369E+04  0.7818609E-02  0.8954276E-01
       -1   -1    0    0    0  501  0.00000000000E+00  0.00000000000E+00  0.42348606120E+03  0.42348606123E+03  0.50400001928E-02 0.  1.
        1   -1    0    0  501    0  0.00000000000E+00  0.00000000000E+00 -0.11560196403E+04  0.11560196403E+04  0.50400001928E-02 0. -1.
    10030    2    1    2    0    0  0.00000000000E+00  0.00000000000E+00 -0.73253357907E+03  0.15795057015E+04  0.13993687208E+04 0.  0.
        1    1    3    3  502    0  0.46600434388E+03  0.51680911266E+03 -0.28404385278E+03  0.75161999559E+03  0.50400001928E-02 0.  1.
       -1    1    3    3    0  502 -0.46600434388E+03 -0.51680911266E+03 -0.44848972629E+03  0.82788570592E+03  0.50400001928E-02 0. -1.
</event>
<event>
 5   0  0.3932568E-04  0.1400966E+04  0.7818609E-02  0.8953120E-01
        2   -1    0    0  501    0  0.00000000000E+00  0.00000000000E+00  0.10116530376E+04  0.10116530376E+04  0.25500000920E-02 0.  1.
       -2   -1    0    0    0  501  0.00000000000E+00  0.00000000000E+00 -0.48502435428E+03  0.48502435429E+03  0.25500000920E-02 0. -1.
    10030    2    1    2    0    0  0.00000000000E+00  0.00000000000E+00  0.52662868332E+03  0.14966773919E+04  0.14009658973E+04 0.  0.
        2    1    3    3  502    0  0.30441546921E+03 -0.45239560959E+02 -0.40892948403E+03  0.51179949070E+03  0.25500000920E-02 0. -1.
       -2    1    3    3    0  502 -0.30441546921E+03  0.45239560959E+02  0.93555816735E+03  0.98487790120E+03  0.25500000920E-02 0.  1.
</event>
<event>
 5   0  0.2155352E-04  0.1396994E+04  0.7818609E-02  0.8955997E-01
       -1   -1    0    0    0  501  0.00000000000E+00  0.00000000000E+00  0.32601837209E+03  0.32601837213E+03  0.50400001928E-02 0. -1.
        1   -1    0    0  501    0  0.00000000000E+00  0.00000000000E+00 -0.14965351623E+04  0.14965351623E+04  0.50400001928E-02 0.  1.
    10030    2    1    2    0    0  0.00000000000E+00  0.00000000000E+00 -0.11705167902E+04  0.18225535345E+04  0.13969938546E+04 0.  0.
        2    1    3    3  502    0  0.40777474365E+03 -0.23853356911E+03  0.85982991695E+02  0.48017869592E+03  0.25500000920E-02 0. -1.
       -2    1    3    3    0  502 -0.40777474365E+03  0.23853356911E+03 -0.12564997819E+04  0.13423748386E+04  0.25500000920E-02 0.  1.
</event>
<event>
 5   0  0.2143942E-04  0.1400220E+04  0.7818609E-02  0.8953660E-01
       -1   -1    0    0    0  501  0.00000000000E+00  0.00000000000E+00  0.27405809652E+03  0.27405809656E+03  0.50400001928E-02 0.  1.
        1   -1    0    0  501    0  0.00000000000E+00  0.00000000000E+00 -0.17885032867E+04  0.17885032867E+04  0.50400001928E-02 0. -1.
    10030    2    1    2    0    0  0.00000000000E+00  0.00000000000E+00 -0.15144451902E+04  0.20625613833E+04  0.14002197062E+04 0.  0.
        4    1    3    3  502    0 -0.89982290057E+02  0.32773172162E+03 -0.16588394050E+04  0.16932969847E+04  0.12699999809E+01 0. -1.
       -4    1    3    3    0  502  0.89982290057E+02 -0.32773172162E+03  0.14439421483E+03  0.36926439857E+03  0.12699999809E+01 0.  1.
</event>
<event>
 5   0  0.4310348E-04  0.1394640E+04  0.7818609E-02  0.8957707E-01
        2   -1    0    0  501    0  0.00000000000E+00  0.00000000000E+00  0.59191080634E+03  0.59191080634E+03  0.25500000920E-02 0. -1.
       -2   -1    0    0    0  501  0.00000000000E+00  0.00000000000E+00 -0.82150122678E+03  0.82150122679E+03  0.25500000920E-02 0.  1.
    10030    2    1    2    0    0  0.00000000000E+00  0.00000000000E+00 -0.22959042045E+03  0.14134120331E+04  0.13946403889E+04 0.  0.
        1    1    3    3  502    0  0.97129215938E+02 -0.44717755325E+03  0.41845573934E+03  0.62008632829E+03  0.50400001928E-02 0. -1.
       -1    1    3    3    0  502 -0.97129215938E+02  0.44717755325E+03 -0.64804615979E+03  0.79332570484E+03  0.50400001928E-02 0.  1.
</event>
<event>
 5   0  0.3932568E-04  0.1443491E+04  0.7818609E-02  0.8922925E-01
       -2   -1    0    0    0  501  0.00000000000E+00  0.00000000000E+00  0.54062900199E+03  0.54062900200E+03  0.25500000920E-02 0. -1.
        2   -1    0    0  501    0  0.00000000000E+00  0.00000000000E+00 -0.96353838787E+03  0.96353838787E+03  0.25500000920E-02 0.  1.
    10030    2    1    2    0    0  0.00000000000E+00  0.00000000000E+00 -0.42290938587E+03  0.15041673899E+04  0.14434913190E+04 0.  0.
        2    1    3    3  502    0 -0.54151764969E+03  0.25870893016E+03  0.20632843129E+03  0.63462043540E+03  0.25500000920E-02 0. -1.
       -2    1    3    3    0  502  0.54151764969E+03 -0.25870893016E+03 -0.62923781716E+03  0.86954695447E+03  0.25500000920E-02 0.  1.
</event>
<event>
 5   0  0.2223112E-04  0.1398632E+04  0.7818609E-02  0.8954810E-01
        1   -1    0    0  501    0  0.00000000000E+00  0.00000000000E+00  0.13119801720E+04  0.13119801720E+04  0.50400001928E-02 0. -1.
       -1   -1    0    0    0  501  0.00000000000E+00  0.00000000000E+00 -0.37275145811E+03  0.37275145815E+03  0.50400001928E-02 0.  1.
    10030    2    1    2    0    0  0.00000000000E+00  0.00000000000E+00  0.93922871392E+03  0.16847316302E+04  0.13986315057E+04 0.  0.
        1    1    3    3  502    0  0.17558672383E+03 -0.39392902897E+03 -0.19347412755E+03  0.47269759414E+03  0.50400001928E-02 0.  1.
       -1    1    3    3    0  502 -0.17558672383E+03  0.39392902897E+03  0.11327028415E+04  0.12120340360E+04  0.50400001928E-02 0. -1.
</event>
<event>
 5   0  0.2155352E-04  0.1392968E+04  0.7818609E-02  0.8958924E-01
       -1   -1    0    0    0  501  0.00000000000E+00  0.00000000000E+00  0.53562221922E+03  0.53562221925E+03  0.50400001928E-02 0.  1.
        1   -1    0    0  501    0  0.00000000000E+00  0.00000000000E+00 -0.90565749389E+03  0.90565749391E+03  0.50400001928E-02 0. -1.
    10030    2    1    2    0    0  0.00000000000E+00  0.00000000000E+00 -0.37003527467E+03  0.14412797132E+04  0.13929684516E+04 0.  0.
        2    1    3    3  502    0  0.56543956576E+03  0.38185624243E+03 -0.32970374911E+03  0.75778668146E+03  0.25500000920E-02 0.  1.
       -2    1    3    3    0  502 -0.56543956576E+03 -0.38185624243E+03 -0.40331525558E+02  0.68349303170E+03  0.25500000920E-02 0. -1.
</event>
<event>
 5   0  0.4310348E-04  0.1398023E+04  0.7818609E-02  0.8955251E-01
        2   -1    0    0  501    0  0.00000000000E+00  0.00000000000E+00  0.14170783462E+04  0.14170783462E+04  0.25500000920E-02 0. -1.
       -2   -1    0    0    0  501  0.00000000000E+00  0.00000000000E+00 -0.34480601612E+03  0.34480601613E+03  0.25500000920E-02 0.  1.
    10030    2    1    2    0    0  0.00000000000E+00  0.00000000000E+00  0.10722723300E+04  0.17618843623E+04  0.13980230886E+04 0.  0.
        1    1    3    3  502    0 -0.27290340420E+03  0.63875184779E+03  0.43740840631E+03  0.82085705516E+03  0.50400001928E-02 0. -1.
       -1    1    3    3    0  502  0.27290340420E+03 -0.63875184779E+03  0.63486392374E+03  0.94102730714E+03  0.50400001928E-02 0.  1.
</event>
<event>
 5   0  0.2155352E-04  0.1400443E+04  0.7818609E-02  0.8953498E-01
        1   -1    0    0  501    0  0.00000000000E+00  0.00000000000E+00  0.99996425767E+03  0.99996425768E+03  0.50400001928E-02 0.  1.
       -1   -1    0    0    0  501  0.00000000000E+00  0.00000000000E+00 -0.49032761706E+03  0.49032761709E+03  0.50400001928E-02 0. -1.
    10030    2    1    2    0    0  0.00000000000E+00  0.00000000000E+00  0.50963664060E+03  0.14902918748E+04  0.14004429180E+04 0.  0.
        2    1    3    3  502    0 -0.51100066291E+03  0.36130832934E+03 -0.79409665545E+02  0.63084965033E+03  0.25500000920E-02 0. -1.
       -2    1    3    3    0  502  0.51100066291E+03 -0.36130832934E+03  0.58904630615E+03  0.85944222443E+03  0.25500000920E-02 0.  1.
</event>
<event>
 5   0  0.2215876E-04  0.1400302E+04  0.7818609E-02  0.8953600E-01
        1   -1    0    0  501    0  0.00000000000E+00  0.00000000000E+00  0.77632024569E+03  0.77632024571E+03  0.50400001928E-02 0.  1.
       -1   -1    0    0    0  501  0.00000000000E+00  0.00000000000E+00 -0.63145496960E+03  0.63145496962E+03  0.50400001928E-02 0. -1.
    10030    2    1    2    0    0  0.00000000000E+00  0.00000000000E+00  0.14486527609E+03  0.14077752153E+04  0.14003017920E+04 0.  0.
        3    1    3    3  502    0 -0.67418712536E+03  0.17283242418E+03  0.14907559218E+03  0.71177445109E+03  0.10100000352E+00 0. -1.
       -3    1    3    3    0  502  0.67418712536E+03 -0.17283242418E+03 -0.42103160859E+01  0.69600076423E+03  0.10100000352E+00 0.  1.
</event>
<event>
 5   0  0.4310348E-04  0.1369732E+04  0.7818609E-02  0.8976024E-01
        2   -1    0    0  501    0  0.00000000000E+00  0.00000000000E+00  0.13833256652E+04  0.13833256652E+04  0.25500000920E-02 0.  1.
       -2   -1    0    0    0  501  0.00000000000E+00  0.00000000000E+00 -0.33906790245E+03  0.33906790246E+03  0.25500000920E-02 0. -1.
    10030    2    1    2    0    0  0.00000000000E+00  0.00000000000E+00  0.10442577627E+04  0.17223935676E+04  0.13697318449E+04 0.  0.
        1    1    3    3  502    0  0.23767554512E+03  0.91204715621E+02 -0.27736090798E+03  0.37647979786E+03  0.50400001928E-02 0. -1.
       -1    1    3    3    0  502 -0.23767554512E+03 -0.91204715621E+02  0.13216186707E+04  0.13459137698E+04  0.50400001928E-02 0.  1.
</event>
<event>
 5   0  0.4208622E-04  0.1404046E+04  0.7818609E-02  0.8950895E-01
        2   -1    0    0  501    0  0.00000000000E+00  0.00000000000E+00  0.48016415253E+03  0.48016415253E+03  0.25500000920E-02 0. -1.
       -2   -1    0    0    0  501  0.00000000000E+00  0.00000000000E+00 -0.10263913662E+04  0.10263913662E+04  0.25500000920E-02 0.  1.
    10030    2    1    2    0    0  0.00000000000E+00  0.00000000000E+00 -0.54622721366E+03  0.15065555187E+04  0.14040460684E+04 0.  0.
        4    1    3    3  502    0  0.61376173418E+03  0.79391550697E+02  0.82485614090E+02  0.62434924049E+03  0.12699999809E+01 0. -1.
       -4    1    3    3    0  502 -0.61376173418E+03 -0.79391550697E+02 -0.62871282775E+03  0.88220627823E+03  0.12699999809E+01 0.  1.
</event>
<event>
 5   0  0.4208622E-04  0.1410001E+04  0.7818609E-02  0.8946611E-01
        2   -1    0    0  501    0  0.00000000000E+00  0.00000000000E+00  0.54700486562E+03  0.54700486562E+03  0.25500000920E-02 0. -1.
       -2   -1    0    0    0  501  0.00000000000E+00  0.00000000000E+00 -0.90863151412E+03  0.90863151413E+03  0.25500000920E-02 0.  1.
    10030    2    1    2    0    0  0.00000000000E+00  0.00000000000E+00 -0.36162664851E+03  0.14556363797E+04  0.14100012188E+04 0.  0.
        4    1    3    3  502    0  0.13517316115E+03  0.30553081804E+03  0.46008800711E+03  0.56859779410E+03  0.12699999809E+01 0. -1.
       -4    1    3    3    0  502 -0.13517316115E+03 -0.30553081804E+03 -0.82171465562E+03  0.88703858565E+03  0.12699999809E+01 0.  1.
</event>
<event>
 5   0  0.3917598E-04  0.1397817E+04  0.7818609E-02  0.8955400E-01
        2   -1    0    0  501    0  0.00000000000E+00  0.00000000000E+00  0.17979550300E+04  0.17979550300E+04  0.25500000920E-02 0. -1.
       -2   -1    0    0    0  501  0.00000000000E+00  0.00000000000E+00 -0.27168271045E+03  0.27168271046E+03  0.25500000920E-02 0.  1.
    10030    2    1    2    0    0  0.00000000000E+00  0.00000000000E+00  0.15262723196E+04  0.20696377405E+04  0.13978172925E+04 0.  0.
        3    1    3    3  502    0 -0.50330282357E+03 -0.33000762385E+03  0.23703725617E+03  0.64684266637E+03  0.10100000352E+00 0.  1.
       -3    1    3    3    0  502  0.50330282357E+03  0.33000762385E+03  0.12892350634E+04  0.14227950741E+04  0.10100000352E+00 0. -1.
</event>
<event>
 5   0  0.2223112E-04  0.1402403E+04  0.7818609E-02  0.8952081E-01
       -1   -1    0    0    0  501  0.00000000000E+00  0.00000000000E+00  0.50681258354E+03  0.50681258356E+03  0.50400001928E-02 0. -1.
        1   -1    0    0  501    0  0.00000000000E+00  0.00000000000E+00 -0.97014807181E+03  0.97014807182E+03  0.50400001928E-02 0.  1.
    10030    2    1    2    0    0  0.00000000000E+00  0.00000000000E+00 -0.46333548827E+03  0.14769606554E+04  0.14024025823E+04 0.  0.
        1    1    3    3  502    0  0.64614368125E+03 -0.22056406202E+03 -0.63381778893E+02  0.68568754706E+03  0.50400001928E-02 0. -1.
       -1    1    3    3    0  502 -0.64614368125E+03  0.22056406202E+03 -0.39995370938E+03  0.79127310832E+03  0.50400001928E-02 0.  1.
</event>
<event>
 5   0  0.3932568E-04  0.1414809E+04  0.7818609E-02  0.8943168E-01
        2   -1    0    0  501    0  0.00000000000E+00  0.00000000000E+00  0.73048812873E+03  0.73048812873E+03  0.25500000920E-02 0. -1.
       -2   -1    0    0    0  501  0.00000000000E+00  0.00000000000E+00 -0.68505066145E+03  0.68505066145E+03  0.25500000920E-02 0.  1.
    10030    2    1    2    0    0  0.00000000000E+00  0.00000000000E+00  0.45437467280E+02  0.14155387902E+04  0.14148093522E+04 0.  0.
        2    1    3    3  502    0  0.14782236331E+03 -0.69029176744E+03  0.68208651394E+02  0.70922957878E+03  0.25500000920E-02 0. -1.
       -2    1    3    3    0  502 -0.14782236331E+03  0.69029176744E+03 -0.22771184115E+02  0.70630921141E+03  0.25500000920E-02 0.  1.
</event>
<event>
 5   0  0.4310348E-04  0.1404442E+04  0.7818609E-02  0.8950610E-01
       -2   -1    0    0    0  501  0.00000000000E+00  0.00000000000E+00  0.38574729145E+03  0.38574729146E+03  0.25500000920E-02 0. -1.
        2   -1    0    0  501    0  0.00000000000E+00  0.00000000000E+00 -0.12783349001E+04  0.12783349001E+04  0.25500000920E-02 0.  1.
    10030    2    1    2    0    0  0.00000000000E+00  0.00000000000E+00 -0.89258760866E+03  0.16640821916E+04  0.14044418469E+04 0.  0.
        1    1    3    3  502    0  0.53187307675E+03 -0.89502706038E+02 -0.97910971046E+03  0.11178351977E+04  0.50400001928E-02 0.  1.
       -1    1    3    3    0  502 -0.53187307675E+03  0.89502706038E+02  0.86522101796E+02  0.54624699384E+03  0.50400001928E-02 0. -1.
</event>
<event>
 5   0  0.2155352E-04  0.1400096E+04  0.7818609E-02  0.8953749E-01
        1   -1    0    0  501    0  0.00000000000E+00  0.00000000000E+00  0.11033373370E+04  0.11033373370E+04  0.50400001928E-02 0. -1.
       -1   -1    0    0    0  501  0.00000000000E+00  0.00000000000E+00 -0.44416823980E+03  0.44416823983E+03  0.50400001928E-02 0.  1.
    10030    2    1    2    0    0  0.00000000000E+00  0.00000000000E+00  0.65916909720E+03  0.15475055768E+04  0.14000962866E+04 0.  0.
        2    1    3    3  502    0 -0.62376678273E+02 -0.38064068042E+02 -0.43994132948E+03  0.44596871713E+03  0.25500000920E-02 0.  1.
       -2    1    3    3    0  502  0.62376678273E+02  0.38064068042E+02  0.10991104267E+04  0.11015368597E+04  0.25500000920E-02 0. -1.
</event>
<event>
 5   0  0.2155352E-04  0.1403056E+04  0.7818609E-02  0.8951609E-01
        1   -1    0    0  501    0  0.00000000000E+00  0.00000000000E+00  0.62387841571E+03  0.62387841573E+03  0.50400001928E-02 0. -1.
       -1   -1    0    0    0  501  0.00000000000E+00  0.00000000000E+00 -0.78884225003E+03  0.78884225004E+03  0.50400001928E-02 0.  1.
    10030    2    1    2    0    0  0.00000000000E+00  0.00000000000E+00 -0.16496383432E+03  0.14127206658E+04  0.14030561688E+04 0.  0.
        2    1    3    3  502    0 -0.57799789845E+03  0.17306827369E+03 -0.44286835805E+03  0.74844277039E+03  0.25500000920E-02 0. -1.
       -2    1    3    3    0  502  0.57799789845E+03 -0.17306827369E+03  0.27790452374E+03  0.66427789538E+03  0.25500000920E-02 0.  1.
</event>
<event>
 5   0  0.4310348E-04  0.1402423E+04  0.7818609E-02  0.8952066E-01
        2   -1    0    0  501    0  0.00000000000E+00  0.00000000000E+00  0.14925027826E+04  0.14925027826E+04  0.25500000920E-02 0. -1.
       -2   -1    0    0    0  501  0.00000000000E+00  0.00000000000E+00 -0.32944506393E+03  0.32944506394E+03  0.25500000920E-02 0.  1.
    10030    2    1    2    0    0  0.00000000000E+00  0.00000000000E+00  0.11630577187E+04  0.18219478465E+04  0.14024231525E+04 0.  0.
        1    1    3    3  502    0  0.45896264056E+02  0.39820524102E+03 -0.16592858900E+03  0.43382735933E+03  0.50400001928E-02 0.  1.
       -1    1    3    3    0  502 -0.45896264056E+02 -0.39820524102E+03  0.13289863077E+04  0.13881204872E+04  0.50400001928E-02 0. -1.
</event>
<event>
 5   0  0.4208622E-04  0.1405369E+04  0.7818609E-02  0.8949941E-01
        2   -1    0    0  501    0  0.00000000000E+00  0.00000000000E+00  0.26981681131E+04  0.26981681131E+04  0.25500000920E-02 0.  1.
       -2   -1    0    0    0  501  0.00000000000E+00  0.00000000000E+00 -0.18300033132E+03  0.18300033134E+03  0.25500000920E-02 0. -1.
    10030    2    1    2    0    0  0.00000000000E+00  0.00000000000E+00  0.25151677818E+04  0.28811684444E+04  0.14053692165E+04 0.  0.
        4    1    3    3  502    0  0.16820783500E+03  0.44463600753E+03  0.23184445737E+04  0.23666816239E+04  0.12699999809E+01 0.  1.
       -4    1    3    3    0  502 -0.16820783500E+03 -0.44463600753E+03  0.19672320807E+03  0.51448682048E+03  0.12699999809E+01 0. -1.
</event>
<event>
 5   0  0.4208622E-04  0.1398512E+04  0.7818609E-02  0.8954896E-01
       -2   -1    0    0    0  501  0.00000000000E+00  0.00000000000E+00  0.12612362199E+04  0.12612362199E+04  0.25500000920E-02 0.  1.
        2   -1    0    0  501    0  0.00000000000E+00  0.00000000000E+00 -0.38768245540E+03  0.38768245541E+03  0.25500000920E-02 0. -1.
    10030    2    1    2    0    0  0.00000000000E+00  0.00000000000E+00  0.87355376447E+03  0.16489186753E+04  0.13985122875E+04 0.  0.
        4    1    3    3  502    0 -0.37845227618E+01  0.69727970598E+03  0.49854199786E+03  0.85718087211E+03  0.12699999809E+01 0.  1.
       -4    1    3    3    0  502  0.37845227618E+01 -0.69727970598E+03  0.37501176661E+03  0.79173780318E+03  0.12699999809E+01 0. -1.
</event>
<event>
 5   0  0.2215876E-04  0.1396330E+04  0.7818609E-02  0.8956479E-01
       -1   -1    0    0    0  501  0.00000000000E+00  0.00000000000E+00  0.32069687540E+03  0.32069687544E+03  0.50400001928E-02 0. -1.
        1   -1    0    0  501    0  0.00000000000E+00  0.00000000000E+00 -0.15199232590E+04  0.15199232590E+04  0.50400001928E-02 0.  1.
    10030    2    1    2    0    0  0.00000000000E+00  0.00000000000E+00 -0.11992263836E+04  0.18406201345E+04  0.13963303908E+04 0.  0.
        3    1    3    3  502    0 -0.61479920975E+03  0.11748793483E+03 -0.10072990143E+04  0.11859311942E+04  0.10100000352E+00 0.  1.
       -3    1    3    3    0  502  0.61479920975E+03 -0.11748793483E+03 -0.19192736937E+03  0.65468894023E+03  0.10100000352E+00 0. -1.
</event>
<event>
 5   0  0.2217251E-04  0.1399149E+04  0.7818609E-02  0.8954435E-01
        1   -1    0    0  501    0  0.00000000000E+00  0.00000000000E+00  0.43349056765E+03  0.43349056768E+03  0.50400001928E-02 0.  1.
       -1   -1    0    0    0  501  0.00000000000E+00  0.00000000000E+00 -0.11289848598E+04  0.11289848598E+04  0.50400001928E-02 0. -1.
    10030    2    1    2    0    0  0.00000000000E+00  0.00000000000E+00 -0.69549429210E+03  0.15624754275E+04  0.13991487237E+04 0.  0.
        5    1    3    3  502    0  0.32104260833E+03 -0.17632897429E+03 -0.10133255206E+04  0.10775021876E+04  0.46999998093E+01 0. -1.
       -5    1    3    3    0  502 -0.32104260833E+03  0.17632897429E+03  0.31783122853E+03  0.48497323984E+03  0.46999998093E+01 0.  1.
</event>
<event>
 5   0  0.3932568E-04  0.1401581E+04  0.7818609E-02  0.8952675E-01
        2   -1    0    0  501    0  0.00000000000E+00  0.00000000000E+00  0.59973276248E+03  0.59973276249E+03  0.25500000920E-02 0.  1.
       -2   -1    0    0    0  501  0.00000000000E+00  0.00000000000E+00 -0.81887738706E+03  0.81887738706E+03  0.25500000920E-02 0. -1.
    10030    2    1    2    0    0  0.00000000000E+00  0.00000000000E+00 -0.21914462457E+03  0.14186101496E+04  0.14015813890E+04 0.  0.
        2    1    3    3  502    0  0.11029999614E+03  0.63513092756E+03 -0.38777581120E+03  0.75228150586E+03  0.25500000920E-02 0.  1.
       -2    1    3    3    0  502 -0.11029999614E+03 -0.63513092756E+03  0.16863118663E+03  0.66632864369E+03  0.25500000920E-02 0. -1.
</event>
<event>
 5   0  0.2155352E-04  0.1398663E+04  0.7818609E-02  0.8954787E-01
        1   -1    0    0  501    0  0.00000000000E+00  0.00000000000E+00  0.10449287991E+04  0.10449287991E+04  0.50400001928E-02 0.  1.
       -1   -1    0    0    0  501  0.00000000000E+00  0.00000000000E+00 -0.46803649238E+03  0.46803649240E+03  0.50400001928E-02 0. -1.
    10030    2    1    2    0    0  0.00000000000E+00  0.00000000000E+00  0.57689230672E+03  0.15129652915E+04  0.13986633761E+04 0.  0.
        2    1    3    3  502    0  0.16055858202E+03  0.68006571683E+03  0.31897243314E+03  0.76812228882E+03  0.25500000920E-02 0.  1.
       -2    1    3    3    0  502 -0.16055858202E+03 -0.68006571683E+03  0.25791987358E+03  0.74484300270E+03  0.25500000920E-02 0. -1.
</event>
<event>
 5   0  0.2155352E-04  0.1403218E+04  0.7818609E-02  0.8951492E-01
        1   -1    0    0  501    0  0.00000000000E+00  0.00000000000E+00  0.15791778192E+04  0.15791778192E+04  0.50400001928E-02 0. -1.
       -1   -1    0    0    0  501  0.00000000000E+00  0.00000000000E+00 -0.31171616881E+03  0.31171616885E+03  0.50400001928E-02 0.  1.
    10030    2    1    2    0    0  0.00000000000E+00  0.00000000000E+00  0.12674616504E+04  0.18908939881E+04  0.14032181010E+04 0.  0.
        2    1    3    3  502    0 -0.54565749034E+03  0.17532863689E+03  0.88396044216E+02  0.57991041405E+03  0.25500000920E-02 0.  1.
       -2    1    3    3    0  502  0.54565749034E+03 -0.17532863689E+03  0.11790656062E+04  0.13109835740E+04  0.25500000920E-02 0. -1.
</event>
<event>
 5   0  0.2223112E-04  0.1398063E+04  0.7818609E-02  0.8955222E-01
        1   -1    0    0  501    0  0.00000000000E+00  0.00000000000E+00  0.10524250152E+04  0.10524250152E+04  0.50400001928E-02 0. -1.
       -1   -1    0    0    0  501  0.00000000000E+00  0.00000000000E+00 -0.46430410299E+03  0.46430410302E+03  0.50400001928E-02 0.  1.
    10030    2    1    2    0    0  0.00000000000E+00  0.00000000000E+00  0.58812091224E+03  0.15167291183E+04  0.13980633071E+04 0.  0.
        1    1    3    3  502    0  0.14955372978E+03  0.68258631025E+03  0.31449721124E+03  0.76628903485E+03  0.50400001928E-02 0. -1.
       -1    1    3    3    0  502 -0.14955372978E+03 -0.68258631025E+03  0.27362370100E+03  0.75044008342E+03  0.50400001928E-02 0.  1.
</event>
<event>
 5   0  0.3932568E-04  0.1456592E+04  0.7818609E-02  0.8913843E-01
       -2   -1    0    0    0  501  0.00000000000E+00  0.00000000000E+00  0.27120463752E+03  0.27120463753E+03  0.25500000920E-02 0. -1.
        2   -1    0    0  501    0  0.00000000000E+00  0.00000000000E+00 -0.19557740841E+04  0.19557740841E+04  0.25500000920E-02 0.  1.
    10030    2    1    2    0    0  0.00000000000E+00  0.00000000000E+00 -0.16845694465E+04  0.22269787216E+04  0.14565919148E+04 0.  0.
        2    1    3    3  502    0 -0.26316130165E+01 -0.69371241086E+03 -0.50325839111E+03  0.85703724691E+03  0.25500000920E-02 0. -1.
       -2    1    3    3    0  502  0.26316130165E+01  0.69371241086E+03 -0.11813110554E+04  0.13699414747E+04  0.25500000920E-02 0.  1.
</event>
<event>
 5   0  0.4208622E-04  0.1398117E+04  0.7818609E-02  0.8955182E-01
        2   -1    0    0  501    0  0.00000000000E+00  0.00000000000E+00  0.55935457216E+03  0.55935457216E+03  0.25500000920E-02 0. -1.
       -2   -1    0    0    0  501  0.00000000000E+00  0.00000000000E+00 -0.87365519577E+03  0.87365519577E+03  0.25500000920E-02 0.  1.
    10030    2    1    2    0    0  0.00000000000E+00  0.00000000000E+00 -0.31430062362E+03  0.14330097679E+04  0.13981173459E+04 0.  0.
        4    1    3    3  502    0  0.64647691937E+03  0.20044786945E+03  0.22054979595E+02  0.67719996358E+03  0.12699999809E+01 0.  1.
       -4    1    3    3    0  502 -0.64647691937E+03 -0.20044786945E+03 -0.33635560321E+03  0.75580980436E+03  0.12699999809E+01 0. -1.
</event>
<event>
 5   0  0.2223112E-04  0.1407353E+04  0.7818609E-02  0.8948513E-01
        1   -1    0    0  501    0  0.00000000000E+00  0.00000000000E+00  0.10702273757E+04  0.10702273757E+04  0.50400001928E-02 0. -1.
       -1   -1    0    0    0  501  0.00000000000E+00  0.00000000000E+00 -0.46266850614E+03  0.46266850617E+03  0.50400001928E-02 0.  1.
    10030    2    1    2    0    0  0.00000000000E+00  0.00000000000E+00  0.60755886956E+03  0.15328958819E+04  0.14073528359E+04 0.  0.
        1    1    3    3  502    0  0.47173331365E+03  0.19375906077E+03 -0.22432849219E+03  0.55713388451E+03  0.50400001928E-02 0.  1.
       -1    1    3    3    0  502 -0.47173331365E+03 -0.19375906077E+03  0.83188736175E+03  0.97576199737E+03  0.50400001928E-02 0. -1.
</event>
<event>
 5   0  0.4310348E-04  0.1402667E+04  0.7818609E-02  0.8951890E-01
       -2   -1    0    0    0  501  0.00000000000E+00  0.00000000000E+00  0.35260763713E+03  0.35260763714E+03  0.25500000920E-02 0.  1.
        2   -1    0    0  501    0  0.00000000000E+00  0.00000000000E+00 -0.13949462223E+04  0.13949462223E+04  0.25500000920E-02 0. -1.
    10030    2    1    2    0    0  0.00000000000E+00  0.00000000000E+00 -0.10423385852E+04  0.17475538595E+04  0.14026670188E+04 0.  0.
        1    1    3    3  502    0  0.16298498320E+03 -0.16728795829E+03  0.30273225563E+03  0.38235609628E+03  0.50400001928E-02 0.  1.
       -1    1    3    3    0  502 -0.16298498320E+03  0.16728795829E+03 -0.13450708408E+04  0.13651977632E+04  0.50400001928E-02 0. -1.
</event>
<event>
 5   0  0.2155352E-04  0.1398236E+04  0.7818609E-02  0.8955096E-01
       -1   -1    0    0    0  501  0.00000000000E+00  0.00000000000E+00  0.30855243031E+03  0.30855243035E+03  0.50400001928E-02 0. -1.
        1   -1    0    0  501    0  0.00000000000E+00  0.00000000000E+00 -0.15840622740E+04  0.15840622740E+04  0.50400001928E-02 0.  1.
    10030    2    1    2    0    0  0.00000000000E+00  0.00000000000E+00 -0.12755098437E+04  0.18926147044E+04  0.13982364099E+04 0.  0.
        2    1    3    3  502    0 -0.20013288553E+03 -0.20547526143E+03 -0.15007496521E+04  0.15279145176E+04  0.25500000920E-02 0.  1.
       -2    1    3    3    0  502  0.20013288553E+03  0.20547526143E+03  0.22523980838E+03  0.36470018675E+03  0.25500000920E-02 0. -1.
</event>
<event>
 5   0  0.2223112E-04  0.1400326E+04  0.7818609E-02  0.8953583E-01
       -1   -1    0    0    0  501  0.00000000000E+00  0.00000000000E+00  0.11860167891E+04  0.11860167891E+04  0.50400001928E-02 0. -1.
        1   -1    0    0  501    0  0.00000000000E+00  0.00000000000E+00 -0.41334008525E+03  0.41334008528E+03  0.50400001928E-02 0.  1.
    10030    2    1    2    0    0  0.00000000000E+00  0.00000000000E+00  0.77267670388E+03  0.15993568744E+04  0.14003260774E+04 0.  0.
        1    1    3    3  502    0  0.86723735072E+02 -0.42624064524E+03 -0.24030197999E+03  0.49693775817E+03  0.50400001928E-02 0.  1.
       -1    1    3    3    0  502 -0.86723735072E+02  0.42624064524E+03  0.10129786839E+04  0.11024191163E+04  0.50400001928E-02 0. -1.
</event>
<event>
 5   0  0.2215876E-04  0.1399859E+04  0.7818609E-02  0.8953920E-01
        1   -1    0    0  501    0  0.00000000000E+00  0.00000000000E+00  0.89260750538E+03  0.89260750540E+03  0.50400001928E-02 0. -1.
       -1   -1    0    0    0  501  0.00000000000E+00  0.00000000000E+00 -0.54884319997E+03  0.54884319999E+03  0.50400001928E-02 0.  1.
    10030    2    1    2    0    0  0.00000000000E+00  0.00000000000E+00  0.34376430541E+03  0.14414507054E+04  0.13998593638E+04 0.  0.
        3    1    3    3  502    0 -0.54508908841E+03  0.41895604487E+03  0.30714428744E+03  0.75298333670E+03  0.10100000352E+00 0.  1.
       -3    1    3    3    0  502  0.54508908841E+03 -0.41895604487E+03  0.36620017972E+02  0.68846736869E+03  0.10100000352E+00 0. -1.
</event>
<event>
 5   0  0.2223112E-04  0.1384635E+04  0.7818609E-02  0.8965016E-01
       -1   -1    0    0    0  501  0.00000000000E+00  0.00000000000E+00  0.88140582170E+03  0.88140582171E+03  0.50400001928E-02 0. -1.
        1   -1    0    0  501    0  0.00000000000E+00  0.00000000000E+00 -0.54379452188E+03  0.54379452190E+03  0.50400001928E-02 0.  1.
    10030    2    1    2    0    0  0.00000000000E+00  0.00000000000E+00  0.33761129982E+03  0.14252003436E+04  0.13846351973E+04 0.  0.
        1    1    3    3  502    0 -0.47478699957E+03  0.50300204582E+03  0.13844743040E+03  0.70540870711E+03  0.50400001928E-02 0. -1.
       -1    1    3    3    0  502  0.47478699957E+03 -0.50300204582E+03  0.19916386942E+03  0.71979163650E+03  0.50400001928E-02 0.  1.
</event>
<event>
 5   0  0.2223112E-04  0.1398545E+04  0.7818609E-02  0.8954873E-01
       -1   -1    0    0    0  501  0.00000000000E+00  0.00000000000E+00  0.16867666174E+04  0.16867666174E+04  0.50400001928E-02 0.  1.
        1   -1    0    0  501    0  0.00000000000E+00  0.00000000000E+00 -0.28989292055E+03  0.28989292059E+03  0.50400001928E-02 0. -1.
    10030    2    1    2    0    0  0.00000000000E+00  0.00000000000E+00  0.13968736969E+04  0.19766595380E+04  0.13985445307E+04 0.  0.
        1    1    3    3  502    0  0.11051516229E+03 -0.59197231854E+03  0.12008033087E+04  0.13433441157E+04  0.50400001928E-02 0.  1.
       -1    1    3    3    0  502 -0.11051516229E+03  0.59197231854E+03  0.19607038820E+03  0.63331542233E+03  0.50400001928E-02 0. -1.
</event>
<event>
 5   0  0.2155352E-04  0.1398748E+04  0.7818609E-02  0.8954725E-01
       -1   -1    0    0    0  501  0.00000000000E+00  0.00000000000E+00  0.51662680779E+03  0.51662680781E+03  0.50400001928E-02 0. -1.
        1   -1    0    0  501    0  0.00000000000E+00  0.00000000000E+00 -0.94676527072E+03  0.94676527073E+03  0.50400001928E-02 0.  1.
    10030    2    1    2    0    0  0.00000000000E+00  0.00000000000E+00 -0.43013846293E+03  0.14633920785E+04  0.13987484685E+04 0.  0.
        2    1    3    3  502    0 -0.27123737276E+03 -0.57688171561E+03 -0.51604865727E+03  0.82016366834E+03  0.25500000920E-02 0. -1.
       -2    1    3    3    0  502  0.27123737276E+03  0.57688171561E+03  0.85910194348E+02  0.64322841020E+03  0.25500000920E-02 0.  1.
</event>
<event>
 5   0  0.2223112E-04  0.1400521E+04  0.7818609E-02  0.8953442E-01
       -1   -1    0    0    0  501  0.00000000000E+00  0.00000000000E+00  0.85904985637E+03  0.85904985638E+03  0.50400001928E-02 0.  1.
        1   -1    0    0  501    0  0.00000000000E+00  0.00000000000E+00 -0.57082197895E+03  0.57082197897E+03  0.50400001928E-02 0. -1.
    10030    2    1    2    0    0  0.00000000000E+00  0.00000000000E+00  0.28822787742E+03  0.14298718354E+04  0.14005206733E+04 0.  0.
        1    1    3    3  502    0 -0.19768313725E+03  0.27037008950E+03  0.77197026152E+03  0.84149669800E+03  0.50400001928E-02 0.  1.
       -1    1    3    3    0  502  0.19768313725E+03 -0.27037008950E+03 -0.48374238410E+03  0.58837513735E+03  0.50400001928E-02 0. -1.
</event>
<event>
 5   0  0.3932568E-04  0.1400347E+04  0.7818609E-02  0.8953567E-01
       -2   -1    0    0    0  501  0.00000000000E+00  0.00000000000E+00  0.34309223510E+03  0.34309223511E+03  0.25500000920E-02 0.  1.
        2   -1    0    0  501    0  0.00000000000E+00  0.00000000000E+00 -0.14288963788E+04  0.14288963788E+04  0.25500000920E-02 0. -1.
    10030    2    1    2    0    0  0.00000000000E+00  0.00000000000E+00 -0.10858041437E+04  0.17719886139E+04  0.14003474602E+04 0.  0.
        2    1    3    3  502    0  0.54497201286E+03 -0.42600713353E+03 -0.40563951477E+03  0.80188527145E+03  0.25500000920E-02 0.  1.
       -2    1    3    3    0  502 -0.54497201286E+03  0.42600713353E+03 -0.68016462894E+03  0.97010334248E+03  0.25500000920E-02 0. -1.
</event>
<event>
 5   0  0.2155352E-04  0.1396117E+04  0.7818609E-02  0.8956634E-01
       -1   -1    0    0    0  501  0.00000000000E+00  0.00000000000E+00  0.82310853098E+03  0.82310853100E+03  0.50400001928E-02 0.  1.
        1   -1    0    0  501    0  0.00000000000E+00  0.00000000000E+00 -0.59200649790E+03  0.59200649792E+03  0.50400001928E-02 0. -1.
    10030    2    1    2    0    0  0.00000000000E+00  0.00000000000E+00  0.23110203308E+03  0.14151150289E+04  0.13961168989E+04 0.  0.
        2    1    3    3  502    0  0.34361188256E+03  0.35831450640E+03  0.61297041310E+03  0.78879093471E+03  0.25500000920E-02 0.  1.
       -2    1    3    3    0  502 -0.34361188256E+03 -0.35831450640E+03 -0.38186838001E+03  0.62632409422E+03  0.25500000920E-02 0. -1.
</event>
<event>
 5   0  0.2217251E-04  0.1395380E+04  0.7818609E-02  0.8957170E-01
        1   -1    0    0  501    0  0.00000000000E+00  0.00000000000E+00  0.57128766589E+03  0.57128766591E+03  0.50400001928E-02 0.  1.
       -1   -1    0    0    0  501  0.00000000000E+00  0.00000000000E+00 -0.85205937756E+03  0.85205937758E+03  0.50400001928E-02 0. -1.
    10030    2    1    2    0    0  0.00000000000E+00  0.00000000000E+00 -0.28077171168E+03  0.14233470435E+04  0.13953795369E+04 0.  0.
        5    1    3    3  502    0 -0.48320157054E+03  0.89257176095E+01  0.37287467171E+03  0.61042693011E+03  0.46999998093E+01 0.  1.
       -5    1    3    3    0  502  0.48320157054E+03 -0.89257176095E+01 -0.65364638339E+03  0.81292011337E+03  0.46999998093E+01 0. -1.
</event>
<event>
 5   0  0.4310348E-04  0.1394322E+04  0.7818609E-02  0.8957939E-01
        2   -1    0    0  501    0  0.00000000000E+00  0.00000000000E+00  0.19352041039E+04  0.19352041039E+04  0.25500000920E-02 0.  1.
       -2   -1    0    0    0  501  0.00000000000E+00  0.00000000000E+00 -0.25115370257E+03  0.25115370259E+03  0.25500000920E-02 0. -1.
    10030    2    1    2    0    0  0.00000000000E+00  0.00000000000E+00  0.16840504013E+04  0.21863578065E+04  0.13943223099E+04 0.  0.
        1    1    3    3  502    0 -0.26486075032E+03 -0.42900657015E+03  0.87022801609E+02  0.51163543888E+03  0.50400001928E-02 0. -1.
       -1    1    3    3    0  502  0.26486075032E+03  0.42900657015E+03  0.15970275997E+04  0.16747223676E+04  0.50400001928E-02 0.  1.
</event>
<event>
 5   0  0.4310348E-04  0.1397925E+04  0.7818609E-02  0.8955322E-01
       -2   -1    0    0    0  501  0.00000000000E+00  0.00000000000E+00  0.91580747826E+03  0.91580747826E+03  0.25500000920E-02 0. -1.
        2   -1    0    0  501    0  0.00000000000E+00  0.00000000000E+00 -0.53346191761E+03  0.53346191762E+03  0.25500000920E-02 0.  1.
    10030    2    1    2    0    0  0.00000000000E+00  0.00000000000E+00  0.38234556065E+03  0.14492693959E+04  0.13979247670E+04 0.  0.
        1    1    3    3  502    0 -0.66088985681E+02  0.68657863476E+03  0.73924082974E+02  0.69370220254E+03  0.50400001928E-02 0. -1.
       -1    1    3    3    0  502  0.66088985681E+02 -0.68657863476E+03  0.30842147768E+03  0.75556719334E+03  0.50400001928E-02 0.  1.
</event>
<event>
 5   0  0.3932568E-04  0.1401019E+04  0.7818609E-02  0.8953081E-01
       -2   -1    0    0    0  501  0.00000000000E+00  0.00000000000E+00  0.10111339748E+04  0.10111339748E+04  0.25500000920E-02 0.  1.
        2   -1    0    0  501    0  0.00000000000E+00  0.00000000000E+00 -0.48531014204E+03  0.48531014204E+03  0.25500000920E-02 0. -1.
    10030    2    1    2    0    0  0.00000000000E+00  0.00000000000E+00  0.52582383278E+03  0.14964441169E+04  0.14010190191E+04 0.  0.
        2    1    3    3  502    0  0.55018914988E+02 -0.53127669706E+03  0.74702860895E+03  0.91833204913E+03  0.25500000920E-02 0.  1.
       -2    1    3    3    0  502 -0.55018914988E+02  0.53127669706E+03 -0.22120477617E+03  0.57811206773E+03  0.25500000920E-02 0. -1.
</event>
<event>
 5   0  0.3975164E-04  0.1395297E+04  0.7818609E-02  0.8957230E-01
        2   -1    0    0  501    0  0.00000000000E+00  0.00000000000E+00  0.16678469884E+04  0.16678469884E+04  0.25500000920E-02 0.  1.
       -2   -1    0    0    0  501  0.00000000000E+00  0.00000000000E+00 -0.29182130413E+03  0.29182130414E+03  0.25500000920E-02 0. -1.
    10030    2    1    2    0    0  0.00000000000E+00  0.00000000000E+00  0.13760256843E+04  0.19596682926E+04  0.13952967903E+04 0.  0.
        5    1    3    3  502    0 -0.99350556828E+02 -0.64607785807E+03  0.34569933198E+03  0.73947092570E+03  0.46999998093E+01 0. -1.
       -5    1    3    3    0  502  0.99350556828E+02  0.64607785807E+03  0.10303263523E+04  0.12201973669E+04  0.46999998093E+01 0.  1.
</event>
<event>
 5   0  0.2143942E-04  0.1400566E+04  0.7818609E-02  0.8953409E-01
        1   -1    0    0  501    0  0.00000000000E+00  0.00000000000E+00  0.49983277176E+03  0.49983277179E+03  0.50400001928E-02 0.  1.
       -1   -1    0    0    0  501  0.00000000000E+00  0.00000000000E+00 -0.98112052211E+03  0.98112052212E+03  0.50400001928E-02 0. -1.
    10030    2    1    2    0    0  0.00000000000E+00  0.00000000000E+00 -0.48128775035E+03  0.14809532939E+04  0.14005658714E+04 0.  0.
        4    1    3    3  502    0 -0.51492230137E+03 -0.46146403391E+03 -0.35791741082E+03  0.77858879835E+03  0.12699999809E+01 0.  1.
       -4    1    3    3    0  502  0.51492230137E+03  0.46146403391E+03 -0.12337033952E+03  0.70236449556E+03  0.12699999809E+01 0. -1.
</event>
<event>
 5   0  0.3917598E-04  0.1400030E+04  0.7818609E-02  0.8953797E-01
        2   -1    0    0  501    0  0.00000000000E+00  0.00000000000E+00  0.13417472949E+04  0.13417472949E+04  0.25500000920E-02 0.  1.
       -2   -1    0    0    0  501  0.00000000000E+00  0.00000000000E+00 -0.36521101356E+03  0.36521101357E+03  0.25500000920E-02 0. -1.
    10030    2    1    2    0    0  0.00000000000E+00  0.00000000000E+00  0.97653628136E+03  0.17069583085E+04  0.14000298419E+04 0.  0.
        3    1    3    3  502    0 -0.23827220426E+03  0.42439672193E+03  0.11016930774E+04  0.12044143256E+04  0.10100000352E+00 0.  1.
       -3    1    3    3    0  502  0.23827220426E+03 -0.42439672193E+03 -0.12515679600E+03  0.50254398285E+03  0.10100000352E+00 0. -1.
</event>
<event>
 5   0  0.2223112E-04  0.1458048E+04  0.7818609E-02  0.8912840E-01
        1   -1    0    0  501    0  0.00000000000E+00  0.00000000000E+00  0.41546134609E+03  0.41546134612E+03  0.50400001928E-02 0.  1.
       -1   -1    0    0    0  501  0.00000000000E+00  0.00000000000E+00 -0.12792437412E+04  0.12792437412E+04  0.50400001928E-02 0. -1.
    10030    2    1    2    0    0  0.00000000000E+00  0.00000000000E+00 -0.86378239506E+03  0.16947050873E+04  0.14580484583E+04 0.  0.
        1    1    3    3  502    0 -0.58327552658E+03 -0.20668130948E+02  0.75865348284E+02  0.58855166522E+03  0.50400001928E-02 0.  1.
       -1    1    3    3    0  502  0.58327552658E+03  0.20668130948E+02 -0.93964774335E+03  0.11061534221E+04  0.50400001928E-02 0. -1.
</event>
<event>
 5   0  0.2155352E-04  0.1399356E+04  0.7818609E-02  0.8954285E-01
        1   -1    0    0  501    0  0.00000000000E+00  0.00000000000E+00  0.57406809748E+03  0.57406809750E+03  0.50400001928E-02 0.  1.
       -1   -1    0    0    0  501  0.00000000000E+00  0.00000000000E+00 -0.85277172621E+03  0.85277172623E+03  0.50400001928E-02 0. -1.
    10030    2    1    2    0    0  0.00000000000E+00  0.00000000000E+00 -0.27870362874E+03  0.14268398237E+04  0.13993556267E+04 0.  0.
        2    1    3    3  502    0 -0.66858717817E+03 -0.11566622595E+03  0.34769701490E+02  0.67940887748E+03  0.25500000920E-02 0. -1.
       -2    1    3    3    0  502  0.66858717817E+03  0.11566622595E+03 -0.31347333023E+03  0.74743094625E+03  0.25500000920E-02 0.  1.
</event>
<event>
 5   0  0.2223112E-04  0.1395624E+04  0.7818609E-02  0.8956992E-01
        1   -1    0    0  501    0  0.00000000000E+00  0.00000000000E+00  0.59070470729E+03  0.59070470731E+03  0.50400001928E-02 0.  1.
       -1   -1    0    0    0  501  0.00000000000E+00  0.00000000000E+00 -0.82434043005E+03  0.82434043007E+03  0.50400001928E-02 0. -1.
    10030    2    1    2    0    0  0.00000000000E+00  0.00000000000E+00 -0.23363572276E+03  0.14150451374E+04  0.13956242653E+04 0.  0.
        1    1    3    3  502    0  0.10511118811E+03  0.42881797403E+03 -0.66471567784E+03  0.79798505569E+03  0.50400001928E-02 0. -1.
       -1    1    3    3    0  502 -0.10511118811E+03 -0.42881797403E+03  0.43107995508E+03  0.61706008169E+03  0.50400001928E-02 0.  1.
</event>
<event>
 5   0  0.2217251E-04  0.1393271E+04  0.7818609E-02  0.8958704E-01
       -1   -1    0    0    0  501  0.00000000000E+00  0.00000000000E+00  0.62688860281E+03  0.62688860283E+03  0.50400001928E-02 0.  1.
        1   -1    0    0  501    0  0.00000000000E+00  0.00000000000E+00 -0.77414216182E+03  0.77414216184E+03  0.50400001928E-02 0. -1.
    10030    2    1    2    0    0  0.00000000000E+00  0.00000000000E+00 -0.14725355901E+03  0.14010307647E+04  0.13932708254E+04 0.  0.
        5    1    3    3  502    0 -0.54058506484E+03 -0.37813578226E+03 -0.29861367891E+03  0.72416234463E+03  0.46999998093E+01 0. -1.
       -5    1    3    3    0  502  0.54058506484E+03  0.37813578226E+03  0.15136011990E+03  0.67686842003E+03  0.46999998093E+01 0.  1.
</event>
<event>
 5   0  0.2155352E-04  0.1394600E+04  0.7818609E-02  0.8957737E-01
       -1   -1    0    0    0  501  0.00000000000E+00  0.00000000000E+00  0.23075058330E+03  0.23075058335E+03  0.50400001928E-02 0. -1.
        1   -1    0    0  501    0  0.00000000000E+00  0.00000000000E+00 -0.21071542115E+04  0.21071542115E+04  0.50400001928E-02 0.  1.
    10030    2    1    2    0    0  0.00000000000E+00  0.00000000000E+00 -0.18764036282E+04  0.23379047949E+04  0.13945996751E+04 0.  0.
        2    1    3    3  502    0 -0.25507942305E+00  0.22835445688E+03 -0.20426943129E+04  0.20554186627E+04  0.25500000920E-02 0.  1.
       -2    1    3    3    0  502  0.25507942305E+00 -0.22835445688E+03  0.16629068469E+03  0.28248613216E+03  0.25500000920E-02 0. -1.
</event>
<event>
 5   0  0.4310348E-04  0.1401746E+04  0.7818609E-02  0.8952556E-01
        2   -1    0    0  501    0  0.00000000000E+00  0.00000000000E+00  0.18072367173E+04  0.18072367173E+04  0.25500000920E-02 0.  1.
       -2   -1    0    0    0  501  0.00000000000E+00  0.00000000000E+00 -0.27180877895E+03  0.27180877896E+03  0.25500000920E-02 0. -1.
    10030    2    1    2    0    0  0.00000000000E+00  0.00000000000E+00  0.15354279383E+04  0.20790454962E+04  0.14017457764E+04 0.  0.
        1    1    3    3  502    0  0.41289521503E+03 -0.17126243975E+02  0.16073148165E+04  0.16595893125E+04  0.50400001928E-02 0.  1.
       -1    1    3    3    0  502 -0.41289521503E+03  0.17126243975E+02 -0.71886878129E+02  0.41945618377E+03  0.50400001928E-02 0. -1.
</event>
<event>
 5   0  0.3917598E-04  0.1389983E+04  0.7818609E-02  0.8961101E-01
       -2   -1    0    0    0  501  0.00000000000E+00  0.00000000000E+00  0.82874173646E+03  0.82874173646E+03  0.25500000920E-02 0.  1.
        2   -1    0    0  501    0  0.00000000000E+00  0.00000000000E+00 -0.58282710671E+03  0.58282710672E+03  0.25500000920E-02 0. -1.
    10030    2    1    2    0    0  0.00000000000E+00  0.00000000000E+00  0.24591462974E+03  0.14115688432E+04  0.13899829473E+04 0.  0.
        3    1    3    3  502    0  0.14228874801E+03  0.28031808560E+03  0.75241270040E+03  0.81544417274E+03  0.10100000352E+00 0.  1.
       -3    1    3    3    0  502 -0.14228874801E+03 -0.28031808560E+03 -0.50649807066E+03  0.59612467044E+03  0.10100000352E+00 0. -1.
</event>
<event>
 5   0  0.2223112E-04  0.1400869E+04  0.7818609E-02  0.8953190E-01
       -1   -1    0    0    0  501  0.00000000000E+00  0.00000000000E+00  0.35838448009E+03  0.35838448012E+03  0.50400001928E-02 0.  1.
        1   -1    0    0  501    0  0.00000000000E+00  0.00000000000E+00 -0.13689442726E+04  0.13689442726E+04  0.50400001928E-02 0. -1.
    10030    2    1    2    0    0  0.00000000000E+00  0.00000000000E+00 -0.10105597925E+04  0.17273287528E+04  0.14008688468E+04 0.  0.
        1    1    3    3  502    0 -0.21208125903E+03 -0.42281939419E+03 -0.11422427761E+04  0.12363143856E+04  0.50400001928E-02 0. -1.
       -1    1    3    3    0  502  0.21208125903E+03  0.42281939419E+03  0.13168298357E+03  0.49101436713E+03  0.50400001928E-02 0.  1.
</event>
<event>
 5   0  0.2155352E-04  0.1395488E+04  0.7818609E-02  0.8957091E-01
       -1   -1    0    0    0  501  0.00000000000E+00  0.00000000000E+00  0.48686275799E+03  0.48686275802E+03  0.50400001928E-02 0.  1.
        1   -1    0    0  501    0  0.00000000000E+00  0.00000000000E+00 -0.99996631301E+03  0.99996631303E+03  0.50400001928E-02 0. -1.
    10030    2    1    2    0    0  0.00000000000E+00  0.00000000000E+00 -0.51310355502E+03  0.14868290710E+04  0.13954875235E+04 0.  0.
        2    1    3    3  502    0 -0.27265252729E+02  0.56449479496E+02  0.48385617018E+03  0.48790032913E+03  0.25500000920E-02 0.  1.
       -2    1    3    3    0  502  0.27265252729E+02 -0.56449479496E+02 -0.99695972520E+03  0.99892874191E+03  0.25500000920E-02 0. -1.
</event>
<event>
 5   0  0.2223112E-04  0.1403139E+04  0.7818609E-02  0.8951549E-01
       -1   -1    0    0    0  501  0.00000000000E+00  0.00000000000E+00  0.80482222703E+03  0.80482222705E+03  0.50400001928E-02 0.  1.
        1   -1    0    0  501    0  0.00000000000E+00  0.00000000000E+00 -0.61156341362E+03  0.61156341364E+03  0.50400001928E-02 0. -1.
    10030    2    1    2    0    0  0.00000000000E+00  0.00000000000E+00  0.19325881341E+03  0.14163856407E+04  0.14031390930E+04 0.  0.
        1    1    3    3  502    0 -0.57619137063E+03  0.22442762095E+03 -0.23791386996E+03  0.66254604533E+03  0.50400001928E-02 0. -1.
       -1    1    3    3    0  502  0.57619137063E+03 -0.22442762095E+03  0.43117268337E+03  0.75383959537E+03  0.50400001928E-02 0.  1.
</event>
<event>
 5   0  0.2143942E-04  0.1399597E+04  0.7818609E-02  0.8954110E-01
       -1   -1    0    0    0  501  0.00000000000E+00  0.00000000000E+00  0.35903370377E+03  0.35903370381E+03  0.50400001928E-02 0. -1.
        1   -1    0    0  501    0  0.00000000000E+00  0.00000000000E+00 -0.13639888541E+04  0.13639888541E+04  0.50400001928E-02 0.  1.
    10030    2    1    2    0    0  0.00000000000E+00  0.00000000000E+00 -0.10049551503E+04  0.17230225579E+04  0.13995970423E+04 0.  0.
        4    1    3    3  502    0  0.22054504059E+03  0.26728763065E+03 -0.12509462824E+04  0.12980566270E+04  0.12699999809E+01 0.  1.
       -4    1    3    3    0  502 -0.22054504059E+03 -0.26728763065E+03  0.24599113214E+03  0.42496593089E+03  0.12699999809E+01 0. -1.
</event>
<event>
 5   0  0.2215876E-04  0.1397052E+04  0.7818609E-02  0.8955955E-01
       -1   -1    0    0    0  501  0.00000000000E+00  0.00000000000E+00  0.14818475105E+04  0.14818475105E+04  0.50400001928E-02 0. -1.
        1   -1    0    0  501    0  0.00000000000E+00  0.00000000000E+00 -0.32927732823E+03  0.32927732827E+03  0.50400001928E-02 0.  1.
    10030    2    1    2    0    0  0.00000000000E+00  0.00000000000E+00  0.11525701822E+04  0.18111248387E+04  0.13970523099E+04 0.  0.
        3    1    3    3  502    0 -0.46385149138E+03 -0.14437988584E+03  0.12269838681E+04  0.13196564630E+04  0.10100000352E+00 0. -1.
       -3    1    3    3    0  502  0.46385149138E+03  0.14437988584E+03 -0.74413685917E+02  0.49146837573E+03  0.10100000352E+00 0.  1.
</event>
<event>
 5   0  0.4310348E-04  0.1397984E+04  0.7818609E-02  0.8955279E-01
        2   -1    0    0  501    0  0.00000000000E+00  0.00000000000E+00  0.81858050193E+03  0.81858050193E+03  0.25500000920E-02 0.  1.
       -2   -1    0    0    0  501  0.00000000000E+00  0.00000000000E+00 -0.59687430794E+03  0.59687430794E+03  0.25500000920E-02 0. -1.
    10030    2    1    2    0    0  0.00000000000E+00  0.00000000000E+00  0.22170619399E+03  0.14154548099E+04  0.13979837919E+04 0.  0.
        1    1    3    3  502    0 -0.21427490392E+03  0.50595186154E+03 -0.32662148997E+03  0.63920467644E+03  0.50400001928E-02 0. -1.
       -1    1    3    3    0  502  0.21427490392E+03 -0.50595186154E+03  0.54832768396E+03  0.77625013344E+03  0.50400001928E-02 0.  1.
</event>
<event>
 5   0  0.2217251E-04  0.1402035E+04  0.7818609E-02  0.8952347E-01
       -1   -1    0    0    0  501  0.00000000000E+00  0.00000000000E+00  0.10592445262E+04  0.10592445262E+04  0.50400001928E-02 0. -1.
        1   -1    0    0  501    0  0.00000000000E+00  0.00000000000E+00 -0.46393959471E+03  0.46393959473E+03  0.50400001928E-02 0.  1.
    10030    2    1    2    0    0  0.00000000000E+00  0.00000000000E+00  0.59530493146E+03  0.15231841209E+04  0.14020349157E+04 0.  0.
        5    1    3    3  502    0  0.49688074784E+03  0.76442402797E+02  0.82840491448E+03  0.96902565026E+03  0.46999998093E+01 0. -1.
       -5    1    3    3    0  502 -0.49688074784E+03 -0.76442402797E+02 -0.23309998302E+03  0.55415847066E+03  0.46999998093E+01 0.  1.
</event>
<event>
 5   0  0.3932568E-04  0.1397136E+04  0.7818609E-02  0.8955894E-01
       -2   -1    0    0    0  501  0.00000000000E+00  0.00000000000E+00  0.47300518065E+03  0.47300518065E+03  0.25500000920E-02 0.  1.
        2   -1    0    0  501    0  0.00000000000E+00  0.00000000000E+00 -0.10316953789E+04  0.10316953789E+04  0.25500000920E-02 0. -1.
    10030    2    1    2    0    0  0.00000000000E+00  0.00000000000E+00 -0.55869019827E+03  0.15047005596E+04  0.13971360121E+04 0.  0.
        2    1    3    3  502    0 -0.55060591042E+03 -0.42074918166E+03 -0.18422482823E+03  0.71703244683E+03  0.25500000920E-02 0. -1.
       -2    1    3    3    0  502  0.55060591042E+03  0.42074918166E+03 -0.37446537004E+03  0.78766811274E+03  0.25500000920E-02 0.  1.
</event>
<event>
 5   0  0.2143942E-04  0.1396579E+04  0.7818609E-02  0.8956298E-01
        1   -1    0    0  501    0  0.00000000000E+00  0.00000000000E+00  0.11069894528E+04  0.11069894528E+04  0.50400001928E-02 0. -1.
       -1   -1    0    0    0  501  0.00000000000E+00  0.00000000000E+00 -0.44048152820E+03  0.44048152823E+03  0.50400001928E-02 0.  1.
    10030    2    1    2    0    0  0.00000000000E+00  0.00000000000E+00  0.66650792457E+03  0.15474709810E+04  0.13965792579E+04 0.  0.
        4    1    3    3  502    0  0.56936733409E+03 -0.21947516076E+03  0.70943162516E+03  0.93575816907E+03  0.12699999809E+01 0. -1.
       -4    1    3    3    0  502 -0.56936733409E+03  0.21947516076E+03 -0.42923700588E+02  0.61171281194E+03  0.12699999809E+01 0.  1.
</event>
<event>
 5   0  0.3917598E-04  0.1399295E+04  0.7818609E-02  0.8954329E-01
        2   -1    0    0  501    0  0.00000000000E+00  0.00000000000E+00  0.12645404402E+04  0.12645404402E+04  0.25500000920E-02 0.  1.
       -2   -1    0    0    0  501  0.00000000000E+00  0.00000000000E+00 -0.38710211574E+03  0.38710211575E+03  0.25500000920E-02 0. -1.
    10030    2    1    2    0    0  0.00000000000E+00  0.00000000000E+00  0.87743832444E+03  0.16516425559E+04  0.13992945077E+04 0.  0.
        3    1    3    3  502    0  0.36681996230E+01 -0.69345896215E+03  0.32921137828E+03  0.76764505448E+03  0.10100000352E+00 0. -1.
       -3    1    3    3    0  502 -0.36681996230E+01  0.69345896215E+03  0.54822694616E+03  0.88399750145E+03  0.10100000352E+00 0.  1.
</event>
<event>
 5   0  0.2223112E-04  0.1402092E+04  0.7818609E-02  0.8952305E-01
       -1   -1    0    0    0  501  0.00000000000E+00  0.00000000000E+00  0.38888682276E+03  0.38888682279E+03  0.50400001928E-02 0. -1.
        1   -1    0    0  501    0  0.00000000000E+00  0.00000000000E+00 -0.12637755773E+04  0.12637755773E+04  0.50400001928E-02 0.  1.
    10030    2    1    2    0    0  0.00000000000E+00  0.00000000000E+00 -0.87488875457E+03  0.16526624001E+04  0.14020922494E+04 0.  0.
        1    1    3    3  502    0  0.33481702056E+03  0.37743507060E+03 -0.10111585614E+04  0.11300448248E+04  0.50400001928E-02 0.  1.
       -1    1    3    3    0  502 -0.33481702056E+03 -0.37743507060E+03  0.13626980681E+03  0.52261757533E+03  0.50400001928E-02 0. -1.
</event>
<event>
 5   0  0.3917598E-04  0.1398718E+04  0.7818609E-02  0.8954747E-01
       -2   -1    0    0    0  501  0.00000000000E+00  0.00000000000E+00  0.29822221006E+03  0.29822221007E+03  0.25500000920E-02 0.  1.
        2   -1    0    0  501    0  0.00000000000E+00  0.00000000000E+00 -0.16400628542E+04  0.16400628542E+04  0.25500000920E-02 0. -1.
    10030    2    1    2    0    0  0.00000000000E+00  0.00000000000E+00 -0.13418406442E+04  0.19382850643E+04  0.13987182261E+04 0.  0.
        3    1    3    3  502    0  0.55997945089E+03 -0.11107038350E+03 -0.11111943962E+03  0.58160223141E+03  0.10100000352E+00 0.  1.
       -3    1    3    3    0  502 -0.55997945089E+03  0.11107038350E+03 -0.12307212045E+04  0.13566828329E+04  0.10100000352E+00 0. -1.
</event>
<event>
 5   0  0.2215876E-04  0.1365444E+04  0.7818609E-02  0.8979219E-01
        1   -1    0    0  501    0  0.00000000000E+00  0.00000000000E+00  0.27688201643E+03  0.27688201647E+03  0.50400001928E-02 0. -1.
       -1   -1    0    0    0  501  0.00000000000E+00  0.00000000000E+00 -0.16834210085E+04  0.16834210085E+04  0.50400001928E-02 0.  1.
    10030    2    1    2    0    0  0.00000000000E+00  0.00000000000E+00 -0.14065389921E+04  0.19603030250E+04  0.13654435227E+04 0.  0.
        3    1    3    3  502    0  0.16076552749E+03 -0.35250195316E+03 -0.15103131060E+04  0.15592141836E+04  0.10100000352E+00 0.  1.
       -3    1    3    3    0  502 -0.16076552749E+03  0.35250195316E+03  0.10377411392E+03  0.40108884145E+03  0.10100000352E+00 0. -1.
</event>
<event>
 5   0  0.2217251E-04  0.1396744E+04  0.7818609E-02  0.8956179E-01
        1   -1    0    0  501    0  0.00000000000E+00  0.00000000000E+00  0.42168588167E+03  0.42168588170E+03  0.50400001928E-02 0.  1.
       -1   -1    0    0    0  501  0.00000000000E+00  0.00000000000E+00 -0.11566033225E+04  0.11566033225E+04  0.50400001928E-02 0. -1.
    10030    2    1    2    0    0  0.00000000000E+00  0.00000000000E+00 -0.73491744078E+03  0.15782892042E+04  0.13967437729E+04 0.  0.
        5    1    3    3  502    0 -0.23453665656E+02 -0.67724588877E+03 -0.17673291288E+03  0.70033469198E+03  0.46999998093E+01 0.  1.
       -5    1    3    3    0  502  0.23453665656E+02  0.67724588877E+03 -0.55818452790E+03  0.87795451219E+03  0.46999998093E+01 0. -1.
</event>
<event>
 5   0  0.2215876E-04  0.1403892E+04  0.7818609E-02  0.8951006E-01
       -1   -1    0    0    0  501  0.00000000000E+00  0.00000000000E+00  0.37599481718E+03  0.37599481721E+03  0.50400001928E-02 0.  1.
        1   -1    0    0  501    0  0.00000000000E+00  0.00000000000E+00 -0.13104645722E+04  0.13104645722E+04  0.50400001928E-02 0. -1.
    10030    2    1    2    0    0  0.00000000000E+00  0.00000000000E+00 -0.93446975501E+03  0.16864593894E+04  0.14038915731E+04 0.  0.
        3    1    3    3  502    0  0.58118008648E+03  0.36646586770E+03 -0.29456714795E+03  0.74755423881E+03  0.10100000352E+00 0. -1.
       -3    1    3    3    0  502 -0.58118008648E+03 -0.36646586770E+03 -0.63990260706E+03  0.93890515060E+03  0.10100000352E+00 0.  1.
</event>
<event>
 5   0  0.3975164E-04  0.1401880E+04  0.7818609E-02  0.8952458E-01
       -2   -1    0    0    0  501  0.00000000000E+00  0.00000000000E+00  0.13315882500E+04  0.13315882500E+04  0.25500000920E-02 0. -1.
        2   -1    0    0  501    0  0.00000000000E+00  0.00000000000E+00 -0.36897082832E+03  0.36897082833E+03  0.25500000920E-02 0.  1.
    10030    2    1    2    0    0  0.00000000000E+00  0.00000000000E+00  0.96261742170E+03  0.17005590784E+04  0.14018804794E+04 0.  0.
        5    1    3    3  502    0  0.27700646236E+03 -0.25999983030E+03 -0.23322396020E+03  0.44581161667E+03  0.46999998093E+01 0.  1.
       -5    1    3    3    0  502 -0.27700646236E+03  0.25999983030E+03  0.11958413819E+04  0.12547474617E+04  0.46999998093E+01 0. -1.
</event>
<event>
 5   0  0.4310348E-04  0.1400408E+04  0.7818609E-02  0.8953523E-01
        2   -1    0    0  501    0  0.00000000000E+00  0.00000000000E+00  0.10196722978E+04  0.10196722978E+04  0.25500000920E-02 0. -1.
       -2   -1    0    0    0  501  0.00000000000E+00  0.00000000000E+00 -0.48082652276E+03  0.48082652277E+03  0.25500000920E-02 0.  1.
    10030    2    1    2    0    0  0.00000000000E+00  0.00000000000E+00  0.53884577502E+03  0.15004988206E+04  0.14004077768E+04 0.  0.
        1    1    3    3  502    0 -0.29577988925E+03 -0.55448595391E+03  0.60027222091E+03  0.86906107679E+03  0.50400001928E-02 0. -1.
       -1    1    3    3    0  502  0.29577988925E+03  0.55448595391E+03 -0.61426445890E+02  0.63143774376E+03  0.50400001928E-02 0.  1.
</event>
<event>
 5   0  0.4310348E-04  0.1397720E+04  0.7818609E-02  0.8955471E-01
        2   -1    0    0  501    0  0.00000000000E+00  0.00000000000E+00  0.15366828039E+04  0.15366828039E+04  0.25500000920E-02 0. -1.
       -2   -1    0    0    0  501  0.00000000000E+00  0.00000000000E+00 -0.31783076668E+03  0.31783076669E+03  0.25500000920E-02 0.  1.
    10030    2    1    2    0    0  0.00000000000E+00  0.00000000000E+00  0.12188520372E+04  0.18545135706E+04  0.13977196768E+04 0.  0.
        1    1    3    3  502    0 -0.54805909955E+03 -0.39637124964E+03  0.84275716885E+03  0.10806102858E+04  0.50400001928E-02 0. -1.
       -1    1    3    3    0  502  0.54805909955E+03  0.39637124964E+03  0.37609486836E+03  0.77390328476E+03  0.50400001928E-02 0.  1.
</event>
<event>
 5   0  0.2155352E-04  0.1393206E+04  0.7818609E-02  0.8958751E-01
       -1   -1    0    0    0  501  0.00000000000E+00  0.00000000000E+00  0.71570944299E+03  0.71570944301E+03  0.50400001928E-02 0.  1.
        1   -1    0    0  501    0  0.00000000000E+00  0.00000000000E+00 -0.67800628478E+03  0.67800628480E+03  0.50400001928E-02 0. -1.
    10030    2    1    2    0    0  0.00000000000E+00  0.00000000000E+00  0.37703158210E+02  0.13937157278E+04  0.13932056567E+04 0.  0.
        2    1    3    3  502    0 -0.24580464109E+03  0.18328424938E+03  0.64457435588E+03  0.71378507824E+03  0.25500000920E-02 0.  1.
       -2    1    3    3    0  502  0.24580464109E+03 -0.18328424938E+03 -0.60687119767E+03  0.67993064957E+03  0.25500000920E-02 0. -1.
</event>
<event>
 5   0  0.2155352E-04  0.1459460E+04  0.7818609E-02  0.8911868E-01
        1   -1    0    0  501    0  0.00000000000E+00  0.00000000000E+00  0.83638504750E+03  0.83638504752E+03  0.50400001928E-02 0. -1.
       -1   -1    0    0    0  501  0.00000000000E+00  0.00000000000E+00 -0.63667529258E+03  0.63667529260E+03  0.50400001928E-02 0.  1.
    10030    2    1    2    0    0  0.00000000000E+00  0.00000000000E+00  0.19970975492E+03  0.14730603401E+04  0.14594597560E+04 0.  0.
        2    1    3    3  502    0 -0.46549049741E+03  0.15290733074E+03 -0.44596519569E+03  0.66253076211E+03  0.25500000920E-02 0.  1.
       -2    1    3    3    0  502  0.46549049741E+03 -0.15290733074E+03  0.64567495061E+03  0.81052957800E+03  0.25500000920E-02 0. -1.
</event>
<event>
 5   0  0.3932568E-04  0.1402403E+04  0.7818609E-02  0.8952081E-01
       -2   -1    0    0    0  501  0.00000000000E+00  0.00000000000E+00  0.31974719965E+03  0.31974719966E+03  0.25500000920E-02 0.  1.
        2   -1    0    0  501    0  0.00000000000E+00  0.00000000000E+00 -0.15377262860E+04  0.15377262860E+04  0.25500000920E-02 0. -1.
    10030    2    1    2    0    0  0.00000000000E+00  0.00000000000E+00 -0.12179790863E+04  0.18574734856E+04  0.14024031857E+04 0.  0.
        2    1    3    3  502    0 -0.28638839705E+03 -0.16754984811E+03  0.20919184584E+03  0.39224035226E+03  0.25500000920E-02 0.  1.
       -2    1    3    3    0  502  0.28638839705E+03  0.16754984811E+03 -0.14271709321E+04  0.14652331334E+04  0.25500000920E-02 0. -1.
</event>
<event>
 5   0  0.2217251E-04  0.1401826E+04  0.7818609E-02  0.8952498E-01
       -1   -1    0    0    0  501  0.00000000000E+00  0.00000000000E+00  0.10989640581E+04  0.10989640581E+04  0.50400001928E-02 0.  1.
        1   -1    0    0  501    0  0.00000000000E+00  0.00000000000E+00 -0.44703838126E+03  0.44703838129E+03  0.50400001928E-02 0. -1.
    10030    2    1    2    0    0  0.00000000000E+00  0.00000000000E+00  0.65192567680E+03  0.15460024393E+04  0.14018261142E+04 0.  0.
        5    1    3    3  502    0  0.30047866683E+03  0.58397596706E+03  0.55952478777E+02  0.65914196437E+03  0.46999998093E+01 0.  1.
       -5    1    3    3    0  502 -0.30047866683E+03 -0.58397596706E+03  0.59597319802E+03  0.88686047498E+03  0.46999998093E+01 0. -1.
</event>
<event>
 5   0  0.2143942E-04  0.1399544E+04  0.7818609E-02  0.8954149E-01
        1   -1    0    0  501    0  0.00000000000E+00  0.00000000000E+00  0.94369040357E+03  0.94369040358E+03  0.50400001928E-02 0. -1.
       -1   -1    0    0    0  501  0.00000000000E+00  0.00000000000E+00 -0.51889958162E+03  0.51889958164E+03  0.50400001928E-02 0.  1.
    10030    2    1    2    0    0  0.00000000000E+00  0.00000000000E+00  0.42479082195E+03  0.14625899852E+04  0.13995435765E+04 0.  0.
        4    1    3    3  502    0 -0.21572432213E+03 -0.63629024659E+03  0.79377867247E+01  0.67191285330E+03  0.12699999809E+01 0.  1.
       -4    1    3    3    0  502  0.21572432213E+03  0.63629024659E+03  0.41685303523E+03  0.79067713193E+03  0.12699999809E+01 0. -1.
</event>
<event>
 5   0  0.2215876E-04  0.1399468E+04  0.7818609E-02  0.8954204E-01
        1   -1    0    0  501    0  0.00000000000E+00  0.00000000000E+00  0.46175219351E+03  0.46175219354E+03  0.50400001928E-02 0.  1.
       -1   -1    0    0    0  501  0.00000000000E+00  0.00000000000E+00 -0.10603689652E+04  0.10603689652E+04  0.50400001928E-02 0. -1.
    10030    2    1    2    0    0  0.00000000000E+00  0.00000000000E+00 -0.59861677166E+03  0.15221211587E+04  0.13994680355E+04 0.  0.
        3    1    3    3  502    0 -0.10392278664E+03  0.60363062250E+03  0.68658687266E+02  0.61634722319E+03  0.10100000352E+00 0.  1.
       -3    1    3    3    0  502  0.10392278664E+03 -0.60363062250E+03 -0.66727545892E+03  0.90577393553E+03  0.10100000352E+00 0. -1.
</event>
<event>
 5   0  0.2217251E-04  0.1400566E+04  0.7818609E-02  0.8953409E-01
        1   -1    0    0  501    0  0.00000000000E+00  0.00000000000E+00  0.42667636435E+03  0.42667636438E+03  0.50400001928E-02 0.  1.
       -1   -1    0    0    0  501  0.00000000000E+00  0.00000000000E+00 -0.11493398827E+04  0.11493398827E+04  0.50400001928E-02 0. -1.
    10030    2    1    2    0    0  0.00000000000E+00  0.00000000000E+00 -0.72266351836E+03  0.15760162471E+04  0.14005658322E+04 0.  0.
        5    1    3    3  502    0  0.19524454983E+03 -0.28386069168E+03  0.32469310777E+03  0.47343957456E+03  0.46999998093E+01 0.  1.
       -5    1    3    3    0  502 -0.19524454983E+03  0.28386069168E+03 -0.10473566261E+04  0.11025766725E+04  0.46999998093E+01 0. -1.
</event>
<event>
 5   0  0.3932568E-04  0.1455765E+04  0.7818609E-02  0.8914414E-01
        2   -1    0    0  501    0  0.00000000000E+00  0.00000000000E+00  0.22799235207E+04  0.22799235207E+04  0.25500000920E-02 0. -1.
       -2   -1    0    0    0  501  0.00000000000E+00  0.00000000000E+00 -0.23238186236E+03  0.23238186237E+03  0.25500000920E-02 0.  1.
    10030    2    1    2    0    0  0.00000000000E+00  0.00000000000E+00  0.20475416584E+04  0.25123053831E+04  0.14557649176E+04 0.  0.
        2    1    3    3  502    0 -0.50634625329E+03 -0.33746341777E+02  0.19242943402E+04  0.19900839308E+04  0.25500000920E-02 0. -1.
       -2    1    3    3    0  502  0.50634625329E+03  0.33746341777E+02  0.12324731814E+03  0.52222145230E+03  0.25500000920E-02 0.  1.
</event>
<event>
 5   0  0.3932568E-04  0.1404008E+04  0.7818609E-02  0.8950922E-01
        2   -1    0    0  501    0  0.00000000000E+00  0.00000000000E+00  0.37183044674E+03  0.37183044675E+03  0.25500000920E-02 0.  1.
       -2   -1    0    0    0  501  0.00000000000E+00  0.00000000000E+00 -0.13253618854E+04  0.13253618854E+04  0.25500000920E-02 0. -1.
    10030    2    1    2    0    0  0.00000000000E+00  0.00000000000E+00 -0.95353143866E+03  0.16971923322E+04  0.14040084073E+04 0.  0.
        2    1    3    3  502    0 -0.22828571545E+03 -0.64599183132E+03 -0.29189110548E+03  0.74472829373E+03  0.25500000920E-02 0.  1.
       -2    1    3    3    0  502  0.22828571545E+03  0.64599183132E+03 -0.66164033318E+03  0.95246403843E+03  0.25500000920E-02 0. -1.
</event>
<event>
 5   0  0.2143942E-04  0.1400899E+04  0.7818609E-02  0.8953168E-01
        1   -1    0    0  501    0  0.00000000000E+00  0.00000000000E+00  0.79774692562E+03  0.79774692564E+03  0.50400001928E-02 0.  1.
       -1   -1    0    0    0  501  0.00000000000E+00  0.00000000000E+00 -0.61501934025E+03  0.61501934027E+03  0.50400001928E-02 0. -1.
    10030    2    1    2    0    0  0.00000000000E+00  0.00000000000E+00  0.18272758538E+03  0.14127662659E+04  0.14008994081E+04 0.  0.
        4    1    3    3  502    0  0.68007342955E+03  0.10391678792E+03 -0.41393294988E+02  0.68921229397E+03  0.12699999809E+01 0. -1.
       -4    1    3    3    0  502 -0.68007342955E+03 -0.10391678792E+03  0.22412088037E+03  0.72355397194E+03  0.12699999809E+01 0.  1.
</event>
<event>
 5   0  0.2223112E-04  0.1400348E+04  0.7818609E-02  0.8953567E-01
       -1   -1    0    0    0  501  0.00000000000E+00  0.00000000000E+00  0.14482803585E+04  0.14482803585E+04  0.50400001928E-02 0.  1.
        1   -1    0    0  501    0  0.00000000000E+00  0.00000000000E+00 -0.33850034530E+03  0.33850034534E+03  0.50400001928E-02 0. -1.
    10030    2    1    2    0    0  0.00000000000E+00  0.00000000000E+00  0.11097800132E+04  0.17867807038E+04  0.14003476732E+04 0.  0.
        1    1    3    3  502    0  0.45290332657E+03  0.52654393201E+03  0.66810875635E+03  0.96371118385E+03  0.50400001928E-02 0.  1.
       -1    1    3    3    0  502 -0.45290332657E+03 -0.52654393201E+03  0.44167125682E+03  0.82306951995E+03  0.50400001928E-02 0. -1.
</event>
<event>
 5   0  0.2223112E-04  0.1397484E+04  0.7818609E-02  0.8955642E-01
        1   -1    0    0  501    0  0.00000000000E+00  0.00000000000E+00  0.10173160270E+04  0.10173160270E+04  0.50400001928E-02 0.  1.
       -1   -1    0    0    0  501  0.00000000000E+00  0.00000000000E+00 -0.47992964664E+03  0.47992964667E+03  0.50400001928E-02 0. -1.
    10030    2    1    2    0    0  0.00000000000E+00  0.00000000000E+00  0.53738638038E+03  0.14972456737E+04  0.13974836262E+04 0.  0.
        1    1    3    3  502    0 -0.16787521812E+03  0.64808069256E+02 -0.45467782621E+03  0.48899294511E+03  0.50400001928E-02 0. -1.
       -1    1    3    3    0  502  0.16787521812E+03 -0.64808069256E+02  0.99206420659E+03  0.10082527286E+04  0.50400001928E-02 0.  1.
</event>
<event>
 5   0  0.2217251E-04  0.1399504E+04  0.7818609E-02  0.8954178E-01
        1   -1    0    0  501    0  0.00000000000E+00  0.00000000000E+00  0.48918554374E+03  0.48918554377E+03  0.50400001928E-02 0.  1.
       -1   -1    0    0    0  501  0.00000000000E+00  0.00000000000E+00 -0.10009550001E+04  0.10009550001E+04  0.50400001928E-02 0. -1.
    10030    2    1    2    0    0  0.00000000000E+00  0.00000000000E+00 -0.51176945634E+03  0.14901405439E+04  0.13995037921E+04 0.  0.
        5    1    3    3  502    0 -0.88130382768E+02  0.66978518961E+03 -0.45004417250E+03  0.81175181662E+03  0.46999998093E+01 0. -1.
       -5    1    3    3    0  502  0.88130382768E+02 -0.66978518961E+03 -0.61725283839E+02  0.67838872724E+03  0.46999998093E+01 0.  1.
</event>
<event>
 5   0  0.4310348E-04  0.1355258E+04  0.7818609E-02  0.8986857E-01
        2   -1    0    0  501    0  0.00000000000E+00  0.00000000000E+00  0.73168007134E+03  0.73168007134E+03  0.25500000920E-02 0.  1.
       -2   -1    0    0    0  501  0.00000000000E+00  0.00000000000E+00 -0.62757076294E+03  0.62757076295E+03  0.25500000920E-02 0. -1.
    10030    2    1    2    0    0  0.00000000000E+00  0.00000000000E+00  0.10410930840E+03  0.13592508343E+04  0.13552579394E+04 0.  0.
        1    1    3    3  502    0 -0.55295961669E+03  0.20856539524E+03 -0.28045969780E+03  0.65415709420E+03  0.50400001928E-02 0. -1.
       -1    1    3    3    0  502  0.55295961669E+03 -0.20856539524E+03  0.38456900619E+03  0.70509374010E+03  0.50400001928E-02 0.  1.
</event>
<event>
 5   0  0.3917598E-04  0.1393087E+04  0.7818609E-02  0.8958838E-01
       -2   -1    0    0    0  501  0.00000000000E+00  0.00000000000E+00  0.58455725838E+03  0.58455725839E+03  0.25500000920E-02 0. -1.
        2   -1    0    0  501    0  0.00000000000E+00  0.00000000000E+00 -0.82998329923E+03  0.82998329924E+03  0.25500000920E-02 0.  1.
    10030    2    1    2    0    0  0.00000000000E+00  0.00000000000E+00 -0.24542604085E+03  0.14145405576E+04  0.13930868773E+04 0.  0.
        3    1    3    3  502    0 -0.25070564178E+03  0.54432109557E+03 -0.48319289603E+03  0.76981436650E+03  0.10100000352E+00 0.  1.
       -3    1    3    3    0  502  0.25070564178E+03 -0.54432109557E+03  0.23776685518E+03  0.64472619113E+03  0.10100000352E+00 0. -1.
</event>
<event>
 5   0  0.4310348E-04  0.1403431E+04  0.7818609E-02  0.8951339E-01
       -2   -1    0    0    0  501  0.00000000000E+00  0.00000000000E+00  0.25633188512E+03  0.25633188513E+03  0.25500000920E-02 0.  1.
        2   -1    0    0  501    0  0.00000000000E+00  0.00000000000E+00 -0.19209643347E+04  0.19209643347E+04  0.25500000920E-02 0. -1.
    10030    2    1    2    0    0  0.00000000000E+00  0.00000000000E+00 -0.16646324496E+04  0.21772962198E+04  0.14034306669E+04 0.  0.
        1    1    3    3  502    0  0.72088897818E+02 -0.59084839773E+03 -0.14088602415E+04  0.15294397074E+04  0.50400001928E-02 0. -1.
       -1    1    3    3    0  502 -0.72088897818E+02  0.59084839773E+03 -0.25577220805E+03  0.64785651245E+03  0.50400001928E-02 0.  1.
</event>
<event>
 5   0  0.3917598E-04  0.1402810E+04  0.7818609E-02  0.8951787E-01
       -2   -1    0    0    0  501  0.00000000000E+00  0.00000000000E+00  0.20365587484E+03  0.20365587486E+03  0.25500000920E-02 0. -1.
        2   -1    0    0  501    0  0.00000000000E+00  0.00000000000E+00 -0.24156877275E+04  0.24156877275E+04  0.25500000920E-02 0.  1.
    10030    2    1    2    0    0  0.00000000000E+00  0.00000000000E+00 -0.22120318527E+04  0.26193436024E+04  0.14028100335E+04 0.  0.
        3    1    3    3  502    0 -0.25602537304E+03 -0.61957338322E+03 -0.14911725414E+04  0.16349360010E+04  0.10100000352E+00 0. -1.
       -3    1    3    3    0  502  0.25602537304E+03  0.61957338322E+03 -0.72085931124E+03  0.98440760137E+03  0.10100000352E+00 0.  1.
</event>
<event>
 5   0  0.3975164E-04  0.1397969E+04  0.7818609E-02  0.8955290E-01
        2   -1    0    0  501    0  0.00000000000E+00  0.00000000000E+00  0.85863990449E+03  0.85863990449E+03  0.25500000920E-02 0.  1.
       -2   -1    0    0    0  501  0.00000000000E+00  0.00000000000E+00 -0.56901502469E+03  0.56901502470E+03  0.25500000920E-02 0. -1.
    10030    2    1    2    0    0  0.00000000000E+00  0.00000000000E+00  0.28962487979E+03  0.14276549292E+04  0.13979685354E+04 0.  0.
        5    1    3    3  502    0 -0.69212917170E+03  0.67847310034E+02  0.73246725235E+02  0.69930910229E+03  0.46999998093E+01 0.  1.
       -5    1    3    3    0  502  0.69212917170E+03 -0.67847310034E+02  0.21637815456E+03  0.72834582690E+03  0.46999998093E+01 0. -1.
</event>
<event>
 5   0  0.1497625E-04  0.1412826E+04  0.7818609E-02  0.8944587E-01
        4   -1    0    0  501    0  0.00000000000E+00  0.00000000000E+00  0.10345637868E+04  0.10345645663E+04  0.12699999809E+01 0. -1.
       -4   -1    0    0    0  501  0.00000000000E+00  0.00000000000E+00 -0.48234543404E+03  0.48234710597E+03  0.12699999809E+01 0.  1.
    10030    2    1    2    0    0  0.00000000000E+00  0.00000000000E+00  0.55221835279E+03  0.15169116723E+04  0.14128255067E+04 0.  0.
        5    1    3    3  502    0 -0.13134763032E+03 -0.23504745605E+03  0.97728987183E+03  0.10137145013E+04  0.46999998093E+01 0. -1.
       -5    1    3    3    0  502  0.13134763032E+03  0.23504745605E+03 -0.42507151904E+03  0.50319717099E+03  0.46999998093E+01 0.  1.
</event>
<event>
 5   0  0.2215876E-04  0.1392448E+04  0.7818609E-02  0.8959304E-01
       -1   -1    0    0    0  501  0.00000000000E+00  0.00000000000E+00  0.24741090507E+03  0.24741090512E+03  0.50400001928E-02 0.  1.
        1   -1    0    0  501    0  0.00000000000E+00  0.00000000000E+00 -0.19592005959E+04  0.19592005959E+04  0.50400001928E-02 0. -1.
    10030    2    1    2    0    0  0.00000000000E+00  0.00000000000E+00 -0.17117896909E+04  0.22066115011E+04  0.13924476187E+04 0.  0.
        3    1    3    3  502    0 -0.12082304918E+03  0.44308452422E+03 -0.16851116157E+04  0.17465747257E+04  0.10100000352E+00 0. -1.
       -3    1    3    3    0  502  0.12082304918E+03 -0.44308452422E+03 -0.26678075181E+02  0.46003677540E+03  0.10100000352E+00 0.  1.
</event>
<event>
 5   0  0.4310348E-04  0.1398296E+04  0.7818609E-02  0.8955053E-01
       -2   -1    0    0    0  501  0.00000000000E+00  0.00000000000E+00  0.43407435976E+03  0.43407435977E+03  0.25500000920E-02 0.  1.
        2   -1    0    0  501    0  0.00000000000E+00  0.00000000000E+00 -0.11260922254E+04  0.11260922254E+04  0.25500000920E-02 0. -1.
    10030    2    1    2    0    0  0.00000000000E+00  0.00000000000E+00 -0.69201786568E+03  0.15601665852E+04  0.13982957653E+04 0.  0.
        1    1    3    3  502    0 -0.52740166011E+03 -0.33718427768E+03  0.14254081711E+01  0.62597745967E+03  0.50400001928E-02 0.  1.
       -1    1    3    3    0  502  0.52740166011E+03  0.33718427768E+03 -0.69344327385E+03  0.93418912554E+03  0.50400001928E-02 0. -1.
</event>
<event>
 5   0  0.2215876E-04  0.1393290E+04  0.7818609E-02  0.8958690E-01
       -1   -1    0    0    0  501  0.00000000000E+00  0.00000000000E+00  0.35814175997E+03  0.35814176001E+03  0.50400001928E-02 0. -1.
        1   -1    0    0  501    0  0.00000000000E+00  0.00000000000E+00 -0.13550900547E+04  0.13550900547E+04  0.50400001928E-02 0.  1.
    10030    2    1    2    0    0  0.00000000000E+00  0.00000000000E+00 -0.99694829470E+03  0.17132318147E+04  0.13932901164E+04 0.  0.
        3    1    3    3  502    0  0.67450455005E+03 -0.84604875438E+02 -0.68576567663E+03  0.96560289272E+03  0.10100000352E+00 0. -1.
       -3    1    3    3    0  502 -0.67450455005E+03  0.84604875438E+02 -0.31118261808E+03  0.74762892198E+03  0.10100000352E+00 0.  1.
</event>
<event>
 5   0  0.2155352E-04  0.1390955E+04  0.7818609E-02  0.8960392E-01
        1   -1    0    0  501    0  0.00000000000E+00  0.00000000000E+00  0.14793217160E+04  0.14793217160E+04  0.50400001928E-02 0. -1.
       -1   -1    0    0    0  501  0.00000000000E+00  0.00000000000E+00 -0.32696693562E+03  0.32696693566E+03  0.50400001928E-02 0.  1.
    10030    2    1    2    0    0  0.00000000000E+00  0.00000000000E+00  0.11523547803E+04  0.18062886516E+04  0.13909554821E+04 0.  0.
        2    1    3    3  502    0  0.41740364286E+02  0.31011952529E+03  0.13827431595E+04  0.14177076649E+04  0.25500000920E-02 0. -1.
       -2    1    3    3    0  502 -0.41740364286E+02 -0.31011952529E+03 -0.23038837917E+03  0.38858098671E+03  0.25500000920E-02 0.  1.
</event>
<event>
 5   0  0.2143942E-04  0.1401673E+04  0.7818609E-02  0.8952609E-01
        1   -1    0    0  501    0  0.00000000000E+00  0.00000000000E+00  0.13190324124E+04  0.13190324124E+04  0.50400001928E-02 0.  1.
       -1   -1    0    0    0  501  0.00000000000E+00  0.00000000000E+00 -0.37237263191E+03  0.37237263194E+03  0.50400001928E-02 0. -1.
    10030    2    1    2    0    0  0.00000000000E+00  0.00000000000E+00  0.94665978051E+03  0.16914050444E+04  0.14016726737E+04 0.  0.
        4    1    3    3  502    0  0.36818437489E+03  0.12328743683E+03  0.11773781759E+04  0.12397501796E+04  0.12699999809E+01 0.  1.
       -4    1    3    3    0  502 -0.36818437489E+03 -0.12328743683E+03 -0.23071839535E+03  0.45165486475E+03  0.12699999809E+01 0. -1.
</event>
<event>
 5   0  0.4208622E-04  0.1407043E+04  0.7818609E-02  0.8948736E-01
        2   -1    0    0  501    0  0.00000000000E+00  0.00000000000E+00  0.10382367615E+04  0.10382367615E+04  0.25500000920E-02 0.  1.
       -2   -1    0    0    0  501  0.00000000000E+00  0.00000000000E+00 -0.47671443427E+03  0.47671443428E+03  0.25500000920E-02 0. -1.
    10030    2    1    2    0    0  0.00000000000E+00  0.00000000000E+00  0.56152232719E+03  0.15149511957E+04  0.14070429281E+04 0.  0.
        4    1    3    3  502    0 -0.22462029304E+03  0.18331497058E+03  0.97092142455E+03  0.10132860801E+04  0.12699999809E+01 0.  1.
       -4    1    3    3    0  502  0.22462029304E+03 -0.18331497058E+03 -0.40939909736E+03  0.50166511569E+03  0.12699999809E+01 0. -1.
</event>
<event>
 5   0  0.2217251E-04  0.1401136E+04  0.7818609E-02  0.8952997E-01
        1   -1    0    0  501    0  0.00000000000E+00  0.00000000000E+00  0.37969842863E+03  0.37969842867E+03  0.50400001928E-02 0.  1.
       -1   -1    0    0    0  501  0.00000000000E+00  0.00000000000E+00 -0.12925929054E+04  0.12925929054E+04  0.50400001928E-02 0. -1.
    10030    2    1    2    0    0  0.00000000000E+00  0.00000000000E+00 -0.91289447678E+03  0.16722913341E+04  0.14011359607E+04 0.  0.
        5    1    3    3  502    0 -0.61818137565E+03  0.25990678397E+03 -0.69833468938E+03  0.96819067231E+03  0.46999998093E+01 0. -1.
       -5    1    3    3    0  502  0.61818137565E+03 -0.25990678397E+03 -0.21455978741E+03  0.70410066179E+03  0.46999998093E+01 0.  1.
</event>
<event>
 5   0  0.2217251E-04  0.1410906E+04  0.7818609E-02  0.8945962E-01
        1   -1    0    0  501    0  0.00000000000E+00  0.00000000000E+00  0.84250732344E+03  0.84250732345E+03  0.50400001928E-02 0. -1.
       -1   -1    0    0    0  501  0.00000000000E+00  0.00000000000E+00 -0.59069353596E+03  0.59069353598E+03  0.50400001928E-02 0.  1.
    10030    2    1    2    0    0  0.00000000000E+00  0.00000000000E+00  0.25181378747E+03  0.14332008594E+04  0.14109055673E+04 0.  0.
        5    1    3    3  502    0  0.62487186122E+03 -0.25501989148E+03  0.33443489266E+03  0.75323885682E+03  0.46999998093E+01 0. -1.
       -5    1    3    3    0  502 -0.62487186122E+03  0.25501989148E+03 -0.82621105190E+02  0.67996200262E+03  0.46999998093E+01 0.  1.
</event>
<event>
 5   0  0.2217251E-04  0.1399233E+04  0.7818609E-02  0.8954374E-01
       -1   -1    0    0    0  501  0.00000000000E+00  0.00000000000E+00  0.56163080720E+03  0.56163080723E+03  0.50400001928E-02 0.  1.
        1   -1    0    0  501    0  0.00000000000E+00  0.00000000000E+00 -0.87150348747E+03  0.87150348749E+03  0.50400001928E-02 0. -1.
    10030    2    1    2    0    0  0.00000000000E+00  0.00000000000E+00 -0.30987268027E+03  0.14331342947E+04  0.13992329430E+04 0.  0.
        5    1    3    3  502    0  0.52191330940E+03 -0.46574455921E+03 -0.16659727143E+03  0.71908847704E+03  0.46999998093E+01 0. -1.
       -5    1    3    3    0  502 -0.52191330940E+03  0.46574455921E+03 -0.14327540884E+03  0.71404581767E+03  0.46999998093E+01 0.  1.
</event>
<event>
 5   0  0.3975164E-04  0.1401549E+04  0.7818609E-02  0.8952698E-01
        2   -1    0    0  501    0  0.00000000000E+00  0.00000000000E+00  0.88185401719E+03  0.88185401719E+03  0.25500000920E-02 0.  1.
       -2   -1    0    0    0  501  0.00000000000E+00  0.00000000000E+00 -0.55687759284E+03  0.55687759285E+03  0.25500000920E-02 0. -1.
    10030    2    1    2    0    0  0.00000000000E+00  0.00000000000E+00  0.32497642435E+03  0.14387316100E+04  0.14015487752E+04 0.  0.
        5    1    3    3  502    0 -0.35190925105E+03 -0.57982244103E+03 -0.18333983150E+02  0.67852222442E+03  0.46999998093E+01 0. -1.
       -5    1    3    3    0  502  0.35190925105E+03  0.57982244103E+03  0.34331040750E+03  0.76020938562E+03  0.46999998093E+01 0.  1.
</event>
<event>
 5   0  0.3917598E-04  0.1412493E+04  0.7818609E-02  0.8944825E-01
        2   -1    0    0  501    0  0.00000000000E+00  0.00000000000E+00  0.14293601686E+04  0.14293601686E+04  0.25500000920E-02 0.  1.
       -2   -1    0    0    0  501  0.00000000000E+00  0.00000000000E+00 -0.34895618058E+03  0.34895618059E+03  0.25500000920E-02 0. -1.
    10030    2    1    2    0    0  0.00000000000E+00  0.00000000000E+00  0.10804039880E+04  0.17783163491E+04  0.14124929240E+04 0.  0.
        3    1    3    3  502    0  0.55039434445E+03 -0.40188223809E+02 -0.14661964263E+02  0.55205435524E+03  0.10100000352E+00 0. -1.
       -3    1    3    3    0  502 -0.55039434445E+03  0.40188223809E+02  0.10950659522E+04  0.12262619939E+04  0.10100000352E+00 0.  1.
</event>
<event>
 5   0  0.2155352E-04  0.1400505E+04  0.7818609E-02  0.8953453E-01
       -1   -1    0    0    0  501  0.00000000000E+00  0.00000000000E+00  0.28267053895E+03  0.28267053899E+03  0.50400001928E-02 0.  1.
        1   -1    0    0  501    0  0.00000000000E+00  0.00000000000E+00 -0.17347176349E+04  0.17347176349E+04  0.50400001928E-02 0. -1.
    10030    2    1    2    0    0  0.00000000000E+00  0.00000000000E+00 -0.14520470960E+04  0.20173881739E+04  0.14005050073E+04 0.  0.
        2    1    3    3  502    0 -0.25774382249E+03 -0.35028270562E+03 -0.15166100339E+04  0.15777312340E+04  0.25500000920E-02 0. -1.
       -2    1    3    3    0  502  0.25774382249E+03  0.35028270562E+03  0.64562937873E+02  0.43965693995E+03  0.25500000920E-02 0.  1.
</event>
<event>
 5   0  0.1497625E-04  0.1400014E+04  0.7818609E-02  0.8953809E-01
        4   -1    0    0  501    0  0.00000000000E+00  0.00000000000E+00  0.54131585804E+03  0.54131734784E+03  0.12699999809E+01 0. -1.
       -4   -1    0    0    0  501  0.00000000000E+00  0.00000000000E+00 -0.90521635732E+03  0.90521724821E+03  0.12699999809E+01 0.  1.
    10030    2    1    2    0    0  0.00000000000E+00  0.00000000000E+00 -0.36390049928E+03  0.14465345961E+04  0.14000138443E+04 0.  0.
        5    1    3    3  502    0  0.36245342041E+03 -0.27729676153E+03 -0.73036179243E+03  0.86122959411E+03  0.46999998093E+01 0.  1.
       -5    1    3    3    0  502 -0.36245342041E+03  0.27729676153E+03  0.36646129316E+03  0.58530500194E+03  0.46999998093E+01 0. -1.
</event>
<event>
 5   0  0.4310348E-04  0.1406107E+04  0.7818609E-02  0.8949409E-01
       -2   -1    0    0    0  501  0.00000000000E+00  0.00000000000E+00  0.52385907342E+03  0.52385907343E+03  0.25500000920E-02 0.  1.
        2   -1    0    0  501    0  0.00000000000E+00  0.00000000000E+00 -0.94354492043E+03  0.94354492043E+03  0.25500000920E-02 0. -1.
    10030    2    1    2    0    0  0.00000000000E+00  0.00000000000E+00 -0.41968584701E+03  0.14674039939E+04  0.14061074891E+04 0.  0.
        1    1    3    3  502    0 -0.17657853122E+03 -0.42050580606E+03  0.34853246531E+03  0.57400347561E+03  0.50400001928E-02 0.  1.
       -1    1    3    3    0  502  0.17657853122E+03  0.42050580606E+03 -0.76821831231E+03  0.89340051825E+03  0.50400001928E-02 0. -1.
</event>
<event>
 5   0  0.4310348E-04  0.1403490E+04  0.7818609E-02  0.8951296E-01
       -2   -1    0    0    0  501  0.00000000000E+00  0.00000000000E+00  0.66899646401E+03  0.66899646401E+03  0.25500000920E-02 0.  1.
        2   -1    0    0  501    0  0.00000000000E+00  0.00000000000E+00 -0.73609628471E+03  0.73609628471E+03  0.25500000920E-02 0. -1.
    10030    2    1    2    0    0  0.00000000000E+00  0.00000000000E+00 -0.67099820698E+02  0.14050927487E+04  0.14034896674E+04 0.  0.
        1    1    3    3  502    0  0.44118002285E+03 -0.53049214087E+03  0.94596634980E+02  0.69642677107E+03  0.50400001928E-02 0.  1.
       -1    1    3    3    0  502 -0.44118002285E+03  0.53049214087E+03 -0.16169645568E+03  0.70866597766E+03  0.50400001928E-02 0. -1.
</event>
<event>
 5   0  0.3917598E-04  0.1402197E+04  0.7818609E-02  0.8952230E-01
        2   -1    0    0  501    0  0.00000000000E+00  0.00000000000E+00  0.68912596252E+03  0.68912596252E+03  0.25500000920E-02 0.  1.
       -2   -1    0    0    0  501  0.00000000000E+00  0.00000000000E+00 -0.71327881095E+03  0.71327881095E+03  0.25500000920E-02 0. -1.
    10030    2    1    2    0    0  0.00000000000E+00  0.00000000000E+00 -0.24152848427E+02  0.14024047735E+04  0.14021967724E+04 0.  0.
        3    1    3    3  502    0  0.11987308325E+03 -0.74877777005E+01 -0.70291278253E+03  0.71310028253E+03  0.10100000352E+00 0. -1.
       -3    1    3    3    0  502 -0.11987308325E+03  0.74877777005E+01  0.67875993410E+03  0.68930449095E+03  0.10100000352E+00 0.  1.
</event>
<event>
 5   0  0.2143942E-04  0.1397942E+04  0.7818609E-02  0.8955309E-01
       -1   -1    0    0    0  501  0.00000000000E+00  0.00000000000E+00  0.62748586167E+03  0.62748586169E+03  0.50400001928E-02 0. -1.
        1   -1    0    0  501    0  0.00000000000E+00  0.00000000000E+00 -0.77860016642E+03  0.77860016643E+03  0.50400001928E-02 0.  1.
    10030    2    1    2    0    0  0.00000000000E+00  0.00000000000E+00 -0.15111430475E+03  0.14060860281E+04  0.13979421967E+04 0.  0.
        4    1    3    3  502    0 -0.48262471903E+03 -0.20566897396E+03  0.38901302752E+03  0.65311491696E+03  0.12699999809E+01 0. -1.
       -4    1    3    3    0  502  0.48262471903E+03  0.20566897396E+03 -0.54012733227E+03  0.75297111116E+03  0.12699999809E+01 0.  1.
</event>
<event>
 5   0  0.2143942E-04  0.1350058E+04  0.7818609E-02  0.8990785E-01
        1   -1    0    0  501    0  0.00000000000E+00  0.00000000000E+00  0.63871345989E+03  0.63871345991E+03  0.50400001928E-02 0. -1.
       -1   -1    0    0    0  501  0.00000000000E+00  0.00000000000E+00 -0.71340892258E+03  0.71340892259E+03  0.50400001928E-02 0.  1.
    10030    2    1    2    0    0  0.00000000000E+00  0.00000000000E+00 -0.74695462688E+02  0.13521223825E+04  0.13500576007E+04 0.  0.
        4    1    3    3  502    0  0.40051307266E+03 -0.50557190656E+03 -0.23677181310E+03  0.68707800027E+03  0.12699999809E+01 0.  1.
       -4    1    3    3    0  502 -0.40051307266E+03  0.50557190656E+03  0.16207635042E+03  0.66504438223E+03  0.12699999809E+01 0. -1.
</event>
<event>
 5   0  0.2223112E-04  0.1406595E+04  0.7818609E-02  0.8949058E-01
        1   -1    0    0  501    0  0.00000000000E+00  0.00000000000E+00  0.88966249624E+03  0.88966249626E+03  0.50400001928E-02 0.  1.
       -1   -1    0    0    0  501  0.00000000000E+00  0.00000000000E+00 -0.55597203632E+03  0.55597203635E+03  0.50400001928E-02 0. -1.
    10030    2    1    2    0    0  0.00000000000E+00  0.00000000000E+00  0.33369045992E+03  0.14456345326E+04  0.14065951368E+04 0.  0.
        1    1    3    3  502    0 -0.39771925868E+03  0.32227676742E+03 -0.32881015618E+03  0.60840697101E+03  0.50400001928E-02 0. -1.
       -1    1    3    3    0  502  0.39771925868E+03 -0.32227676742E+03  0.66250061609E+03  0.83722756159E+03  0.50400001928E-02 0.  1.
</event>
<event>
 5   0  0.3975164E-04  0.1415023E+04  0.7818609E-02  0.8943015E-01
       -2   -1    0    0    0  501  0.00000000000E+00  0.00000000000E+00  0.46216091760E+03  0.46216091760E+03  0.25500000920E-02 0.  1.
        2   -1    0    0  501    0  0.00000000000E+00  0.00000000000E+00 -0.10831129112E+04  0.10831129112E+04  0.25500000920E-02 0. -1.
    10030    2    1    2    0    0  0.00000000000E+00  0.00000000000E+00 -0.62095199363E+03  0.15452738288E+04  0.14150229071E+04 0.  0.
        5    1    3    3  502    0  0.54557695912E+03 -0.40116750468E+03 -0.86777140165E+02  0.68274588771E+03  0.46999998093E+01 0.  1.
       -5    1    3    3    0  502 -0.54557695912E+03  0.40116750468E+03 -0.53417485346E+03  0.86252794112E+03  0.46999998093E+01 0. -1.
</event>
<event>
 5   0  0.2223112E-04  0.1401586E+04  0.7818609E-02  0.8952672E-01
       -1   -1    0    0    0  501  0.00000000000E+00  0.00000000000E+00  0.46694394460E+03  0.46694394463E+03  0.50400001928E-02 0. -1.
        1   -1    0    0  501    0  0.00000000000E+00  0.00000000000E+00 -0.10517548904E+04  0.10517548904E+04  0.50400001928E-02 0.  1.
    10030    2    1    2    0    0  0.00000000000E+00  0.00000000000E+00 -0.58481094581E+03  0.15186988351E+04  0.14015856411E+04 0.  0.
        1    1    3    3  502    0  0.13567013912E+03 -0.66689088547E+03 -0.47359217974E+03  0.82911964909E+03  0.50400001928E-02 0.  1.
       -1    1    3    3    0  502 -0.13567013912E+03  0.66689088547E+03 -0.11121876607E+03  0.68957918597E+03  0.50400001928E-02 0. -1.
</event>
<event>
 5   0  0.1497625E-04  0.1394017E+04  0.7818609E-02  0.8958160E-01
       -4   -1    0    0    0  501  0.00000000000E+00  0.00000000000E+00  0.36312726577E+03  0.36312948661E+03  0.12699999809E+01 0. -1.
        4   -1    0    0  501    0  0.00000000000E+00  0.00000000000E+00 -0.13378746144E+04  0.13378752171E+04  0.12699999809E+01 0.  1.
    10030    2    1    2    0    0  0.00000000000E+00  0.00000000000E+00 -0.97474734858E+03  0.17010047038E+04  0.13940174348E+04 0.  0.
        2    1    3    3  502    0 -0.56600692425E+03  0.40091213146E+03 -0.57126553979E+03  0.89857592468E+03  0.25500000920E-02 0. -1.
       -2    1    3    3    0  502  0.56600692425E+03 -0.40091213146E+03 -0.40348180879E+03  0.80242877907E+03  0.25500000920E-02 0.  1.
</event>
<event>
 5   0  0.4310348E-04  0.1398992E+04  0.7818609E-02  0.8954548E-01
       -2   -1    0    0    0  501  0.00000000000E+00  0.00000000000E+00  0.64719741496E+03  0.64719741496E+03  0.25500000920E-02 0.  1.
        2   -1    0    0  501    0  0.00000000000E+00  0.00000000000E+00 -0.75602080196E+03  0.75602080197E+03  0.25500000920E-02 0. -1.
    10030    2    1    2    0    0  0.00000000000E+00  0.00000000000E+00 -0.10882338701E+03  0.14032182169E+04  0.13989920782E+04 0.  0.
        1    1    3    3  502    0  0.35082804693E+03 -0.37055621916E+03  0.42547113120E+03  0.66439289097E+03  0.50400001928E-02 0.  1.
       -1    1    3    3    0  502 -0.35082804693E+03  0.37055621916E+03 -0.53429451820E+03  0.73882532596E+03  0.50400001928E-02 0. -1.
</event>
<event>
 5   0  0.4208622E-04  0.1392273E+04  0.7818609E-02  0.8959431E-01
        2   -1    0    0  501    0  0.00000000000E+00  0.00000000000E+00  0.99391265574E+03  0.99391265574E+03  0.25500000920E-02 0.  1.
       -2   -1    0    0    0  501  0.00000000000E+00  0.00000000000E+00 -0.48757392005E+03  0.48757392006E+03  0.25500000920E-02 0. -1.
    10030    2    1    2    0    0  0.00000000000E+00  0.00000000000E+00  0.50633873569E+03  0.14814865758E+04  0.13922728034E+04 0.  0.
        4    1    3    3  502    0  0.23925358901E+03 -0.63823728461E+03  0.40370973605E+03  0.79219459428E+03  0.12699999809E+01 0. -1.
       -4    1    3    3    0  502 -0.23925358901E+03  0.63823728461E+03  0.10262899964E+03  0.68929198152E+03  0.12699999809E+01 0.  1.
</event>
<event>
 5   0  0.3975164E-04  0.1401759E+04  0.7818609E-02  0.8952546E-01
        2   -1    0    0  501    0  0.00000000000E+00  0.00000000000E+00  0.10306661495E+04  0.10306661495E+04  0.25500000920E-02 0. -1.
       -2   -1    0    0    0  501  0.00000000000E+00  0.00000000000E+00 -0.47661622141E+03  0.47661622141E+03  0.25500000920E-02 0.  1.
    10030    2    1    2    0    0  0.00000000000E+00  0.00000000000E+00  0.55404992810E+03  0.15072823709E+04  0.14017591886E+04 0.  0.
        5    1    3    3  502    0 -0.51125791349E+03 -0.25434244230E+03 -0.15993462865E+03  0.59302268717E+03  0.46999998093E+01 0.  1.
       -5    1    3    3    0  502  0.51125791349E+03  0.25434244230E+03  0.71398455674E+03  0.91425968375E+03  0.46999998093E+01 0. -1.
</event>
<event>
 5   0  0.2143942E-04  0.1390383E+04  0.7818609E-02  0.8960810E-01
       -1   -1    0    0    0  501  0.00000000000E+00  0.00000000000E+00  0.70691401850E+03  0.70691401852E+03  0.50400001928E-02 0. -1.
        1   -1    0    0  501    0  0.00000000000E+00  0.00000000000E+00 -0.68366311374E+03  0.68366311375E+03  0.50400001928E-02 0.  1.
    10030    2    1    2    0    0  0.00000000000E+00  0.00000000000E+00  0.23250904766E+02  0.13905771323E+04  0.13903827373E+04 0.  0.
        4    1    3    3  502    0 -0.42982475741E+03  0.53099941904E+03 -0.11715481603E+03  0.69313531790E+03  0.12699999809E+01 0. -1.
       -4    1    3    3    0  502  0.42982475741E+03 -0.53099941904E+03  0.14040572080E+03  0.69744181437E+03  0.12699999809E+01 0.  1.
</event>
<event>
 5   0  0.4310348E-04  0.1407911E+04  0.7818609E-02  0.8948112E-01
        2   -1    0    0  501    0  0.00000000000E+00  0.00000000000E+00  0.36865651288E+03  0.36865651289E+03  0.25500000920E-02 0. -1.
       -2   -1    0    0    0  501  0.00000000000E+00  0.00000000000E+00 -0.13442142459E+04  0.13442142459E+04  0.25500000920E-02 0.  1.
    10030    2    1    2    0    0  0.00000000000E+00  0.00000000000E+00 -0.97555773299E+03  0.17128707588E+04  0.14079109865E+04 0.  0.
        1    1    3    3  502    0 -0.21279227717E+03 -0.28627198678E+03  0.25057187658E+03  0.43591107923E+03  0.50400001928E-02 0. -1.
       -1    1    3    3    0  502  0.21279227717E+03  0.28627198678E+03 -0.12261296096E+04  0.12769596795E+04  0.50400001928E-02 0.  1.
</event>
<event>
 5   0  0.2143942E-04  0.1400431E+04  0.7818609E-02  0.8953506E-01
       -1   -1    0    0    0  501  0.00000000000E+00  0.00000000000E+00  0.60395638786E+03  0.60395638788E+03  0.50400001928E-02 0.  1.
        1   -1    0    0  501    0  0.00000000000E+00  0.00000000000E+00 -0.81181684229E+03  0.81181684230E+03  0.50400001928E-02 0. -1.
    10030    2    1    2    0    0  0.00000000000E+00  0.00000000000E+00 -0.20786045442E+03  0.14157732302E+04  0.14004313160E+04 0.  0.
        4    1    3    3  502    0 -0.15330598351E+03  0.11697836209E+03  0.57658128397E+03  0.60797553545E+03  0.12699999809E+01 0.  1.
       -4    1    3    3    0  502  0.15330598351E+03 -0.11697836209E+03 -0.78444173840E+03  0.80779769473E+03  0.12699999809E+01 0. -1.
</event>
<event>
 5   0  0.2155352E-04  0.1394523E+04  0.7818609E-02  0.8957793E-01
       -1   -1    0    0    0  501  0.00000000000E+00  0.00000000000E+00  0.64173639744E+03  0.64173639746E+03  0.50400001928E-02 0.  1.
        1   -1    0    0  501    0  0.00000000000E+00  0.00000000000E+00 -0.75759063104E+03  0.75759063106E+03  0.50400001928E-02 0. -1.
    10030    2    1    2    0    0  0.00000000000E+00  0.00000000000E+00 -0.11585423360E+03  0.13993270285E+04  0.13945228321E+04 0.  0.
        2    1    3    3  502    0  0.19042128633E+03 -0.57197069041E+03 -0.40950932502E+03  0.72877199744E+03  0.25500000920E-02 0. -1.
       -2    1    3    3    0  502 -0.19042128633E+03  0.57197069041E+03  0.29365509142E+03  0.67055503107E+03  0.25500000920E-02 0.  1.
</event>
<event>
 5   0  0.2155352E-04  0.1398394E+04  0.7818609E-02  0.8954982E-01
        1   -1    0    0  501    0  0.00000000000E+00  0.00000000000E+00  0.14578307263E+04  0.14578307263E+04  0.50400001928E-02 0.  1.
       -1   -1    0    0    0  501  0.00000000000E+00  0.00000000000E+00 -0.33534524303E+03  0.33534524307E+03  0.50400001928E-02 0. -1.
    10030    2    1    2    0    0  0.00000000000E+00  0.00000000000E+00  0.11224854833E+04  0.17931759694E+04  0.13983942209E+04 0.  0.
        2    1    3    3  502    0  0.39623359462E+03  0.50640406824E+03  0.91342434017E+03  0.11170452842E+04  0.25500000920E-02 0.  1.
       -2    1    3    3    0  502 -0.39623359462E+03 -0.50640406824E+03  0.20906114312E+03  0.67613068515E+03  0.25500000920E-02 0. -1.
</event>
<event>
 5   0  0.2223112E-04  0.1401622E+04  0.7818609E-02  0.8952645E-01
       -1   -1    0    0    0  501  0.00000000000E+00  0.00000000000E+00  0.63064545324E+03  0.63064545326E+03  0.50400001928E-02 0. -1.
        1   -1    0    0  501    0  0.00000000000E+00  0.00000000000E+00 -0.77878322032E+03  0.77878322034E+03  0.50400001928E-02 0.  1.
    10030    2    1    2    0    0  0.00000000000E+00  0.00000000000E+00 -0.14813776708E+03  0.14094286736E+04  0.14016220560E+04 0.  0.
        1    1    3    3  502    0 -0.36419664613E+02 -0.36815753982E+03  0.52445185522E+03  0.64180691378E+03  0.50400001928E-02 0. -1.
       -1    1    3    3    0  502  0.36419664613E+02  0.36815753982E+03 -0.67258962230E+03  0.76762175982E+03  0.50400001928E-02 0.  1.
</event>
<event>
 5   0  0.2143942E-04  0.1405460E+04  0.7818609E-02  0.8949876E-01
       -1   -1    0    0    0  501  0.00000000000E+00  0.00000000000E+00  0.59358215350E+03  0.59358215352E+03  0.50400001928E-02 0.  1.
        1   -1    0    0  501    0  0.00000000000E+00  0.00000000000E+00 -0.83194791164E+03  0.83194791165E+03  0.50400001928E-02 0. -1.
    10030    2    1    2    0    0  0.00000000000E+00  0.00000000000E+00 -0.23836575814E+03  0.14255300652E+04  0.14054599717E+04 0.  0.
        4    1    3    3  502    0 -0.17902976905E+03 -0.63640774496E+03 -0.36083145238E+03  0.75317157804E+03  0.12699999809E+01 0. -1.
       -4    1    3    3    0  502  0.17902976905E+03  0.63640774496E+03  0.12246569424E+03  0.67235848713E+03  0.12699999809E+01 0.  1.
</event>
<event>
 5   0  0.4208622E-04  0.1399166E+04  0.7818609E-02  0.8954423E-01
       -2   -1    0    0    0  501  0.00000000000E+00  0.00000000000E+00  0.27354766155E+03  0.27354766156E+03  0.25500000920E-02 0.  1.
        2   -1    0    0  501    0  0.00000000000E+00  0.00000000000E+00 -0.17891440521E+04  0.17891440521E+04  0.25500000920E-02 0. -1.
    10030    2    1    2    0    0  0.00000000000E+00  0.00000000000E+00 -0.15155963906E+04  0.20626917137E+04  0.13991657109E+04 0.  0.
        4    1    3    3  502    0  0.98040211639E+02 -0.42149668848E+02 -0.17770722433E+04  0.17802740936E+04  0.12699999809E+01 0. -1.
       -4    1    3    3    0  502 -0.98040211639E+02  0.42149668848E+02  0.26147585270E+03  0.28241762007E+03  0.12699999809E+01 0.  1.
</event>
<event>
 5   0  0.4208622E-04  0.1406315E+04  0.7818609E-02  0.8949260E-01
        2   -1    0    0  501    0  0.00000000000E+00  0.00000000000E+00  0.16677293044E+04  0.16677293044E+04  0.25500000920E-02 0. -1.
       -2   -1    0    0    0  501  0.00000000000E+00  0.00000000000E+00 -0.29646905492E+03  0.29646905493E+03  0.25500000920E-02 0.  1.
    10030    2    1    2    0    0  0.00000000000E+00  0.00000000000E+00  0.13712602495E+04  0.19641983594E+04  0.14063145178E+04 0.  0.
        4    1    3    3  502    0 -0.31559894355E+03  0.14224668702E+03  0.15404644678E+04  0.15788822637E+04  0.12699999809E+01 0. -1.
       -4    1    3    3    0  502  0.31559894355E+03 -0.14224668702E+03 -0.16920421834E+03  0.38531609562E+03  0.12699999809E+01 0.  1.
</event>
<event>
 5   0  0.2217251E-04  0.1408760E+04  0.7818609E-02  0.8947502E-01
        1   -1    0    0  501    0  0.00000000000E+00  0.00000000000E+00  0.10204360547E+04  0.10204360547E+04  0.50400001928E-02 0.  1.
       -1   -1    0    0    0  501  0.00000000000E+00  0.00000000000E+00 -0.48621478289E+03  0.48621478292E+03  0.50400001928E-02 0. -1.
    10030    2    1    2    0    0  0.00000000000E+00  0.00000000000E+00  0.53422127180E+03  0.15066508376E+04  0.14087598728E+04 0.  0.
        5    1    3    3  502    0 -0.31172228391E+03  0.57286270144E+03  0.55165567029E+03  0.85421807845E+03  0.46999998093E+01 0.  1.
       -5    1    3    3    0  502  0.31172228391E+03 -0.57286270144E+03 -0.17434398487E+02  0.65243275917E+03  0.46999998093E+01 0. -1.
</event>
<event>
 5   0  0.3932568E-04  0.1400160E+04  0.7818609E-02  0.8953703E-01
       -2   -1    0    0    0  501  0.00000000000E+00  0.00000000000E+00  0.32081690092E+03  0.32081690093E+03  0.25500000920E-02 0.  1.
        2   -1    0    0  501    0  0.00000000000E+00  0.00000000000E+00 -0.15277000096E+04  0.15277000096E+04  0.25500000920E-02 0. -1.
    10030    2    1    2    0    0  0.00000000000E+00  0.00000000000E+00 -0.12068831087E+04  0.18485169106E+04  0.14001599661E+04 0.  0.
        2    1    3    3  502    0  0.86398129127E+01 -0.69121611989E+03 -0.74960834277E+03  0.10196896775E+04  0.25500000920E-02 0. -1.
       -2    1    3    3    0  502 -0.86398129127E+01  0.69121611989E+03 -0.45727476595E+03  0.82882723311E+03  0.25500000920E-02 0.  1.
</event>
<event>
 5   0  0.2217251E-04  0.1402514E+04  0.7818609E-02  0.8952001E-01
       -1   -1    0    0    0  501  0.00000000000E+00  0.00000000000E+00  0.48292829727E+03  0.48292829730E+03  0.50400001928E-02 0. -1.
        1   -1    0    0  501    0  0.00000000000E+00  0.00000000000E+00 -0.10182905697E+04  0.10182905697E+04  0.50400001928E-02 0.  1.
    10030    2    1    2    0    0  0.00000000000E+00  0.00000000000E+00 -0.53536227245E+03  0.15012188670E+04  0.14025139300E+04 0.  0.
        5    1    3    3  502    0  0.40304037448E+02  0.11210314493E+02 -0.10169368510E+04  0.10178078087E+04  0.46999998093E+01 0.  1.
       -5    1    3    3    0  502 -0.40304037448E+02 -0.11210314493E+02  0.48157457855E+03  0.48341105830E+03  0.46999998093E+01 0. -1.
</event>
<event>
 5   0  0.4310348E-04  0.1396746E+04  0.7818609E-02  0.8956178E-01
        2   -1    0    0  501    0  0.00000000000E+00  0.00000000000E+00  0.32511218554E+03  0.32511218555E+03  0.25500000920E-02 0. -1.
       -2   -1    0    0    0  501  0.00000000000E+00  0.00000000000E+00 -0.15001732112E+04  0.15001732112E+04  0.25500000920E-02 0.  1.
    10030    2    1    2    0    0  0.00000000000E+00  0.00000000000E+00 -0.11750610256E+04  0.18252853967E+04  0.13967456338E+04 0.  0.
        1    1    3    3  502    0  0.47521546150E+03  0.20704391352E+03  0.24063116219E+02  0.51891805766E+03  0.50400001928E-02 0. -1.
       -1    1    3    3    0  502 -0.47521546150E+03 -0.20704391352E+03 -0.11991241418E+04  0.13063673391E+04  0.50400001928E-02 0.  1.
</event>
<event>
 5   0  0.4208622E-04  0.1398828E+04  0.7818609E-02  0.8954667E-01
       -2   -1    0    0    0  501  0.00000000000E+00  0.00000000000E+00  0.54558024560E+03  0.54558024560E+03  0.25500000920E-02 0.  1.
        2   -1    0    0  501    0  0.00000000000E+00  0.00000000000E+00 -0.89662360458E+03  0.89662360458E+03  0.25500000920E-02 0. -1.
    10030    2    1    2    0    0  0.00000000000E+00  0.00000000000E+00 -0.35104335898E+03  0.14422038502E+04  0.13988282617E+04 0.  0.
        4    1    3    3  502    0 -0.47873062363E+03 -0.48914471853E+03 -0.27067380004E+02  0.68496702229E+03  0.12699999809E+01 0. -1.
       -4    1    3    3    0  502  0.47873062363E+03  0.48914471853E+03 -0.32397597898E+03  0.75723682790E+03  0.12699999809E+01 0.  1.
</event>
<event>
 5   0  0.2217251E-04  0.1400002E+04  0.7818609E-02  0.8953817E-01
       -1   -1    0    0    0  501  0.00000000000E+00  0.00000000000E+00  0.91828427369E+03  0.91828427370E+03  0.50400001928E-02 0.  1.
        1   -1    0    0  501    0  0.00000000000E+00  0.00000000000E+00 -0.53360517945E+03  0.53360517947E+03  0.50400001928E-02 0. -1.
    10030    2    1    2    0    0  0.00000000000E+00  0.00000000000E+00  0.38467909424E+03  0.14518894532E+04  0.14000017781E+04 0.  0.
        5    1    3    3  502    0 -0.31603392870E+03  0.10072234022E+03 -0.44691235447E+03  0.55657450219E+03  0.46999998093E+01 0. -1.
       -5    1    3    3    0  502  0.31603392870E+03 -0.10072234022E+03  0.83159144871E+03  0.89531495099E+03  0.46999998093E+01 0.  1.
</event>
<event>
 5   0  0.4208622E-04  0.1401008E+04  0.7818609E-02  0.8953089E-01
       -2   -1    0    0    0  501  0.00000000000E+00  0.00000000000E+00  0.27317060641E+03  0.27317060642E+03  0.25500000920E-02 0. -1.
        2   -1    0    0  501    0  0.00000000000E+00  0.00000000000E+00 -0.17963348355E+04  0.17963348355E+04  0.25500000920E-02 0.  1.
    10030    2    1    2    0    0  0.00000000000E+00  0.00000000000E+00 -0.15231642291E+04  0.20695054419E+04  0.14010080319E+04 0.  0.
        4    1    3    3  502    0  0.29588033781E+03 -0.25512468371E+03 -0.16204563519E+04  0.16668875727E+04  0.12699999809E+01 0.  1.
       -4    1    3    3    0  502 -0.29588033781E+03  0.25512468371E+03  0.97292122861E+02  0.40261786922E+03  0.12699999809E+01 0. -1.
</event>
<event>
 5   0  0.3975164E-04  0.1399658E+04  0.7818609E-02  0.8954066E-01
        2   -1    0    0  501    0  0.00000000000E+00  0.00000000000E+00  0.51447349025E+03  0.51447349026E+03  0.25500000920E-02 0. -1.
       -2   -1    0    0    0  501  0.00000000000E+00  0.00000000000E+00 -0.95196518495E+03  0.95196518495E+03  0.25500000920E-02 0.  1.
    10030    2    1    2    0    0  0.00000000000E+00  0.00000000000E+00 -0.43749169470E+03  0.14664386752E+04  0.13996583173E+04 0.  0.
        5    1    3    3  502    0  0.34097956567E+03  0.59048965571E+03 -0.38371860308E+03  0.78243667734E+03  0.46999998093E+01 0.  1.
       -5    1    3    3    0  502 -0.34097956567E+03 -0.59048965571E+03 -0.53773091613E+02  0.68400199786E+03  0.46999998093E+01 0. -1.
</event>
<event>
 5   0  0.4310348E-04  0.1397205E+04  0.7818609E-02  0.8955844E-01
        2   -1    0    0  501    0  0.00000000000E+00  0.00000000000E+00  0.13720775525E+04  0.13720775525E+04  0.25500000920E-02 0. -1.
       -2   -1    0    0    0  501  0.00000000000E+00  0.00000000000E+00 -0.35569823772E+03  0.35569823773E+03  0.25500000920E-02 0.  1.
    10030    2    1    2    0    0  0.00000000000E+00  0.00000000000E+00  0.10163793148E+04  0.17277757902E+04  0.13972051638E+04 0.  0.
        1    1    3    3  502    0  0.60720917134E+02  0.10792282714E+01 -0.35242781665E+03  0.35762209171E+03  0.50400001928E-02 0.  1.
       -1    1    3    3    0  502 -0.60720917134E+02 -0.10792282714E+01  0.13688071314E+04  0.13701536985E+04  0.50400001928E-02 0. -1.
</event>
<event>
 5   0  0.2143942E-04  0.1399787E+04  0.7818609E-02  0.8953973E-01
       -1   -1    0    0    0  501  0.00000000000E+00  0.00000000000E+00  0.47391186375E+03  0.47391186378E+03  0.50400001928E-02 0.  1.
        1   -1    0    0  501    0  0.00000000000E+00  0.00000000000E+00 -0.10336325715E+04  0.10336325715E+04  0.50400001928E-02 0. -1.
    10030    2    1    2    0    0  0.00000000000E+00  0.00000000000E+00 -0.55972070777E+03  0.15075444353E+04  0.13997867529E+04 0.  0.
        4    1    3    3  502    0 -0.73806209510E+02  0.40057856302E+03 -0.89283086565E+03  0.98135575062E+03  0.12699999809E+01 0. -1.
       -4    1    3    3    0  502  0.73806209510E+02 -0.40057856302E+03  0.33311015788E+03  0.52618868469E+03  0.12699999809E+01 0.  1.
</event>
<event>
 5   0  0.4310348E-04  0.1398378E+04  0.7818609E-02  0.8954994E-01
       -2   -1    0    0    0  501  0.00000000000E+00  0.00000000000E+00  0.57783340820E+03  0.57783340821E+03  0.25500000920E-02 0.  1.
        2   -1    0    0  501    0  0.00000000000E+00  0.00000000000E+00 -0.84603139319E+03  0.84603139319E+03  0.25500000920E-02 0. -1.
    10030    2    1    2    0    0  0.00000000000E+00  0.00000000000E+00 -0.26819798498E+03  0.14238648014E+04  0.13983779223E+04 0.  0.
        1    1    3    3  502    0  0.48344311348E+03  0.17082123282E+03 -0.61812392118E+03  0.80310293208E+03  0.50400001928E-02 0. -1.
       -1    1    3    3    0  502 -0.48344311348E+03 -0.17082123282E+03  0.34992593620E+03  0.62076186932E+03  0.50400001928E-02 0.  1.
</event>
<event>
 5   0  0.2155352E-04  0.1400641E+04  0.7818609E-02  0.8953354E-01
       -1   -1    0    0    0  501  0.00000000000E+00  0.00000000000E+00  0.30101898310E+03  0.30101898315E+03  0.50400001928E-02 0.  1.
        1   -1    0    0  501    0  0.00000000000E+00  0.00000000000E+00 -0.16292959528E+04  0.16292959528E+04  0.50400001928E-02 0. -1.
    10030    2    1    2    0    0  0.00000000000E+00  0.00000000000E+00 -0.13282769697E+04  0.19303149359E+04  0.14006412973E+04 0.  0.
        2    1    3    3  502    0 -0.57227147505E+03  0.40350830885E+03 -0.64810109212E+03  0.95412191154E+03  0.25500000920E-02 0. -1.
       -2    1    3    3    0  502  0.57227147505E+03 -0.40350830885E+03 -0.68017587757E+03  0.97619302441E+03  0.25500000920E-02 0.  1.
</event>
<event>
 5   0  0.3917598E-04  0.1402324E+04  0.7818609E-02  0.8952138E-01
       -2   -1    0    0    0  501  0.00000000000E+00  0.00000000000E+00  0.30784722401E+03  0.30784722402E+03  0.25500000920E-02 0.  1.
        2   -1    0    0  501    0  0.00000000000E+00  0.00000000000E+00 -0.15969865263E+04  0.15969865263E+04  0.25500000920E-02 0. -1.
    10030    2    1    2    0    0  0.00000000000E+00  0.00000000000E+00 -0.12891393023E+04  0.19048337503E+04  0.14023235987E+04 0.  0.
        3    1    3    3  502    0  0.14316511889E+03  0.66923503850E+03 -0.85171586704E+03  0.10926077596E+04  0.10100000352E+00 0. -1.
       -3    1    3    3    0  502 -0.14316511889E+03 -0.66923503850E+03 -0.43742343522E+03  0.81222599066E+03  0.10100000352E+00 0.  1.
</event>
<event>
 5   0  0.2143942E-04  0.1344830E+04  0.7818609E-02  0.8994751E-01
        1   -1    0    0  501    0  0.00000000000E+00  0.00000000000E+00  0.61108020771E+03  0.61108020773E+03  0.50400001928E-02 0.  1.
       -1   -1    0    0    0  501  0.00000000000E+00  0.00000000000E+00 -0.73990570398E+03  0.73990570400E+03  0.50400001928E-02 0. -1.
    10030    2    1    2    0    0  0.00000000000E+00  0.00000000000E+00 -0.12882549627E+03  0.13509859117E+04  0.13448297012E+04 0.  0.
        4    1    3    3  502    0  0.60882757483E+02 -0.33288700104E+03  0.51929759306E+03  0.61983229077E+03  0.12699999809E+01 0.  1.
       -4    1    3    3    0  502 -0.60882757483E+02  0.33288700104E+03 -0.64812308933E+03  0.73115362096E+03  0.12699999809E+01 0. -1.
</event>
<event>
 5   0  0.2223112E-04  0.1392550E+04  0.7818609E-02  0.8959229E-01
        1   -1    0    0  501    0  0.00000000000E+00  0.00000000000E+00  0.13320403110E+04  0.13320403110E+04  0.50400001928E-02 0. -1.
       -1   -1    0    0    0  501  0.00000000000E+00  0.00000000000E+00 -0.36395223165E+03  0.36395223169E+03  0.50400001928E-02 0.  1.
    10030    2    1    2    0    0  0.00000000000E+00  0.00000000000E+00  0.96808807935E+03  0.16959925427E+04  0.13925502416E+04 0.  0.
        1    1    3    3  502    0 -0.45999328220E+03  0.50870796184E+03  0.63030124977E+03  0.93148122665E+03  0.50400001928E-02 0. -1.
       -1    1    3    3    0  502  0.45999328220E+03 -0.50870796184E+03  0.33778682958E+03  0.76451131605E+03  0.50400001928E-02 0.  1.
</event>
<event>
 5   0  0.3917598E-04  0.1403550E+04  0.7818609E-02  0.8951253E-01
       -2   -1    0    0    0  501  0.00000000000E+00  0.00000000000E+00  0.69785024666E+03  0.69785024666E+03  0.25500000920E-02 0.  1.
        2   -1    0    0  501    0  0.00000000000E+00  0.00000000000E+00 -0.70572140380E+03  0.70572140381E+03  0.25500000920E-02 0. -1.
    10030    2    1    2    0    0  0.00000000000E+00  0.00000000000E+00 -0.78711571415E+01  0.14035716505E+04  0.14035495798E+04 0.  0.
        3    1    3    3  502    0  0.31026231738E+03 -0.34921286673E+03 -0.52765701181E+03  0.70472282792E+03  0.10100000352E+00 0. -1.
       -3    1    3    3    0  502 -0.31026231738E+03  0.34921286673E+03  0.51978585467E+03  0.69884882256E+03  0.10100000352E+00 0.  1.
</event>
<event>
 5   0  0.4208622E-04  0.1397189E+04  0.7818609E-02  0.8955856E-01
        2   -1    0    0  501    0  0.00000000000E+00  0.00000000000E+00  0.12521360886E+04  0.12521360886E+04  0.25500000920E-02 0.  1.
       -2   -1    0    0    0  501  0.00000000000E+00  0.00000000000E+00 -0.38976109879E+03  0.38976109880E+03  0.25500000920E-02 0. -1.
    10030    2    1    2    0    0  0.00000000000E+00  0.00000000000E+00  0.86237498980E+03  0.16418971874E+04  0.13971885166E+04 0.  0.
        4    1    3    3  502    0  0.64856993754E+03  0.25951801945E+03  0.43859728922E+03  0.82484044597E+03  0.12699999809E+01 0.  1.
       -4    1    3    3    0  502 -0.64856993754E+03 -0.25951801945E+03  0.42377770058E+03  0.81705674143E+03  0.12699999809E+01 0. -1.
</event>
<event>
 5   0  0.2217251E-04  0.1401769E+04  0.7818609E-02  0.8952539E-01
        1   -1    0    0  501    0  0.00000000000E+00  0.00000000000E+00  0.56998300375E+03  0.56998300377E+03  0.50400001928E-02 0.  1.
       -1   -1    0    0    0  501  0.00000000000E+00  0.00000000000E+00 -0.86184846047E+03  0.86184846048E+03  0.50400001928E-02 0. -1.
    10030    2    1    2    0    0  0.00000000000E+00  0.00000000000E+00 -0.29186545672E+03  0.14318314643E+04  0.14017688458E+04 0.  0.
        5    1    3    3  502    0 -0.43458525583E+03 -0.36654655130E+03  0.27273085146E+03  0.63057507578E+03  0.46999998093E+01 0.  1.
       -5    1    3    3    0  502  0.43458525583E+03  0.36654655130E+03 -0.56459630818E+03  0.80125638847E+03  0.46999998093E+01 0. -1.
</event>
<event>
 5   0  0.4310348E-04  0.1402112E+04  0.7818609E-02  0.8952292E-01
        2   -1    0    0  501    0  0.00000000000E+00  0.00000000000E+00  0.18488279325E+04  0.18488279325E+04  0.25500000920E-02 0.  1.
       -2   -1    0    0    0  501  0.00000000000E+00  0.00000000000E+00 -0.26583283804E+03  0.26583283806E+03  0.25500000920E-02 0. -1.
    10030    2    1    2    0    0  0.00000000000E+00  0.00000000000E+00  0.15829950944E+04  0.21146607705E+04  0.14021115168E+04 0.  0.
        1    1    3    3  502    0  0.41446590323E+02 -0.11118987098E+03  0.18335714665E+04  0.18374072304E+04  0.50400001928E-02 0.  1.
       -1    1    3    3    0  502 -0.41446590323E+02  0.11118987098E+03 -0.25057637210E+03  0.27725354018E+03  0.50400001928E-02 0. -1.
</event>
<event>
 5   0  0.3917598E-04  0.1394584E+04  0.7818609E-02  0.8957748E-01
        2   -1    0    0  501    0  0.00000000000E+00  0.00000000000E+00  0.77530395376E+03  0.77530395377E+03  0.25500000920E-02 0. -1.
       -2   -1    0    0    0  501  0.00000000000E+00  0.00000000000E+00 -0.62712986025E+03  0.62712986026E+03  0.25500000920E-02 0.  1.
    10030    2    1    2    0    0  0.00000000000E+00  0.00000000000E+00  0.14817409351E+03  0.14024338140E+04  0.13945841820E+04 0.  0.
        3    1    3    3  502    0 -0.26666475435E+03  0.48424334639E+03 -0.35329275622E+03  0.65606210950E+03  0.10100000352E+00 0.  1.
       -3    1    3    3    0  502  0.26666475435E+03 -0.48424334639E+03  0.50146684973E+03  0.74637170452E+03  0.10100000352E+00 0. -1.
</event>
<event>
 5   0  0.2223112E-04  0.1403212E+04  0.7818609E-02  0.8951497E-01
       -1   -1    0    0    0  501  0.00000000000E+00  0.00000000000E+00  0.88852073111E+03  0.88852073113E+03  0.50400001928E-02 0.  1.
        1   -1    0    0  501    0  0.00000000000E+00  0.00000000000E+00 -0.55401149917E+03  0.55401149920E+03  0.50400001928E-02 0. -1.
    10030    2    1    2    0    0  0.00000000000E+00  0.00000000000E+00  0.33450923194E+03  0.14425322303E+04  0.14032116053E+04 0.  0.
        1    1    3    3  502    0  0.34768844566E+01  0.64006179247E+03  0.46263790705E+03  0.78976263521E+03  0.50400001928E-02 0. -1.
       -1    1    3    3    0  502 -0.34768844566E+01 -0.64006179247E+03 -0.12812867511E+03  0.65276959512E+03  0.50400001928E-02 0.  1.
</event>
<event>
 5   0  0.2223112E-04  0.1394484E+04  0.7818609E-02  0.8957821E-01
       -1   -1    0    0    0  501  0.00000000000E+00  0.00000000000E+00  0.55618317712E+03  0.55618317715E+03  0.50400001928E-02 0.  1.
        1   -1    0    0  501    0  0.00000000000E+00  0.00000000000E+00 -0.87407613567E+03  0.87407613568E+03  0.50400001928E-02 0. -1.
    10030    2    1    2    0    0  0.00000000000E+00  0.00000000000E+00 -0.31789295854E+03  0.14302593128E+04  0.13944840511E+04 0.  0.
        1    1    3    3  502    0  0.19651318630E+03 -0.12573888821E+03  0.51496318435E+03  0.56534483429E+03  0.50400001928E-02 0.  1.
       -1    1    3    3    0  502 -0.19651318630E+03  0.12573888821E+03 -0.83285614290E+03  0.86491447854E+03  0.50400001928E-02 0. -1.
</event>
<event>
 5   0  0.2215876E-04  0.1402846E+04  0.7818609E-02  0.8951761E-01
        1   -1    0    0  501    0  0.00000000000E+00  0.00000000000E+00  0.24257831445E+04  0.24257831445E+04  0.50400001928E-02 0.  1.
       -1   -1    0    0    0  501  0.00000000000E+00  0.00000000000E+00 -0.20281884597E+03  0.20281884603E+03  0.50400001928E-02 0. -1.
    10030    2    1    2    0    0  0.00000000000E+00  0.00000000000E+00  0.22229642985E+04  0.26286019906E+04  0.14028464464E+04 0.  0.
        3    1    3    3  502    0  0.11210099808E+03  0.90349716074E+02 -0.17483247675E+03  0.22648644571E+03  0.10100000352E+00 0. -1.
       -3    1    3    3    0  502 -0.11210099808E+03 -0.90349716074E+02  0.23977967753E+04  0.24021155448E+04  0.10100000352E+00 0.  1.
</event>
<event>
 5   0  0.2217251E-04  0.1403849E+04  0.7818609E-02  0.8951037E-01
        1   -1    0    0  501    0  0.00000000000E+00  0.00000000000E+00  0.11478616183E+04  0.11478616183E+04  0.50400001928E-02 0. -1.
       -1   -1    0    0    0  501  0.00000000000E+00  0.00000000000E+00 -0.42923118505E+03  0.42923118508E+03  0.50400001928E-02 0.  1.
    10030    2    1    2    0    0  0.00000000000E+00  0.00000000000E+00  0.71863043323E+03  0.15770928034E+04  0.14038489986E+04 0.  0.
        5    1    3    3  502    0  0.33728651326E+03 -0.39063200774E+03  0.89375485500E+03  0.10320733445E+04  0.46999998093E+01 0. -1.
       -5    1    3    3    0  502 -0.33728651326E+03  0.39063200774E+03 -0.17512442177E+03  0.54501945892E+03  0.46999998093E+01 0.  1.
</event>
<event>
 5   0  0.2217251E-04  0.1379967E+04  0.7818609E-02  0.8968448E-01
        1   -1    0    0  501    0  0.00000000000E+00  0.00000000000E+00  0.12209337967E+04  0.12209337967E+04  0.50400001928E-02 0. -1.
       -1   -1    0    0    0  501  0.00000000000E+00  0.00000000000E+00 -0.38992879833E+03  0.38992879836E+03  0.50400001928E-02 0.  1.
    10030    2    1    2    0    0  0.00000000000E+00  0.00000000000E+00  0.83100499834E+03  0.16108625950E+04  0.13799670260E+04 0.  0.
        5    1    3    3  502    0  0.39929554315E+03 -0.37112799160E+02  0.10709094531E+04  0.11435398714E+04  0.46999998093E+01 0. -1.
       -5    1    3    3    0  502 -0.39929554315E+03  0.37112799160E+02 -0.23990445478E+03  0.46732272367E+03  0.46999998093E+01 0.  1.
</event>
<event>
 5   0  0.4208622E-04  0.1399367E+04  0.7818609E-02  0.8954277E-01
        2   -1    0    0  501    0  0.00000000000E+00  0.00000000000E+00  0.27911327135E+04  0.27911327135E+04  0.25500000920E-02 0. -1.
       -2   -1    0    0    0  501  0.00000000000E+00  0.00000000000E+00 -0.17539713978E+03  0.17539713980E+03  0.25500000920E-02 0.  1.
    10030    2    1    2    0    0  0.00000000000E+00  0.00000000000E+00  0.26157355737E+04  0.29665298533E+04  0.13993665635E+04 0.  0.
        4    1    3    3  502    0 -0.59853442495E+02  0.46994426394E+03  0.21632038363E+03  0.52079378555E+03  0.12699999809E+01 0.  1.
       -4    1    3    3    0  502  0.59853442495E+02 -0.46994426394E+03  0.23994151901E+04  0.24457360678E+04  0.12699999809E+01 0. -1.
</event>
<event>
 5   0  0.4310348E-04  0.1400128E+04  0.7818609E-02  0.8953726E-01
        2   -1    0    0  501    0  0.00000000000E+00  0.00000000000E+00  0.83741255313E+03  0.83741255314E+03  0.25500000920E-02 0.  1.
       -2   -1    0    0    0  501  0.00000000000E+00  0.00000000000E+00 -0.58524273122E+03  0.58524273123E+03  0.25500000920E-02 0. -1.
    10030    2    1    2    0    0  0.00000000000E+00  0.00000000000E+00  0.25216982191E+03  0.14226552844E+04  0.14001280081E+04 0.  0.
        1    1    3    3  502    0  0.27030288320E+03  0.64576698006E+03  0.12945007583E+03  0.71192412753E+03  0.50400001928E-02 0.  1.
       -1    1    3    3    0  502 -0.27030288320E+03 -0.64576698006E+03  0.12271974608E+03  0.71073115684E+03  0.50400001928E-02 0. -1.
</event>
<event>
 5   0  0.2155352E-04  0.1394328E+04  0.7818609E-02  0.8957934E-01
        1   -1    0    0  501    0  0.00000000000E+00  0.00000000000E+00  0.37653605068E+03  0.37653605071E+03  0.50400001928E-02 0. -1.
       -1   -1    0    0    0  501  0.00000000000E+00  0.00000000000E+00 -0.12908135636E+04  0.12908135637E+04  0.50400001928E-02 0.  1.
    10030    2    1    2    0    0  0.00000000000E+00  0.00000000000E+00 -0.91427751296E+03  0.16673496144E+04  0.13943282848E+04 0.  0.
        2    1    3    3  502    0  0.22013769121E+03  0.20143137983E+03  0.29631800068E+03  0.42052296181E+03  0.25500000920E-02 0. -1.
       -2    1    3    3    0  502 -0.22013769121E+03 -0.20143137983E+03 -0.12105955136E+04  0.12468266526E+04  0.25500000920E-02 0.  1.
</event>
<event>
 5   0  0.3975164E-04  0.1394484E+04  0.7818609E-02  0.8957821E-01
        2   -1    0    0  501    0  0.00000000000E+00  0.00000000000E+00  0.17870081852E+04  0.17870081852E+04  0.25500000920E-02 0. -1.
       -2   -1    0    0    0  501  0.00000000000E+00  0.00000000000E+00 -0.27204493561E+03  0.27204493562E+03  0.25500000920E-02 0.  1.
    10030    2    1    2    0    0  0.00000000000E+00  0.00000000000E+00  0.15149632496E+04  0.20590531209E+04  0.13944841723E+04 0.  0.
        5    1    3    3  502    0 -0.58250452121E+03 -0.12711015760E+03  0.12912078219E+04  0.14222194763E+04  0.46999998093E+01 0. -1.
       -5    1    3    3    0  502  0.58250452121E+03  0.12711015760E+03  0.22375542769E+03  0.63683364454E+03  0.46999998093E+01 0.  1.
</event>
<event>
 5   0  0.2155352E-04  0.1397357E+04  0.7818609E-02  0.8955734E-01
        1   -1    0    0  501    0  0.00000000000E+00  0.00000000000E+00  0.67292451450E+03  0.67292451452E+03  0.50400001928E-02 0.  1.
       -1   -1    0    0    0  501  0.00000000000E+00  0.00000000000E+00 -0.72541791944E+03  0.72541791945E+03  0.50400001928E-02 0. -1.
    10030    2    1    2    0    0  0.00000000000E+00  0.00000000000E+00 -0.52493404937E+02  0.13983424340E+04  0.13973567923E+04 0.  0.
        2    1    3    3  502    0 -0.69496984448E+03  0.69785566351E+02 -0.43532892041E+02  0.69982013597E+03  0.25500000920E-02 0. -1.
       -2    1    3    3    0  502  0.69496984448E+03 -0.69785566351E+02 -0.89605128952E+01  0.69852229800E+03  0.25500000920E-02 0.  1.
</event>
<event>
 5   0  0.3932568E-04  0.1389144E+04  0.7818609E-02  0.8961714E-01
       -2   -1    0    0    0  501  0.00000000000E+00  0.00000000000E+00  0.61433469722E+03  0.61433469722E+03  0.25500000920E-02 0. -1.
        2   -1    0    0  501    0  0.00000000000E+00  0.00000000000E+00 -0.78528942348E+03  0.78528942348E+03  0.25500000920E-02 0.  1.
    10030    2    1    2    0    0  0.00000000000E+00  0.00000000000E+00 -0.17095472626E+03  0.13996241207E+04  0.13891443988E+04 0.  0.
        2    1    3    3  502    0  0.45161638344E+03 -0.36339289603E+03 -0.47101113420E+03  0.74690243220E+03  0.25500000920E-02 0.  1.
       -2    1    3    3    0  502 -0.45161638344E+03  0.36339289603E+03  0.30005640795E+03  0.65272168850E+03  0.25500000920E-02 0. -1.
</event>
<event>
 5   0  0.3917598E-04  0.1394254E+04  0.7818609E-02  0.8957988E-01
       -2   -1    0    0    0  501  0.00000000000E+00  0.00000000000E+00  0.66165009652E+03  0.66165009652E+03  0.25500000920E-02 0.  1.
        2   -1    0    0  501    0  0.00000000000E+00  0.00000000000E+00 -0.73450606132E+03  0.73450606132E+03  0.25500000920E-02 0. -1.
    10030    2    1    2    0    0  0.00000000000E+00  0.00000000000E+00 -0.72855964800E+02  0.13961561578E+04  0.13942539315E+04 0.  0.
        3    1    3    3  502    0 -0.51720459969E+03  0.95563338644E+02 -0.49460337532E+03  0.72198715966E+03  0.10100000352E+00 0. -1.
       -3    1    3    3    0  502  0.51720459969E+03 -0.95563338644E+02  0.42174741052E+03  0.67416899819E+03  0.10100000352E+00 0.  1.
</event>
<event>
 5   0  0.4310348E-04  0.1408252E+04  0.7818609E-02  0.8947867E-01
        2   -1    0    0  501    0  0.00000000000E+00  0.00000000000E+00  0.19826373803E+04  0.19826373803E+04  0.25500000920E-02 0. -1.
       -2   -1    0    0    0  501  0.00000000000E+00  0.00000000000E+00 -0.25006770090E+03  0.25006770091E+03  0.25500000920E-02 0.  1.
    10030    2    1    2    0    0  0.00000000000E+00  0.00000000000E+00  0.17325696794E+04  0.22327050812E+04  0.14082522095E+04 0.  0.
        1    1    3    3  502    0  0.56403763508E+03 -0.21763313880E+03  0.29400556381E+03  0.67226624820E+03  0.50400001928E-02 0.  1.
       -1    1    3    3    0  502 -0.56403763508E+03  0.21763313880E+03  0.14385641155E+04  0.15604388330E+04  0.50400001928E-02 0. -1.
</event>
<event>
 5   0  0.4208622E-04  0.1407492E+04  0.7818609E-02  0.8948413E-01
       -2   -1    0    0    0  501  0.00000000000E+00  0.00000000000E+00  0.55469037269E+03  0.55469037270E+03  0.25500000920E-02 0.  1.
        2   -1    0    0  501    0  0.00000000000E+00  0.00000000000E+00 -0.89285591431E+03  0.89285591432E+03  0.25500000920E-02 0. -1.
    10030    2    1    2    0    0  0.00000000000E+00  0.00000000000E+00 -0.33816554162E+03  0.14475462870E+04  0.14074922094E+04 0.  0.
        4    1    3    3  502    0 -0.21630192243E+03  0.23662833914E+03  0.47522568077E+03  0.57325435288E+03  0.12699999809E+01 0.  1.
       -4    1    3    3    0  502  0.21630192243E+03 -0.23662833914E+03 -0.81339122239E+03  0.87429193414E+03  0.12699999809E+01 0. -1.
</event>
<event>
 5   0  0.2217251E-04  0.1400171E+04  0.7818609E-02  0.8953695E-01
       -1   -1    0    0    0  501  0.00000000000E+00  0.00000000000E+00  0.69006901115E+03  0.69006901117E+03  0.50400001928E-02 0. -1.
        1   -1    0    0  501    0  0.00000000000E+00  0.00000000000E+00 -0.71024720063E+03  0.71024720065E+03  0.50400001928E-02 0.  1.
    10030    2    1    2    0    0  0.00000000000E+00  0.00000000000E+00 -0.20178189480E+02  0.14003162118E+04  0.14001708231E+04 0.  0.
        5    1    3    3  502    0 -0.57406357730E+00 -0.22045168736E+03 -0.67461141144E+03  0.70973369827E+03  0.46999998093E+01 0.  1.
       -5    1    3    3    0  502  0.57406357730E+00  0.22045168736E+03  0.65443322196E+03  0.69058251355E+03  0.46999998093E+01 0. -1.
</event>
<event>
 5   0  0.2143942E-04  0.1399152E+04  0.7818609E-02  0.8954432E-01
       -1   -1    0    0    0  501  0.00000000000E+00  0.00000000000E+00  0.71034518390E+03  0.71034518392E+03  0.50400001928E-02 0.  1.
        1   -1    0    0  501    0  0.00000000000E+00  0.00000000000E+00 -0.68897047086E+03  0.68897047088E+03  0.50400001928E-02 0. -1.
    10030    2    1    2    0    0  0.00000000000E+00  0.00000000000E+00  0.21374713044E+02  0.13993156548E+04  0.13991523946E+04 0.  0.
        4    1    3    3  502    0 -0.19869282692E+03  0.26333579455E+03  0.62767154118E+03  0.70908233420E+03  0.12699999809E+01 0.  1.
       -4    1    3    3    0  502  0.19869282692E+03 -0.26333579455E+03 -0.60629682814E+03  0.69023332060E+03  0.12699999809E+01 0. -1.
</event>
<event>
 5   0  0.1497625E-04  0.1401286E+04  0.7818609E-02  0.8952888E-01
       -3   -1    0    0    0  501  0.00000000000E+00  0.00000000000E+00  0.44191111630E+03  0.44191112785E+03  0.10100000352E+00 0.  1.
        3   -1    0    0  501    0  0.00000000000E+00  0.00000000000E+00 -0.11108589740E+04  0.11108589786E+04  0.10100000352E+00 0. -1.
    10030    2    1    2    0    0  0.00000000000E+00  0.00000000000E+00 -0.66894785766E+03  0.15527701064E+04  0.14012864686E+04 0.  0.
        2    1    3    3  502    0 -0.42092485862E+03  0.43423286936E+03  0.57558253630E+02  0.60749392920E+03  0.25500000920E-02 0.  1.
       -2    1    3    3    0  502  0.42092485862E+03 -0.43423286936E+03 -0.72650611129E+03  0.94527617721E+03  0.25500000920E-02 0. -1.
</event>
<event>
 5   0  0.3917598E-04  0.1400822E+04  0.7818609E-02  0.8953224E-01
        2   -1    0    0  501    0  0.00000000000E+00  0.00000000000E+00  0.12940093733E+04  0.12940093733E+04  0.25500000920E-02 0.  1.
       -2   -1    0    0    0  501  0.00000000000E+00  0.00000000000E+00 -0.37911280282E+03  0.37911280283E+03  0.25500000920E-02 0. -1.
    10030    2    1    2    0    0  0.00000000000E+00  0.00000000000E+00  0.91489657048E+03  0.16731221761E+04  0.14008219307E+04 0.  0.
        3    1    3    3  502    0  0.64017440170E+02 -0.16406831528E+03 -0.35223523042E+03  0.39380999540E+03  0.10100000352E+00 0. -1.
       -3    1    3    3    0  502 -0.64017440170E+02  0.16406831528E+03  0.12671318009E+04  0.12793121807E+04  0.10100000352E+00 0.  1.
</event>
<event>
 5   0  0.3932568E-04  0.1400875E+04  0.7818609E-02  0.8953186E-01
        2   -1    0    0  501    0  0.00000000000E+00  0.00000000000E+00  0.29997052593E+03  0.29997052594E+03  0.25500000920E-02 0. -1.
       -2   -1    0    0    0  501  0.00000000000E+00  0.00000000000E+00 -0.16355357395E+04  0.16355357395E+04  0.25500000920E-02 0.  1.
    10030    2    1    2    0    0  0.00000000000E+00  0.00000000000E+00 -0.13355652136E+04  0.19355062655E+04  0.14008747495E+04 0.  0.
        2    1    3    3  502    0 -0.54509004063E+03  0.41471706177E+03 -0.87036683859E+03  0.11075431492E+04  0.25500000920E-02 0.  1.
       -2    1    3    3    0  502  0.54509004063E+03 -0.41471706177E+03 -0.46519837501E+03  0.82796311623E+03  0.25500000920E-02 0. -1.
</event>
<event>
 5   0  0.3975164E-04  0.1407380E+04  0.7818609E-02  0.8948494E-01
       -2   -1    0    0    0  501  0.00000000000E+00  0.00000000000E+00  0.27381846177E+03  0.27381846179E+03  0.25500000920E-02 0. -1.
        2   -1    0    0  501    0  0.00000000000E+00  0.00000000000E+00 -0.18084222494E+04  0.18084222494E+04  0.25500000920E-02 0.  1.
    10030    2    1    2    0    0  0.00000000000E+00  0.00000000000E+00 -0.15346037876E+04  0.20822407111E+04  0.14073796909E+04 0.  0.
        5    1    3    3  502    0  0.93882883476E+02  0.48641809288E+03 -0.15066762111E+04  0.15860365229E+04  0.46999998093E+01 0.  1.
       -5    1    3    3    0  502 -0.93882883476E+02 -0.48641809288E+03 -0.27927576464E+02  0.49620418823E+03  0.46999998093E+01 0. -1.
</event>
<event>
 5   0  0.2143942E-04  0.1401741E+04  0.7818609E-02  0.8952559E-01
       -1   -1    0    0    0  501  0.00000000000E+00  0.00000000000E+00  0.28214462568E+03  0.28214462572E+03  0.50400001928E-02 0. -1.
        1   -1    0    0  501    0  0.00000000000E+00  0.00000000000E+00 -0.17410211374E+04  0.17410211374E+04  0.50400001928E-02 0.  1.
    10030    2    1    2    0    0  0.00000000000E+00  0.00000000000E+00 -0.14588765118E+04  0.20231657632E+04  0.14017414272E+04 0.  0.
        4    1    3    3  502    0  0.44807599526E+03  0.28540658612E+03 -0.13892581483E+04  0.14873697700E+04  0.12699999809E+01 0.  1.
       -4    1    3    3    0  502 -0.44807599526E+03 -0.28540658612E+03 -0.69618363412E+02  0.53579599322E+03  0.12699999809E+01 0. -1.
</event>
<event>
 5   0  0.2223112E-04  0.1399199E+04  0.7818609E-02  0.8954399E-01
        1   -1    0    0  501    0  0.00000000000E+00  0.00000000000E+00  0.54205573798E+03  0.54205573801E+03  0.50400001928E-02 0.  1.
       -1   -1    0    0    0  501  0.00000000000E+00  0.00000000000E+00 -0.90293133514E+03  0.90293133516E+03  0.50400001928E-02 0. -1.
    10030    2    1    2    0    0  0.00000000000E+00  0.00000000000E+00 -0.36087559716E+03  0.14449870732E+04  0.13991985009E+04 0.  0.
        1    1    3    3  502    0  0.12672261173E+03  0.50619592884E+03  0.30080109554E+03  0.60230742799E+03  0.50400001928E-02 0. -1.
       -1    1    3    3    0  502 -0.12672261173E+03 -0.50619592884E+03 -0.66167669271E+03  0.84267964518E+03  0.50400001928E-02 0.  1.
</event>
<event>
 5   0  0.3932568E-04  0.1400991E+04  0.7818609E-02  0.8953101E-01
       -2   -1    0    0    0  501  0.00000000000E+00  0.00000000000E+00  0.38816005853E+03  0.38816005854E+03  0.25500000920E-02 0.  1.
        2   -1    0    0  501    0  0.00000000000E+00  0.00000000000E+00 -0.12641536975E+04  0.12641536975E+04  0.25500000920E-02 0. -1.
    10030    2    1    2    0    0  0.00000000000E+00  0.00000000000E+00 -0.87599363894E+03  0.16523137560E+04  0.14009910395E+04 0.  0.
        2    1    3    3  502    0  0.14979145684E+03 -0.74136748329E+02 -0.12402938364E+04  0.12515041106E+04  0.25500000920E-02 0. -1.
       -2    1    3    3    0  502 -0.14979145684E+03  0.74136748329E+02  0.36430019750E+03  0.40080964547E+03  0.25500000920E-02 0.  1.
</event>
<event>
 5   0  0.1497625E-04  0.1399653E+04  0.7818609E-02  0.8954070E-01
        3   -1    0    0  501    0  0.00000000000E+00  0.00000000000E+00  0.10076274454E+04  0.10076274505E+04  0.10100000352E+00 0.  1.
       -3   -1    0    0    0  501  0.00000000000E+00  0.00000000000E+00 -0.48604992079E+03  0.48604993129E+03  0.10100000352E+00 0. -1.
    10030    2    1    2    0    0  0.00000000000E+00  0.00000000000E+00  0.52157752463E+03  0.14936773818E+04  0.13996531737E+04 0.  0.
        3    1    3    3  502    0  0.83571387031E+02 -0.16057001574E+02  0.10020851566E+04  0.10056921375E+04  0.10100000352E+00 0.  1.
       -3    1    3    3    0  502 -0.83571387031E+02  0.16057001574E+02 -0.48050763201E+03  0.48798524430E+03  0.10100000352E+00 0. -1.
</event>
<event>
 5   0  0.2143942E-04  0.1373918E+04  0.7818609E-02  0.8972917E-01
       -1   -1    0    0    0  501  0.00000000000E+00  0.00000000000E+00  0.82798835886E+03  0.82798835887E+03  0.50400001928E-02 0.  1.
        1   -1    0    0  501    0  0.00000000000E+00  0.00000000000E+00 -0.56995090269E+03  0.56995090271E+03  0.50400001928E-02 0. -1.
    10030    2    1    2    0    0  0.00000000000E+00  0.00000000000E+00  0.25803745617E+03  0.13979392616E+04  0.13739180654E+04 0.  0.
        4    1    3    3  502    0  0.16589240369E+03 -0.26845070644E+03 -0.49183398591E+03  0.58437004884E+03  0.12699999809E+01 0. -1.
       -4    1    3    3    0  502 -0.16589240369E+03  0.26845070644E+03  0.74987144208E+03  0.81356921275E+03  0.12699999809E+01 0.  1.
</event>
<event>
 5   0  0.4208622E-04  0.1398627E+04  0.7818609E-02  0.8954813E-01
        2   -1    0    0  501    0  0.00000000000E+00  0.00000000000E+00  0.16263691339E+04  0.16263691339E+04  0.25500000920E-02 0.  1.
       -2   -1    0    0    0  501  0.00000000000E+00  0.00000000000E+00 -0.30069399443E+03  0.30069399444E+03  0.25500000920E-02 0. -1.
    10030    2    1    2    0    0  0.00000000000E+00  0.00000000000E+00  0.13256751394E+04  0.19270631283E+04  0.13986270858E+04 0.  0.
        4    1    3    3  502    0  0.19048853972E+01 -0.18473239125E+03  0.15921374008E+04  0.16028202647E+04  0.12699999809E+01 0.  1.
       -4    1    3    3    0  502 -0.19048853972E+01  0.18473239125E+03 -0.26646226138E+03  0.32424286361E+03  0.12699999809E+01 0. -1.
</event>
<event>
 5   0  0.2217251E-04  0.1399076E+04  0.7818609E-02  0.8954488E-01
       -1   -1    0    0    0  501  0.00000000000E+00  0.00000000000E+00  0.32638148767E+03  0.32638148771E+03  0.50400001928E-02 0.  1.
        1   -1    0    0  501    0  0.00000000000E+00  0.00000000000E+00 -0.14993299151E+04  0.14993299151E+04  0.50400001928E-02 0. -1.
    10030    2    1    2    0    0  0.00000000000E+00  0.00000000000E+00 -0.11729484275E+04  0.18257114029E+04  0.13990761641E+04 0.  0.
        5    1    3    3  502    0  0.43317295556E+03  0.44654800350E+03 -0.16912262368E+03  0.64472356921E+03  0.46999998093E+01 0.  1.
       -5    1    3    3    0  502 -0.43317295556E+03 -0.44654800350E+03 -0.10038258038E+04  0.11809878336E+04  0.46999998093E+01 0. -1.
</event>
<event>
 5   0  0.3975164E-04  0.1392588E+04  0.7818609E-02  0.8959202E-01
       -2   -1    0    0    0  501  0.00000000000E+00  0.00000000000E+00  0.13446312175E+04  0.13446312175E+04  0.25500000920E-02 0.  1.
        2   -1    0    0  501    0  0.00000000000E+00  0.00000000000E+00 -0.36056354619E+03  0.36056354620E+03  0.25500000920E-02 0. -1.
    10030    2    1    2    0    0  0.00000000000E+00  0.00000000000E+00  0.98406767127E+03  0.17051947637E+04  0.13925875198E+04 0.  0.
        5    1    3    3  502    0  0.39148882309E+03  0.15967968901E+03  0.11694286557E+04  0.12435218424E+04  0.46999998093E+01 0.  1.
       -5    1    3    3    0  502 -0.39148882309E+03 -0.15967968901E+03 -0.18536098444E+03  0.46167292127E+03  0.46999998093E+01 0. -1.
</event>
<event>
 5   0  0.4310348E-04  0.1400242E+04  0.7818609E-02  0.8953644E-01
       -2   -1    0    0    0  501  0.00000000000E+00  0.00000000000E+00  0.69990507956E+03  0.69990507957E+03  0.25500000920E-02 0. -1.
        2   -1    0    0  501    0  0.00000000000E+00  0.00000000000E+00 -0.70033648897E+03  0.70033648897E+03  0.25500000920E-02 0.  1.
    10030    2    1    2    0    0  0.00000000000E+00  0.00000000000E+00 -0.43140940547E+00  0.14002415685E+04  0.14002415021E+04 0.  0.
        1    1    3    3  502    0 -0.54293172065E+03 -0.19597388459E+02  0.44138385780E+03  0.69998472903E+03  0.50400001928E-02 0. -1.
       -1    1    3    3    0  502  0.54293172065E+03  0.19597388459E+02 -0.44181526720E+03  0.70025683951E+03  0.50400001928E-02 0.  1.
</event>
<event>
 5   0  0.2215876E-04  0.1401571E+04  0.7818609E-02  0.8952682E-01
       -1   -1    0    0    0  501  0.00000000000E+00  0.00000000000E+00  0.81962204223E+03  0.81962204225E+03  0.50400001928E-02 0. -1.
        1   -1    0    0  501    0  0.00000000000E+00  0.00000000000E+00 -0.59917940267E+03  0.59917940269E+03  0.50400001928E-02 0.  1.
    10030    2    1    2    0    0  0.00000000000E+00  0.00000000000E+00  0.22044263956E+03  0.14188014449E+04  0.14015714690E+04 0.  0.
        3    1    3    3  502    0 -0.69683422825E+03 -0.59636705859E+02  0.65334846206E+02  0.70242660163E+03  0.10100000352E+00 0.  1.
       -3    1    3    3    0  502  0.69683422825E+03  0.59636705859E+02  0.15510779336E+03  0.71637484330E+03  0.10100000352E+00 0. -1.
</event>
<event>
 5   0  0.2143942E-04  0.1399567E+04  0.7818609E-02  0.8954132E-01
        1   -1    0    0  501    0  0.00000000000E+00  0.00000000000E+00  0.84366820528E+03  0.84366820530E+03  0.50400001928E-02 0. -1.
       -1   -1    0    0    0  501  0.00000000000E+00  0.00000000000E+00 -0.58043802571E+03  0.58043802574E+03  0.50400001928E-02 0.  1.
    10030    2    1    2    0    0  0.00000000000E+00  0.00000000000E+00  0.26323017957E+03  0.14241062310E+04  0.13995672295E+04 0.  0.
        4    1    3    3  502    0 -0.40658044657E+03 -0.50018616792E+03 -0.14556073695E+03  0.66082025026E+03  0.12699999809E+01 0.  1.
       -4    1    3    3    0  502  0.40658044657E+03  0.50018616792E+03  0.40879091651E+03  0.76328598077E+03  0.12699999809E+01 0. -1.
</event>
<event>
 5   0  0.2143942E-04  0.1408678E+04  0.7818609E-02  0.8947561E-01
       -1   -1    0    0    0  501  0.00000000000E+00  0.00000000000E+00  0.56571676186E+03  0.56571676188E+03  0.50400001928E-02 0. -1.
        1   -1    0    0  501    0  0.00000000000E+00  0.00000000000E+00 -0.87692862865E+03  0.87692862866E+03  0.50400001928E-02 0.  1.
    10030    2    1    2    0    0  0.00000000000E+00  0.00000000000E+00 -0.31121186678E+03  0.14426453905E+04  0.14086777122E+04 0.  0.
        4    1    3    3  502    0  0.13881455899E+03  0.23072779762E+03 -0.82213510966E+03  0.86510840351E+03  0.12699999809E+01 0.  1.
       -4    1    3    3    0  502 -0.13881455899E+03 -0.23072779762E+03  0.51092324288E+03  0.57753698704E+03  0.12699999809E+01 0. -1.
</event>
<event>
 5   0  0.2143942E-04  0.1395264E+04  0.7818609E-02  0.8957254E-01
       -1   -1    0    0    0  501  0.00000000000E+00  0.00000000000E+00  0.92911032164E+03  0.92911032166E+03  0.50400001928E-02 0.  1.
        1   -1    0    0  501    0  0.00000000000E+00  0.00000000000E+00 -0.52382428364E+03  0.52382428366E+03  0.50400001928E-02 0. -1.
    10030    2    1    2    0    0  0.00000000000E+00  0.00000000000E+00  0.40528603800E+03  0.14529346053E+04  0.13952642025E+04 0.  0.
        4    1    3    3  502    0 -0.22532632826E+03  0.93458852317E+02 -0.47796381246E+03  0.53661674425E+03  0.12699999809E+01 0. -1.
       -4    1    3    3    0  502  0.22532632826E+03 -0.93458852317E+02  0.88324985046E+03  0.91631786108E+03  0.12699999809E+01 0.  1.
</event>
<event>
 5   0  0.2215876E-04  0.1387332E+04  0.7818609E-02  0.8963040E-01
       -1   -1    0    0    0  501  0.00000000000E+00  0.00000000000E+00  0.34182726079E+03  0.34182726082E+03  0.50400001928E-02 0.  1.
        1   -1    0    0  501    0  0.00000000000E+00  0.00000000000E+00 -0.14076480759E+04  0.14076480759E+04  0.50400001928E-02 0. -1.
    10030    2    1    2    0    0  0.00000000000E+00  0.00000000000E+00 -0.10658208151E+04  0.17494753368E+04  0.13873319516E+04 0.  0.
        3    1    3    3  502    0  0.58208658802E+03 -0.84721771377E+02 -0.99653603504E+03  0.11571891176E+04  0.10100000352E+00 0. -1.
       -3    1    3    3    0  502 -0.58208658802E+03  0.84721771377E+02 -0.69284780111E+02  0.59228621920E+03  0.10100000352E+00 0.  1.
</event>
<event>
 5   0  0.3975164E-04  0.1393155E+04  0.7818609E-02  0.8958788E-01
        2   -1    0    0  501    0  0.00000000000E+00  0.00000000000E+00  0.99865354779E+03  0.99865354779E+03  0.25500000920E-02 0.  1.
       -2   -1    0    0    0  501  0.00000000000E+00  0.00000000000E+00 -0.48587443968E+03  0.48587443968E+03  0.25500000920E-02 0. -1.
    10030    2    1    2    0    0  0.00000000000E+00  0.00000000000E+00  0.51277910811E+03  0.14845279875E+04  0.13931550279E+04 0.  0.
        5    1    3    3  502    0  0.52491672751E+03 -0.14269710360E+03  0.72000946642E+03  0.90240553850E+03  0.46999998093E+01 0.  1.
       -5    1    3    3    0  502 -0.52491672751E+03  0.14269710360E+03 -0.20723035831E+03  0.58212244897E+03  0.46999998093E+01 0. -1.
</event>
<event>
 5   0  0.3932568E-04  0.1399580E+04  0.7818609E-02  0.8954123E-01
        2   -1    0    0  501    0  0.00000000000E+00  0.00000000000E+00  0.17806580596E+04  0.17806580596E+04  0.25500000920E-02 0.  1.
       -2   -1    0    0    0  501  0.00000000000E+00  0.00000000000E+00 -0.27501412538E+03  0.27501412540E+03  0.25500000920E-02 0. -1.
    10030    2    1    2    0    0  0.00000000000E+00  0.00000000000E+00  0.15056439342E+04  0.20556721850E+04  0.13995801069E+04 0.  0.
        2    1    3    3  502    0 -0.61823936815E+03 -0.13031943103E+03  0.11946850340E+04  0.13514715686E+04  0.25500000920E-02 0.  1.
       -2    1    3    3    0  502  0.61823936815E+03  0.13031943103E+03  0.31095890025E+03  0.70420061637E+03  0.25500000920E-02 0. -1.
</event>
<event>
 5   0  0.2155352E-04  0.1408817E+04  0.7818609E-02  0.8947461E-01
       -1   -1    0    0    0  501  0.00000000000E+00  0.00000000000E+00  0.78264110550E+03  0.78264110551E+03  0.50400001928E-02 0.  1.
        1   -1    0    0  501    0  0.00000000000E+00  0.00000000000E+00 -0.63399626328E+03  0.63399626330E+03  0.50400001928E-02 0. -1.
    10030    2    1    2    0    0  0.00000000000E+00  0.00000000000E+00  0.14864484222E+03  0.14166373688E+04  0.14088172861E+04 0.  0.
        2    1    3    3  502    0 -0.60970684885E+03 -0.35158118758E+03  0.45182894500E+02  0.70526113388E+03  0.25500000920E-02 0. -1.
       -2    1    3    3    0  502  0.60970684885E+03  0.35158118758E+03  0.10346194772E+03  0.71137623493E+03  0.25500000920E-02 0.  1.
</event>
<event>
 5   0  0.2223112E-04  0.1394888E+04  0.7818609E-02  0.8957527E-01
        1   -1    0    0  501    0  0.00000000000E+00  0.00000000000E+00  0.55255427222E+03  0.55255427224E+03  0.50400001928E-02 0.  1.
       -1   -1    0    0    0  501  0.00000000000E+00  0.00000000000E+00 -0.88032680615E+03  0.88032680616E+03  0.50400001928E-02 0. -1.
    10030    2    1    2    0    0  0.00000000000E+00  0.00000000000E+00 -0.32777253393E+03  0.14328810784E+04  0.13948882933E+04 0.  0.
        1    1    3    3  502    0  0.36123874043E+03  0.10405547134E+03  0.43957282463E+03  0.57839885622E+03  0.50400001928E-02 0.  1.
       -1    1    3    3    0  502 -0.36123874043E+03 -0.10405547134E+03 -0.76734535856E+03  0.85448222218E+03  0.50400001928E-02 0. -1.
</event>
<event>
 5   0  0.2215876E-04  0.1401921E+04  0.7818609E-02  0.8952429E-01
       -1   -1    0    0    0  501  0.00000000000E+00  0.00000000000E+00  0.91222696565E+03  0.91222696566E+03  0.50400001928E-02 0.  1.
        1   -1    0    0  501    0  0.00000000000E+00  0.00000000000E+00 -0.53862237448E+03  0.53862237450E+03  0.50400001928E-02 0. -1.
    10030    2    1    2    0    0  0.00000000000E+00  0.00000000000E+00  0.37360459117E+03  0.14508493402E+04  0.14019213306E+04 0.  0.
        3    1    3    3  502    0  0.51114012669E+03 -0.44917455358E+03  0.36097283787E+03  0.77027489157E+03  0.10100000352E+00 0.  1.
       -3    1    3    3    0  502 -0.51114012669E+03  0.44917455358E+03  0.12631753300E+02  0.68057444860E+03  0.10100000352E+00 0. -1.
</event>
<event>
 5   0  0.2223112E-04  0.1397790E+04  0.7818609E-02  0.8955420E-01
        1   -1    0    0  501    0  0.00000000000E+00  0.00000000000E+00  0.10429220904E+04  0.10429220904E+04  0.50400001928E-02 0.  1.
       -1   -1    0    0    0  501  0.00000000000E+00  0.00000000000E+00 -0.46835151885E+03  0.46835151888E+03  0.50400001928E-02 0. -1.
    10030    2    1    2    0    0  0.00000000000E+00  0.00000000000E+00  0.57457057157E+03  0.15112736093E+04  0.13977898914E+04 0.  0.
        1    1    3    3  502    0  0.43163113551E+03 -0.44508897561E+03  0.63603253551E+03  0.88822689646E+03  0.50400001928E-02 0.  1.
       -1    1    3    3    0  502 -0.43163113551E+03  0.44508897561E+03 -0.61461963940E+02  0.62304671284E+03  0.50400001928E-02 0. -1.
</event>
<event>
 5   0  0.2143942E-04  0.1399646E+04  0.7818609E-02  0.8954075E-01
       -1   -1    0    0    0  501  0.00000000000E+00  0.00000000000E+00  0.60058586766E+03  0.60058586768E+03  0.50400001928E-02 0.  1.
        1   -1    0    0  501    0  0.00000000000E+00  0.00000000000E+00 -0.81545746549E+03  0.81545746550E+03  0.50400001928E-02 0. -1.
    10030    2    1    2    0    0  0.00000000000E+00  0.00000000000E+00 -0.21487159782E+03  0.14160433332E+04  0.13996459974E+04 0.  0.
        4    1    3    3  502    0  0.56995546069E+03  0.40427060011E+03 -0.68689989863E+02  0.70214234517E+03  0.12699999809E+01 0. -1.
       -4    1    3    3    0  502 -0.56995546069E+03 -0.40427060011E+03 -0.14618160796E+03  0.71390098801E+03  0.12699999809E+01 0.  1.
</event>
<event>
 5   0  0.2143942E-04  0.1399243E+04  0.7818609E-02  0.8954366E-01
        1   -1    0    0  501    0  0.00000000000E+00  0.00000000000E+00  0.14016829856E+04  0.14016829856E+04  0.50400001928E-02 0. -1.
       -1   -1    0    0    0  501  0.00000000000E+00  0.00000000000E+00 -0.34920201889E+03  0.34920201893E+03  0.50400001928E-02 0.  1.
    10030    2    1    2    0    0  0.00000000000E+00  0.00000000000E+00  0.10524809667E+04  0.17508850045E+04  0.13992434076E+04 0.  0.
        4    1    3    3  502    0  0.18875286069E+03 -0.72453588558E+02 -0.31184823618E+03  0.37165588953E+03  0.12699999809E+01 0.  1.
       -4    1    3    3    0  502 -0.18875286069E+03  0.72453588558E+02  0.13643292029E+04  0.13792291150E+04  0.12699999809E+01 0. -1.
</event>
<event>
 5   0  0.2215876E-04  0.1400917E+04  0.7818609E-02  0.8953155E-01
       -1   -1    0    0    0  501  0.00000000000E+00  0.00000000000E+00  0.17001011767E+03  0.17001011774E+03  0.50400001928E-02 0. -1.
        1   -1    0    0  501    0  0.00000000000E+00  0.00000000000E+00 -0.28859572736E+04  0.28859572736E+04  0.50400001928E-02 0.  1.
    10030    2    1    2    0    0  0.00000000000E+00  0.00000000000E+00 -0.27159471560E+04  0.30559673914E+04  0.14009167510E+04 0.  0.
        3    1    3    3  502    0  0.27999283635E+03 -0.35834875942E+03 -0.25201368485E+04  0.25608396215E+04  0.10100000352E+00 0.  1.
       -3    1    3    3    0  502 -0.27999283635E+03  0.35834875942E+03 -0.19581030749E+03  0.49512776989E+03  0.10100000352E+00 0. -1.
</event>
<event>
 5   0  0.3932568E-04  0.1404308E+04  0.7818609E-02  0.8950706E-01
       -2   -1    0    0    0  501  0.00000000000E+00  0.00000000000E+00  0.42785439729E+03  0.42785439730E+03  0.25500000920E-02 0.  1.
        2   -1    0    0  501    0  0.00000000000E+00  0.00000000000E+00 -0.11523078122E+04  0.11523078122E+04  0.25500000920E-02 0. -1.
    10030    2    1    2    0    0  0.00000000000E+00  0.00000000000E+00 -0.72445341492E+03  0.15801622095E+04  0.14043076080E+04 0.  0.
        2    1    3    3  502    0  0.61643822643E+03  0.32522215695E+03 -0.45806541608E+03  0.83402006198E+03  0.25500000920E-02 0.  1.
       -2    1    3    3    0  502 -0.61643822643E+03 -0.32522215695E+03 -0.26638799884E+03  0.74614214752E+03  0.25500000920E-02 0. -1.
</event>
<event>
 5   0  0.1497625E-04  0.1403156E+04  0.7818609E-02  0.8951537E-01
       -3   -1    0    0    0  501  0.00000000000E+00  0.00000000000E+00  0.13016139059E+04  0.13016139098E+04  0.10100000352E+00 0. -1.
        3   -1    0    0  501    0  0.00000000000E+00  0.00000000000E+00 -0.37815475115E+03  0.37815476463E+03  0.10100000352E+00 0.  1.
    10030    2    1    2    0    0  0.00000000000E+00  0.00000000000E+00  0.92345915475E+03  0.16797686744E+04  0.14031557252E+04 0.  0.
        2    1    3    3  502    0  0.34914873816E+03 -0.51772099673E+03  0.84457299509E+03  0.10503539479E+04  0.25500000920E-02 0. -1.
       -2    1    3    3    0  502 -0.34914873816E+03  0.51772099673E+03  0.78886159657E+02  0.62941472655E+03  0.25500000920E-02 0.  1.
</event>
<event>
 5   0  0.4310348E-04  0.1398393E+04  0.7818609E-02  0.8954982E-01
        2   -1    0    0  501    0  0.00000000000E+00  0.00000000000E+00  0.18511807512E+04  0.18511807512E+04  0.25500000920E-02 0.  1.
       -2   -1    0    0    0  501  0.00000000000E+00  0.00000000000E+00 -0.26408877081E+03  0.26408877083E+03  0.25500000920E-02 0. -1.
    10030    2    1    2    0    0  0.00000000000E+00  0.00000000000E+00  0.15870919804E+04  0.21152695220E+04  0.13983934341E+04 0.  0.
        1    1    3    3  502    0 -0.36093460035E+03  0.32726220973E+03  0.15521354540E+04  0.16268063214E+04  0.50400001928E-02 0.  1.
       -1    1    3    3    0  502  0.36093460035E+03 -0.32726220973E+03  0.34956526399E+02  0.48846320067E+03  0.50400001928E-02 0. -1.
</event>
<event>
 5   0  0.2215876E-04  0.1403164E+04  0.7818609E-02  0.8951531E-01
       -1   -1    0    0    0  501  0.00000000000E+00  0.00000000000E+00  0.29413819697E+03  0.29413819701E+03  0.50400001928E-02 0.  1.
        1   -1    0    0  501    0  0.00000000000E+00  0.00000000000E+00 -0.16734226514E+04  0.16734226514E+04  0.50400001928E-02 0. -1.
    10030    2    1    2    0    0  0.00000000000E+00  0.00000000000E+00 -0.13792844544E+04  0.19675608484E+04  0.14031643118E+04 0.  0.
        3    1    3    3  502    0  0.68154184080E+03 -0.88830117259E+02 -0.49219412093E+03  0.84536686319E+03  0.10100000352E+00 0.  1.
       -3    1    3    3    0  502 -0.68154184080E+03  0.88830117259E+02 -0.88709033348E+03  0.11221939852E+04  0.10100000352E+00 0. -1.
</event>
<event>
 5   0  0.4310348E-04  0.1402622E+04  0.7818609E-02  0.8951923E-01
       -2   -1    0    0    0  501  0.00000000000E+00  0.00000000000E+00  0.26950759216E+03  0.26950759217E+03  0.25500000920E-02 0.  1.
        2   -1    0    0  501    0  0.00000000000E+00  0.00000000000E+00 -0.18249477171E+04  0.18249477171E+04  0.25500000920E-02 0. -1.
    10030    2    1    2    0    0  0.00000000000E+00  0.00000000000E+00 -0.15554401250E+04  0.20944553093E+04  0.14026222087E+04 0.  0.
        1    1    3    3  502    0  0.49513279980E+02  0.47965019178E+03 -0.15381331105E+04  0.16119458232E+04  0.50400001928E-02 0. -1.
       -1    1    3    3    0  502 -0.49513279980E+02 -0.47965019178E+03 -0.17307014468E+02  0.48250948607E+03  0.50400001928E-02 0.  1.
</event>
<event>
 5   0  0.2223112E-04  0.1407363E+04  0.7818609E-02  0.8948506E-01
       -1   -1    0    0    0  501  0.00000000000E+00  0.00000000000E+00  0.38494483579E+03  0.38494483582E+03  0.50400001928E-02 0. -1.
        1   -1    0    0  501    0  0.00000000000E+00  0.00000000000E+00 -0.12863339733E+04  0.12863339733E+04  0.50400001928E-02 0.  1.
    10030    2    1    2    0    0  0.00000000000E+00  0.00000000000E+00 -0.90138913754E+03  0.16712788092E+04  0.14073629527E+04 0.  0.
        1    1    3    3  502    0  0.64044354186E+03 -0.23878694459E+03 -0.25205287460E+03  0.72850380015E+03  0.50400001928E-02 0. -1.
       -1    1    3    3    0  502 -0.64044354186E+03  0.23878694459E+03 -0.64933626294E+03  0.94277500901E+03  0.50400001928E-02 0.  1.
</event>
<event>
 5   0  0.3975164E-04  0.1401610E+04  0.7818609E-02  0.8952654E-01
        2   -1    0    0  501    0  0.00000000000E+00  0.00000000000E+00  0.10377656588E+04  0.10377656589E+04  0.25500000920E-02 0. -1.
       -2   -1    0    0    0  501  0.00000000000E+00  0.00000000000E+00 -0.47325463160E+03  0.47325463161E+03  0.25500000920E-02 0.  1.
    10030    2    1    2    0    0  0.00000000000E+00  0.00000000000E+00  0.56451102725E+03  0.15110202905E+04  0.14016096526E+04 0.  0.
        5    1    3    3  502    0 -0.28591714463E+03  0.48661251842E+03 -0.16558102188E+03  0.58820023927E+03  0.46999998093E+01 0.  1.
       -5    1    3    3    0  502  0.28591714463E+03 -0.48661251842E+03  0.73009204913E+03  0.92282005119E+03  0.46999998093E+01 0. -1.
</event>
<event>
 5   0  0.2155352E-04  0.1397570E+04  0.7818609E-02  0.8955580E-01
        1   -1    0    0  501    0  0.00000000000E+00  0.00000000000E+00  0.68832078331E+03  0.68832078332E+03  0.50400001928E-02 0. -1.
       -1   -1    0    0    0  501  0.00000000000E+00  0.00000000000E+00 -0.70940788976E+03  0.70940788977E+03  0.50400001928E-02 0.  1.
    10030    2    1    2    0    0  0.00000000000E+00  0.00000000000E+00 -0.21087106449E+02  0.13977286731E+04  0.13975695967E+04 0.  0.
        2    1    3    3  502    0  0.46426607092E+03  0.52161344663E+03 -0.36558474032E+02  0.69925681573E+03  0.25500000920E-02 0.  1.
       -2    1    3    3    0  502 -0.46426607092E+03 -0.52161344663E+03  0.15471367583E+02  0.69847185737E+03  0.25500000920E-02 0. -1.
</event>
<event>
 5   0  0.3917598E-04  0.1405708E+04  0.7818609E-02  0.8949697E-01
        2   -1    0    0  501    0  0.00000000000E+00  0.00000000000E+00  0.83211954454E+03  0.83211954454E+03  0.25500000920E-02 0. -1.
       -2   -1    0    0    0  501  0.00000000000E+00  0.00000000000E+00 -0.59366931768E+03  0.59366931769E+03  0.25500000920E-02 0.  1.
    10030    2    1    2    0    0  0.00000000000E+00  0.00000000000E+00  0.23845022686E+03  0.14257888622E+04  0.14057081379E+04 0.  0.
        3    1    3    3  502    0 -0.40206346337E+03 -0.57624263891E+03  0.10185669628E+03  0.70998972123E+03  0.10100000352E+00 0.  1.
       -3    1    3    3    0  502  0.40206346337E+03  0.57624263891E+03  0.13659353057E+03  0.71579914101E+03  0.10100000352E+00 0. -1.
</event>
<event>
 5   0  0.3932568E-04  0.1400810E+04  0.7818609E-02  0.8953232E-01
       -2   -1    0    0    0  501  0.00000000000E+00  0.00000000000E+00  0.62267237388E+03  0.62267237389E+03  0.25500000920E-02 0.  1.
        2   -1    0    0  501    0  0.00000000000E+00  0.00000000000E+00 -0.78784174957E+03  0.78784174958E+03  0.25500000920E-02 0. -1.
    10030    2    1    2    0    0  0.00000000000E+00  0.00000000000E+00 -0.16516937569E+03  0.14105141235E+04  0.14008101834E+04 0.  0.
        2    1    3    3  502    0 -0.21278782911E+03 -0.36428158542E+03 -0.64555305556E+03  0.77117992793E+03  0.25500000920E-02 0. -1.
       -2    1    3    3    0  502  0.21278782911E+03  0.36428158542E+03  0.48038367987E+03  0.63933419554E+03  0.25500000920E-02 0.  1.
</event>
<event>
 5   0  0.2155352E-04  0.1399810E+04  0.7818609E-02  0.8953956E-01
        1   -1    0    0  501    0  0.00000000000E+00  0.00000000000E+00  0.40713800167E+03  0.40713800170E+03  0.50400001928E-02 0. -1.
       -1   -1    0    0    0  501  0.00000000000E+00  0.00000000000E+00 -0.12031965678E+04  0.12031965678E+04  0.50400001928E-02 0.  1.
    10030    2    1    2    0    0  0.00000000000E+00  0.00000000000E+00 -0.79605856608E+03  0.16103345695E+04  0.13998100532E+04 0.  0.
        2    1    3    3  502    0  0.23090300662E+03  0.49448965129E+03  0.10608904862E+03  0.55595962078E+03  0.25500000920E-02 0. -1.
       -2    1    3    3    0  502 -0.23090300662E+03 -0.49448965129E+03 -0.90214761470E+03  0.10543749487E+04  0.25500000920E-02 0.  1.
</event>
<event>
 5   0  0.1497625E-04  0.1403450E+04  0.7818609E-02  0.8951325E-01
       -4   -1    0    0    0  501  0.00000000000E+00  0.00000000000E+00  0.88174335999E+03  0.88174427460E+03  0.12699999809E+01 0.  1.
        4   -1    0    0  501    0  0.00000000000E+00  0.00000000000E+00 -0.55845746232E+03  0.55845890638E+03  0.12699999809E+01 0. -1.
    10030    2    1    2    0    0  0.00000000000E+00  0.00000000000E+00  0.32328589768E+03  0.14402031810E+04  0.14034498320E+04 0.  0.
        4    1    3    3  502    0  0.51587411878E+02  0.48793956750E+03 -0.35316182430E+03  0.60454211569E+03  0.12699999809E+01 0. -1.
       -4    1    3    3    0  502 -0.51587411878E+02 -0.48793956750E+03  0.67644772197E+03  0.83566106530E+03  0.12699999809E+01 0.  1.
</event>
<event>
 5   0  0.3975164E-04  0.1398331E+04  0.7818609E-02  0.8955027E-01
        2   -1    0    0  501    0  0.00000000000E+00  0.00000000000E+00  0.11947587324E+04  0.11947587324E+04  0.25500000920E-02 0.  1.
       -2   -1    0    0    0  501  0.00000000000E+00  0.00000000000E+00 -0.40914749333E+03  0.40914749334E+03  0.25500000920E-02 0. -1.
    10030    2    1    2    0    0  0.00000000000E+00  0.00000000000E+00  0.78561123910E+03  0.16039062258E+04  0.13983312062E+04 0.  0.
        5    1    3    3  502    0 -0.60841657011E+03 -0.33386733291E+03  0.29566539390E+03  0.75437274204E+03  0.46999998093E+01 0.  1.
       -5    1    3    3    0  502  0.60841657011E+03  0.33386733291E+03  0.48994584520E+03  0.84953348375E+03  0.46999998093E+01 0. -1.
</event>
<event>
 5   0  0.3917598E-04  0.1397958E+04  0.7818609E-02  0.8955298E-01
       -2   -1    0    0    0  501  0.00000000000E+00  0.00000000000E+00  0.28454738651E+03  0.28454738652E+03  0.25500000920E-02 0. -1.
        2   -1    0    0  501    0  0.00000000000E+00  0.00000000000E+00 -0.17170144739E+04  0.17170144739E+04  0.25500000920E-02 0.  1.
    10030    2    1    2    0    0  0.00000000000E+00  0.00000000000E+00 -0.14324670874E+04  0.20015618605E+04  0.13979584846E+04 0.  0.
        3    1    3    3  502    0  0.27711821945E+03 -0.43264429791E+03 -0.13947745739E+04  0.14863955457E+04  0.10100000352E+00 0.  1.
       -3    1    3    3    0  502 -0.27711821945E+03  0.43264429791E+03 -0.37692513501E+02  0.51516631474E+03  0.10100000352E+00 0. -1.
</event>
<event>
 5   0  0.4310348E-04  0.1401421E+04  0.7818609E-02  0.8952791E-01
       -2   -1    0    0    0  501  0.00000000000E+00  0.00000000000E+00  0.14795615682E+03  0.14795615684E+03  0.25500000920E-02 0.  1.
        2   -1    0    0  501    0  0.00000000000E+00  0.00000000000E+00 -0.33185161519E+04  0.33185161519E+04  0.25500000920E-02 0. -1.
    10030    2    1    2    0    0  0.00000000000E+00  0.00000000000E+00 -0.31705599951E+04  0.34664723087E+04  0.14014205596E+04 0.  0.
        1    1    3    3  502    0  0.21911822735E+03 -0.66293800776E+03 -0.17315183417E+04  0.18669909928E+04  0.50400001928E-02 0. -1.
       -1    1    3    3    0  502 -0.21911822735E+03  0.66293800776E+03 -0.14390416534E+04  0.15994813159E+04  0.50400001928E-02 0.  1.
</event>
<event>
 5   0  0.2217251E-04  0.1405178E+04  0.7818609E-02  0.8950079E-01
       -1   -1    0    0    0  501  0.00000000000E+00  0.00000000000E+00  0.38103027089E+03  0.38103027093E+03  0.50400001928E-02 0. -1.
        1   -1    0    0  501    0  0.00000000000E+00  0.00000000000E+00 -0.12955171920E+04  0.12955171920E+04  0.50400001928E-02 0.  1.
    10030    2    1    2    0    0  0.00000000000E+00  0.00000000000E+00 -0.91448692111E+03  0.16765474629E+04  0.14051779484E+04 0.  0.
        5    1    3    3  502    0  0.50699595921E+02  0.30381979896E+03 -0.12106427613E+04  0.12492217196E+04  0.46999998093E+01 0.  1.
       -5    1    3    3    0  502 -0.50699595921E+02 -0.30381979896E+03  0.29615584017E+03  0.42732574335E+03  0.46999998093E+01 0. -1.
</event>
<event>
 5   0  0.2223112E-04  0.1404457E+04  0.7818609E-02  0.8950599E-01
        1   -1    0    0  501    0  0.00000000000E+00  0.00000000000E+00  0.85226704199E+03  0.85226704201E+03  0.50400001928E-02 0.  1.
       -1   -1    0    0    0  501  0.00000000000E+00  0.00000000000E+00 -0.57860365569E+03  0.57860365571E+03  0.50400001928E-02 0. -1.
    10030    2    1    2    0    0  0.00000000000E+00  0.00000000000E+00  0.27366338630E+03  0.14308706977E+04  0.14044569429E+04 0.  0.
        1    1    3    3  502    0 -0.66311966781E+03  0.23004448345E+03  0.11458835717E+03  0.71118116527E+03  0.50400001928E-02 0.  1.
       -1    1    3    3    0  502  0.66311966781E+03 -0.23004448345E+03  0.15907502913E+03  0.71968953245E+03  0.50400001928E-02 0. -1.
</event>
<event>
 5   0  0.3932568E-04  0.1377318E+04  0.7818609E-02  0.8970402E-01
        2   -1    0    0  501    0  0.00000000000E+00  0.00000000000E+00  0.48046793345E+03  0.48046793346E+03  0.25500000920E-02 0.  1.
       -2   -1    0    0    0  501  0.00000000000E+00  0.00000000000E+00 -0.98706164122E+03  0.98706164122E+03  0.25500000920E-02 0. -1.
    10030    2    1    2    0    0  0.00000000000E+00  0.00000000000E+00 -0.50659370776E+03  0.14675295747E+04  0.13773183611E+04 0.  0.
        2    1    3    3  502    0  0.22153486081E+02  0.53523176752E+03  0.20781585223E+03  0.57458789611E+03  0.25500000920E-02 0.  1.
       -2    1    3    3    0  502 -0.22153486081E+02 -0.53523176752E+03 -0.71440956000E+03  0.89294167857E+03  0.25500000920E-02 0. -1.
</event>
<event>
 5   0  0.2155352E-04  0.1396961E+04  0.7818609E-02  0.8956021E-01
       -1   -1    0    0    0  501  0.00000000000E+00  0.00000000000E+00  0.46478695826E+03  0.46478695829E+03  0.50400001928E-02 0.  1.
        1   -1    0    0  501    0  0.00000000000E+00  0.00000000000E+00 -0.10496740825E+04  0.10496740825E+04  0.50400001928E-02 0. -1.
    10030    2    1    2    0    0  0.00000000000E+00  0.00000000000E+00 -0.58488712420E+03  0.15144610408E+04  0.13969607353E+04 0.  0.
        2    1    3    3  502    0 -0.18716962464E+02 -0.10818626396E+03  0.45537348015E+03  0.46842245764E+03  0.25500000920E-02 0.  1.
       -2    1    3    3    0  502  0.18716962464E+02  0.10818626396E+03 -0.10402606044E+04  0.10460385831E+04  0.25500000920E-02 0. -1.
</event>
<event>
 5   0  0.3917598E-04  0.1409739E+04  0.7818609E-02  0.8946799E-01
        2   -1    0    0  501    0  0.00000000000E+00  0.00000000000E+00  0.67940924894E+03  0.67940924894E+03  0.25500000920E-02 0. -1.
       -2   -1    0    0    0  501  0.00000000000E+00  0.00000000000E+00 -0.73128337264E+03  0.73128337264E+03  0.25500000920E-02 0.  1.
    10030    2    1    2    0    0  0.00000000000E+00  0.00000000000E+00 -0.51874123699E+02  0.14106926216E+04  0.14097385388E+04 0.  0.
        3    1    3    3  502    0 -0.46506019403E+03 -0.14063538280E+03  0.48507613217E+03  0.68655528486E+03  0.10100000352E+00 0. -1.
       -3    1    3    3    0  502  0.46506019403E+03  0.14063538280E+03 -0.53695025587E+03  0.72413733673E+03  0.10100000352E+00 0.  1.
</event>
<event>
 5   0  0.3975164E-04  0.1397011E+04  0.7818609E-02  0.8955985E-01
        2   -1    0    0  501    0  0.00000000000E+00  0.00000000000E+00  0.13212007117E+04  0.13212007117E+04  0.25500000920E-02 0. -1.
       -2   -1    0    0    0  501  0.00000000000E+00  0.00000000000E+00 -0.36929307417E+03  0.36929307418E+03  0.25500000920E-02 0.  1.
    10030    2    1    2    0    0  0.00000000000E+00  0.00000000000E+00  0.95190763748E+03  0.16904937858E+04  0.13970114851E+04 0.  0.
        5    1    3    3  502    0 -0.35012999991E+03 -0.60014459977E+03  0.38933699228E+03  0.79647344025E+03  0.46999998093E+01 0.  1.
       -5    1    3    3    0  502  0.35012999991E+03  0.60014459977E+03  0.56257064521E+03  0.89402034558E+03  0.46999998093E+01 0. -1.
</event>
<event>
 5   0  0.2217251E-04  0.1395503E+04  0.7818609E-02  0.8957080E-01
        1   -1    0    0  501    0  0.00000000000E+00  0.00000000000E+00  0.18346901018E+04  0.18346901018E+04  0.50400001928E-02 0. -1.
       -1   -1    0    0    0  501  0.00000000000E+00  0.00000000000E+00 -0.26536199048E+03  0.26536199052E+03  0.50400001928E-02 0.  1.
    10030    2    1    2    0    0  0.00000000000E+00  0.00000000000E+00  0.15693281113E+04  0.21000520923E+04  0.13955028017E+04 0.  0.
        5    1    3    3  502    0  0.17125769323E+03  0.17759324095E+03 -0.19750672928E+03  0.31606890836E+03  0.46999998093E+01 0.  1.
       -5    1    3    3    0  502 -0.17125769323E+03 -0.17759324095E+03  0.17668348406E+04  0.17839831839E+04  0.46999998093E+01 0. -1.
</event>
<event>
 5   0  0.2217251E-04  0.1401305E+04  0.7818609E-02  0.8952875E-01
       -1   -1    0    0    0  501  0.00000000000E+00  0.00000000000E+00  0.50983145349E+03  0.50983145352E+03  0.50400001928E-02 0.  1.
        1   -1    0    0  501    0  0.00000000000E+00  0.00000000000E+00 -0.96289444074E+03  0.96289444075E+03  0.50400001928E-02 0. -1.
    10030    2    1    2    0    0  0.00000000000E+00  0.00000000000E+00 -0.45306298724E+03  0.14727258943E+04  0.14013049237E+04 0.  0.
        5    1    3    3  502    0 -0.62304596613E+03 -0.92024873851E+02 -0.54915784548E+03  0.83561431448E+03  0.46999998093E+01 0. -1.
       -5    1    3    3    0  502  0.62304596613E+03  0.92024873851E+02  0.96094858240E+02  0.63711157978E+03  0.46999998093E+01 0.  1.
</event>
<event>
 5   0  0.4310348E-04  0.1406231E+04  0.7818609E-02  0.8949321E-01
       -2   -1    0    0    0  501  0.00000000000E+00  0.00000000000E+00  0.34996419090E+03  0.34996419090E+03  0.25500000920E-02 0. -1.
        2   -1    0    0  501    0  0.00000000000E+00  0.00000000000E+00 -0.14126341990E+04  0.14126341990E+04  0.25500000920E-02 0.  1.
    10030    2    1    2    0    0  0.00000000000E+00  0.00000000000E+00 -0.10626700082E+04  0.17625983900E+04  0.14062309690E+04 0.  0.
        1    1    3    3  502    0  0.10599668488E+03  0.39549132636E+03 -0.12477857917E+04  0.13132471467E+04  0.50400001928E-02 0.  1.
       -1    1    3    3    0  502 -0.10599668488E+03 -0.39549132636E+03  0.18511578355E+03  0.44935124321E+03  0.50400001928E-02 0. -1.
</event>
<event>
 5   0  0.4208622E-04  0.1398828E+04  0.7818609E-02  0.8954667E-01
        2   -1    0    0  501    0  0.00000000000E+00  0.00000000000E+00  0.18943594791E+04  0.18943594791E+04  0.25500000920E-02 0.  1.
       -2   -1    0    0    0  501  0.00000000000E+00  0.00000000000E+00 -0.25822975019E+03  0.25822975020E+03  0.25500000920E-02 0. -1.
    10030    2    1    2    0    0  0.00000000000E+00  0.00000000000E+00  0.16361297289E+04  0.21525892293E+04  0.13988280453E+04 0.  0.
        4    1    3    3  502    0 -0.58852709250E+03 -0.10668854053E+03  0.26017685807E+03  0.65225776627E+03  0.12699999809E+01 0. -1.
       -4    1    3    3    0  502  0.58852709250E+03  0.10668854053E+03  0.13759528708E+04  0.15003314630E+04  0.12699999809E+01 0.  1.
</event>
<event>
 5   0  0.2155352E-04  0.1401796E+04  0.7818609E-02  0.8952520E-01
        1   -1    0    0  501    0  0.00000000000E+00  0.00000000000E+00  0.79975825571E+03  0.79975825572E+03  0.50400001928E-02 0. -1.
       -1   -1    0    0    0  501  0.00000000000E+00  0.00000000000E+00 -0.61425780373E+03  0.61425780375E+03  0.50400001928E-02 0.  1.
    10030    2    1    2    0    0  0.00000000000E+00  0.00000000000E+00  0.18550045198E+03  0.14140160595E+04  0.14017956337E+04 0.  0.
        2    1    3    3  502    0  0.32262606988E+03 -0.24924504064E+03  0.66784943788E+03  0.78245354043E+03  0.25500000920E-02 0. -1.
       -2    1    3    3    0  502 -0.32262606988E+03  0.24924504064E+03 -0.48234898590E+03  0.63156251904E+03  0.25500000920E-02 0.  1.
</event>
<event>
 5   0  0.2143942E-04  0.1399569E+04  0.7818609E-02  0.8954131E-01
        1   -1    0    0  501    0  0.00000000000E+00  0.00000000000E+00  0.13253785237E+04  0.13253785237E+04  0.50400001928E-02 0.  1.
       -1   -1    0    0    0  501  0.00000000000E+00  0.00000000000E+00 -0.36947789978E+03  0.36947789981E+03  0.50400001928E-02 0. -1.
    10030    2    1    2    0    0  0.00000000000E+00  0.00000000000E+00  0.95590062388E+03  0.16948564235E+04  0.13995686098E+04 0.  0.
        4    1    3    3  502    0  0.68361508669E+03  0.11439204169E+03  0.36128441265E+03  0.78162853433E+03  0.12699999809E+01 0. -1.
       -4    1    3    3    0  502 -0.68361508669E+03 -0.11439204169E+03  0.59461621123E+03  0.91322788914E+03  0.12699999809E+01 0.  1.
</event>
<event>
 5   0  0.3975164E-04  0.1398350E+04  0.7818609E-02  0.8955014E-01
        2   -1    0    0  501    0  0.00000000000E+00  0.00000000000E+00  0.21330543293E+04  0.21330543293E+04  0.25500000920E-02 0.  1.
       -2   -1    0    0    0  501  0.00000000000E+00  0.00000000000E+00 -0.22917635688E+03  0.22917635689E+03  0.25500000920E-02 0. -1.
    10030    2    1    2    0    0  0.00000000000E+00  0.00000000000E+00  0.19038779725E+04  0.23622306862E+04  0.13983499136E+04 0.  0.
        5    1    3    3  502    0 -0.22605328190E+03  0.40859823717E+03  0.72901368280E+02  0.47264077815E+03  0.46999998093E+01 0. -1.
       -5    1    3    3    0  502  0.22605328190E+03 -0.40859823717E+03  0.18309766042E+04  0.18895899081E+04  0.46999998093E+01 0.  1.
</event>
<event>
 5   0  0.2223112E-04  0.1398364E+04  0.7818609E-02  0.8955003E-01
       -1   -1    0    0    0  501  0.00000000000E+00  0.00000000000E+00  0.69550786702E+03  0.69550786703E+03  0.50400001928E-02 0. -1.
        1   -1    0    0  501    0  0.00000000000E+00  0.00000000000E+00 -0.70287592482E+03  0.70287592484E+03  0.50400001928E-02 0.  1.
    10030    2    1    2    0    0  0.00000000000E+00  0.00000000000E+00 -0.73680578023E+01  0.13983837919E+04  0.13983643807E+04 0.  0.
        1    1    3    3  502    0  0.36784069197E+03  0.43866848350E+03 -0.40508581675E+03  0.70130687438E+03  0.50400001928E-02 0.  1.
       -1    1    3    3    0  502 -0.36784069197E+03 -0.43866848350E+03  0.39771775895E+03  0.69707691749E+03  0.50400001928E-02 0. -1.
</event>
<event>
 5   0  0.3975164E-04  0.1396374E+04  0.7818609E-02  0.8956448E-01
        2   -1    0    0  501    0  0.00000000000E+00  0.00000000000E+00  0.12731296813E+04  0.12731296813E+04  0.25500000920E-02 0.  1.
       -2   -1    0    0    0  501  0.00000000000E+00  0.00000000000E+00 -0.38288709233E+03  0.38288709234E+03  0.25500000920E-02 0. -1.
    10030    2    1    2    0    0  0.00000000000E+00  0.00000000000E+00  0.89024258901E+03  0.16560167737E+04  0.13963737635E+04 0.  0.
        5    1    3    3  502    0  0.33747741111E+01 -0.63157755432E+03  0.92234147664E+02  0.63830308179E+03  0.46999998093E+01 0.  1.
       -5    1    3    3    0  502 -0.33747741111E+01  0.63157755432E+03  0.79800844135E+03  0.10177136919E+04  0.46999998093E+01 0. -1.
</event>
<event>
 5   0  0.2155352E-04  0.1400689E+04  0.7818609E-02  0.8953320E-01
        1   -1    0    0  501    0  0.00000000000E+00  0.00000000000E+00  0.75165610866E+03  0.75165610868E+03  0.50400001928E-02 0.  1.
       -1   -1    0    0    0  501  0.00000000000E+00  0.00000000000E+00 -0.65253548767E+03  0.65253548769E+03  0.50400001928E-02 0. -1.
    10030    2    1    2    0    0  0.00000000000E+00  0.00000000000E+00  0.99120620991E+02  0.14041915964E+04  0.14006888098E+04 0.  0.
        2    1    3    3  502    0 -0.28769327379E+01  0.52573005474E+02  0.74966918034E+03  0.75151585319E+03  0.25500000920E-02 0.  1.
       -2    1    3    3    0  502  0.28769327379E+01 -0.52573005474E+02 -0.65054855935E+03  0.65267574317E+03  0.25500000920E-02 0. -1.
</event>
<event>
 5   0  0.4310348E-04  0.1398887E+04  0.7818609E-02  0.8954624E-01
       -2   -1    0    0    0  501  0.00000000000E+00  0.00000000000E+00  0.31969607839E+03  0.31969607840E+03  0.25500000920E-02 0. -1.
        2   -1    0    0  501    0  0.00000000000E+00  0.00000000000E+00 -0.15302706242E+04  0.15302706242E+04  0.25500000920E-02 0.  1.
    10030    2    1    2    0    0  0.00000000000E+00  0.00000000000E+00 -0.12105745458E+04  0.18499667026E+04  0.13988874400E+04 0.  0.
        1    1    3    3  502    0  0.23138344787E+03  0.28350224662E+03  0.18300027961E+03  0.40914658272E+03  0.50400001928E-02 0. -1.
       -1    1    3    3    0  502 -0.23138344787E+03 -0.28350224662E+03 -0.13935748254E+04  0.14408201199E+04  0.50400001928E-02 0.  1.
</event>
<event>
 5   0  0.3932568E-04  0.1394294E+04  0.7818609E-02  0.8957959E-01
        2   -1    0    0  501    0  0.00000000000E+00  0.00000000000E+00  0.18450152083E+04  0.18450152083E+04  0.25500000920E-02 0. -1.
       -2   -1    0    0    0  501  0.00000000000E+00  0.00000000000E+00 -0.26341990835E+03  0.26341990836E+03  0.25500000920E-02 0.  1.
    10030    2    1    2    0    0  0.00000000000E+00  0.00000000000E+00  0.15815953000E+04  0.21084351167E+04  0.13942937095E+04 0.  0.
        2    1    3    3  502    0 -0.67384225718E+03 -0.15359346685E+03  0.65253864249E+03  0.95050566572E+03  0.25500000920E-02 0.  1.
       -2    1    3    3    0  502  0.67384225718E+03  0.15359346685E+03  0.92905665749E+03  0.11579294510E+04  0.25500000920E-02 0. -1.
</event>
<event>
 5   0  0.1497625E-04  0.1399784E+04  0.7818609E-02  0.8953975E-01
       -3   -1    0    0    0  501  0.00000000000E+00  0.00000000000E+00  0.61571132617E+03  0.61571133445E+03  0.10100000352E+00 0. -1.
        3   -1    0    0  501    0  0.00000000000E+00  0.00000000000E+00 -0.79558240599E+03  0.79558241240E+03  0.10100000352E+00 0.  1.
    10030    2    1    2    0    0  0.00000000000E+00  0.00000000000E+00 -0.17987107982E+03  0.14112937468E+04  0.13997844243E+04 0.  0.
        1    1    3    3  502    0  0.36602113991E+02 -0.29928714179E+02 -0.79397045068E+03  0.79537696676E+03  0.50400001928E-02 0.  1.
       -1    1    3    3    0  502 -0.36602113991E+02  0.29928714179E+02  0.61409937086E+03  0.61591678009E+03  0.50400001928E-02 0. -1.
</event>
<event>
 5   0  0.2143942E-04  0.1382327E+04  0.7818609E-02  0.8966711E-01
        1   -1    0    0  501    0  0.00000000000E+00  0.00000000000E+00  0.85182528733E+03  0.85182528734E+03  0.50400001928E-02 0. -1.
       -1   -1    0    0    0  501  0.00000000000E+00  0.00000000000E+00 -0.56080391800E+03  0.56080391802E+03  0.50400001928E-02 0.  1.
    10030    2    1    2    0    0  0.00000000000E+00  0.00000000000E+00  0.29102136933E+03  0.14126292054E+04  0.13823269637E+04 0.  0.
        4    1    3    3  502    0  0.27980291834E+03 -0.48287642189E+03 -0.27116009745E+03  0.62047459519E+03  0.12699999809E+01 0.  1.
       -4    1    3    3    0  502 -0.27980291834E+03  0.48287642189E+03  0.56218146678E+03  0.79215461017E+03  0.12699999809E+01 0. -1.
</event>
<event>
 5   0  0.4208622E-04  0.1402696E+04  0.7818609E-02  0.8951869E-01
       -2   -1    0    0    0  501  0.00000000000E+00  0.00000000000E+00  0.76637132913E+03  0.76637132913E+03  0.25500000920E-02 0. -1.
        2   -1    0    0  501    0  0.00000000000E+00  0.00000000000E+00 -0.64184191390E+03  0.64184191391E+03  0.25500000920E-02 0.  1.
    10030    2    1    2    0    0  0.00000000000E+00  0.00000000000E+00  0.12452941523E+03  0.14082132430E+04  0.14026963187E+04 0.  0.
        4    1    3    3  502    0  0.61904845632E+03 -0.30352683980E+03  0.19137102545E+03  0.71552359572E+03  0.12699999809E+01 0. -1.
       -4    1    3    3    0  502 -0.61904845632E+03  0.30352683980E+03 -0.66841610220E+02  0.69268964732E+03  0.12699999809E+01 0.  1.
</event>
<event>
 5   0  0.3975164E-04  0.1400392E+04  0.7818609E-02  0.8953535E-01
        2   -1    0    0  501    0  0.00000000000E+00  0.00000000000E+00  0.64225337461E+03  0.64225337462E+03  0.25500000920E-02 0.  1.
       -2   -1    0    0    0  501  0.00000000000E+00  0.00000000000E+00 -0.76336591537E+03  0.76336591538E+03  0.25500000920E-02 0. -1.
    10030    2    1    2    0    0  0.00000000000E+00  0.00000000000E+00 -0.12111254076E+03  0.14056192900E+04  0.14003918526E+04 0.  0.
        5    1    3    3  502    0  0.69362160484E+03  0.76562807294E+02 -0.30760121430E+01  0.69785696672E+03  0.46999998093E+01 0.  1.
       -5    1    3    3    0  502 -0.69362160484E+03 -0.76562807294E+02 -0.11803652862E+03  0.70776232327E+03  0.46999998093E+01 0. -1.
</event>
<event>
 5   0  0.2223112E-04  0.1396263E+04  0.7818609E-02  0.8956528E-01
       -1   -1    0    0    0  501  0.00000000000E+00  0.00000000000E+00  0.32295940110E+03  0.32295940114E+03  0.50400001928E-02 0. -1.
        1   -1    0    0  501    0  0.00000000000E+00  0.00000000000E+00 -0.15091290300E+04  0.15091290300E+04  0.50400001928E-02 0.  1.
    10030    2    1    2    0    0  0.00000000000E+00  0.00000000000E+00 -0.11861696289E+04  0.18320884312E+04  0.13962627371E+04 0.  0.
        1    1    3    3  502    0  0.26529622413E+03 -0.46424505992E+03 -0.41092940550E+01  0.53471716685E+03  0.50400001928E-02 0. -1.
       -1    1    3    3    0  502 -0.26529622413E+03  0.46424505992E+03 -0.11820603349E+04  0.12973712643E+04  0.50400001928E-02 0.  1.
</event>
<event>
 5   0  0.4208622E-04  0.1403531E+04  0.7818609E-02  0.8951267E-01
       -2   -1    0    0    0  501  0.00000000000E+00  0.00000000000E+00  0.22564534076E+04  0.22564534076E+04  0.25500000920E-02 0. -1.
        2   -1    0    0  501    0  0.00000000000E+00  0.00000000000E+00 -0.21825166690E+03  0.21825166691E+03  0.25500000920E-02 0.  1.
    10030    2    1    2    0    0  0.00000000000E+00  0.00000000000E+00  0.20382017407E+04  0.24747050745E+04  0.14035308582E+04 0.  0.
        4    1    3    3  502    0 -0.24084299851E+03 -0.32474400595E+03  0.20304600686E+04  0.20703221301E+04  0.12699999809E+01 0. -1.
       -4    1    3    3    0  502  0.24084299851E+03  0.32474400595E+03  0.77416720857E+01  0.40438294439E+03  0.12699999809E+01 0.  1.
</event>
<event>
 5   0  0.2215876E-04  0.1392962E+04  0.7818609E-02  0.8958929E-01
        1   -1    0    0  501    0  0.00000000000E+00  0.00000000000E+00  0.58217375045E+03  0.58217375047E+03  0.50400001928E-02 0.  1.
       -1   -1    0    0    0  501  0.00000000000E+00  0.00000000000E+00 -0.83323226596E+03  0.83323226598E+03  0.50400001928E-02 0. -1.
    10030    2    1    2    0    0  0.00000000000E+00  0.00000000000E+00 -0.25105851552E+03  0.14154060164E+04  0.13929622440E+04 0.  0.
        3    1    3    3  502    0  0.69152113756E+03  0.14740073152E+02 -0.20849773063E+03  0.72241959229E+03  0.10100000352E+00 0. -1.
       -3    1    3    3    0  502 -0.69152113756E+03 -0.14740073152E+02 -0.42560784886E+02  0.69298642415E+03  0.10100000352E+00 0.  1.
</event>
<event>
 5   0  0.2155352E-04  0.1398036E+04  0.7818609E-02  0.8955241E-01
        1   -1    0    0  501    0  0.00000000000E+00  0.00000000000E+00  0.95728871701E+03  0.95728871703E+03  0.50400001928E-02 0.  1.
       -1   -1    0    0    0  501  0.00000000000E+00  0.00000000000E+00 -0.51042717686E+03  0.51042717689E+03  0.50400001928E-02 0. -1.
    10030    2    1    2    0    0  0.00000000000E+00  0.00000000000E+00  0.44686154015E+03  0.14677158939E+04  0.13980360186E+04 0.  0.
        2    1    3    3  502    0 -0.68770733516E+03  0.12322720279E+03  0.19995901131E+03  0.72671172314E+03  0.25500000920E-02 0.  1.
       -2    1    3    3    0  502  0.68770733516E+03 -0.12322720279E+03  0.24690252884E+03  0.74100417077E+03  0.25500000920E-02 0. -1.
</event>
<event>
 5   0  0.2155352E-04  0.1393488E+04  0.7818609E-02  0.8958546E-01
       -1   -1    0    0    0  501  0.00000000000E+00  0.00000000000E+00  0.54859469586E+03  0.54859469589E+03  0.50400001928E-02 0. -1.
        1   -1    0    0  501    0  0.00000000000E+00  0.00000000000E+00 -0.88490085557E+03  0.88490085558E+03  0.50400001928E-02 0.  1.
    10030    2    1    2    0    0  0.00000000000E+00  0.00000000000E+00 -0.33630615970E+03  0.14334955515E+04  0.13934875898E+04 0.  0.
        2    1    3    3  502    0 -0.29889172081E+03 -0.44753909763E+03  0.28707250107E+03  0.60994928113E+03  0.25500000920E-02 0. -1.
       -2    1    3    3    0  502  0.29889172081E+03  0.44753909763E+03 -0.62337866077E+03  0.82354627034E+03  0.25500000920E-02 0.  1.
</event>
<event>
 5   0  0.2223112E-04  0.1328974E+04  0.7818609E-02  0.9006899E-01
       -1   -1    0    0    0  501  0.00000000000E+00  0.00000000000E+00  0.66281818701E+03  0.66281818703E+03  0.50400001928E-02 0.  1.
        1   -1    0    0  501    0  0.00000000000E+00  0.00000000000E+00 -0.66615997869E+03  0.66615997871E+03  0.50400001928E-02 0. -1.
    10030    2    1    2    0    0  0.00000000000E+00  0.00000000000E+00 -0.33417916813E+01  0.13289781657E+04  0.13289739642E+04 0.  0.
        1    1    3    3  502    0 -0.37461290514E+03 -0.46637576603E+03  0.28764259286E+03  0.66376158754E+03  0.50400001928E-02 0.  1.
       -1    1    3    3    0  502  0.37461290514E+03  0.46637576603E+03 -0.29098438454E+03  0.66521657820E+03  0.50400001928E-02 0. -1.
</event>
<event>
 5   0  0.2217251E-04  0.1401438E+04  0.7818609E-02  0.8952778E-01
        1   -1    0    0  501    0  0.00000000000E+00  0.00000000000E+00  0.93494414408E+03  0.93494414409E+03  0.50400001928E-02 0. -1.
       -1   -1    0    0    0  501  0.00000000000E+00  0.00000000000E+00 -0.52517291089E+03  0.52517291091E+03  0.50400001928E-02 0.  1.
    10030    2    1    2    0    0  0.00000000000E+00  0.00000000000E+00  0.40977123319E+03  0.14601170550E+04  0.14014383150E+04 0.  0.
        5    1    3    3  502    0 -0.32114006393E+03 -0.51823601382E+03 -0.15495315320E+03  0.62907239358E+03  0.46999998093E+01 0.  1.
       -5    1    3    3    0  502  0.32114006393E+03  0.51823601382E+03  0.56472438640E+03  0.83104466142E+03  0.46999998093E+01 0. -1.
</event>
<event>
 5   0  0.2155352E-04  0.1409894E+04  0.7818609E-02  0.8946688E-01
       -1   -1    0    0    0  501  0.00000000000E+00  0.00000000000E+00  0.83151165860E+03  0.83151165861E+03  0.50400001928E-02 0. -1.
        1   -1    0    0  501    0  0.00000000000E+00  0.00000000000E+00 -0.59764669834E+03  0.59764669837E+03  0.50400001928E-02 0.  1.
    10030    2    1    2    0    0  0.00000000000E+00  0.00000000000E+00  0.23386496026E+03  0.14291583570E+04  0.14098938931E+04 0.  0.
        2    1    3    3  502    0 -0.53983618911E+03 -0.13589519369E+03 -0.32148100522E+03  0.64283796673E+03  0.25500000920E-02 0.  1.
       -2    1    3    3    0  502  0.53983618911E+03  0.13589519369E+03  0.55534596548E+03  0.78632039025E+03  0.25500000920E-02 0. -1.
</event>
<event>
 5   0  0.4208622E-04  0.1385681E+04  0.7818609E-02  0.8964249E-01
       -2   -1    0    0    0  501  0.00000000000E+00  0.00000000000E+00  0.95539111182E+03  0.95539111182E+03  0.25500000920E-02 0. -1.
        2   -1    0    0  501    0  0.00000000000E+00  0.00000000000E+00 -0.50244144670E+03  0.50244144670E+03  0.25500000920E-02 0.  1.
    10030    2    1    2    0    0  0.00000000000E+00  0.00000000000E+00  0.45294966512E+03  0.14578325585E+04  0.13856811933E+04 0.  0.
        4    1    3    3  502    0  0.40323371732E+03  0.11603050152E+03  0.80651331343E+03  0.90913466863E+03  0.12699999809E+01 0. -1.
       -4    1    3    3    0  502 -0.40323371732E+03 -0.11603050152E+03 -0.35356364831E+03  0.54869788989E+03  0.12699999809E+01 0.  1.
</event>
<event>
 5   0  0.4208622E-04  0.1396331E+04  0.7818609E-02  0.8956479E-01
       -2   -1    0    0    0  501  0.00000000000E+00  0.00000000000E+00  0.42314478858E+03  0.42314478858E+03  0.25500000920E-02 0. -1.
        2   -1    0    0  501    0  0.00000000000E+00  0.00000000000E+00 -0.11519340937E+04  0.11519340937E+04  0.25500000920E-02 0.  1.
    10030    2    1    2    0    0  0.00000000000E+00  0.00000000000E+00 -0.72878930511E+03  0.15750788823E+04  0.13963307753E+04 0.  0.
        4    1    3    3  502    0  0.32153332915E+03  0.52369109902E+03  0.93798942620E+01  0.61459388564E+03  0.12699999809E+01 0. -1.
       -4    1    3    3    0  502 -0.32153332915E+03 -0.52369109902E+03 -0.73816919937E+03  0.96048499663E+03  0.12699999809E+01 0.  1.
</event>
<event>
 5   0  0.4310348E-04  0.1396062E+04  0.7818609E-02  0.8956674E-01
        2   -1    0    0  501    0  0.00000000000E+00  0.00000000000E+00  0.81637335513E+03  0.81637335514E+03  0.25500000920E-02 0.  1.
       -2   -1    0    0    0  501  0.00000000000E+00  0.00000000000E+00 -0.59684369371E+03  0.59684369372E+03  0.25500000920E-02 0. -1.
    10030    2    1    2    0    0  0.00000000000E+00  0.00000000000E+00  0.21952966142E+03  0.14132170489E+04  0.13960620169E+04 0.  0.
        1    1    3    3  502    0 -0.22871705131E+03  0.47064523094E+03  0.57742537952E+03  0.77925508783E+03  0.50400001928E-02 0.  1.
       -1    1    3    3    0  502  0.22871705131E+03 -0.47064523094E+03 -0.35789571809E+03  0.63396196102E+03  0.50400001928E-02 0. -1.
</event>
<event>
 5   0  0.2143942E-04  0.1398737E+04  0.7818609E-02  0.8954734E-01
       -1   -1    0    0    0  501  0.00000000000E+00  0.00000000000E+00  0.82760287549E+03  0.82760287551E+03  0.50400001928E-02 0. -1.
        1   -1    0    0  501    0  0.00000000000E+00  0.00000000000E+00 -0.59100323356E+03  0.59100323358E+03  0.50400001928E-02 0.  1.
    10030    2    1    2    0    0  0.00000000000E+00  0.00000000000E+00  0.23659964193E+03  0.14186061091E+04  0.13987365378E+04 0.  0.
        4    1    3    3  502    0  0.22048129162E+03  0.27732684268E+03  0.72985151862E+03  0.81129959309E+03  0.12699999809E+01 0. -1.
       -4    1    3    3    0  502 -0.22048129162E+03 -0.27732684268E+03 -0.49325187668E+03  0.60730651600E+03  0.12699999809E+01 0.  1.
</event>
<event>
 5   0  0.2143942E-04  0.1397557E+04  0.7818609E-02  0.8955589E-01
       -1   -1    0    0    0  501  0.00000000000E+00  0.00000000000E+00  0.46588930681E+03  0.46588930684E+03  0.50400001928E-02 0. -1.
        1   -1    0    0  501    0  0.00000000000E+00  0.00000000000E+00 -0.10480842290E+04  0.10480842291E+04  0.50400001928E-02 0.  1.
    10030    2    1    2    0    0  0.00000000000E+00  0.00000000000E+00 -0.58219492223E+03  0.15139735359E+04  0.13975567752E+04 0.  0.
        4    1    3    3  502    0 -0.14197736447E+03  0.13949428834E+02  0.44994438357E+03  0.47202088915E+03  0.12699999809E+01 0. -1.
       -4    1    3    3    0  502  0.14197736447E+03 -0.13949428834E+02 -0.10321393058E+04  0.10419526467E+04  0.12699999809E+01 0.  1.
</event>
<event>
 5   0  0.3975164E-04  0.1405641E+04  0.7818609E-02  0.8949746E-01
        2   -1    0    0  501    0  0.00000000000E+00  0.00000000000E+00  0.74298907849E+03  0.74298907850E+03  0.25500000920E-02 0. -1.
       -2   -1    0    0    0  501  0.00000000000E+00  0.00000000000E+00 -0.66482332830E+03  0.66482332831E+03  0.25500000920E-02 0.  1.
    10030    2    1    2    0    0  0.00000000000E+00  0.00000000000E+00  0.78165750189E+02  0.14078124068E+04  0.14056407394E+04 0.  0.
        5    1    3    3  502    0  0.42798818272E+03 -0.52529671431E+03 -0.14781695354E+03  0.69352899317E+03  0.46999998093E+01 0.  1.
       -5    1    3    3    0  502 -0.42798818272E+03  0.52529671431E+03  0.22598270373E+03  0.71428341364E+03  0.46999998093E+01 0. -1.
</event>
<event>
 5   0  0.2217251E-04  0.1382047E+04  0.7818609E-02  0.8966917E-01
       -1   -1    0    0    0  501  0.00000000000E+00  0.00000000000E+00  0.16796611719E+04  0.16796611719E+04  0.50400001928E-02 0. -1.
        1   -1    0    0  501    0  0.00000000000E+00  0.00000000000E+00 -0.28429169552E+03  0.28429169556E+03  0.50400001928E-02 0.  1.
    10030    2    1    2    0    0  0.00000000000E+00  0.00000000000E+00  0.13953694763E+04  0.19639528674E+04  0.13820473545E+04 0.  0.
        5    1    3    3  502    0 -0.10159174585E+03 -0.12430729604E+03 -0.25740031754E+03  0.30339775896E+03  0.46999998093E+01 0.  1.
       -5    1    3    3    0  502  0.10159174585E+03  0.12430729604E+03  0.16527697939E+04  0.16605551085E+04  0.46999998093E+01 0. -1.
</event>
<event>
 5   0  0.1497625E-04  0.1398574E+04  0.7818609E-02  0.8954851E-01
       -3   -1    0    0    0  501  0.00000000000E+00  0.00000000000E+00  0.68406628131E+03  0.68406628876E+03  0.10100000352E+00 0.  1.
        3   -1    0    0  501    0  0.00000000000E+00  0.00000000000E+00 -0.71484637376E+03  0.71484638090E+03  0.10100000352E+00 0. -1.
    10030    2    1    2    0    0  0.00000000000E+00  0.00000000000E+00 -0.30780092458E+02  0.13989126697E+04  0.13985740035E+04 0.  0.
        2    1    3    3  502    0  0.23230045204E+03  0.23803050571E+03  0.59988514561E+03  0.68591851528E+03  0.25500000920E-02 0.  1.
       -2    1    3    3    0  502 -0.23230045204E+03 -0.23803050571E+03 -0.63066523807E+03  0.71299415438E+03  0.25500000920E-02 0. -1.
</event>
<event>
 5   0  0.3932568E-04  0.1401087E+04  0.7818609E-02  0.8953032E-01
        2   -1    0    0  501    0  0.00000000000E+00  0.00000000000E+00  0.43091227651E+03  0.43091227652E+03  0.25500000920E-02 0. -1.
       -2   -1    0    0    0  501  0.00000000000E+00  0.00000000000E+00 -0.11388889228E+04  0.11388889228E+04  0.25500000920E-02 0.  1.
    10030    2    1    2    0    0  0.00000000000E+00  0.00000000000E+00 -0.70797664630E+03  0.15698011993E+04  0.14010870329E+04 0.  0.
        2    1    3    3  502    0 -0.15967004915E+03  0.91742098288E+02 -0.11112856016E+04  0.11264398899E+04  0.25500000920E-02 0.  1.
       -2    1    3    3    0  502  0.15967004915E+03 -0.91742098288E+02  0.40330895535E+03  0.44336130939E+03  0.25500000920E-02 0. -1.
</event>
<event>
 5   0  0.2215876E-04  0.1404165E+04  0.7818609E-02  0.8950809E-01
        1   -1    0    0  501    0  0.00000000000E+00  0.00000000000E+00  0.11842062404E+04  0.11842062404E+04  0.50400001928E-02 0. -1.
       -1   -1    0    0    0  501  0.00000000000E+00  0.00000000000E+00 -0.41624505622E+03  0.41624505625E+03  0.50400001928E-02 0.  1.
    10030    2    1    2    0    0  0.00000000000E+00  0.00000000000E+00  0.76796118416E+03  0.16004512966E+04  0.14041652227E+04 0.  0.
        3    1    3    3  502    0  0.70644272834E+02  0.30140435297E+03 -0.33425326526E+03  0.45558802970E+03  0.10100000352E+00 0.  1.
       -3    1    3    3    0  502 -0.70644272834E+02 -0.30140435297E+03  0.11022144494E+04  0.11448632669E+04  0.10100000352E+00 0. -1.
</event>
<event>
 5   0  0.3917598E-04  0.1408573E+04  0.7818609E-02  0.8947636E-01
       -2   -1    0    0    0  501  0.00000000000E+00  0.00000000000E+00  0.90948994779E+03  0.90948994780E+03  0.25500000920E-02 0.  1.
        2   -1    0    0  501    0  0.00000000000E+00  0.00000000000E+00 -0.54538213448E+03  0.54538213449E+03  0.25500000920E-02 0. -1.
    10030    2    1    2    0    0  0.00000000000E+00  0.00000000000E+00  0.36410781331E+03  0.14548720823E+04  0.14085731348E+04 0.  0.
        3    1    3    3  502    0 -0.52117198862E+03 -0.47358042194E+03  0.17069698914E+03  0.72459376899E+03  0.10100000352E+00 0. -1.
       -3    1    3    3    0  502  0.52117198862E+03  0.47358042194E+03  0.19341082417E+03  0.73027831329E+03  0.10100000352E+00 0.  1.
</event>
<event>
 5   0  0.4208622E-04  0.1409410E+04  0.7818609E-02  0.8947035E-01
        2   -1    0    0  501    0  0.00000000000E+00  0.00000000000E+00  0.10347393505E+04  0.10347393505E+04  0.25500000920E-02 0. -1.
       -2   -1    0    0    0  501  0.00000000000E+00  0.00000000000E+00 -0.47993664011E+03  0.47993664011E+03  0.25500000920E-02 0.  1.
    10030    2    1    2    0    0  0.00000000000E+00  0.00000000000E+00  0.55480271037E+03  0.15146759906E+04  0.14094102700E+04 0.  0.
        4    1    3    3  502    0 -0.19387961359E+03  0.35687927287E+03 -0.34150646943E+03  0.53064150001E+03  0.12699999809E+01 0.  1.
       -4    1    3    3    0  502  0.19387961359E+03 -0.35687927287E+03  0.89630917980E+03  0.98403449059E+03  0.12699999809E+01 0. -1.
</event>
<event>
 5   0  0.4208622E-04  0.1395474E+04  0.7818609E-02  0.8957101E-01
        2   -1    0    0  501    0  0.00000000000E+00  0.00000000000E+00  0.13269907271E+04  0.13269907271E+04  0.25500000920E-02 0. -1.
       -2   -1    0    0    0  501  0.00000000000E+00  0.00000000000E+00 -0.36687288891E+03  0.36687288892E+03  0.25500000920E-02 0.  1.
    10030    2    1    2    0    0  0.00000000000E+00  0.00000000000E+00  0.96011783821E+03  0.16938636160E+04  0.13954740007E+04 0.  0.
        4    1    3    3  502    0 -0.30416052806E+03 -0.31545400829E+03  0.11391237347E+04  0.12205037296E+04  0.12699999809E+01 0. -1.
       -4    1    3    3    0  502  0.30416052806E+03  0.31545400829E+03 -0.17900589650E+03  0.47335988641E+03  0.12699999809E+01 0.  1.
</event>
<event>
 5   0  0.2155352E-04  0.1400953E+04  0.7818609E-02  0.8953129E-01
       -1   -1    0    0    0  501  0.00000000000E+00  0.00000000000E+00  0.13199250655E+04  0.13199250655E+04  0.50400001928E-02 0.  1.
        1   -1    0    0  501    0  0.00000000000E+00  0.00000000000E+00 -0.37173883426E+03  0.37173883430E+03  0.50400001928E-02 0. -1.
    10030    2    1    2    0    0  0.00000000000E+00  0.00000000000E+00  0.94818623123E+03  0.16916638998E+04  0.14009531116E+04 0.  0.
        2    1    3    3  502    0 -0.84860793942E+01  0.50210418208E+03 -0.11559535697E+03  0.51530855782E+03  0.25500000920E-02 0. -1.
       -2    1    3    3    0  502  0.84860793942E+01 -0.50210418208E+03  0.10637815882E+04  0.11763553420E+04  0.25500000920E-02 0.  1.
</event>
<event>
 5   0  0.4310348E-04  0.1397835E+04  0.7818609E-02  0.8955387E-01
       -2   -1    0    0    0  501  0.00000000000E+00  0.00000000000E+00  0.73072387508E+03  0.73072387508E+03  0.25500000920E-02 0. -1.
        2   -1    0    0  501    0  0.00000000000E+00  0.00000000000E+00 -0.66849531935E+03  0.66849531935E+03  0.25500000920E-02 0.  1.
    10030    2    1    2    0    0  0.00000000000E+00  0.00000000000E+00  0.62228555730E+02  0.13992191944E+04  0.13978347402E+04 0.  0.
        1    1    3    3  502    0  0.47899403670E+03  0.24686343486E+03 -0.41442053161E+03  0.67979498359E+03  0.50400001928E-02 0.  1.
       -1    1    3    3    0  502 -0.47899403670E+03 -0.24686343486E+03  0.47664908734E+03  0.71942421085E+03  0.50400001928E-02 0. -1.
</event>
<event>
 5   0  0.2223112E-04  0.1440075E+04  0.7818609E-02  0.8925310E-01
       -1   -1    0    0    0  501  0.00000000000E+00  0.00000000000E+00  0.15658419921E+04  0.15658419921E+04  0.50400001928E-02 0. -1.
        1   -1    0    0  501    0  0.00000000000E+00  0.00000000000E+00 -0.33110228701E+03  0.33110228705E+03  0.50400001928E-02 0.  1.
    10030    2    1    2    0    0  0.00000000000E+00  0.00000000000E+00  0.12347397051E+04  0.18969442792E+04  0.14400748102E+04 0.  0.
        1    1    3    3  502    0 -0.60062742071E+02  0.58014522746E+03  0.61186212124E+02  0.58644673288E+03  0.50400001928E-02 0.  1.
       -1    1    3    3    0  502  0.60062742071E+02 -0.58014522746E+03  0.11735534930E+04  0.13104975463E+04  0.50400001928E-02 0. -1.
</event>
<event>
 5   0  0.2217251E-04  0.1400382E+04  0.7818609E-02  0.8953542E-01
        1   -1    0    0  501    0  0.00000000000E+00  0.00000000000E+00  0.12057337025E+04  0.12057337025E+04  0.50400001928E-02 0.  1.
       -1   -1    0    0    0  501  0.00000000000E+00  0.00000000000E+00 -0.40661317181E+03  0.40661317185E+03  0.50400001928E-02 0. -1.
    10030    2    1    2    0    0  0.00000000000E+00  0.00000000000E+00  0.79912053068E+03  0.16123468744E+04  0.14003816696E+04 0.  0.
        5    1    3    3  502    0  0.46974248953E+03  0.12368782992E+03  0.98015803390E+03  0.10939326063E+04  0.46999998093E+01 0.  1.
       -5    1    3    3    0  502 -0.46974248953E+03 -0.12368782992E+03 -0.18103750322E+03  0.51841426804E+03  0.46999998093E+01 0. -1.
</event>
<event>
 5   0  0.4310348E-04  0.1396389E+04  0.7818609E-02  0.8956437E-01
        2   -1    0    0  501    0  0.00000000000E+00  0.00000000000E+00  0.45700539680E+03  0.45700539680E+03  0.25500000920E-02 0. -1.
       -2   -1    0    0    0  501  0.00000000000E+00  0.00000000000E+00 -0.10666733197E+04  0.10666733197E+04  0.25500000920E-02 0.  1.
    10030    2    1    2    0    0  0.00000000000E+00  0.00000000000E+00 -0.60966792287E+03  0.15236787165E+04  0.13963888623E+04 0.  0.
        1    1    3    3  502    0 -0.36880748959E+03 -0.17193720457E+03 -0.92390933899E+03  0.10095493219E+04  0.50400001928E-02 0.  1.
       -1    1    3    3    0  502  0.36880748959E+03  0.17193720457E+03  0.31424141613E+03  0.51412939454E+03  0.50400001928E-02 0. -1.
</event>
<event>
 5   0  0.2217251E-04  0.1403400E+04  0.7818609E-02  0.8951361E-01
        1   -1    0    0  501    0  0.00000000000E+00  0.00000000000E+00  0.10099397895E+04  0.10099397895E+04  0.50400001928E-02 0. -1.
       -1   -1    0    0    0  501  0.00000000000E+00  0.00000000000E+00 -0.48753670292E+03  0.48753670294E+03  0.50400001928E-02 0.  1.
    10030    2    1    2    0    0  0.00000000000E+00  0.00000000000E+00  0.52240308655E+03  0.14974764924E+04  0.14033997508E+04 0.  0.
        5    1    3    3  502    0 -0.21350120954E+03  0.60311294752E+03 -0.46268648395E+02  0.64147554261E+03  0.46999998093E+01 0.  1.
       -5    1    3    3    0  502  0.21350120954E+03 -0.60311294752E+03  0.56867173494E+03  0.85600094980E+03  0.46999998093E+01 0. -1.
</event>
<event>
 5   0  0.2215876E-04  0.1404996E+04  0.7818609E-02  0.8950210E-01
        1   -1    0    0  501    0  0.00000000000E+00  0.00000000000E+00  0.11051999611E+04  0.11051999612E+04  0.50400001928E-02 0. -1.
       -1   -1    0    0    0  501  0.00000000000E+00  0.00000000000E+00 -0.44652844285E+03  0.44652844288E+03  0.50400001928E-02 0.  1.
    10030    2    1    2    0    0  0.00000000000E+00  0.00000000000E+00  0.65867151830E+03  0.15517284040E+04  0.14049956836E+04 0.  0.
        3    1    3    3  502    0  0.24979433466E+03 -0.24287196058E+03 -0.34438784645E+03  0.48988467811E+03  0.10100000352E+00 0.  1.
       -3    1    3    3    0  502 -0.24979433466E+03  0.24287196058E+03  0.10030593648E+04  0.10618437259E+04  0.10100000352E+00 0. -1.
</event>
<event>
 5   0  0.2143942E-04  0.1401515E+04  0.7818609E-02  0.8952722E-01
       -1   -1    0    0    0  501  0.00000000000E+00  0.00000000000E+00  0.43328594796E+03  0.43328594799E+03  0.50400001928E-02 0.  1.
        1   -1    0    0  501    0  0.00000000000E+00  0.00000000000E+00 -0.11333424540E+04  0.11333424540E+04  0.50400001928E-02 0. -1.
    10030    2    1    2    0    0  0.00000000000E+00  0.00000000000E+00 -0.70005650604E+03  0.15666284020E+04  0.14015154078E+04 0.  0.
        4    1    3    3  502    0 -0.40008620596E+03  0.54193451588E+03 -0.56590678938E+03  0.87978071067E+03  0.12699999809E+01 0. -1.
       -4    1    3    3    0  502  0.40008620596E+03 -0.54193451588E+03 -0.13414971666E+03  0.68684769133E+03  0.12699999809E+01 0.  1.
</event>
<event>
 5   0  0.3975164E-04  0.1392921E+04  0.7818609E-02  0.8958959E-01
       -2   -1    0    0    0  501  0.00000000000E+00  0.00000000000E+00  0.63955946657E+03  0.63955946657E+03  0.25500000920E-02 0.  1.
        2   -1    0    0  501    0  0.00000000000E+00  0.00000000000E+00 -0.75842419143E+03  0.75842419143E+03  0.25500000920E-02 0. -1.
    10030    2    1    2    0    0  0.00000000000E+00  0.00000000000E+00 -0.11886472486E+03  0.13979836580E+04  0.13929212057E+04 0.  0.
        5    1    3    3  502    0 -0.28657362169E+03 -0.41314285137E+03  0.42421512024E+03  0.65786929897E+03  0.46999998093E+01 0.  1.
       -5    1    3    3    0  502  0.28657362169E+03  0.41314285137E+03 -0.54307984510E+03  0.74011435903E+03  0.46999998093E+01 0. -1.
</event>
<event>
 5   0  0.4310348E-04  0.1397659E+04  0.7818609E-02  0.8955515E-01
        2   -1    0    0  501    0  0.00000000000E+00  0.00000000000E+00  0.15012158423E+04  0.15012158423E+04  0.25500000920E-02 0.  1.
       -2   -1    0    0    0  501  0.00000000000E+00  0.00000000000E+00 -0.32531149932E+03  0.32531149933E+03  0.25500000920E-02 0. -1.
    10030    2    1    2    0    0  0.00000000000E+00  0.00000000000E+00  0.11759043429E+04  0.18265273416E+04  0.13976591522E+04 0.  0.
        1    1    3    3  502    0  0.68641778238E+03 -0.10749733296E+03  0.48982778384E+03  0.85009193997E+03  0.50400001928E-02 0.  1.
       -1    1    3    3    0  502 -0.68641778238E+03  0.10749733296E+03  0.68607655910E+03  0.97643540162E+03  0.50400001928E-02 0. -1.
</event>
<event>
 5   0  0.2155352E-04  0.1400104E+04  0.7818609E-02  0.8953743E-01
        1   -1    0    0  501    0  0.00000000000E+00  0.00000000000E+00  0.12082970128E+04  0.12082970128E+04  0.50400001928E-02 0. -1.
       -1   -1    0    0    0  501  0.00000000000E+00  0.00000000000E+00 -0.40558955287E+03  0.40558955290E+03  0.50400001928E-02 0.  1.
    10030    2    1    2    0    0  0.00000000000E+00  0.00000000000E+00  0.80270745995E+03  0.16138865657E+04  0.14001037750E+04 0.  0.
        2    1    3    3  502    0 -0.36006438339E+02  0.78091215947E+02  0.12021858927E+04  0.12052574921E+04  0.25500000920E-02 0. -1.
       -2    1    3    3    0  502  0.36006438339E+02 -0.78091215947E+02 -0.39947843273E+03  0.40862907366E+03  0.25500000920E-02 0.  1.
</event>
<event>
 5   0  0.2217251E-04  0.1398762E+04  0.7818609E-02  0.8954715E-01
        1   -1    0    0  501    0  0.00000000000E+00  0.00000000000E+00  0.99553606189E+03  0.99553606191E+03  0.50400001928E-02 0.  1.
       -1   -1    0    0    0  501  0.00000000000E+00  0.00000000000E+00 -0.49132700338E+03  0.49132700341E+03  0.50400001928E-02 0. -1.
    10030    2    1    2    0    0  0.00000000000E+00  0.00000000000E+00  0.50420905851E+03  0.14868630653E+04  0.13987619527E+04 0.  0.
        5    1    3    3  502    0  0.23757357340E+03  0.57496866365E+03  0.59173032550E+03  0.85860179074E+03  0.46999998093E+01 0.  1.
       -5    1    3    3    0  502 -0.23757357340E+03 -0.57496866365E+03 -0.87521266983E+02  0.62826127457E+03  0.46999998093E+01 0. -1.
</event>
<event>
 5   0  0.3917598E-04  0.1403841E+04  0.7818609E-02  0.8951043E-01
        2   -1    0    0  501    0  0.00000000000E+00  0.00000000000E+00  0.51458653668E+03  0.51458653669E+03  0.25500000920E-02 0.  1.
       -2   -1    0    0    0  501  0.00000000000E+00  0.00000000000E+00 -0.95745320762E+03  0.95745320762E+03  0.25500000920E-02 0. -1.
    10030    2    1    2    0    0  0.00000000000E+00  0.00000000000E+00 -0.44286667094E+03  0.14720397443E+04  0.14038412021E+04 0.  0.
        3    1    3    3  502    0 -0.15000438218E+03  0.77502737770E+02  0.49297560843E+03  0.52108823604E+03  0.10100000352E+00 0.  1.
       -3    1    3    3    0  502  0.15000438218E+03 -0.77502737770E+02 -0.93584227937E+03  0.95095150827E+03  0.10100000352E+00 0. -1.
</event>
<event>
 5   0  0.3917598E-04  0.1386207E+04  0.7818609E-02  0.8963863E-01
       -2   -1    0    0    0  501  0.00000000000E+00  0.00000000000E+00  0.32180656026E+03  0.32180656027E+03  0.25500000920E-02 0.  1.
        2   -1    0    0  501    0  0.00000000000E+00  0.00000000000E+00 -0.14927999207E+04  0.14927999207E+04  0.25500000920E-02 0. -1.
    10030    2    1    2    0    0  0.00000000000E+00  0.00000000000E+00 -0.11709933604E+04  0.18146064809E+04  0.13862074991E+04 0.  0.
        3    1    3    3  502    0  0.33662371143E+03 -0.56436787685E+03 -0.29701306021E+03  0.72114034116E+03  0.10100000352E+00 0.  1.
       -3    1    3    3    0  502 -0.33662371143E+03  0.56436787685E+03 -0.87398030020E+03  0.10934661398E+04  0.10100000352E+00 0. -1.
</event>
<event>
 5   0  0.1497625E-04  0.1391053E+04  0.7818609E-02  0.8960320E-01
        3   -1    0    0  501    0  0.00000000000E+00  0.00000000000E+00  0.13138342663E+04  0.13138342702E+04  0.10100000352E+00 0. -1.
       -3   -1    0    0    0  501  0.00000000000E+00  0.00000000000E+00 -0.36820252550E+03  0.36820253935E+03  0.10100000352E+00 0.  1.
    10030    2    1    2    0    0  0.00000000000E+00  0.00000000000E+00  0.94563174078E+03  0.16820368095E+04  0.13910529966E+04 0.  0.
        4    1    3    3  502    0 -0.69948728317E+02  0.60947935279E+03  0.76547791722E+02  0.61823869451E+03  0.12699999809E+01 0.  1.
       -4    1    3    3    0  502  0.69948728317E+02 -0.60947935279E+03  0.86908394905E+03  0.10637981150E+04  0.12699999809E+01 0. -1.
</event>
<event>
 5   0  0.2155352E-04  0.1410420E+04  0.7818609E-02  0.8946310E-01
        1   -1    0    0  501    0  0.00000000000E+00  0.00000000000E+00  0.14460062083E+04  0.14460062083E+04  0.50400001928E-02 0.  1.
       -1   -1    0    0    0  501  0.00000000000E+00  0.00000000000E+00 -0.34392742472E+03  0.34392742476E+03  0.50400001928E-02 0. -1.
    10030    2    1    2    0    0  0.00000000000E+00  0.00000000000E+00  0.11020787836E+04  0.17899336331E+04  0.14104200671E+04 0.  0.
        2    1    3    3  502    0  0.22795976574E+03  0.21504148202E+03 -0.25070553895E+03  0.40132500676E+03  0.25500000920E-02 0. -1.
       -2    1    3    3    0  502 -0.22795976574E+03 -0.21504148202E+03  0.13527843225E+04  0.13886086263E+04  0.25500000920E-02 0.  1.
</event>
<event>
 5   0  0.2217251E-04  0.1391916E+04  0.7818609E-02  0.8959691E-01
        1   -1    0    0  501    0  0.00000000000E+00  0.00000000000E+00  0.44197813818E+03  0.44197813821E+03  0.50400001928E-02 0. -1.
       -1   -1    0    0    0  501  0.00000000000E+00  0.00000000000E+00 -0.10958856010E+04  0.10958856011E+04  0.50400001928E-02 0.  1.
    10030    2    1    2    0    0  0.00000000000E+00  0.00000000000E+00 -0.65390746287E+03  0.15378637393E+04  0.13919159136E+04 0.  0.
        5    1    3    3  502    0  0.38228576882E+03 -0.43625863651E+03  0.97907321235E+02  0.58827879490E+03  0.46999998093E+01 0. -1.
       -5    1    3    3    0  502 -0.38228576882E+03  0.43625863651E+03 -0.75181478411E+03  0.94958494437E+03  0.46999998093E+01 0.  1.
</event>
<event>
 5   0  0.2155352E-04  0.1397932E+04  0.7818609E-02  0.8955317E-01
       -1   -1    0    0    0  501  0.00000000000E+00  0.00000000000E+00  0.44428731890E+03  0.44428731893E+03  0.50400001928E-02 0.  1.
        1   -1    0    0  501    0  0.00000000000E+00  0.00000000000E+00 -0.10996341533E+04  0.10996341534E+04  0.50400001928E-02 0. -1.
    10030    2    1    2    0    0  0.00000000000E+00  0.00000000000E+00 -0.65534683444E+03  0.15439214723E+04  0.13979320581E+04 0.  0.
        2    1    3    3  502    0  0.65934609549E+03 -0.28345412987E+02 -0.58196349033E+03  0.87989899429E+03  0.25500000920E-02 0. -1.
       -2    1    3    3    0  502 -0.65934609549E+03  0.28345412987E+02 -0.73383344110E+02  0.66402247799E+03  0.25500000920E-02 0.  1.
</event>
<event>
 5   0  0.2217251E-04  0.1399903E+04  0.7818609E-02  0.8953889E-01
        1   -1    0    0  501    0  0.00000000000E+00  0.00000000000E+00  0.66422863358E+03  0.66422863359E+03  0.50400001928E-02 0.  1.
       -1   -1    0    0    0  501  0.00000000000E+00  0.00000000000E+00 -0.73759544662E+03  0.73759544663E+03  0.50400001928E-02 0. -1.
    10030    2    1    2    0    0  0.00000000000E+00  0.00000000000E+00 -0.73366813040E+02  0.14018240802E+04  0.13999028761E+04 0.  0.
        5    1    3    3  502    0  0.28799351207E+03 -0.42714658852E+02 -0.67406705307E+03  0.73427058167E+03  0.46999998093E+01 0. -1.
       -5    1    3    3    0  502 -0.28799351207E+03  0.42714658852E+02  0.60070024003E+03  0.66755349856E+03  0.46999998093E+01 0.  1.
</event>
<event>
 5   0  0.2155352E-04  0.1418450E+04  0.7818609E-02  0.8940571E-01
       -1   -1    0    0    0  501  0.00000000000E+00  0.00000000000E+00  0.95544351208E+03  0.95544351210E+03  0.50400001928E-02 0.  1.
        1   -1    0    0  501    0  0.00000000000E+00  0.00000000000E+00 -0.52645687766E+03  0.52645687768E+03  0.50400001928E-02 0. -1.
    10030    2    1    2    0    0  0.00000000000E+00  0.00000000000E+00  0.42898663443E+03  0.14819003898E+04  0.14184495876E+04 0.  0.
        2    1    3    3  502    0 -0.42688636652E+03 -0.24622396981E+01  0.80618628987E+03  0.91223591605E+03  0.25500000920E-02 0.  1.
       -2    1    3    3    0  502  0.42688636652E+03  0.24622396981E+01 -0.37719965545E+03  0.56966447372E+03  0.25500000920E-02 0. -1.
</event>
<event>
 5   0  0.3917598E-04  0.1385175E+04  0.7818609E-02  0.8964620E-01
        2   -1    0    0  501    0  0.00000000000E+00  0.00000000000E+00  0.44103734186E+03  0.44103734186E+03  0.25500000920E-02 0. -1.
       -2   -1    0    0    0  501  0.00000000000E+00  0.00000000000E+00 -0.10876117347E+04  0.10876117347E+04  0.25500000920E-02 0.  1.
    10030    2    1    2    0    0  0.00000000000E+00  0.00000000000E+00 -0.64657439285E+03  0.15286490766E+04  0.13851749181E+04 0.  0.
        3    1    3    3  502    0 -0.20960799166E+03 -0.56854904463E+03 -0.69342851966E+03  0.92088362370E+03  0.10100000352E+00 0.  1.
       -3    1    3    3    0  502  0.20960799166E+03  0.56854904463E+03  0.46854126808E+02  0.60776545288E+03  0.10100000352E+00 0. -1.
</event>
<event>
 5   0  0.3932568E-04  0.1404263E+04  0.7818609E-02  0.8950738E-01
        2   -1    0    0  501    0  0.00000000000E+00  0.00000000000E+00  0.11761714674E+04  0.11761714674E+04  0.25500000920E-02 0. -1.
       -2   -1    0    0    0  501  0.00000000000E+00  0.00000000000E+00 -0.41914715425E+03  0.41914715426E+03  0.25500000920E-02 0.  1.
    10030    2    1    2    0    0  0.00000000000E+00  0.00000000000E+00  0.75702431315E+03  0.15953186217E+04  0.14042633991E+04 0.  0.
        2    1    3    3  502    0 -0.12723870121E+03  0.31078021990E+03 -0.32199635931E+03  0.46524798504E+03  0.25500000920E-02 0.  1.
       -2    1    3    3    0  502  0.12723870121E+03 -0.31078021990E+03  0.10790206725E+04  0.11300706366E+04  0.25500000920E-02 0. -1.
</event>
<event>
 5   0  0.4310348E-04  0.1379162E+04  0.7818609E-02  0.8969042E-01
        2   -1    0    0  501    0  0.00000000000E+00  0.00000000000E+00  0.81973942003E+03  0.81973942003E+03  0.25500000920E-02 0.  1.
       -2   -1    0    0    0  501  0.00000000000E+00  0.00000000000E+00 -0.58008885310E+03  0.58008885310E+03  0.25500000920E-02 0. -1.
    10030    2    1    2    0    0  0.00000000000E+00  0.00000000000E+00  0.23965056693E+03  0.13998282731E+04  0.13791616294E+04 0.  0.
        1    1    3    3  502    0 -0.25451684511E+03 -0.23013626987E+03  0.72693576360E+03  0.80385143627E+03  0.50400001928E-02 0.  1.
       -1    1    3    3    0  502  0.25451684511E+03  0.23013626987E+03 -0.48728519667E+03  0.59597683686E+03  0.50400001928E-02 0. -1.
</event>
<event>
 5   0  0.2155352E-04  0.1400222E+04  0.7818609E-02  0.8953658E-01
        1   -1    0    0  501    0  0.00000000000E+00  0.00000000000E+00  0.10743308871E+04  0.10743308871E+04  0.50400001928E-02 0. -1.
       -1   -1    0    0    0  501  0.00000000000E+00  0.00000000000E+00 -0.45624270487E+03  0.45624270489E+03  0.50400001928E-02 0.  1.
    10030    2    1    2    0    0  0.00000000000E+00  0.00000000000E+00  0.61808818222E+03  0.15305735920E+04  0.14002223107E+04 0.  0.
        2    1    3    3  502    0  0.39699074326E+03  0.25496927244E+03 -0.25635532787E+03  0.53696278666E+03  0.25500000920E-02 0.  1.
       -2    1    3    3    0  502 -0.39699074326E+03 -0.25496927244E+03  0.87444351009E+03  0.99361080533E+03  0.25500000920E-02 0. -1.
</event>
<event>
 5   0  0.4208622E-04  0.1409918E+04  0.7818609E-02  0.8946670E-01
        2   -1    0    0  501    0  0.00000000000E+00  0.00000000000E+00  0.57031068434E+03  0.57031068435E+03  0.25500000920E-02 0. -1.
       -2   -1    0    0    0  501  0.00000000000E+00  0.00000000000E+00 -0.87139762650E+03  0.87139762651E+03  0.25500000920E-02 0.  1.
    10030    2    1    2    0    0  0.00000000000E+00  0.00000000000E+00 -0.30108694216E+03  0.14417083109E+04  0.14099182625E+04 0.  0.
        4    1    3    3  502    0 -0.67533720055E+03  0.20204700803E+03 -0.14246366959E+03  0.71916676644E+03  0.12699999809E+01 0. -1.
       -4    1    3    3    0  502  0.67533720055E+03 -0.20204700803E+03 -0.15862327257E+03  0.72254154441E+03  0.12699999809E+01 0.  1.
</event>
<event>
 5   0  0.2223112E-04  0.1401288E+04  0.7818609E-02  0.8952886E-01
        1   -1    0    0  501    0  0.00000000000E+00  0.00000000000E+00  0.71371963549E+03  0.71371963551E+03  0.50400001928E-02 0.  1.
       -1   -1    0    0    0  501  0.00000000000E+00  0.00000000000E+00 -0.68780836870E+03  0.68780836872E+03  0.50400001928E-02 0. -1.
    10030    2    1    2    0    0  0.00000000000E+00  0.00000000000E+00  0.25911266790E+02  0.14015280042E+04  0.14012884617E+04 0.  0.
        1    1    3    3  502    0 -0.21909219864E+03 -0.36250556278E+02  0.67758923955E+03  0.71305166146E+03  0.50400001928E-02 0.  1.
       -1    1    3    3    0  502  0.21909219864E+03  0.36250556278E+02 -0.65167797276E+03  0.68847634276E+03  0.50400001928E-02 0. -1.
</event>
<event>
 5   0  0.2143942E-04  0.1394732E+04  0.7818609E-02  0.8957641E-01
        1   -1    0    0  501    0  0.00000000000E+00  0.00000000000E+00  0.74545036942E+03  0.74545036944E+03  0.50400001928E-02 0.  1.
       -1   -1    0    0    0  501  0.00000000000E+00  0.00000000000E+00 -0.65238280695E+03  0.65238280697E+03  0.50400001928E-02 0. -1.
    10030    2    1    2    0    0  0.00000000000E+00  0.00000000000E+00  0.93067562475E+02  0.13978331764E+04  0.13947315218E+04 0.  0.
        4    1    3    3  502    0 -0.87649747248E+02 -0.10372144194E+03 -0.63900254344E+03  0.65327366328E+03  0.12699999809E+01 0. -1.
       -4    1    3    3    0  502  0.87649747248E+02  0.10372144194E+03  0.73207010592E+03  0.74455951313E+03  0.12699999809E+01 0.  1.
</event>
<event>
 5   0  0.3917598E-04  0.1398559E+04  0.7818609E-02  0.8954862E-01
        2   -1    0    0  501    0  0.00000000000E+00  0.00000000000E+00  0.97968035349E+03  0.97968035349E+03  0.25500000920E-02 0.  1.
       -2   -1    0    0    0  501  0.00000000000E+00  0.00000000000E+00 -0.49913409934E+03  0.49913409935E+03  0.25500000920E-02 0. -1.
    10030    2    1    2    0    0  0.00000000000E+00  0.00000000000E+00  0.48054625415E+03  0.14788144528E+04  0.13985590740E+04 0.  0.
        3    1    3    3  502    0 -0.56676337611E+03  0.10888685507E+02 -0.19267711040E+03  0.59871843720E+03  0.10100000352E+00 0. -1.
       -3    1    3    3    0  502  0.56676337611E+03 -0.10888685507E+02  0.67322336455E+03  0.88009601564E+03  0.10100000352E+00 0.  1.
</event>
<event>
 5   0  0.2217251E-04  0.1400734E+04  0.7818609E-02  0.8953287E-01
        1   -1    0    0  501    0  0.00000000000E+00  0.00000000000E+00  0.15241395645E+04  0.15241395645E+04  0.50400001928E-02 0. -1.
       -1   -1    0    0    0  501  0.00000000000E+00  0.00000000000E+00 -0.32183028045E+03  0.32183028049E+03  0.50400001928E-02 0.  1.
    10030    2    1    2    0    0  0.00000000000E+00  0.00000000000E+00  0.12023092841E+04  0.18459698450E+04  0.14007344695E+04 0.  0.
        5    1    3    3  502    0 -0.40267097562E+02  0.69339024711E+03  0.48268876670E+03  0.84582622886E+03  0.46999998093E+01 0. -1.
       -5    1    3    3    0  502  0.40267097562E+02 -0.69339024711E+03  0.71962051739E+03  0.10001436162E+04  0.46999998093E+01 0.  1.
</event>
<event>
 5   0  0.3917598E-04  0.1401523E+04  0.7818609E-02  0.8952717E-01
        2   -1    0    0  501    0  0.00000000000E+00  0.00000000000E+00  0.27125003302E+04  0.27125003302E+04  0.25500000920E-02 0.  1.
       -2   -1    0    0    0  501  0.00000000000E+00  0.00000000000E+00 -0.18103842140E+03  0.18103842142E+03  0.25500000920E-02 0. -1.
    10030    2    1    2    0    0  0.00000000000E+00  0.00000000000E+00  0.25314619088E+04  0.28935387516E+04  0.14015231398E+04 0.  0.
        3    1    3    3  502    0  0.43677051114E+03 -0.16988674610E+03  0.19009978353E+03  0.50573503320E+03  0.10100000352E+00 0. -1.
       -3    1    3    3    0  502 -0.43677051114E+03  0.16988674610E+03  0.23413621252E+04  0.23878037184E+04  0.10100000352E+00 0.  1.
</event>
<event>
 5   0  0.2143942E-04  0.1404368E+04  0.7818609E-02  0.8950663E-01
        1   -1    0    0  501    0  0.00000000000E+00  0.00000000000E+00  0.36679639052E+03  0.36679639056E+03  0.50400001928E-02 0. -1.
       -1   -1    0    0    0  501  0.00000000000E+00  0.00000000000E+00 -0.13442393523E+04  0.13442393523E+04  0.50400001928E-02 0.  1.
    10030    2    1    2    0    0  0.00000000000E+00  0.00000000000E+00 -0.97744296175E+03  0.17110357428E+04  0.14043676761E+04 0.  0.
        4    1    3    3  502    0  0.54187999341E+03  0.43743396253E+03 -0.37921654500E+03  0.79296229402E+03  0.12699999809E+01 0.  1.
       -4    1    3    3    0  502 -0.54187999341E+03 -0.43743396253E+03 -0.59822641675E+03  0.91807344882E+03  0.12699999809E+01 0. -1.
</event>
<event>
 5   0  0.2217251E-04  0.1401326E+04  0.7818609E-02  0.8952859E-01
       -1   -1    0    0    0  501  0.00000000000E+00  0.00000000000E+00  0.66211905899E+03  0.66211905901E+03  0.50400001928E-02 0.  1.
        1   -1    0    0  501    0  0.00000000000E+00  0.00000000000E+00 -0.74145090792E+03  0.74145090794E+03  0.50400001928E-02 0. -1.
    10030    2    1    2    0    0  0.00000000000E+00  0.00000000000E+00 -0.79331848931E+02  0.14035699669E+04  0.14013261968E+04 0.  0.
        5    1    3    3  502    0  0.18457104993E+03  0.16295525665E+03 -0.69667797096E+03  0.73892027537E+03  0.46999998093E+01 0. -1.
       -5    1    3    3    0  502 -0.18457104993E+03 -0.16295525665E+03  0.61734612202E+03  0.66464969158E+03  0.46999998093E+01 0.  1.
</event>
<event>
 5   0  0.3975164E-04  0.1403268E+04  0.7818609E-02  0.8951456E-01
        2   -1    0    0  501    0  0.00000000000E+00  0.00000000000E+00  0.21547160083E+04  0.21547160083E+04  0.25500000920E-02 0.  1.
       -2   -1    0    0    0  501  0.00000000000E+00  0.00000000000E+00 -0.22847122685E+03  0.22847122686E+03  0.25500000920E-02 0. -1.
    10030    2    1    2    0    0  0.00000000000E+00  0.00000000000E+00  0.19262447815E+04  0.23831872352E+04  0.14032684846E+04 0.  0.
        5    1    3    3  502    0  0.24048547078E+03  0.65989166370E+01 -0.15620764575E+03  0.28687928811E+03  0.46999998093E+01 0. -1.
       -5    1    3    3    0  502 -0.24048547078E+03 -0.65989166370E+01  0.20824524272E+04  0.20963079471E+04  0.46999998093E+01 0.  1.
</event>
<event>
 5   0  0.2223112E-04  0.1406611E+04  0.7818609E-02  0.8949047E-01
       -1   -1    0    0    0  501  0.00000000000E+00  0.00000000000E+00  0.44182606260E+03  0.44182606263E+03  0.50400001928E-02 0. -1.
        1   -1    0    0  501    0  0.00000000000E+00  0.00000000000E+00 -0.11195318291E+04  0.11195318291E+04  0.50400001928E-02 0.  1.
    10030    2    1    2    0    0  0.00000000000E+00  0.00000000000E+00 -0.67770576653E+03  0.15613578918E+04  0.14066105929E+04 0.  0.
        1    1    3    3  502    0 -0.51555120619E+03  0.81713859040E+02 -0.86205497024E+03  0.10077742667E+04  0.50400001928E-02 0.  1.
       -1    1    3    3    0  502  0.51555120619E+03 -0.81713859040E+02  0.18434920371E+03  0.55358362503E+03  0.50400001928E-02 0. -1.
</event>
<event>
 5   0  0.3975164E-04  0.1400278E+04  0.7818609E-02  0.8953617E-01
       -2   -1    0    0    0  501  0.00000000000E+00  0.00000000000E+00  0.14295616461E+04  0.14295616461E+04  0.25500000920E-02 0. -1.
        2   -1    0    0  501    0  0.00000000000E+00  0.00000000000E+00 -0.34289866282E+03  0.34289866283E+03  0.25500000920E-02 0.  1.
    10030    2    1    2    0    0  0.00000000000E+00  0.00000000000E+00  0.10866629833E+04  0.17724603089E+04  0.14002782250E+04 0.  0.
        5    1    3    3  502    0 -0.67066863478E+03 -0.17499417216E+03  0.66833959696E+03  0.96287033646E+03  0.46999998093E+01 0.  1.
       -5    1    3    3    0  502  0.67066863478E+03  0.17499417216E+03  0.41832338629E+03  0.80958997244E+03  0.46999998093E+01 0. -1.
</event>
<event>
 5   0  0.2155352E-04  0.1374206E+04  0.7818609E-02  0.8972704E-01
       -1   -1    0    0    0  501  0.00000000000E+00  0.00000000000E+00  0.92903768720E+03  0.92903768721E+03  0.50400001928E-02 0. -1.
        1   -1    0    0  501    0  0.00000000000E+00  0.00000000000E+00 -0.50817179236E+03  0.50817179238E+03  0.50400001928E-02 0.  1.
    10030    2    1    2    0    0  0.00000000000E+00  0.00000000000E+00  0.42086589484E+03  0.14372094796E+04  0.13742063116E+04 0.  0.
        2    1    3    3  502    0 -0.45938822924E+03 -0.29190613107E+03  0.64902082390E+03  0.84703882106E+03  0.25500000920E-02 0. -1.
       -2    1    3    3    0  502  0.45938822924E+03  0.29190613107E+03 -0.22815492906E+03  0.59017065853E+03  0.25500000920E-02 0.  1.
</event>
<event>
 5   0  0.2215876E-04  0.1376121E+04  0.7818609E-02  0.8971287E-01
        1   -1    0    0  501    0  0.00000000000E+00  0.00000000000E+00  0.10010454352E+04  0.10010454352E+04  0.50400001928E-02 0. -1.
       -1   -1    0    0    0  501  0.00000000000E+00  0.00000000000E+00 -0.47293288510E+03  0.47293288513E+03  0.50400001928E-02 0.  1.
    10030    2    1    2    0    0  0.00000000000E+00  0.00000000000E+00  0.52811255007E+03  0.14739783203E+04  0.13761210787E+04 0.  0.
        3    1    3    3  502    0  0.17711939519E+03 -0.10263046193E+03  0.96767343847E+03  0.98908856307E+03  0.10100000352E+00 0. -1.
       -3    1    3    3    0  502 -0.17711939519E+03  0.10263046193E+03 -0.43956088840E+03  0.48488975725E+03  0.10100000352E+00 0.  1.
</event>
<event>
 5   0  0.2217251E-04  0.1401836E+04  0.7818609E-02  0.8952491E-01
       -1   -1    0    0    0  501  0.00000000000E+00  0.00000000000E+00  0.79029024621E+03  0.79029024623E+03  0.50400001928E-02 0. -1.
        1   -1    0    0  501    0  0.00000000000E+00  0.00000000000E+00 -0.62165265983E+03  0.62165265985E+03  0.50400001928E-02 0.  1.
    10030    2    1    2    0    0  0.00000000000E+00  0.00000000000E+00  0.16863758638E+03  0.14119429061E+04  0.14018359870E+04 0.  0.
        5    1    3    3  502    0 -0.24518614511E+03 -0.29938849605E+03  0.67292431347E+03  0.77627246440E+03  0.46999998093E+01 0. -1.
       -5    1    3    3    0  502  0.24518614511E+03  0.29938849605E+03 -0.50428672709E+03  0.63567044169E+03  0.46999998093E+01 0.  1.
</event>
<event>
 5   0  0.3932568E-04  0.1400281E+04  0.7818609E-02  0.8953615E-01
        2   -1    0    0  501    0  0.00000000000E+00  0.00000000000E+00  0.63066344909E+03  0.63066344910E+03  0.25500000920E-02 0. -1.
       -2   -1    0    0    0  501  0.00000000000E+00  0.00000000000E+00 -0.77727123047E+03  0.77727123047E+03  0.25500000920E-02 0.  1.
    10030    2    1    2    0    0  0.00000000000E+00  0.00000000000E+00 -0.14660778138E+03  0.14079346796E+04  0.14002807648E+04 0.  0.
        2    1    3    3  502    0 -0.45702497360E+03 -0.45171694159E+03  0.20620215027E+03  0.67486246643E+03  0.25500000920E-02 0. -1.
       -2    1    3    3    0  502  0.45702497360E+03  0.45171694159E+03 -0.35280993165E+03  0.73307221315E+03  0.25500000920E-02 0.  1.
</event>
<event>
 5   0  0.4310348E-04  0.1394619E+04  0.7818609E-02  0.8957723E-01
       -2   -1    0    0    0  501  0.00000000000E+00  0.00000000000E+00  0.46121166720E+03  0.46121166721E+03  0.25500000920E-02 0. -1.
        2   -1    0    0  501    0  0.00000000000E+00  0.00000000000E+00 -0.10542670727E+04  0.10542670727E+04  0.25500000920E-02 0.  1.
    10030    2    1    2    0    0  0.00000000000E+00  0.00000000000E+00 -0.59305540549E+03  0.15154787399E+04  0.13946186207E+04 0.  0.
        1    1    3    3  502    0 -0.41838828321E+03 -0.55643085098E+03 -0.33967004725E+03  0.77462235217E+03  0.50400001928E-02 0. -1.
       -1    1    3    3    0  502  0.41838828321E+03  0.55643085098E+03 -0.25338535824E+03  0.74085638774E+03  0.50400001928E-02 0.  1.
</event>
<event>
 5   0  0.2223112E-04  0.1404910E+04  0.7818609E-02  0.8950272E-01
        1   -1    0    0  501    0  0.00000000000E+00  0.00000000000E+00  0.95649664489E+03  0.95649664491E+03  0.50400001928E-02 0.  1.
       -1   -1    0    0    0  501  0.00000000000E+00  0.00000000000E+00 -0.51588572011E+03  0.51588572014E+03  0.50400001928E-02 0. -1.
    10030    2    1    2    0    0  0.00000000000E+00  0.00000000000E+00  0.44061092478E+03  0.14723823650E+04  0.14049099052E+04 0.  0.
        1    1    3    3  502    0 -0.36097427529E+03 -0.58327069258E+02  0.84889273593E+03  0.92429613846E+03  0.50400001928E-02 0.  1.
       -1    1    3    3    0  502  0.36097427529E+03  0.58327069258E+02 -0.40828181115E+03  0.54808622659E+03  0.50400001928E-02 0. -1.
</event>
<event>
 5   0  0.2215876E-04  0.1448497E+04  0.7818609E-02  0.8919443E-01
        1   -1    0    0  501    0  0.00000000000E+00  0.00000000000E+00  0.81154849989E+03  0.81154849991E+03  0.50400001928E-02 0. -1.
       -1   -1    0    0    0  501  0.00000000000E+00  0.00000000000E+00 -0.64633991719E+03  0.64633991721E+03  0.50400001928E-02 0.  1.
    10030    2    1    2    0    0  0.00000000000E+00  0.00000000000E+00  0.16520858270E+03  0.14578884171E+04  0.14484974149E+04 0.  0.
        3    1    3    3  502    0  0.67060799082E+03 -0.10992331860E+03  0.33470367321E+03  0.75751222590E+03  0.10100000352E+00 0.  1.
       -3    1    3    3    0  502 -0.67060799082E+03  0.10992331860E+03 -0.16949509051E+03  0.70037619122E+03  0.10100000352E+00 0. -1.
</event>
<event>
 5   0  0.2215876E-04  0.1392895E+04  0.7818609E-02  0.8958978E-01
       -1   -1    0    0    0  501  0.00000000000E+00  0.00000000000E+00  0.18198040875E+04  0.18198040875E+04  0.50400001928E-02 0. -1.
        1   -1    0    0  501    0  0.00000000000E+00  0.00000000000E+00 -0.26653354195E+03  0.26653354200E+03  0.50400001928E-02 0.  1.
    10030    2    1    2    0    0  0.00000000000E+00  0.00000000000E+00  0.15532705455E+04  0.20863376295E+04  0.13928945820E+04 0.  0.
        3    1    3    3  502    0 -0.58084293211E+03  0.26051302422E+03  0.11997415586E+04  0.13581698587E+04  0.10100000352E+00 0. -1.
       -3    1    3    3    0  502  0.58084293211E+03 -0.26051302422E+03  0.35352898697E+03  0.72816777078E+03  0.10100000352E+00 0.  1.
</event>
<event>
 5   0  0.2155352E-04  0.1398554E+04  0.7818609E-02  0.8954866E-01
        1   -1    0    0  501    0  0.00000000000E+00  0.00000000000E+00  0.81545160257E+03  0.81545160258E+03  0.50400001928E-02 0. -1.
       -1   -1    0    0    0  501  0.00000000000E+00  0.00000000000E+00 -0.59965356573E+03  0.59965356575E+03  0.50400001928E-02 0.  1.
    10030    2    1    2    0    0  0.00000000000E+00  0.00000000000E+00  0.21579803684E+03  0.14151051683E+04  0.13985541980E+04 0.  0.
        2    1    3    3  502    0  0.62192533619E+03  0.17988524002E+03 -0.15949845284E+03  0.66677550933E+03  0.25500000920E-02 0.  1.
       -2    1    3    3    0  502 -0.62192533619E+03 -0.17988524002E+03  0.37529648968E+03  0.74832965901E+03  0.25500000920E-02 0. -1.
</event>
<event>
 5   0  0.4310348E-04  0.1384819E+04  0.7818609E-02  0.8964881E-01
       -2   -1    0    0    0  501  0.00000000000E+00  0.00000000000E+00  0.25929945248E+03  0.25929945250E+03  0.25500000920E-02 0. -1.
        2   -1    0    0  501    0  0.00000000000E+00  0.00000000000E+00 -0.18489473678E+04  0.18489473678E+04  0.25500000920E-02 0.  1.
    10030    2    1    2    0    0  0.00000000000E+00  0.00000000000E+00 -0.15896479154E+04  0.21082468203E+04  0.13848191798E+04 0.  0.
        1    1    3    3  502    0  0.44752365825E+03  0.43649278680E+03 -0.34159981955E+03  0.71238600096E+03  0.50400001928E-02 0. -1.
       -1    1    3    3    0  502 -0.44752365825E+03 -0.43649278680E+03 -0.12480480958E+04  0.13958608194E+04  0.50400001928E-02 0.  1.
</event>
<event>
 5   0  0.3917598E-04  0.1406965E+04  0.7818609E-02  0.8948792E-01
        2   -1    0    0  501    0  0.00000000000E+00  0.00000000000E+00  0.16917150954E+04  0.16917150954E+04  0.25500000920E-02 0.  1.
       -2   -1    0    0    0  501  0.00000000000E+00  0.00000000000E+00 -0.29253600428E+03  0.29253600429E+03  0.25500000920E-02 0. -1.
    10030    2    1    2    0    0  0.00000000000E+00  0.00000000000E+00  0.13991790911E+04  0.19842510997E+04  0.14069649241E+04 0.  0.
        3    1    3    3  502    0 -0.30005507648E+03 -0.41097302979E+03  0.13846494995E+04  0.14751902002E+04  0.10100000352E+00 0.  1.
       -3    1    3    3    0  502  0.30005507648E+03  0.41097302979E+03  0.14529591612E+02  0.50906089948E+03  0.10100000352E+00 0. -1.
</event>
<event>
 5   0  0.2215876E-04  0.1398111E+04  0.7818609E-02  0.8955187E-01
       -1   -1    0    0    0  501  0.00000000000E+00  0.00000000000E+00  0.36257716689E+03  0.36257716693E+03  0.50400001928E-02 0. -1.
        1   -1    0    0  501    0  0.00000000000E+00  0.00000000000E+00 -0.13477916491E+04  0.13477916491E+04  0.50400001928E-02 0.  1.
    10030    2    1    2    0    0  0.00000000000E+00  0.00000000000E+00 -0.98521448219E+03  0.17103688160E+04  0.13981108364E+04 0.  0.
        3    1    3    3  502    0 -0.29139425421E+03  0.39585724215E+03 -0.11006774031E+04  0.12054477689E+04  0.10100000352E+00 0.  1.
       -3    1    3    3    0  502  0.29139425421E+03 -0.39585724215E+03  0.11546292092E+03  0.50492104715E+03  0.10100000352E+00 0. -1.
</event>
<event>
 5   0  0.4208622E-04  0.1417777E+04  0.7818609E-02  0.8941050E-01
       -2   -1    0    0    0  501  0.00000000000E+00  0.00000000000E+00  0.35867227263E+03  0.35867227264E+03  0.25500000920E-02 0.  1.
        2   -1    0    0  501    0  0.00000000000E+00  0.00000000000E+00 -0.14010642406E+04  0.14010642406E+04  0.25500000920E-02 0. -1.
    10030    2    1    2    0    0  0.00000000000E+00  0.00000000000E+00 -0.10423919680E+04  0.17597365133E+04  0.14177769857E+04 0.  0.
        4    1    3    3  502    0 -0.18373998086E+03 -0.67544777858E+03 -0.38225318029E+03  0.79756453588E+03  0.12699999809E+01 0.  1.
       -4    1    3    3    0  502  0.18373998086E+03  0.67544777858E+03 -0.66013878772E+03  0.96217197740E+03  0.12699999809E+01 0. -1.
</event>
<event>
 5   0  0.2215876E-04  0.1399762E+04  0.7818609E-02  0.8953991E-01
       -1   -1    0    0    0  501  0.00000000000E+00  0.00000000000E+00  0.54106554630E+03  0.54106554633E+03  0.50400001928E-02 0. -1.
        1   -1    0    0  501    0  0.00000000000E+00  0.00000000000E+00 -0.90531214742E+03  0.90531214743E+03  0.50400001928E-02 0.  1.
    10030    2    1    2    0    0  0.00000000000E+00  0.00000000000E+00 -0.36424660112E+03  0.14463776938E+04  0.13997617106E+04 0.  0.
        3    1    3    3  502    0  0.44040611543E+03 -0.15064732238E+03  0.35795021704E+03  0.58718015151E+03  0.10100000352E+00 0. -1.
       -3    1    3    3    0  502 -0.44040611543E+03  0.15064732238E+03 -0.72219681815E+03  0.85919754225E+03  0.10100000352E+00 0.  1.
</event>
<event>
 5   0  0.2215876E-04  0.1413845E+04  0.7818609E-02  0.8943857E-01
       -1   -1    0    0    0  501  0.00000000000E+00  0.00000000000E+00  0.68564615667E+03  0.68564615669E+03  0.50400001928E-02 0.  1.
        1   -1    0    0  501    0  0.00000000000E+00  0.00000000000E+00 -0.72885944782E+03  0.72885944784E+03  0.50400001928E-02 0. -1.
    10030    2    1    2    0    0  0.00000000000E+00  0.00000000000E+00 -0.43213291150E+02  0.14145056045E+04  0.14138453652E+04 0.  0.
        3    1    3    3  502    0 -0.59810266841E+03 -0.17536937619E+02  0.35500681835E+03  0.69574722235E+03  0.10100000352E+00 0.  1.
       -3    1    3    3    0  502  0.59810266841E+03  0.17536937619E+02 -0.39822010950E+03  0.71875838218E+03  0.10100000352E+00 0. -1.
</event>
<event>
 5   0  0.3975164E-04  0.1383710E+04  0.7818609E-02  0.8965695E-01
       -2   -1    0    0    0  501  0.00000000000E+00  0.00000000000E+00  0.53035816365E+03  0.53035816366E+03  0.25500000920E-02 0. -1.
        2   -1    0    0  501    0  0.00000000000E+00  0.00000000000E+00 -0.90252873899E+03  0.90252873900E+03  0.25500000920E-02 0.  1.
    10030    2    1    2    0    0  0.00000000000E+00  0.00000000000E+00 -0.37217057534E+03  0.14328869027E+04  0.13837102076E+04 0.  0.
        5    1    3    3  502    0  0.34740688116E+03  0.57654477668E+03 -0.20573853514E+02  0.67345437413E+03  0.46999998093E+01 0. -1.
       -5    1    3    3    0  502 -0.34740688116E+03 -0.57654477668E+03 -0.35159672182E+03  0.75943252853E+03  0.46999998093E+01 0.  1.
</event>
<event>
 5   0  0.2143942E-04  0.1404675E+04  0.7818609E-02  0.8950442E-01
        1   -1    0    0  501    0  0.00000000000E+00  0.00000000000E+00  0.17154930837E+04  0.17154930837E+04  0.50400001928E-02 0. -1.
       -1   -1    0    0    0  501  0.00000000000E+00  0.00000000000E+00 -0.28754292634E+03  0.28754292639E+03  0.50400001928E-02 0.  1.
    10030    2    1    2    0    0  0.00000000000E+00  0.00000000000E+00  0.14279501574E+04  0.20030360101E+04  0.14046749111E+04 0.  0.
        4    1    3    3  502    0 -0.68822819231E+03 -0.13199960635E+03  0.64717673959E+03  0.95389794314E+03  0.12699999809E+01 0. -1.
       -4    1    3    3    0  502  0.68822819231E+03  0.13199960635E+03  0.78077341780E+03  0.10491380670E+04  0.12699999809E+01 0.  1.
</event>
<event>
 5   0  0.2215876E-04  0.1400915E+04  0.7818609E-02  0.8953157E-01
       -1   -1    0    0    0  501  0.00000000000E+00  0.00000000000E+00  0.37386203921E+03  0.37386203924E+03  0.50400001928E-02 0. -1.
        1   -1    0    0  501    0  0.00000000000E+00  0.00000000000E+00 -0.13123570373E+04  0.13123570373E+04  0.50400001928E-02 0.  1.
    10030    2    1    2    0    0  0.00000000000E+00  0.00000000000E+00 -0.93849499804E+03  0.16862190765E+04  0.14009146700E+04 0.  0.
        3    1    3    3  502    0  0.30433398007E+03 -0.61744496052E+03 -0.31331474990E+03  0.75632241366E+03  0.10100000352E+00 0.  1.
       -3    1    3    3    0  502 -0.30433398007E+03  0.61744496052E+03 -0.62518024815E+03  0.92989666285E+03  0.10100000352E+00 0. -1.
</event>
<event>
 5   0  0.3932568E-04  0.1399063E+04  0.7818609E-02  0.8954497E-01
        2   -1    0    0  501    0  0.00000000000E+00  0.00000000000E+00  0.12132528351E+04  0.12132528351E+04  0.25500000920E-02 0. -1.
       -2   -1    0    0    0  501  0.00000000000E+00  0.00000000000E+00 -0.40333268301E+03  0.40333268302E+03  0.25500000920E-02 0.  1.
    10030    2    1    2    0    0  0.00000000000E+00  0.00000000000E+00  0.80992015213E+03  0.16165855182E+04  0.13990632883E+04 0.  0.
        2    1    3    3  502    0 -0.30797462738E+03 -0.62581741723E+03  0.34328843989E+03  0.77739485706E+03  0.25500000920E-02 0. -1.
       -2    1    3    3    0  502  0.30797462738E+03  0.62581741723E+03  0.46663171224E+03  0.83919066111E+03  0.25500000920E-02 0.  1.
</event>
<event>
 5   0  0.2143942E-04  0.1386417E+04  0.7818609E-02  0.8963709E-01
        1   -1    0    0  501    0  0.00000000000E+00  0.00000000000E+00  0.74623200843E+03  0.74623200845E+03  0.50400001928E-02 0.  1.
       -1   -1    0    0    0  501  0.00000000000E+00  0.00000000000E+00 -0.64395290342E+03  0.64395290344E+03  0.50400001928E-02 0. -1.
    10030    2    1    2    0    0  0.00000000000E+00  0.00000000000E+00  0.10227910501E+03  0.13901849119E+04  0.13864173520E+04 0.  0.
        4    1    3    3  502    0 -0.23076969934E+02 -0.28932003883E+03  0.68237232553E+03  0.74153370454E+03  0.12699999809E+01 0.  1.
       -4    1    3    3    0  502  0.23076969934E+02  0.28932003883E+03 -0.58009322052E+03  0.64865120736E+03  0.12699999809E+01 0. -1.
</event>
<event>
 5   0  0.4310348E-04  0.1394756E+04  0.7818609E-02  0.8957623E-01
       -2   -1    0    0    0  501  0.00000000000E+00  0.00000000000E+00  0.73088167060E+03  0.73088167061E+03  0.25500000920E-02 0.  1.
        2   -1    0    0  501    0  0.00000000000E+00  0.00000000000E+00 -0.66541025716E+03  0.66541025717E+03  0.25500000920E-02 0. -1.
    10030    2    1    2    0    0  0.00000000000E+00  0.00000000000E+00  0.65471413441E+02  0.13962919278E+04  0.13947561226E+04 0.  0.
        1    1    3    3  502    0 -0.22322555829E+03  0.51115645902E+03  0.45179619041E+03  0.71779549536E+03  0.50400001928E-02 0.  1.
       -1    1    3    3    0  502  0.22322555829E+03 -0.51115645902E+03 -0.38632477697E+03  0.67849643241E+03  0.50400001928E-02 0. -1.
</event>
<event>
 5   0  0.2155352E-04  0.1402202E+04  0.7818609E-02  0.8952226E-01
       -1   -1    0    0    0  501  0.00000000000E+00  0.00000000000E+00  0.47153711259E+03  0.47153711262E+03  0.50400001928E-02 0.  1.
        1   -1    0    0  501    0  0.00000000000E+00  0.00000000000E+00 -0.10424267859E+04  0.10424267860E+04  0.50400001928E-02 0. -1.
    10030    2    1    2    0    0  0.00000000000E+00  0.00000000000E+00 -0.57088967336E+03  0.15139638986E+04  0.14022024344E+04 0.  0.
        2    1    3    3  502    0  0.89410096089E+01  0.21457222444E+03  0.43514893724E+03  0.48525846592E+03  0.25500000920E-02 0.  1.
       -2    1    3    3    0  502 -0.89410096089E+01 -0.21457222444E+03 -0.10060386106E+04  0.10287054327E+04  0.25500000920E-02 0. -1.
</event>
<event>
 5   0  0.2143942E-04  0.1396399E+04  0.7818609E-02  0.8956429E-01
        1   -1    0    0  501    0  0.00000000000E+00  0.00000000000E+00  0.14685641093E+04  0.14685641093E+04  0.50400001928E-02 0.  1.
       -1   -1    0    0    0  501  0.00000000000E+00  0.00000000000E+00 -0.33194517950E+03  0.33194517953E+03  0.50400001928E-02 0. -1.
    10030    2    1    2    0    0  0.00000000000E+00  0.00000000000E+00  0.11366189298E+04  0.18005092888E+04  0.13963993367E+04 0.  0.
        4    1    3    3  502    0  0.16842545949E+03  0.39471623318E+03 -0.14180986298E+03  0.45197310792E+03  0.12699999809E+01 0. -1.
       -4    1    3    3    0  502 -0.16842545949E+03 -0.39471623318E+03  0.12784287928E+04  0.13485361809E+04  0.12699999809E+01 0.  1.
</event>
<event>
 5   0  0.3917598E-04  0.1397654E+04  0.7818609E-02  0.8955519E-01
        2   -1    0    0  501    0  0.00000000000E+00  0.00000000000E+00  0.87427012540E+03  0.87427012541E+03  0.25500000920E-02 0. -1.
       -2   -1    0    0    0  501  0.00000000000E+00  0.00000000000E+00 -0.55859047778E+03  0.55859047778E+03  0.25500000920E-02 0.  1.
    10030    2    1    2    0    0  0.00000000000E+00  0.00000000000E+00  0.31567964762E+03  0.14328606032E+04  0.13976537011E+04 0.  0.
        3    1    3    3  502    0 -0.12043548319E+03  0.34027659892E+03  0.77129941142E+03  0.85158420702E+03  0.10100000352E+00 0. -1.
       -3    1    3    3    0  502  0.12043548319E+03 -0.34027659892E+03 -0.45561976379E+03  0.58127639617E+03  0.10100000352E+00 0.  1.
</event>
<event>
 5   0  0.2215876E-04  0.1396629E+04  0.7818609E-02  0.8956262E-01
       -1   -1    0    0    0  501  0.00000000000E+00  0.00000000000E+00  0.22295327611E+03  0.22295327617E+03  0.50400001928E-02 0.  1.
        1   -1    0    0  501    0  0.00000000000E+00  0.00000000000E+00 -0.21872003454E+04  0.21872003454E+04  0.50400001928E-02 0. -1.
    10030    2    1    2    0    0  0.00000000000E+00  0.00000000000E+00 -0.19642470693E+04  0.24101536216E+04  0.13966294893E+04 0.  0.
        3    1    3    3  502    0 -0.41649499016E+03  0.55957016392E+03 -0.92602850063E+03  0.11593600128E+04  0.10100000352E+00 0.  1.
       -3    1    3    3    0  502  0.41649499016E+03 -0.55957016392E+03 -0.10382185687E+04  0.12507936088E+04  0.10100000352E+00 0. -1.
</event>
<event>
 5   0  0.3932568E-04  0.1401625E+04  0.7818609E-02  0.8952643E-01
        2   -1    0    0  501    0  0.00000000000E+00  0.00000000000E+00  0.65933506736E+03  0.65933506736E+03  0.25500000920E-02 0. -1.
       -2   -1    0    0    0  501  0.00000000000E+00  0.00000000000E+00 -0.74489968499E+03  0.74489968500E+03  0.25500000920E-02 0.  1.
    10030    2    1    2    0    0  0.00000000000E+00  0.00000000000E+00 -0.85564617637E+02  0.14042347524E+04  0.14016254621E+04 0.  0.
        2    1    3    3  502    0  0.47164633605E+03  0.56416990976E+02  0.47344903432E+03  0.67066171151E+03  0.25500000920E-02 0. -1.
       -2    1    3    3    0  502 -0.47164633605E+03 -0.56416990976E+02 -0.55901365196E+03  0.73357304085E+03  0.25500000920E-02 0.  1.
</event>
<event>
 5   0  0.3917598E-04  0.1415337E+04  0.7818609E-02  0.8942791E-01
       -2   -1    0    0    0  501  0.00000000000E+00  0.00000000000E+00  0.48062768005E+03  0.48062768006E+03  0.25500000920E-02 0. -1.
        2   -1    0    0  501    0  0.00000000000E+00  0.00000000000E+00 -0.10419601133E+04  0.10419601133E+04  0.25500000920E-02 0.  1.
    10030    2    1    2    0    0  0.00000000000E+00  0.00000000000E+00 -0.56133243323E+03  0.15225877933E+04  0.14153372347E+04 0.  0.
        3    1    3    3  502    0 -0.60827063701E+03 -0.69586640227E+02 -0.66246777063E+03  0.90205267345E+03  0.10100000352E+00 0.  1.
       -3    1    3    3    0  502  0.60827063701E+03  0.69586640227E+02  0.10113533739E+03  0.62053511989E+03  0.10100000352E+00 0. -1.
</event>
<event>
 5   0  0.3932568E-04  0.1405044E+04  0.7818609E-02  0.8950176E-01
        2   -1    0    0  501    0  0.00000000000E+00  0.00000000000E+00  0.73207629111E+03  0.73207629112E+03  0.25500000920E-02 0. -1.
       -2   -1    0    0    0  501  0.00000000000E+00  0.00000000000E+00 -0.67416064513E+03  0.67416064513E+03  0.25500000920E-02 0.  1.
    10030    2    1    2    0    0  0.00000000000E+00  0.00000000000E+00  0.57915645986E+02  0.14062369363E+04  0.14050438067E+04 0.  0.
        2    1    3    3  502    0  0.43228840730E+03 -0.41419064955E+02  0.58164792423E+03  0.72588092260E+03  0.25500000920E-02 0. -1.
       -2    1    3    3    0  502 -0.43228840730E+03  0.41419064955E+02 -0.52373227824E+03  0.68035601365E+03  0.25500000920E-02 0.  1.
</event>
<event>
 5   0  0.3932568E-04  0.1406248E+04  0.7818609E-02  0.8949309E-01
       -2   -1    0    0    0  501  0.00000000000E+00  0.00000000000E+00  0.45069457560E+03  0.45069457560E+03  0.25500000920E-02 0. -1.
        2   -1    0    0  501    0  0.00000000000E+00  0.00000000000E+00 -0.10969359594E+04  0.10969359594E+04  0.25500000920E-02 0.  1.
    10030    2    1    2    0    0  0.00000000000E+00  0.00000000000E+00 -0.64624138384E+03  0.15476305350E+04  0.14062476122E+04 0.  0.
        2    1    3    3  502    0 -0.22637005574E+03  0.35794695898E+03 -0.94081014300E+03  0.10317427745E+04  0.25500000920E-02 0.  1.
       -2    1    3    3    0  502  0.22637005574E+03 -0.35794695898E+03  0.29456875916E+03  0.51588776053E+03  0.25500000920E-02 0. -1.
</event>
<event>
 5   0  0.2217251E-04  0.1401818E+04  0.7818609E-02  0.8952504E-01
       -1   -1    0    0    0  501  0.00000000000E+00  0.00000000000E+00  0.82676333377E+03  0.82676333379E+03  0.50400001928E-02 0. -1.
        1   -1    0    0  501    0  0.00000000000E+00  0.00000000000E+00 -0.59421282767E+03  0.59421282769E+03  0.50400001928E-02 0.  1.
    10030    2    1    2    0    0  0.00000000000E+00  0.00000000000E+00  0.23255050610E+03  0.14209761615E+04  0.14018179317E+04 0.  0.
        5    1    3    3  502    0 -0.22794637572E+02 -0.39207871252E+01  0.82636040602E+03  0.82669739246E+03  0.46999998093E+01 0. -1.
       -5    1    3    3    0  502  0.22794637572E+02  0.39207871252E+01 -0.59380989992E+03  0.59427876902E+03  0.46999998093E+01 0.  1.
</event>
<event>
 5   0  0.2143942E-04  0.1399656E+04  0.7818609E-02  0.8954068E-01
       -1   -1    0    0    0  501  0.00000000000E+00  0.00000000000E+00  0.45202598218E+03  0.45202598220E+03  0.50400001928E-02 0. -1.
        1   -1    0    0  501    0  0.00000000000E+00  0.00000000000E+00 -0.10834758302E+04  0.10834758302E+04  0.50400001928E-02 0.  1.
    10030    2    1    2    0    0  0.00000000000E+00  0.00000000000E+00 -0.63144984802E+03  0.15355018124E+04  0.13996559954E+04 0.  0.
        4    1    3    3  502    0 -0.61681468564E+03 -0.28698693964E+03 -0.13567473191E+03  0.69370822809E+03  0.12699999809E+01 0. -1.
       -4    1    3    3    0  502  0.61681468564E+03  0.28698693964E+03 -0.49577511612E+03  0.84179358432E+03  0.12699999809E+01 0.  1.
</event>
<event>
 5   0  0.3932568E-04  0.1409541E+04  0.7818609E-02  0.8946941E-01
        2   -1    0    0  501    0  0.00000000000E+00  0.00000000000E+00  0.16547218986E+04  0.16547218986E+04  0.25500000920E-02 0.  1.
       -2   -1    0    0    0  501  0.00000000000E+00  0.00000000000E+00 -0.30017224551E+03  0.30017224552E+03  0.25500000920E-02 0. -1.
    10030    2    1    2    0    0  0.00000000000E+00  0.00000000000E+00  0.13545496531E+04  0.19548941441E+04  0.14095411849E+04 0.  0.
        2    1    3    3  502    0 -0.45080227839E+02 -0.42937582170E+03  0.14498493768E+04  0.15127653614E+04  0.25500000920E-02 0.  1.
       -2    1    3    3    0  502  0.45080227839E+02  0.42937582170E+03 -0.95299723680E+02  0.44212878276E+03  0.25500000920E-02 0. -1.
</event>
<event>
 5   0  0.3932568E-04  0.1401444E+04  0.7818609E-02  0.8952774E-01
        2   -1    0    0  501    0  0.00000000000E+00  0.00000000000E+00  0.17086116042E+04  0.17086116042E+04  0.25500000920E-02 0. -1.
       -2   -1    0    0    0  501  0.00000000000E+00  0.00000000000E+00 -0.28737449407E+03  0.28737449408E+03  0.25500000920E-02 0.  1.
    10030    2    1    2    0    0  0.00000000000E+00  0.00000000000E+00  0.14212371101E+04  0.19959860983E+04  0.14014441057E+04 0.  0.
        2    1    3    3  502    0  0.47130306062E+03 -0.46363242817E+03  0.37987141071E+03  0.76248533893E+03  0.25500000920E-02 0.  1.
       -2    1    3    3    0  502 -0.47130306062E+03  0.46363242817E+03  0.10413656994E+04  0.12335007594E+04  0.25500000920E-02 0. -1.
</event>
<event>
 5   0  0.1497625E-04  0.1400004E+04  0.7818609E-02  0.8953815E-01
       -3   -1    0    0    0  501  0.00000000000E+00  0.00000000000E+00  0.53297817141E+03  0.53297818098E+03  0.10100000352E+00 0. -1.
        3   -1    0    0  501    0  0.00000000000E+00  0.00000000000E+00 -0.91936783371E+03  0.91936783925E+03  0.10100000352E+00 0.  1.
    10030    2    1    2    0    0  0.00000000000E+00  0.00000000000E+00 -0.38638966230E+03  0.14523460202E+04  0.14000042826E+04 0.  0.
        5    1    3    3  502    0  0.15154975083E+03  0.46562794554E+03  0.32571037763E+03  0.58812077904E+03  0.46999998093E+01 0. -1.
       -5    1    3    3    0  502 -0.15154975083E+03 -0.46562794554E+03 -0.71210003993E+03  0.86422524119E+03  0.46999998093E+01 0.  1.
</event>
<event>
 5   0  0.3917598E-04  0.1416054E+04  0.7818609E-02  0.8942279E-01
        2   -1    0    0  501    0  0.00000000000E+00  0.00000000000E+00  0.97992278386E+03  0.97992278386E+03  0.25500000920E-02 0.  1.
       -2   -1    0    0    0  501  0.00000000000E+00  0.00000000000E+00 -0.51157284852E+03  0.51157284852E+03  0.25500000920E-02 0. -1.
    10030    2    1    2    0    0  0.00000000000E+00  0.00000000000E+00  0.46834993534E+03  0.14914956324E+04  0.14160535158E+04 0.  0.
        3    1    3    3  502    0 -0.17543479368E+03 -0.21530973342E+03  0.92015324732E+03  0.96115433562E+03  0.10100000352E+00 0.  1.
       -3    1    3    3    0  502  0.17543479368E+03  0.21530973342E+03 -0.45180331198E+03  0.53034129676E+03  0.10100000352E+00 0. -1.
</event>
<event>
 5   0  0.2155352E-04  0.1403072E+04  0.7818609E-02  0.8951598E-01
       -1   -1    0    0    0  501  0.00000000000E+00  0.00000000000E+00  0.84278427354E+03  0.84278427356E+03  0.50400001928E-02 0.  1.
        1   -1    0    0  501    0  0.00000000000E+00  0.00000000000E+00 -0.58396051462E+03  0.58396051465E+03  0.50400001928E-02 0. -1.
    10030    2    1    2    0    0  0.00000000000E+00  0.00000000000E+00  0.25882375892E+03  0.14267447882E+04  0.14030719698E+04 0.  0.
        2    1    3    3  502    0  0.65842158576E+03 -0.18215537849E+03  0.29164416966E+03  0.74280272496E+03  0.25500000920E-02 0.  1.
       -2    1    3    3    0  502 -0.65842158576E+03  0.18215537849E+03 -0.32820410747E+02  0.68394206324E+03  0.25500000920E-02 0. -1.
</event>
<event>
 5   0  0.2223112E-04  0.1376482E+04  0.7818609E-02  0.8971020E-01
       -1   -1    0    0    0  501  0.00000000000E+00  0.00000000000E+00  0.37368426692E+03  0.37368426695E+03  0.50400001928E-02 0.  1.
        1   -1    0    0  501    0  0.00000000000E+00  0.00000000000E+00 -0.12675822206E+04  0.12675822206E+04  0.50400001928E-02 0. -1.
    10030    2    1    2    0    0  0.00000000000E+00  0.00000000000E+00 -0.89389795370E+03  0.16412664876E+04  0.13764817949E+04 0.  0.
        1    1    3    3  502    0 -0.59278477651E+03 -0.18557399809E+03 -0.80034752653E+03  0.10131079228E+04  0.50400001928E-02 0. -1.
       -1    1    3    3    0  502  0.59278477651E+03  0.18557399809E+03 -0.93550427175E+02  0.62815856476E+03  0.50400001928E-02 0.  1.
</event>
<event>
 5   0  0.3932568E-04  0.1401900E+04  0.7818609E-02  0.8952444E-01
       -2   -1    0    0    0  501  0.00000000000E+00  0.00000000000E+00  0.69609328770E+03  0.69609328770E+03  0.25500000920E-02 0. -1.
        2   -1    0    0  501    0  0.00000000000E+00  0.00000000000E+00 -0.70584054584E+03  0.70584054584E+03  0.25500000920E-02 0.  1.
    10030    2    1    2    0    0  0.00000000000E+00  0.00000000000E+00 -0.97472581416E+01  0.14019338335E+04  0.14018999481E+04 0.  0.
        2    1    3    3  502    0  0.43809949068E+02 -0.34444450697E+03 -0.61379682630E+03  0.70520059132E+03  0.25500000920E-02 0.  1.
       -2    1    3    3    0  502 -0.43809949068E+02  0.34444450697E+03  0.60404956816E+03  0.69673324222E+03  0.25500000920E-02 0. -1.
</event>
<event>
 5   0  0.3975164E-04  0.1398535E+04  0.7818609E-02  0.8954880E-01
        2   -1    0    0  501    0  0.00000000000E+00  0.00000000000E+00  0.19484088490E+04  0.19484088490E+04  0.25500000920E-02 0. -1.
       -2   -1    0    0    0  501  0.00000000000E+00  0.00000000000E+00 -0.25096110696E+03  0.25096110697E+03  0.25500000920E-02 0.  1.
    10030    2    1    2    0    0  0.00000000000E+00  0.00000000000E+00  0.16974477421E+04  0.21993699560E+04  0.13985347212E+04 0.  0.
        5    1    3    3  502    0 -0.80000181584E+02  0.57857485641E+03  0.24412418073E+03  0.63306208158E+03  0.46999998093E+01 0.  1.
       -5    1    3    3    0  502  0.80000181584E+02 -0.57857485641E+03  0.14533235613E+04  0.15663078744E+04  0.46999998093E+01 0. -1.
</event>
<event>
 5   0  0.2155352E-04  0.1402227E+04  0.7818609E-02  0.8952208E-01
       -1   -1    0    0    0  501  0.00000000000E+00  0.00000000000E+00  0.29046198374E+03  0.29046198378E+03  0.50400001928E-02 0.  1.
        1   -1    0    0  501    0  0.00000000000E+00  0.00000000000E+00 -0.16923395827E+04  0.16923395828E+04  0.50400001928E-02 0. -1.
    10030    2    1    2    0    0  0.00000000000E+00  0.00000000000E+00 -0.14018775990E+04  0.19828015665E+04  0.14022272461E+04 0.  0.
        2    1    3    3  502    0  0.50845358970E+03 -0.46687941080E+03 -0.52741577037E+03  0.86871677314E+03  0.25500000920E-02 0. -1.
       -2    1    3    3    0  502 -0.50845358970E+03  0.46687941080E+03 -0.87446182864E+03  0.11140847934E+04  0.25500000920E-02 0.  1.
</event>
<event>
 5   0  0.2217251E-04  0.1413280E+04  0.7818609E-02  0.8944261E-01
        1   -1    0    0  501    0  0.00000000000E+00  0.00000000000E+00  0.17209951730E+04  0.17209951730E+04  0.50400001928E-02 0. -1.
       -1   -1    0    0    0  501  0.00000000000E+00  0.00000000000E+00 -0.29014616925E+03  0.29014616929E+03  0.50400001928E-02 0.  1.
    10030    2    1    2    0    0  0.00000000000E+00  0.00000000000E+00  0.14308490038E+04  0.20111413423E+04  0.14132800951E+04 0.  0.
        5    1    3    3  502    0  0.34195461350E+03 -0.53435196710E+03  0.27255978711E+03  0.69048961614E+03  0.46999998093E+01 0.  1.
       -5    1    3    3    0  502 -0.34195461350E+03  0.53435196710E+03  0.11582892166E+04  0.13206517262E+04  0.46999998093E+01 0. -1.
</event>
<event>
 5   0  0.4208622E-04  0.1369344E+04  0.7818609E-02  0.8976312E-01
        2   -1    0    0  501    0  0.00000000000E+00  0.00000000000E+00  0.46982211688E+03  0.46982211689E+03  0.25500000920E-02 0. -1.
       -2   -1    0    0    0  501  0.00000000000E+00  0.00000000000E+00 -0.99777355636E+03  0.99777355636E+03  0.25500000920E-02 0.  1.
    10030    2    1    2    0    0  0.00000000000E+00  0.00000000000E+00 -0.52795143947E+03  0.14675956733E+04  0.13693444920E+04 0.  0.
        4    1    3    3  502    0  0.46875083885E+03 -0.48842559755E+03 -0.37373238335E+03  0.77328159200E+03  0.12699999809E+01 0.  1.
       -4    1    3    3    0  502 -0.46875083885E+03  0.48842559755E+03 -0.15421905613E+03  0.69431408126E+03  0.12699999809E+01 0. -1.
</event>
<event>
 5   0  0.2215876E-04  0.1397403E+04  0.7818609E-02  0.8955701E-01
       -1   -1    0    0    0  501  0.00000000000E+00  0.00000000000E+00  0.39510490774E+03  0.39510490777E+03  0.50400001928E-02 0. -1.
        1   -1    0    0  501    0  0.00000000000E+00  0.00000000000E+00 -0.12355801283E+04  0.12355801283E+04  0.50400001928E-02 0.  1.
    10030    2    1    2    0    0  0.00000000000E+00  0.00000000000E+00 -0.84047522054E+03  0.16306850361E+04  0.13974029807E+04 0.  0.
        3    1    3    3  502    0 -0.40136300313E+03  0.34076338688E+03  0.11575727018E+03  0.53908413251E+03  0.10100000352E+00 0. -1.
       -3    1    3    3    0  502  0.40136300313E+03 -0.34076338688E+03 -0.95623249072E+03  0.10916009036E+04  0.10100000352E+00 0.  1.
</event>
<event>
 5   0  0.2155352E-04  0.1397089E+04  0.7818609E-02  0.8955928E-01
       -1   -1    0    0    0  501  0.00000000000E+00  0.00000000000E+00  0.54685691465E+03  0.54685691468E+03  0.50400001928E-02 0.  1.
        1   -1    0    0  501    0  0.00000000000E+00  0.00000000000E+00 -0.89230758827E+03  0.89230758829E+03  0.50400001928E-02 0. -1.
    10030    2    1    2    0    0  0.00000000000E+00  0.00000000000E+00 -0.34545067362E+03  0.14391645030E+04  0.13970892236E+04 0.  0.
        2    1    3    3  502    0 -0.14037356907E+03  0.33182586803E+03 -0.78920625716E+03  0.86755960138E+03  0.25500000920E-02 0. -1.
       -2    1    3    3    0  502  0.14037356907E+03 -0.33182586803E+03  0.44375558354E+03  0.57160490159E+03  0.25500000920E-02 0.  1.
</event>
<event>
 5   0  0.3932568E-04  0.1385314E+04  0.7818609E-02  0.8964518E-01
       -2   -1    0    0    0  501  0.00000000000E+00  0.00000000000E+00  0.63636116590E+03  0.63636116590E+03  0.25500000920E-02 0. -1.
        2   -1    0    0  501    0  0.00000000000E+00  0.00000000000E+00 -0.75393322294E+03  0.75393322295E+03  0.25500000920E-02 0.  1.
    10030    2    1    2    0    0  0.00000000000E+00  0.00000000000E+00 -0.11757205704E+03  0.13902943889E+04  0.13853141518E+04 0.  0.
        2    1    3    3  502    0 -0.60394826367E+03  0.19361391355E+03 -0.33823628713E+03  0.71877926977E+03  0.25500000920E-02 0.  1.
       -2    1    3    3    0  502  0.60394826367E+03 -0.19361391355E+03  0.22066423009E+03  0.67151511908E+03  0.25500000920E-02 0. -1.
</event>
<event>
 5   0  0.3975164E-04  0.1405146E+04  0.7818609E-02  0.8950102E-01
        2   -1    0    0  501    0  0.00000000000E+00  0.00000000000E+00  0.14425529610E+04  0.14425529611E+04  0.25500000920E-02 0.  1.
       -2   -1    0    0    0  501  0.00000000000E+00  0.00000000000E+00 -0.34217705628E+03  0.34217705629E+03  0.25500000920E-02 0. -1.
    10030    2    1    2    0    0  0.00000000000E+00  0.00000000000E+00  0.11003759048E+04  0.17847300173E+04  0.14051455807E+04 0.  0.
        5    1    3    3  502    0  0.12845402969E+03 -0.19895454489E+03  0.13903088102E+04  0.14103418119E+04  0.46999998093E+01 0.  1.
       -5    1    3    3    0  502 -0.12845402969E+03  0.19895454489E+03 -0.28993290546E+03  0.37438820540E+03  0.46999998093E+01 0. -1.
</event>
<event>
 5   0  0.2143942E-04  0.1406080E+04  0.7818609E-02  0.8949429E-01
        1   -1    0    0  501    0  0.00000000000E+00  0.00000000000E+00  0.11504401767E+04  0.11504401767E+04  0.50400001928E-02 0. -1.
       -1   -1    0    0    0  501  0.00000000000E+00  0.00000000000E+00 -0.42963139942E+03  0.42963139945E+03  0.50400001928E-02 0.  1.
    10030    2    1    2    0    0  0.00000000000E+00  0.00000000000E+00  0.72080877727E+03  0.15800715761E+04  0.14060799737E+04 0.  0.
        4    1    3    3  502    0 -0.19385023897E+02  0.65188376380E+03  0.65544911392E+03  0.92463148037E+03  0.12699999809E+01 0. -1.
       -4    1    3    3    0  502  0.19385023897E+02 -0.65188376380E+03  0.65359663350E+02  0.65544009578E+03  0.12699999809E+01 0.  1.
</event>
<event>
 5   0  0.3975164E-04  0.1397358E+04  0.7818609E-02  0.8955733E-01
        2   -1    0    0  501    0  0.00000000000E+00  0.00000000000E+00  0.20002151782E+04  0.20002151782E+04  0.25500000920E-02 0. -1.
       -2   -1    0    0    0  501  0.00000000000E+00  0.00000000000E+00 -0.24405005038E+03  0.24405005040E+03  0.25500000920E-02 0.  1.
    10030    2    1    2    0    0  0.00000000000E+00  0.00000000000E+00  0.17561651278E+04  0.22442652286E+04  0.13973583864E+04 0.  0.
        5    1    3    3  502    0 -0.28492587489E+03 -0.63574912706E+03  0.96262415120E+03  0.11882874455E+04  0.46999998093E+01 0.  1.
       -5    1    3    3    0  502  0.28492587489E+03  0.63574912706E+03  0.79354097658E+03  0.10559777830E+04  0.46999998093E+01 0. -1.
</event>
<event>
 5   0  0.2215876E-04  0.1384701E+04  0.7818609E-02  0.8964968E-01
        1   -1    0    0  501    0  0.00000000000E+00  0.00000000000E+00  0.71174943601E+03  0.71174943603E+03  0.50400001928E-02 0.  1.
       -1   -1    0    0    0  501  0.00000000000E+00  0.00000000000E+00 -0.67348016657E+03  0.67348016659E+03  0.50400001928E-02 0. -1.
    10030    2    1    2    0    0  0.00000000000E+00  0.00000000000E+00  0.38269269442E+02  0.13852296026E+04  0.13847008756E+04 0.  0.
        3    1    3    3  502    0  0.30210856193E+03 -0.45587900226E+03  0.44385990043E+03  0.70434854249E+03  0.10100000352E+00 0.  1.
       -3    1    3    3    0  502 -0.30210856193E+03  0.45587900226E+03 -0.40559063099E+03  0.68088106013E+03  0.10100000352E+00 0. -1.
</event>
<event>
 5   0  0.3932568E-04  0.1401066E+04  0.7818609E-02  0.8953047E-01
        2   -1    0    0  501    0  0.00000000000E+00  0.00000000000E+00  0.10897500362E+04  0.10897500362E+04  0.25500000920E-02 0. -1.
       -2   -1    0    0    0  501  0.00000000000E+00  0.00000000000E+00 -0.45032963084E+03  0.45032963085E+03  0.25500000920E-02 0.  1.
    10030    2    1    2    0    0  0.00000000000E+00  0.00000000000E+00  0.63942040538E+03  0.15400796671E+04  0.14010663532E+04 0.  0.
        2    1    3    3  502    0  0.36421604079E+03  0.16592156380E+03 -0.31228225363E+03  0.50764504886E+03  0.25500000920E-02 0.  1.
       -2    1    3    3    0  502 -0.36421604079E+03 -0.16592156380E+03  0.95170265901E+03  0.10324346182E+04  0.25500000920E-02 0. -1.
</event>
<event>
 5   0  0.3917598E-04  0.1388031E+04  0.7818609E-02  0.8962528E-01
       -2   -1    0    0    0  501  0.00000000000E+00  0.00000000000E+00  0.18862620050E+03  0.18862620052E+03  0.25500000920E-02 0. -1.
        2   -1    0    0  501    0  0.00000000000E+00  0.00000000000E+00 -0.25535035978E+04  0.25535035978E+04  0.25500000920E-02 0.  1.
    10030    2    1    2    0    0  0.00000000000E+00  0.00000000000E+00 -0.23648773973E+04  0.27421297984E+04  0.13880312412E+04 0.  0.
        3    1    3    3  502    0  0.18481854237E+03 -0.66261801497E+03 -0.10009763616E+04  0.12145675008E+04  0.10100000352E+00 0. -1.
       -3    1    3    3    0  502 -0.18481854237E+03  0.66261801497E+03 -0.13639010357E+04  0.15275622975E+04  0.10100000352E+00 0.  1.
</event>
<event>
 5   0  0.4310348E-04  0.1363621E+04  0.7818609E-02  0.8980581E-01
        2   -1    0    0  501    0  0.00000000000E+00  0.00000000000E+00  0.88455576329E+03  0.88455576330E+03  0.25500000920E-02 0.  1.
       -2   -1    0    0    0  501  0.00000000000E+00  0.00000000000E+00 -0.52553570766E+03  0.52553570766E+03  0.25500000920E-02 0. -1.
    10030    2    1    2    0    0  0.00000000000E+00  0.00000000000E+00  0.35902005564E+03  0.14100914710E+04  0.13636211190E+04 0.  0.
        1    1    3    3  502    0  0.44274402605E+03  0.20835876230E+03  0.67048506918E+03  0.83005172998E+03  0.50400001928E-02 0.  1.
       -1    1    3    3    0  502 -0.44274402605E+03 -0.20835876230E+03 -0.31146501354E+03  0.58003974098E+03  0.50400001928E-02 0. -1.
</event>
<event>
 5   0  0.2223112E-04  0.1398805E+04  0.7818609E-02  0.8954684E-01
       -1   -1    0    0    0  501  0.00000000000E+00  0.00000000000E+00  0.71245578557E+03  0.71245578559E+03  0.50400001928E-02 0. -1.
        1   -1    0    0  501    0  0.00000000000E+00  0.00000000000E+00 -0.68658877007E+03  0.68658877009E+03  0.50400001928E-02 0.  1.
    10030    2    1    2    0    0  0.00000000000E+00  0.00000000000E+00  0.25867015499E+02  0.13990445557E+04  0.13988054069E+04 0.  0.
        1    1    3    3  502    0  0.70863930838E+02  0.26542356714E+03  0.65623300419E+03  0.71141627934E+03  0.50400001928E-02 0. -1.
       -1    1    3    3    0  502 -0.70863930838E+02 -0.26542356714E+03 -0.63036598869E+03  0.68762827633E+03  0.50400001928E-02 0.  1.
</event>
<event>
 5   0  0.3917598E-04  0.1397330E+04  0.7818609E-02  0.8955753E-01
       -2   -1    0    0    0  501  0.00000000000E+00  0.00000000000E+00  0.71209600481E+03  0.71209600481E+03  0.25500000920E-02 0. -1.
        2   -1    0    0  501    0  0.00000000000E+00  0.00000000000E+00 -0.68548731492E+03  0.68548731492E+03  0.25500000920E-02 0.  1.
    10030    2    1    2    0    0  0.00000000000E+00  0.00000000000E+00  0.26608689895E+02  0.13975833197E+04  0.13973299944E+04 0.  0.
        3    1    3    3  502    0 -0.29854353045E+03 -0.17482629894E+03 -0.59379852665E+03  0.68723298439E+03  0.10100000352E+00 0.  1.
       -3    1    3    3    0  502  0.29854353045E+03  0.17482629894E+03  0.62040721655E+03  0.71035033534E+03  0.10100000352E+00 0. -1.
</event>
<event>
 5   0  0.2143942E-04  0.1444864E+04  0.7818609E-02  0.8921969E-01
       -1   -1    0    0    0  501  0.00000000000E+00  0.00000000000E+00  0.83909493846E+03  0.83909493847E+03  0.50400001928E-02 0. -1.
        1   -1    0    0  501    0  0.00000000000E+00  0.00000000000E+00 -0.62198947595E+03  0.62198947597E+03  0.50400001928E-02 0.  1.
    10030    2    1    2    0    0  0.00000000000E+00  0.00000000000E+00  0.21710546251E+03  0.14610844144E+04  0.14448643134E+04 0.  0.
        4    1    3    3  502    0 -0.58091218999E+03  0.33816216458E+03 -0.15917208099E+03  0.69076044060E+03  0.12699999809E+01 0.  1.
       -4    1    3    3    0  502  0.58091218999E+03 -0.33816216458E+03  0.37627754350E+03  0.77032397384E+03  0.12699999809E+01 0. -1.
</event>
<event>
 5   0  0.3975164E-04  0.1398874E+04  0.7818609E-02  0.8954634E-01
       -2   -1    0    0    0  501  0.00000000000E+00  0.00000000000E+00  0.49871355882E+03  0.49871355883E+03  0.25500000920E-02 0. -1.
        2   -1    0    0  501    0  0.00000000000E+00  0.00000000000E+00 -0.98094846693E+03  0.98094846693E+03  0.25500000920E-02 0.  1.
    10030    2    1    2    0    0  0.00000000000E+00  0.00000000000E+00 -0.48223490810E+03  0.14796620258E+04  0.13988742631E+04 0.  0.
        5    1    3    3  502    0  0.24384442120E+03  0.17441060012E+03 -0.90952218229E+03  0.95767001063E+03  0.46999998093E+01 0.  1.
       -5    1    3    3    0  502 -0.24384442120E+03 -0.17441060012E+03  0.42728727418E+03  0.52199201513E+03  0.46999998093E+01 0. -1.
</event>
<event>
 5   0  0.2143942E-04  0.1423623E+04  0.7818609E-02  0.8936894E-01
        1   -1    0    0  501    0  0.00000000000E+00  0.00000000000E+00  0.37977503039E+03  0.37977503042E+03  0.50400001928E-02 0.  1.
       -1   -1    0    0    0  501  0.00000000000E+00  0.00000000000E+00 -0.13341469844E+04  0.13341469844E+04  0.50400001928E-02 0. -1.
    10030    2    1    2    0    0  0.00000000000E+00  0.00000000000E+00 -0.95437195397E+03  0.17139220148E+04  0.14236231405E+04 0.  0.
        4    1    3    3  502    0 -0.71997674829E+02 -0.57492947459E+03 -0.97495305211E+03  0.11341351915E+04  0.12699999809E+01 0. -1.
       -4    1    3    3    0  502  0.71997674829E+02  0.57492947459E+03  0.20581098139E+02  0.57978682326E+03  0.12699999809E+01 0.  1.
</event>
<event>
 5   0  0.2215876E-04  0.1395499E+04  0.7818609E-02  0.8957083E-01
        1   -1    0    0  501    0  0.00000000000E+00  0.00000000000E+00  0.29615166047E+03  0.29615166051E+03  0.50400001928E-02 0. -1.
       -1   -1    0    0    0  501  0.00000000000E+00  0.00000000000E+00 -0.16439365995E+04  0.16439365996E+04  0.50400001928E-02 0.  1.
    10030    2    1    2    0    0  0.00000000000E+00  0.00000000000E+00 -0.13477849391E+04  0.19400882601E+04  0.13954992708E+04 0.  0.
        3    1    3    3  502    0 -0.44867204988E+02 -0.37763633072E+03 -0.14871954401E+04  0.15350480616E+04  0.10100000352E+00 0.  1.
       -3    1    3    3    0  502  0.44867204988E+02  0.37763633072E+03  0.13941050098E+03  0.40504019844E+03  0.10100000352E+00 0. -1.
</event>
<event>
 5   0  0.3917598E-04  0.1401147E+04  0.7818609E-02  0.8952989E-01
       -2   -1    0    0    0  501  0.00000000000E+00  0.00000000000E+00  0.41725628888E+03  0.41725628889E+03  0.25500000920E-02 0.  1.
        2   -1    0    0  501    0  0.00000000000E+00  0.00000000000E+00 -0.11762624059E+04  0.11762624059E+04  0.25500000920E-02 0. -1.
    10030    2    1    2    0    0  0.00000000000E+00  0.00000000000E+00 -0.75900611704E+03  0.15935186948E+04  0.14011465109E+04 0.  0.
        3    1    3    3  502    0  0.71148689163E+02  0.30053032043E+03  0.33565851921E+03  0.45612198060E+03  0.10100000352E+00 0.  1.
       -3    1    3    3    0  502 -0.71148689163E+02 -0.30053032043E+03 -0.10946646363E+04  0.11373967142E+04  0.10100000352E+00 0. -1.
</event>
<event>
 5   0  0.4208622E-04  0.1398095E+04  0.7818609E-02  0.8955199E-01
        2   -1    0    0  501    0  0.00000000000E+00  0.00000000000E+00  0.16908670174E+04  0.16908670174E+04  0.25500000920E-02 0.  1.
       -2   -1    0    0    0  501  0.00000000000E+00  0.00000000000E+00 -0.28900390535E+03  0.28900390536E+03  0.25500000920E-02 0. -1.
    10030    2    1    2    0    0  0.00000000000E+00  0.00000000000E+00  0.14018631120E+04  0.19798709227E+04  0.13980946627E+04 0.  0.
        4    1    3    3  502    0  0.32816607128E+03 -0.53952047745E+03  0.11255086654E+04  0.12905606087E+04  0.12699999809E+01 0.  1.
       -4    1    3    3    0  502 -0.32816607128E+03  0.53952047745E+03  0.27635444658E+03  0.68931031399E+03  0.12699999809E+01 0. -1.
</event>
<event>
 5   0  0.3917598E-04  0.1400796E+04  0.7818609E-02  0.8953243E-01
        2   -1    0    0  501    0  0.00000000000E+00  0.00000000000E+00  0.10869619460E+04  0.10869619460E+04  0.25500000920E-02 0. -1.
       -2   -1    0    0    0  501  0.00000000000E+00  0.00000000000E+00 -0.45131035392E+03  0.45131035393E+03  0.25500000920E-02 0.  1.
    10030    2    1    2    0    0  0.00000000000E+00  0.00000000000E+00  0.63565159207E+03  0.15382722999E+04  0.14007957461E+04 0.  0.
        3    1    3    3  502    0 -0.21239569191E+03 -0.58467187945E+03  0.67129105756E+03  0.91519660769E+03  0.10100000352E+00 0. -1.
       -3    1    3    3    0  502  0.21239569191E+03  0.58467187945E+03 -0.35639465490E+02  0.62307569224E+03  0.10100000352E+00 0.  1.
</event>
<event>
 5   0  0.2143942E-04  0.1422774E+04  0.7818609E-02  0.8937497E-01
       -1   -1    0    0    0  501  0.00000000000E+00  0.00000000000E+00  0.36245591119E+03  0.36245591123E+03  0.50400001928E-02 0.  1.
        1   -1    0    0  501    0  0.00000000000E+00  0.00000000000E+00 -0.13962287665E+04  0.13962287665E+04  0.50400001928E-02 0. -1.
    10030    2    1    2    0    0  0.00000000000E+00  0.00000000000E+00 -0.10337728553E+04  0.17586846778E+04  0.14227738680E+04 0.  0.
        4    1    3    3  502    0 -0.38837705655E+03  0.77292501254E+02  0.21362301410E+03  0.44994141158E+03  0.12699999809E+01 0.  1.
       -4    1    3    3    0  502  0.38837705655E+03 -0.77292501254E+02 -0.12473958694E+04  0.13087432662E+04  0.12699999809E+01 0. -1.
</event>
<event>
 5   0  0.2155352E-04  0.1392583E+04  0.7818609E-02  0.8959205E-01
       -1   -1    0    0    0  501  0.00000000000E+00  0.00000000000E+00  0.56238208653E+03  0.56238208655E+03  0.50400001928E-02 0. -1.
        1   -1    0    0  501    0  0.00000000000E+00  0.00000000000E+00 -0.86208609593E+03  0.86208609595E+03  0.50400001928E-02 0.  1.
    10030    2    1    2    0    0  0.00000000000E+00  0.00000000000E+00 -0.29970400941E+03  0.14244681825E+04  0.13925828915E+04 0.  0.
        2    1    3    3  502    0 -0.34659800024E+03  0.41781520056E+03  0.29616144525E+03  0.61839414393E+03  0.25500000920E-02 0. -1.
       -2    1    3    3    0  502  0.34659800024E+03 -0.41781520056E+03 -0.59586545466E+03  0.80607403857E+03  0.25500000920E-02 0.  1.
</event>
<event>
 5   0  0.3975164E-04  0.1402387E+04  0.7818609E-02  0.8952092E-01
       -2   -1    0    0    0  501  0.00000000000E+00  0.00000000000E+00  0.47550688859E+03  0.47550688859E+03  0.25500000920E-02 0. -1.
        2   -1    0    0  501    0  0.00000000000E+00  0.00000000000E+00 -0.10339967225E+04  0.10339967225E+04  0.25500000920E-02 0.  1.
    10030    2    1    2    0    0  0.00000000000E+00  0.00000000000E+00 -0.55848983395E+03  0.15095036111E+04  0.14023873421E+04 0.  0.
        5    1    3    3  502    0 -0.63753044487E+03 -0.26965767171E+02  0.33606867709E+02  0.63900213793E+03  0.46999998093E+01 0.  1.
       -5    1    3    3    0  502  0.63753044487E+03  0.26965767171E+02 -0.59209670166E+03  0.87050147320E+03  0.46999998093E+01 0. -1.
</event>
<event>
 5   0  0.2223112E-04  0.1389487E+04  0.7818609E-02  0.8961463E-01
        1   -1    0    0  501    0  0.00000000000E+00  0.00000000000E+00  0.92484543348E+03  0.92484543349E+03  0.50400001928E-02 0. -1.
       -1   -1    0    0    0  501  0.00000000000E+00  0.00000000000E+00 -0.52189133931E+03  0.52189133933E+03  0.50400001928E-02 0.  1.
    10030    2    1    2    0    0  0.00000000000E+00  0.00000000000E+00  0.40295409417E+03  0.14467367728E+04  0.13894874191E+04 0.  0.
        1    1    3    3  502    0  0.35720939262E+03 -0.56741497851E+03  0.12016903401E+02  0.67059877274E+03  0.50400001928E-02 0. -1.
       -1    1    3    3    0  502 -0.35720939262E+03  0.56741497851E+03  0.39093719077E+03  0.77613800008E+03  0.50400001928E-02 0.  1.
</event>
<event>
 5   0  0.3917598E-04  0.1403188E+04  0.7818609E-02  0.8951514E-01
        2   -1    0    0  501    0  0.00000000000E+00  0.00000000000E+00  0.21882407296E+04  0.21882407296E+04  0.25500000920E-02 0. -1.
       -2   -1    0    0    0  501  0.00000000000E+00  0.00000000000E+00 -0.22494517456E+03  0.22494517457E+03  0.25500000920E-02 0.  1.
    10030    2    1    2    0    0  0.00000000000E+00  0.00000000000E+00  0.19632955551E+04  0.24131859042E+04  0.14031880742E+04 0.  0.
        3    1    3    3  502    0  0.27730992853E+02 -0.38362278636E+03  0.19907672972E+04  0.20275822774E+04  0.10100000352E+00 0. -1.
       -3    1    3    3    0  502 -0.27730992853E+02  0.38362278636E+03 -0.27471742064E+02  0.38560362678E+03  0.10100000352E+00 0.  1.
</event>
<event>
 5   0  0.2155352E-04  0.1402351E+04  0.7818609E-02  0.8952118E-01
        1   -1    0    0  501    0  0.00000000000E+00  0.00000000000E+00  0.23871449763E+04  0.23871449764E+04  0.50400001928E-02 0. -1.
       -1   -1    0    0    0  501  0.00000000000E+00  0.00000000000E+00 -0.20595624979E+03  0.20595624985E+03  0.50400001928E-02 0.  1.
    10030    2    1    2    0    0  0.00000000000E+00  0.00000000000E+00  0.21811887266E+04  0.25931012262E+04  0.14023514925E+04 0.  0.
        2    1    3    3  502    0  0.19663943632E+03 -0.52913594675E+03  0.18596893917E+04  0.19434753798E+04  0.25500000920E-02 0. -1.
       -2    1    3    3    0  502 -0.19663943632E+03  0.52913594675E+03  0.32149933484E+03  0.64962584645E+03  0.25500000920E-02 0.  1.
</event>
<event>
 5   0  0.2143942E-04  0.1409178E+04  0.7818609E-02  0.8947202E-01
       -1   -1    0    0    0  501  0.00000000000E+00  0.00000000000E+00  0.43556427005E+03  0.43556427008E+03  0.50400001928E-02 0.  1.
        1   -1    0    0  501    0  0.00000000000E+00  0.00000000000E+00 -0.11397752695E+04  0.11397752695E+04  0.50400001928E-02 0. -1.
    10030    2    1    2    0    0  0.00000000000E+00  0.00000000000E+00 -0.70421099944E+03  0.15753395396E+04  0.14091776088E+04 0.  0.
        4    1    3    3  502    0  0.16668333167E+03  0.21648866088E+03  0.37393053077E+03  0.46311589056E+03  0.12699999809E+01 0.  1.
       -4    1    3    3    0  502 -0.16668333167E+03 -0.21648866088E+03 -0.10781415302E+04  0.11122236490E+04  0.12699999809E+01 0. -1.
</event>
<event>
 5   0  0.1497625E-04  0.1389448E+04  0.7818609E-02  0.8961492E-01
        3   -1    0    0  501    0  0.00000000000E+00  0.00000000000E+00  0.61028369917E+03  0.61028370753E+03  0.10100000352E+00 0.  1.
       -3   -1    0    0    0  501  0.00000000000E+00  0.00000000000E+00 -0.79084818536E+03  0.79084819181E+03  0.10100000352E+00 0. -1.
    10030    2    1    2    0    0  0.00000000000E+00  0.00000000000E+00 -0.18056448618E+03  0.14011318993E+04  0.13894484754E+04 0.  0.
        4    1    3    3  502    0  0.60469332165E+03 -0.78871643699E+02  0.24533065439E+03  0.65731536747E+03  0.12699999809E+01 0.  1.
       -4    1    3    3    0  502 -0.60469332165E+03  0.78871643699E+02 -0.42589514057E+03  0.74381653187E+03  0.12699999809E+01 0. -1.
</event>
<event>
 5   0  0.4208622E-04  0.1392700E+04  0.7818609E-02  0.8959119E-01
       -2   -1    0    0    0  501  0.00000000000E+00  0.00000000000E+00  0.83347086155E+03  0.83347086156E+03  0.25500000920E-02 0. -1.
        2   -1    0    0  501    0  0.00000000000E+00  0.00000000000E+00 -0.58178829504E+03  0.58178829505E+03  0.25500000920E-02 0.  1.
    10030    2    1    2    0    0  0.00000000000E+00  0.00000000000E+00  0.25168256651E+03  0.14152591566E+04  0.13927003863E+04 0.  0.
        4    1    3    3  502    0 -0.96849168128E+02 -0.95201194903E+02  0.81988206837E+03  0.83105429896E+03  0.12699999809E+01 0. -1.
       -4    1    3    3    0  502  0.96849168128E+02  0.95201194903E+02 -0.56819950187E+03  0.58420485765E+03  0.12699999809E+01 0.  1.
</event>
<event>
 5   0  0.2217251E-04  0.1378816E+04  0.7818609E-02  0.8969297E-01
       -1   -1    0    0    0  501  0.00000000000E+00  0.00000000000E+00  0.23744900029E+03  0.23744900034E+03  0.50400001928E-02 0. -1.
        1   -1    0    0  501    0  0.00000000000E+00  0.00000000000E+00 -0.20016241489E+04  0.20016241489E+04  0.50400001928E-02 0.  1.
    10030    2    1    2    0    0  0.00000000000E+00  0.00000000000E+00 -0.17641751486E+04  0.22390731492E+04  0.13788163810E+04 0.  0.
        5    1    3    3  502    0 -0.48107311853E+03  0.43353814513E+03 -0.12659452291E+04  0.14219796348E+04  0.46999998093E+01 0.  1.
       -5    1    3    3    0  502  0.48107311853E+03 -0.43353814513E+03 -0.49822991947E+03  0.81709351442E+03  0.46999998093E+01 0. -1.
</event>
<event>
 5   0  0.3932568E-04  0.1333283E+04  0.7818609E-02  0.9003580E-01
        2   -1    0    0  501    0  0.00000000000E+00  0.00000000000E+00  0.22909753698E+04  0.22909753698E+04  0.25500000920E-02 0. -1.
       -2   -1    0    0    0  501  0.00000000000E+00  0.00000000000E+00 -0.19398330688E+03  0.19398330689E+03  0.25500000920E-02 0.  1.
    10030    2    1    2    0    0  0.00000000000E+00  0.00000000000E+00  0.20969920630E+04  0.24849586767E+04  0.13332831331E+04 0.  0.
        2    1    3    3  502    0  0.57317664249E+03  0.53459965172E+02  0.16750773027E+04  0.17712349933E+04  0.25500000920E-02 0. -1.
       -2    1    3    3    0  502 -0.57317664249E+03 -0.53459965172E+02  0.42191476022E+03  0.71372368342E+03  0.25500000920E-02 0.  1.
</event>
<event>
 5   0  0.2143942E-04  0.1386444E+04  0.7818609E-02  0.8963690E-01
       -1   -1    0    0    0  501  0.00000000000E+00  0.00000000000E+00  0.24911969667E+03  0.24911969672E+03  0.50400001928E-02 0. -1.
        1   -1    0    0  501    0  0.00000000000E+00  0.00000000000E+00 -0.19290207073E+04  0.19290207073E+04  0.50400001928E-02 0.  1.
    10030    2    1    2    0    0  0.00000000000E+00  0.00000000000E+00 -0.16799010106E+04  0.21781404040E+04  0.13864444504E+04 0.  0.
        4    1    3    3  502    0  0.30122696221E+03 -0.16340668944E+03  0.10673580563E+03  0.35893394103E+03  0.12699999809E+01 0. -1.
       -4    1    3    3    0  502 -0.30122696221E+03  0.16340668944E+03 -0.17866368162E+04  0.18192064630E+04  0.12699999809E+01 0.  1.
</event>
<event>
 5   0  0.2223112E-04  0.1407265E+04  0.7818609E-02  0.8948577E-01
        1   -1    0    0  501    0  0.00000000000E+00  0.00000000000E+00  0.89690845496E+03  0.89690845497E+03  0.50400001928E-02 0. -1.
       -1   -1    0    0    0  501  0.00000000000E+00  0.00000000000E+00 -0.55200559478E+03  0.55200559480E+03  0.50400001928E-02 0.  1.
    10030    2    1    2    0    0  0.00000000000E+00  0.00000000000E+00  0.34490286018E+03  0.14489140498E+04  0.14072647017E+04 0.  0.
        1    1    3    3  502    0  0.57947038670E+03 -0.38908342168E+03  0.26411812854E+03  0.74627757835E+03  0.50400001928E-02 0. -1.
       -1    1    3    3    0  502 -0.57947038670E+03  0.38908342168E+03  0.80784731640E+02  0.70263647143E+03  0.50400001928E-02 0.  1.
</event>
<event>
 5   0  0.3932568E-04  0.1403223E+04  0.7818609E-02  0.8951489E-01
       -2   -1    0    0    0  501  0.00000000000E+00  0.00000000000E+00  0.64423373905E+03  0.64423373906E+03  0.25500000920E-02 0.  1.
        2   -1    0    0  501    0  0.00000000000E+00  0.00000000000E+00 -0.76409958515E+03  0.76409958515E+03  0.25500000920E-02 0. -1.
    10030    2    1    2    0    0  0.00000000000E+00  0.00000000000E+00 -0.11986584610E+03  0.14083333242E+04  0.14032230511E+04 0.  0.
        2    1    3    3  502    0 -0.66102426523E+03  0.90572675709E+02  0.15788797489E+03  0.68562752383E+03  0.25500000920E-02 0.  1.
       -2    1    3    3    0  502  0.66102426523E+03 -0.90572675709E+02 -0.27775382099E+03  0.72270580037E+03  0.25500000920E-02 0. -1.
</event>
<event>
 5   0  0.4310348E-04  0.1400012E+04  0.7818609E-02  0.8953810E-01
        2   -1    0    0  501    0  0.00000000000E+00  0.00000000000E+00  0.60289717534E+03  0.60289717534E+03  0.25500000920E-02 0. -1.
       -2   -1    0    0    0  501  0.00000000000E+00  0.00000000000E+00 -0.81275566629E+03  0.81275566630E+03  0.25500000920E-02 0.  1.
    10030    2    1    2    0    0  0.00000000000E+00  0.00000000000E+00 -0.20985849095E+03  0.14156528416E+04  0.14000115649E+04 0.  0.
        1    1    3    3  502    0  0.17915215846E+03  0.64020434724E+03  0.11672513922E+03  0.67496804388E+03  0.50400001928E-02 0.  1.
       -1    1    3    3    0  502 -0.17915215846E+03 -0.64020434724E+03 -0.32658363017E+03  0.74068479776E+03  0.50400001928E-02 0. -1.
</event>
<event>
 5   0  0.2155352E-04  0.1398819E+04  0.7818609E-02  0.8954674E-01
       -1   -1    0    0    0  501  0.00000000000E+00  0.00000000000E+00  0.14203133446E+04  0.14203133446E+04  0.50400001928E-02 0. -1.
        1   -1    0    0  501    0  0.00000000000E+00  0.00000000000E+00 -0.34441235228E+03  0.34441235231E+03  0.50400001928E-02 0.  1.
    10030    2    1    2    0    0  0.00000000000E+00  0.00000000000E+00  0.10759009924E+04  0.17647256970E+04  0.13988187303E+04 0.  0.
        2    1    3    3  502    0  0.11633023163E+03 -0.53947856670E+03  0.10799961536E+04  0.12128320323E+04  0.25500000920E-02 0. -1.
       -2    1    3    3    0  502 -0.11633023163E+03  0.53947856670E+03 -0.40951612756E+01  0.55189366465E+03  0.25500000920E-02 0.  1.
</event>
<event>
 5   0  0.2223112E-04  0.1400744E+04  0.7818609E-02  0.8953280E-01
       -1   -1    0    0    0  501  0.00000000000E+00  0.00000000000E+00  0.46768818176E+03  0.46768818179E+03  0.50400001928E-02 0. -1.
        1   -1    0    0  501    0  0.00000000000E+00  0.00000000000E+00 -0.10488204962E+04  0.10488204962E+04  0.50400001928E-02 0.  1.
    10030    2    1    2    0    0  0.00000000000E+00  0.00000000000E+00 -0.58113231446E+03  0.15165086780E+04  0.14007440179E+04 0.  0.
        1    1    3    3  502    0  0.66206871735E+03  0.18183953185E+03 -0.14086194111E+03  0.70088707244E+03  0.50400001928E-02 0. -1.
       -1    1    3    3    0  502 -0.66206871735E+03 -0.18183953185E+03 -0.44027037334E+03  0.81562160559E+03  0.50400001928E-02 0.  1.
</event>
<event>
 5   0  0.2143942E-04  0.1371580E+04  0.7818609E-02  0.8974652E-01
        1   -1    0    0  501    0  0.00000000000E+00  0.00000000000E+00  0.13263105749E+04  0.13263105749E+04  0.50400001928E-02 0.  1.
       -1   -1    0    0    0  501  0.00000000000E+00  0.00000000000E+00 -0.35459843884E+03  0.35459843888E+03  0.50400001928E-02 0. -1.
    10030    2    1    2    0    0  0.00000000000E+00  0.00000000000E+00  0.97171213601E+03  0.16809090137E+04  0.13715796139E+04 0.  0.
        4    1    3    3  502    0 -0.11775540711E+03 -0.62326079031E+03  0.80540102223E+03  0.10251793834E+04  0.12699999809E+01 0.  1.
       -4    1    3    3    0  502  0.11775540711E+03  0.62326079031E+03  0.16631111378E+03  0.65572963034E+03  0.12699999809E+01 0. -1.
</event>
<event>
 5   0  0.4208622E-04  0.1397350E+04  0.7818609E-02  0.8955739E-01
       -2   -1    0    0    0  501  0.00000000000E+00  0.00000000000E+00  0.21039619891E+03  0.21039619892E+03  0.25500000920E-02 0. -1.
        2   -1    0    0  501    0  0.00000000000E+00  0.00000000000E+00 -0.23201308311E+04  0.23201308311E+04  0.25500000920E-02 0.  1.
    10030    2    1    2    0    0  0.00000000000E+00  0.00000000000E+00 -0.21097346322E+04  0.25305270300E+04  0.13973499316E+04 0.  0.
        4    1    3    3  502    0  0.39605489491E+03 -0.50250879521E+03 -0.54660527625E+03  0.84151857375E+03  0.12699999809E+01 0.  1.
       -4    1    3    3    0  502 -0.39605489491E+03  0.50250879521E+03 -0.15631293559E+04  0.16890084562E+04  0.12699999809E+01 0. -1.
</event>
<event>
 5   0  0.2215876E-04  0.1396844E+04  0.7818609E-02  0.8956106E-01
        1   -1    0    0  501    0  0.00000000000E+00  0.00000000000E+00  0.49235579366E+03  0.49235579368E+03  0.50400001928E-02 0. -1.
       -1   -1    0    0    0  501  0.00000000000E+00  0.00000000000E+00 -0.99073357650E+03  0.99073357651E+03  0.50400001928E-02 0.  1.
    10030    2    1    2    0    0  0.00000000000E+00  0.00000000000E+00 -0.49837778284E+03  0.14830893702E+04  0.13968441808E+04 0.  0.
        3    1    3    3  502    0  0.39170882291E+03 -0.68649846865E+02  0.36040762393E+03  0.53669569498E+03  0.10100000352E+00 0. -1.
       -3    1    3    3    0  502 -0.39170882291E+03  0.68649846865E+02 -0.85878540677E+03  0.94639367522E+03  0.10100000352E+00 0.  1.
</event>
<event>
 5   0  0.2223112E-04  0.1401121E+04  0.7818609E-02  0.8953008E-01
        1   -1    0    0  501    0  0.00000000000E+00  0.00000000000E+00  0.91023284905E+03  0.91023284906E+03  0.50400001928E-02 0.  1.
       -1   -1    0    0    0  501  0.00000000000E+00  0.00000000000E+00 -0.53918610022E+03  0.53918610024E+03  0.50400001928E-02 0. -1.
    10030    2    1    2    0    0  0.00000000000E+00  0.00000000000E+00  0.37104674883E+03  0.14494189493E+04  0.14011208373E+04 0.  0.
        1    1    3    3  502    0  0.69393965183E+03  0.89489998621E+02  0.22171803584E+03  0.73397519555E+03  0.50400001928E-02 0.  1.
       -1    1    3    3    0  502 -0.69393965183E+03 -0.89489998621E+02  0.14932871299E+03  0.71544375375E+03  0.50400001928E-02 0. -1.
</event>
<event>
 5   0  0.2223112E-04  0.1395311E+04  0.7818609E-02  0.8957220E-01
        1   -1    0    0  501    0  0.00000000000E+00  0.00000000000E+00  0.19373435425E+04  0.19373435425E+04  0.50400001928E-02 0. -1.
       -1   -1    0    0    0  501  0.00000000000E+00  0.00000000000E+00 -0.25123230549E+03  0.25123230554E+03  0.50400001928E-02 0.  1.
    10030    2    1    2    0    0  0.00000000000E+00  0.00000000000E+00  0.16861112370E+04  0.21885758480E+04  0.13953111263E+04 0.  0.
        1    1    3    3  502    0 -0.63690545025E+03  0.61451360004E+02  0.12791454628E+04  0.14302579967E+04  0.50400001928E-02 0. -1.
       -1    1    3    3    0  502  0.63690545025E+03 -0.61451360004E+02  0.40696577422E+03  0.75831785131E+03  0.50400001928E-02 0.  1.
</event>
<event>
 5   0  0.4208622E-04  0.1397901E+04  0.7818609E-02  0.8955339E-01
       -2   -1    0    0    0  501  0.00000000000E+00  0.00000000000E+00  0.39626218006E+03  0.39626218006E+03  0.25500000920E-02 0.  1.
        2   -1    0    0  501    0  0.00000000000E+00  0.00000000000E+00 -0.12328498446E+04  0.12328498446E+04  0.25500000920E-02 0. -1.
    10030    2    1    2    0    0  0.00000000000E+00  0.00000000000E+00 -0.83658766459E+03  0.16291120247E+04  0.13979009509E+04 0.  0.
        4    1    3    3  502    0 -0.21888190547E+03 -0.56846871646E+03 -0.18876154670E+02  0.60944556135E+03  0.12699999809E+01 0.  1.
       -4    1    3    3    0  502  0.21888190547E+03  0.56846871646E+03 -0.81771150992E+03  0.10196664634E+04  0.12699999809E+01 0. -1.
</event>
<event>
 5   0  0.3917598E-04  0.1402903E+04  0.7818609E-02  0.8951720E-01
       -2   -1    0    0    0  501  0.00000000000E+00  0.00000000000E+00  0.36154183072E+03  0.36154183073E+03  0.25500000920E-02 0.  1.
        2   -1    0    0  501    0  0.00000000000E+00  0.00000000000E+00 -0.13609328693E+04  0.13609328693E+04  0.25500000920E-02 0. -1.
    10030    2    1    2    0    0  0.00000000000E+00  0.00000000000E+00 -0.99939103854E+03  0.17224747000E+04  0.14029029347E+04 0.  0.
        3    1    3    3  502    0  0.43416989603E+03  0.21375193297E+03 -0.11231446404E+04  0.12229665903E+04  0.10100000352E+00 0. -1.
       -3    1    3    3    0  502 -0.43416989603E+03 -0.21375193297E+03  0.12375360189E+03  0.49950810970E+03  0.10100000352E+00 0.  1.
</event>
<event>
 5   0  0.3975164E-04  0.1410149E+04  0.7818609E-02  0.8946505E-01
       -2   -1    0    0    0  501  0.00000000000E+00  0.00000000000E+00  0.43876851009E+03  0.43876851010E+03  0.25500000920E-02 0.  1.
        2   -1    0    0  501    0  0.00000000000E+00  0.00000000000E+00 -0.11330119973E+04  0.11330119973E+04  0.25500000920E-02 0. -1.
    10030    2    1    2    0    0  0.00000000000E+00  0.00000000000E+00 -0.69424348718E+03  0.15717805074E+04  0.14101489084E+04 0.  0.
        5    1    3    3  502    0  0.54043008020E+03  0.41254914401E+03 -0.13905337729E+03  0.69398803992E+03  0.46999998093E+01 0.  1.
       -5    1    3    3    0  502 -0.54043008020E+03 -0.41254914401E+03 -0.55519010990E+03  0.87779246747E+03  0.46999998093E+01 0. -1.
</event>
<event>
 5   0  0.3917598E-04  0.1400297E+04  0.7818609E-02  0.8953604E-01
       -2   -1    0    0    0  501  0.00000000000E+00  0.00000000000E+00  0.52722934930E+03  0.52722934931E+03  0.25500000920E-02 0. -1.
        2   -1    0    0  501    0  0.00000000000E+00  0.00000000000E+00 -0.92978061973E+03  0.92978061973E+03  0.25500000920E-02 0.  1.
    10030    2    1    2    0    0  0.00000000000E+00  0.00000000000E+00 -0.40255127043E+03  0.14570099690E+04  0.14002965845E+04 0.  0.
        3    1    3    3  502    0  0.39604976640E+03  0.11638186059E+03 -0.78969477786E+03  0.89107688070E+03  0.10100000352E+00 0.  1.
       -3    1    3    3    0  502 -0.39604976640E+03 -0.11638186059E+03  0.38714350743E+03  0.56593308835E+03  0.10100000352E+00 0. -1.
</event>
<event>
 5   0  0.2217251E-04  0.1405898E+04  0.7818609E-02  0.8949560E-01
        1   -1    0    0  501    0  0.00000000000E+00  0.00000000000E+00  0.46407034977E+03  0.46407034979E+03  0.50400001928E-02 0.  1.
       -1   -1    0    0    0  501  0.00000000000E+00  0.00000000000E+00 -0.10647892553E+04  0.10647892554E+04  0.50400001928E-02 0. -1.
    10030    2    1    2    0    0  0.00000000000E+00  0.00000000000E+00 -0.60071890558E+03  0.15288596051E+04  0.14058977519E+04 0.  0.
        5    1    3    3  502    0  0.29220831860E+03  0.12235061153E+03 -0.98274446502E+03  0.10325522491E+04  0.46999998093E+01 0. -1.
       -5    1    3    3    0  502 -0.29220831860E+03 -0.12235061153E+03  0.38202555944E+03  0.49630735605E+03  0.46999998093E+01 0.  1.
</event>
<event>
 5   0  0.3975164E-04  0.1400651E+04  0.7818609E-02  0.8953347E-01
        2   -1    0    0  501    0  0.00000000000E+00  0.00000000000E+00  0.19624735545E+04  0.19624735545E+04  0.25500000920E-02 0.  1.
       -2   -1    0    0    0  501  0.00000000000E+00  0.00000000000E+00 -0.24991730929E+03  0.24991730931E+03  0.25500000920E-02 0. -1.
    10030    2    1    2    0    0  0.00000000000E+00  0.00000000000E+00  0.17125562452E+04  0.22123908638E+04  0.14006514346E+04 0.  0.
        5    1    3    3  502    0 -0.56575314665E+03 -0.37249114201E+03  0.11370984573E+04  0.13235714055E+04  0.46999998093E+01 0. -1.
       -5    1    3    3    0  502  0.56575314665E+03  0.37249114201E+03  0.57545778786E+03  0.88881945829E+03  0.46999998093E+01 0.  1.
</event>
<event>
 5   0  0.3932568E-04  0.1400601E+04  0.7818609E-02  0.8953383E-01
        2   -1    0    0  501    0  0.00000000000E+00  0.00000000000E+00  0.10306941436E+04  0.10306941436E+04  0.25500000920E-02 0. -1.
       -2   -1    0    0    0  501  0.00000000000E+00  0.00000000000E+00 -0.47581615890E+03  0.47581615891E+03  0.25500000920E-02 0.  1.
    10030    2    1    2    0    0  0.00000000000E+00  0.00000000000E+00  0.55487798471E+03  0.15065103025E+04  0.14006011972E+04 0.  0.
        2    1    3    3  502    0  0.34713664029E+02  0.39186233040E+03  0.90061005885E+03  0.98278156401E+03  0.25500000920E-02 0. -1.
       -2    1    3    3    0  502 -0.34713664029E+02 -0.39186233040E+03 -0.34573207413E+03  0.52372873851E+03  0.25500000920E-02 0.  1.
</event>
<event>
 5   0  0.3975164E-04  0.1375249E+04  0.7818609E-02  0.8971932E-01
       -2   -1    0    0    0  501  0.00000000000E+00  0.00000000000E+00  0.14661979034E+03  0.14661979036E+03  0.25500000920E-02 0.  1.
        2   -1    0    0  501    0  0.00000000000E+00  0.00000000000E+00 -0.32248545652E+04  0.32248545652E+04  0.25500000920E-02 0. -1.
    10030    2    1    2    0    0  0.00000000000E+00  0.00000000000E+00 -0.30782347748E+04  0.33714743555E+04  0.13752490687E+04 0.  0.
        5    1    3    3  502    0 -0.52936968149E+02  0.19829700051E+03  0.69736309353E+02  0.21681620292E+03  0.46999998093E+01 0.  1.
       -5    1    3    3    0  502  0.52936968149E+02 -0.19829700051E+03 -0.31479710842E+04  0.31546581526E+04  0.46999998093E+01 0. -1.
</event>
<event>
 5   0  0.2223112E-04  0.1406785E+04  0.7818609E-02  0.8948921E-01
        1   -1    0    0  501    0  0.00000000000E+00  0.00000000000E+00  0.87506329126E+03  0.87506329127E+03  0.50400001928E-02 0.  1.
       -1   -1    0    0    0  501  0.00000000000E+00  0.00000000000E+00 -0.56540062025E+03  0.56540062027E+03  0.50400001928E-02 0. -1.
    10030    2    1    2    0    0  0.00000000000E+00  0.00000000000E+00  0.30966267101E+03  0.14404639115E+04  0.14067854530E+04 0.  0.
        1    1    3    3  502    0  0.25809257279E+02  0.70252005710E+03  0.17907903164E+03  0.72544458643E+03  0.50400001928E-02 0.  1.
       -1    1    3    3    0  502 -0.25809257279E+02 -0.70252005710E+03  0.13058363937E+03  0.71501932511E+03  0.50400001928E-02 0. -1.
</event>
<event>
 5   0  0.3932568E-04  0.1394308E+04  0.7818609E-02  0.8957949E-01
       -2   -1    0    0    0  501  0.00000000000E+00  0.00000000000E+00  0.84630332016E+03  0.84630332016E+03  0.25500000920E-02 0. -1.
        2   -1    0    0  501    0  0.00000000000E+00  0.00000000000E+00 -0.57429050019E+03  0.57429050019E+03  0.25500000920E-02 0.  1.
    10030    2    1    2    0    0  0.00000000000E+00  0.00000000000E+00  0.27201281997E+03  0.14205938204E+04  0.13943083691E+04 0.  0.
        2    1    3    3  502    0 -0.60833030971E+03 -0.22695653881E+03  0.39466023892E+03  0.75982349293E+03  0.25500000920E-02 0. -1.
       -2    1    3    3    0  502  0.60833030971E+03  0.22695653881E+03 -0.12264741895E+03  0.66077032742E+03  0.25500000920E-02 0.  1.
</event>
<event>
 5   0  0.2217251E-04  0.1409105E+04  0.7818609E-02  0.8947254E-01
       -1   -1    0    0    0  501  0.00000000000E+00  0.00000000000E+00  0.23240311781E+03  0.23240311786E+03  0.50400001928E-02 0.  1.
        1   -1    0    0  501    0  0.00000000000E+00  0.00000000000E+00 -0.21359195747E+04  0.21359195747E+04  0.50400001928E-02 0. -1.
    10030    2    1    2    0    0  0.00000000000E+00  0.00000000000E+00 -0.19035164569E+04  0.23683226926E+04  0.14091052035E+04 0.  0.
        5    1    3    3  502    0 -0.31400511922E+03 -0.51122184528E+03 -0.33096796284E+03  0.68520717481E+03  0.46999998093E+01 0.  1.
       -5    1    3    3    0  502  0.31400511922E+03  0.51122184528E+03 -0.15725484941E+04  0.16831155178E+04  0.46999998093E+01 0. -1.
</event>
<event>
 5   0  0.2215876E-04  0.1397414E+04  0.7818609E-02  0.8955692E-01
       -1   -1    0    0    0  501  0.00000000000E+00  0.00000000000E+00  0.34976785774E+03  0.34976785778E+03  0.50400001928E-02 0.  1.
        1   -1    0    0  501    0  0.00000000000E+00  0.00000000000E+00 -0.13957592481E+04  0.13957592481E+04  0.50400001928E-02 0. -1.
    10030    2    1    2    0    0  0.00000000000E+00  0.00000000000E+00 -0.10459913903E+04  0.17455271059E+04  0.13974143583E+04 0.  0.
        3    1    3    3  502    0 -0.29666731313E+03  0.17098245449E+03 -0.12837707852E+04  0.13286511708E+04  0.10100000352E+00 0. -1.
       -3    1    3    3    0  502  0.29666731313E+03 -0.17098245449E+03  0.23777939488E+03  0.41687593509E+03  0.10100000352E+00 0.  1.
</event>
<event>
 5   0  0.4208622E-04  0.1396354E+04  0.7818609E-02  0.8956462E-01
        2   -1    0    0  501    0  0.00000000000E+00  0.00000000000E+00  0.11433436645E+04  0.11433436645E+04  0.25500000920E-02 0. -1.
       -2   -1    0    0    0  501  0.00000000000E+00  0.00000000000E+00 -0.42633809467E+03  0.42633809468E+03  0.25500000920E-02 0.  1.
    10030    2    1    2    0    0  0.00000000000E+00  0.00000000000E+00  0.71700556980E+03  0.15696817591E+04  0.13963537653E+04 0.  0.
        4    1    3    3  502    0  0.15979462683E+03  0.25317191296E+03 -0.35051791587E+03  0.46097154199E+03  0.12699999809E+01 0.  1.
       -4    1    3    3    0  502 -0.15979462683E+03 -0.25317191296E+03  0.10675234857E+04  0.11087102172E+04  0.12699999809E+01 0. -1.
</event>
<event>
 5   0  0.2217251E-04  0.1403665E+04  0.7818609E-02  0.8951170E-01
       -1   -1    0    0    0  501  0.00000000000E+00  0.00000000000E+00  0.47766486765E+03  0.47766486768E+03  0.50400001928E-02 0. -1.
        1   -1    0    0  501    0  0.00000000000E+00  0.00000000000E+00 -0.10312024054E+04  0.10312024054E+04  0.50400001928E-02 0.  1.
    10030    2    1    2    0    0  0.00000000000E+00  0.00000000000E+00 -0.55353753774E+03  0.15088672731E+04  0.14036654310E+04 0.  0.
        5    1    3    3  502    0  0.21840725510E+03 -0.74336098744E+02  0.43571941765E+03  0.49305282229E+03  0.46999998093E+01 0. -1.
       -5    1    3    3    0  502 -0.21840725510E+03  0.74336098744E+02 -0.98925695538E+03  0.10158144508E+04  0.46999998093E+01 0.  1.
</event>
<event>
 5   0  0.2223112E-04  0.1406367E+04  0.7818609E-02  0.8949223E-01
        1   -1    0    0  501    0  0.00000000000E+00  0.00000000000E+00  0.81600293522E+03  0.81600293524E+03  0.50400001928E-02 0. -1.
       -1   -1    0    0    0  501  0.00000000000E+00  0.00000000000E+00 -0.60596215154E+03  0.60596215157E+03  0.50400001928E-02 0.  1.
    10030    2    1    2    0    0  0.00000000000E+00  0.00000000000E+00  0.21004078368E+03  0.14219650868E+04  0.14063668004E+04 0.  0.
        1    1    3    3  502    0 -0.10519516656E+03 -0.69197606923E+03  0.17337188281E+03  0.72107885369E+03  0.50400001928E-02 0. -1.
       -1    1    3    3    0  502  0.10519516656E+03  0.69197606923E+03  0.36668900864E+02  0.70088623312E+03  0.50400001928E-02 0.  1.
</event>
<event>
 5   0  0.2217251E-04  0.1395333E+04  0.7818609E-02  0.8957204E-01
        1   -1    0    0  501    0  0.00000000000E+00  0.00000000000E+00  0.10908913622E+04  0.10908913622E+04  0.50400001928E-02 0.  1.
       -1   -1    0    0    0  501  0.00000000000E+00  0.00000000000E+00 -0.44618429376E+03  0.44618429379E+03  0.50400001928E-02 0. -1.
    10030    2    1    2    0    0  0.00000000000E+00  0.00000000000E+00  0.64470706845E+03  0.15370756560E+04  0.13953330671E+04 0.  0.
        5    1    3    3  502    0 -0.75972107993E+02  0.52426618643E+03  0.82244046904E+03  0.97829300854E+03  0.46999998093E+01 0.  1.
       -5    1    3    3    0  502  0.75972107993E+02 -0.52426618643E+03 -0.17773340060E+03  0.55878264747E+03  0.46999998093E+01 0. -1.
</event>
<event>
 5   0  0.3975164E-04  0.1388718E+04  0.7818609E-02  0.8962026E-01
       -2   -1    0    0    0  501  0.00000000000E+00  0.00000000000E+00  0.23768928730E+03  0.23768928731E+03  0.25500000920E-02 0. -1.
        2   -1    0    0  501    0  0.00000000000E+00  0.00000000000E+00 -0.20284231315E+04  0.20284231315E+04  0.25500000920E-02 0.  1.
    10030    2    1    2    0    0  0.00000000000E+00  0.00000000000E+00 -0.17907338442E+04  0.22661124188E+04  0.13887180398E+04 0.  0.
        5    1    3    3  502    0 -0.17740165522E+03 -0.30957987699E+02  0.19889282112E+03  0.26834714190E+03  0.46999998093E+01 0. -1.
       -5    1    3    3    0  502  0.17740165522E+03  0.30957987699E+02 -0.19896266654E+04  0.19977652769E+04  0.46999998093E+01 0.  1.
</event>
<event>
 5   0  0.2143942E-04  0.1397980E+04  0.7818609E-02  0.8955282E-01
       -1   -1    0    0    0  501  0.00000000000E+00  0.00000000000E+00  0.10730367657E+04  0.10730367657E+04  0.50400001928E-02 0. -1.
        1   -1    0    0  501    0  0.00000000000E+00  0.00000000000E+00 -0.45533129548E+03  0.45533129551E+03  0.50400001928E-02 0.  1.
    10030    2    1    2    0    0  0.00000000000E+00  0.00000000000E+00  0.61770547021E+03  0.15283680612E+04  0.13979802869E+04 0.  0.
        4    1    3    3  502    0  0.51767800623E+03  0.44124346498E+03  0.13291018963E+03  0.69307506442E+03  0.12699999809E+01 0.  1.
       -4    1    3    3    0  502 -0.51767800623E+03 -0.44124346498E+03  0.48479528059E+03  0.83529299680E+03  0.12699999809E+01 0. -1.
</event>
<event>
 5   0  0.1497625E-04  0.1397033E+04  0.7818609E-02  0.8955969E-01
       -3   -1    0    0    0  501  0.00000000000E+00  0.00000000000E+00  0.11025166241E+04  0.11025166287E+04  0.10100000352E+00 0. -1.
        3   -1    0    0  501    0  0.00000000000E+00  0.00000000000E+00 -0.44255576602E+03  0.44255577754E+03  0.10100000352E+00 0.  1.
    10030    2    1    2    0    0  0.00000000000E+00  0.00000000000E+00  0.65996085808E+03  0.15450724063E+04  0.13970327149E+04 0.  0.
        2    1    3    3  502    0  0.28853226044E+03 -0.61344619586E+03  0.51622347569E+03  0.85208789300E+03  0.25500000920E-02 0.  1.
       -2    1    3    3    0  502 -0.28853226044E+03  0.61344619586E+03  0.14373738238E+03  0.69298451327E+03  0.25500000920E-02 0. -1.
</event>
<event>
 5   0  0.3975164E-04  0.1398904E+04  0.7818609E-02  0.8954612E-01
       -2   -1    0    0    0  501  0.00000000000E+00  0.00000000000E+00  0.11335994284E+04  0.11335994284E+04  0.25500000920E-02 0.  1.
        2   -1    0    0  501    0  0.00000000000E+00  0.00000000000E+00 -0.43157503262E+03  0.43157503263E+03  0.25500000920E-02 0. -1.
    10030    2    1    2    0    0  0.00000000000E+00  0.00000000000E+00  0.70202439576E+03  0.15651744610E+04  0.13989041573E+04 0.  0.
        5    1    3    3  502    0  0.24898691706E+03 -0.40471802685E+03 -0.22323532045E+03  0.52502120377E+03  0.46999998093E+01 0. -1.
       -5    1    3    3    0  502 -0.24898691706E+03  0.40471802685E+03  0.92525971621E+03  0.10401532572E+04  0.46999998093E+01 0.  1.
</event>
<event>
 5   0  0.2217251E-04  0.1404899E+04  0.7818609E-02  0.8950280E-01
       -1   -1    0    0    0  501  0.00000000000E+00  0.00000000000E+00  0.48429187416E+03  0.48429187418E+03  0.50400001928E-02 0. -1.
        1   -1    0    0  501    0  0.00000000000E+00  0.00000000000E+00 -0.10188805607E+04  0.10188805607E+04  0.50400001928E-02 0.  1.
    10030    2    1    2    0    0  0.00000000000E+00  0.00000000000E+00 -0.53458868654E+03  0.15031724349E+04  0.14048993933E+04 0.  0.
        5    1    3    3  502    0 -0.22881160750E+03  0.12554627711E+03 -0.96506012802E+03  0.99973984621E+03  0.46999998093E+01 0.  1.
       -5    1    3    3    0  502  0.22881160750E+03 -0.12554627711E+03  0.43047144148E+03  0.50343258868E+03  0.46999998093E+01 0. -1.
</event>
<event>
 5   0  0.4208622E-04  0.1399060E+04  0.7818609E-02  0.8954499E-01
        2   -1    0    0  501    0  0.00000000000E+00  0.00000000000E+00  0.10520207987E+04  0.10520207987E+04  0.25500000920E-02 0.  1.
       -2   -1    0    0    0  501  0.00000000000E+00  0.00000000000E+00 -0.46514501946E+03  0.46514501946E+03  0.25500000920E-02 0. -1.
    10030    2    1    2    0    0  0.00000000000E+00  0.00000000000E+00  0.58687577924E+03  0.15171658182E+04  0.13990600200E+04 0.  0.
        4    1    3    3  502    0 -0.16447016081E+03 -0.29918694312E+03 -0.36865887875E+03  0.50246815075E+03  0.12699999809E+01 0. -1.
       -4    1    3    3    0  502  0.16447016081E+03  0.29918694312E+03  0.95553465799E+03  0.10146976674E+04  0.12699999809E+01 0.  1.
</event>
<event>
 5   0  0.2143942E-04  0.1346273E+04  0.7818609E-02  0.8993654E-01
       -1   -1    0    0    0  501  0.00000000000E+00  0.00000000000E+00  0.48279253023E+03  0.48279253025E+03  0.50400001928E-02 0. -1.
        1   -1    0    0  501    0  0.00000000000E+00  0.00000000000E+00 -0.93852529485E+03  0.93852529486E+03  0.50400001928E-02 0.  1.
    10030    2    1    2    0    0  0.00000000000E+00  0.00000000000E+00 -0.45573276462E+03  0.14213178251E+04  0.13462733776E+04 0.  0.
        4    1    3    3  502    0  0.24390733037E+03  0.44132007743E+03  0.24292509971E+03  0.55970386234E+03  0.12699999809E+01 0. -1.
       -4    1    3    3    0  502 -0.24390733037E+03 -0.44132007743E+03 -0.69865786433E+03  0.86161396277E+03  0.12699999809E+01 0.  1.
</event>
<event>
 5   0  0.2155352E-04  0.1412412E+04  0.7818609E-02  0.8944883E-01
        1   -1    0    0  501    0  0.00000000000E+00  0.00000000000E+00  0.38397676545E+03  0.38397676548E+03  0.50400001928E-02 0.  1.
       -1   -1    0    0    0  501  0.00000000000E+00  0.00000000000E+00 -0.12988467983E+04  0.12988467983E+04  0.50400001928E-02 0. -1.
    10030    2    1    2    0    0  0.00000000000E+00  0.00000000000E+00 -0.91487003284E+03  0.16828235638E+04  0.14124121105E+04 0.  0.
        2    1    3    3  502    0 -0.43129607784E+03  0.35887061071E+03 -0.96840414957E+03  0.11192010628E+04  0.25500000920E-02 0. -1.
       -2    1    3    3    0  502  0.43129607784E+03 -0.35887061071E+03  0.53534116720E+02  0.56362250102E+03  0.25500000920E-02 0.  1.
</event>
<event>
 5   0  0.2215876E-04  0.1399249E+04  0.7818609E-02  0.8954362E-01
       -1   -1    0    0    0  501  0.00000000000E+00  0.00000000000E+00  0.97836923768E+03  0.97836923770E+03  0.50400001928E-02 0. -1.
        1   -1    0    0  501    0  0.00000000000E+00  0.00000000000E+00 -0.50029612016E+03  0.50029612018E+03  0.50400001928E-02 0.  1.
    10030    2    1    2    0    0  0.00000000000E+00  0.00000000000E+00  0.47807311753E+03  0.14786653579E+04  0.13992488467E+04 0.  0.
        3    1    3    3  502    0  0.63233071300E+03 -0.20740450290E+03  0.46719703644E+03  0.81310014112E+03  0.10100000352E+00 0. -1.
       -3    1    3    3    0  502 -0.63233071300E+03  0.20740450290E+03  0.10876081088E+02  0.66556521676E+03  0.10100000352E+00 0.  1.
</event>
<event>
 5   0  0.3917598E-04  0.1400285E+04  0.7818609E-02  0.8953612E-01
       -2   -1    0    0    0  501  0.00000000000E+00  0.00000000000E+00  0.21984277163E+03  0.21984277164E+03  0.25500000920E-02 0.  1.
        2   -1    0    0  501    0  0.00000000000E+00  0.00000000000E+00 -0.22297722184E+04  0.22297722184E+04  0.25500000920E-02 0. -1.
    10030    2    1    2    0    0  0.00000000000E+00  0.00000000000E+00 -0.20099294468E+04  0.24496149900E+04  0.14002846919E+04 0.  0.
        3    1    3    3  502    0  0.52069196558E+03  0.44373903009E+03 -0.12654671553E+04  0.14385519042E+04  0.10100000352E+00 0. -1.
       -3    1    3    3    0  502 -0.52069196558E+03 -0.44373903009E+03 -0.74446229150E+03  0.10110630858E+04  0.10100000352E+00 0.  1.
</event>
<event>
 5   0  0.2155352E-04  0.1424829E+04  0.7818609E-02  0.8936040E-01
        1   -1    0    0  501    0  0.00000000000E+00  0.00000000000E+00  0.12709979530E+04  0.12709979530E+04  0.50400001928E-02 0.  1.
       -1   -1    0    0    0  501  0.00000000000E+00  0.00000000000E+00 -0.39931949680E+03  0.39931949683E+03  0.50400001928E-02 0. -1.
    10030    2    1    2    0    0  0.00000000000E+00  0.00000000000E+00  0.87167845623E+03  0.16703174499E+04  0.14248287800E+04 0.  0.
        2    1    3    3  502    0  0.43096683485E+03  0.45181465921E+03  0.83796384561E+03  0.10450130648E+04  0.25500000920E-02 0.  1.
       -2    1    3    3    0  502 -0.43096683485E+03 -0.45181465921E+03  0.33714610614E+02  0.62530438507E+03  0.25500000920E-02 0. -1.
</event>
<event>
 5   0  0.2155352E-04  0.1397127E+04  0.7818609E-02  0.8955901E-01
       -1   -1    0    0    0  501  0.00000000000E+00  0.00000000000E+00  0.34861214836E+03  0.34861214839E+03  0.50400001928E-02 0. -1.
        1   -1    0    0  501    0  0.00000000000E+00  0.00000000000E+00 -0.13998107257E+04  0.13998107257E+04  0.50400001928E-02 0.  1.
    10030    2    1    2    0    0  0.00000000000E+00  0.00000000000E+00 -0.10511985773E+04  0.17484228741E+04  0.13971270871E+04 0.  0.
        2    1    3    3  502    0  0.31687039420E+03 -0.13127822080E+03 -0.12871816244E+04  0.13320950988E+04  0.25500000920E-02 0.  1.
       -2    1    3    3    0  502 -0.31687039420E+03  0.13127822080E+03  0.23598304708E+03  0.41632777531E+03  0.25500000920E-02 0. -1.
</event>
<event>
 5   0  0.3975164E-04  0.1393168E+04  0.7818609E-02  0.8958779E-01
       -2   -1    0    0    0  501  0.00000000000E+00  0.00000000000E+00  0.21785879451E+03  0.21785879452E+03  0.25500000920E-02 0. -1.
        2   -1    0    0  501    0  0.00000000000E+00  0.00000000000E+00 -0.22272650503E+04  0.22272650503E+04  0.25500000920E-02 0.  1.
    10030    2    1    2    0    0  0.00000000000E+00  0.00000000000E+00 -0.20094062558E+04  0.24451238448E+04  0.13931680142E+04 0.  0.
        5    1    3    3  502    0  0.65790784914E+03  0.22878277187E+03 -0.10131008346E+04  0.12294631697E+04  0.46999998093E+01 0.  1.
       -5    1    3    3    0  502 -0.65790784914E+03 -0.22878277187E+03 -0.99630542123E+03  0.12156606751E+04  0.46999998093E+01 0. -1.
</event>
<event>
 5   0  0.4208622E-04  0.1398242E+04  0.7818609E-02  0.8955092E-01
        2   -1    0    0  501    0  0.00000000000E+00  0.00000000000E+00  0.65734835473E+03  0.65734835473E+03  0.25500000920E-02 0. -1.
       -2   -1    0    0    0  501  0.00000000000E+00  0.00000000000E+00 -0.74354791481E+03  0.74354791481E+03  0.25500000920E-02 0.  1.
    10030    2    1    2    0    0  0.00000000000E+00  0.00000000000E+00 -0.86199560077E+02  0.14008962695E+04  0.13982417509E+04 0.  0.
        4    1    3    3  502    0 -0.47971270378E+03 -0.24649045140E+03 -0.48878873101E+03  0.72787214349E+03  0.12699999809E+01 0.  1.
       -4    1    3    3    0  502  0.47971270378E+03  0.24649045140E+03  0.40258917093E+03  0.67302412606E+03  0.12699999809E+01 0. -1.
</event>
<event>
 5   0  0.2155352E-04  0.1399928E+04  0.7818609E-02  0.8953871E-01
       -1   -1    0    0    0  501  0.00000000000E+00  0.00000000000E+00  0.33012970514E+03  0.33012970518E+03  0.50400001928E-02 0. -1.
        1   -1    0    0  501    0  0.00000000000E+00  0.00000000000E+00 -0.14841126269E+04  0.14841126269E+04  0.50400001928E-02 0.  1.
    10030    2    1    2    0    0  0.00000000000E+00  0.00000000000E+00 -0.11539829217E+04  0.18142423320E+04  0.13999280895E+04 0.  0.
        2    1    3    3  502    0 -0.26462882857E+03 -0.55831593249E+03 -0.15069437553E+03  0.63596689552E+03  0.25500000920E-02 0. -1.
       -2    1    3    3    0  502  0.26462882857E+03  0.55831593249E+03 -0.10032885462E+04  0.11782754365E+04  0.25500000920E-02 0.  1.
</event>
<event>
 5   0  0.2215876E-04  0.1400990E+04  0.7818609E-02  0.8953102E-01
        1   -1    0    0  501    0  0.00000000000E+00  0.00000000000E+00  0.10355197062E+04  0.10355197063E+04  0.50400001928E-02 0.  1.
       -1   -1    0    0    0  501  0.00000000000E+00  0.00000000000E+00 -0.47386167336E+03  0.47386167339E+03  0.50400001928E-02 0. -1.
    10030    2    1    2    0    0  0.00000000000E+00  0.00000000000E+00  0.56165803289E+03  0.15093813796E+04  0.14009897942E+04 0.  0.
        3    1    3    3  502    0  0.49797898629E+02  0.56947355342E+03 -0.15535614844E+03  0.59238121325E+03  0.10100000352E+00 0. -1.
       -3    1    3    3    0  502 -0.49797898629E+02 -0.56947355342E+03  0.71701418133E+03  0.91700016640E+03  0.10100000352E+00 0.  1.
</event>
<event>
 5   0  0.2215876E-04  0.1402958E+04  0.7818609E-02  0.8951680E-01
       -1   -1    0    0    0  501  0.00000000000E+00  0.00000000000E+00  0.11948715894E+04  0.11948715894E+04  0.50400001928E-02 0. -1.
        1   -1    0    0  501    0  0.00000000000E+00  0.00000000000E+00 -0.41182040256E+03  0.41182040259E+03  0.50400001928E-02 0.  1.
    10030    2    1    2    0    0  0.00000000000E+00  0.00000000000E+00  0.78305118680E+03  0.16066919920E+04  0.14029575888E+04 0.  0.
        3    1    3    3  502    0  0.36860819835E+03  0.54035865161E+03  0.10132412272E+03  0.66191091871E+03  0.10100000352E+00 0.  1.
       -3    1    3    3    0  502 -0.36860819835E+03 -0.54035865161E+03  0.68172706408E+03  0.94478107325E+03  0.10100000352E+00 0. -1.
</event>
<event>
 5   0  0.3932568E-04  0.1416712E+04  0.7818609E-02  0.8941810E-01
       -2   -1    0    0    0  501  0.00000000000E+00  0.00000000000E+00  0.17594502808E+04  0.17594502808E+04  0.25500000920E-02 0. -1.
        2   -1    0    0  501    0  0.00000000000E+00  0.00000000000E+00 -0.28518470502E+03  0.28518470503E+03  0.25500000920E-02 0.  1.
    10030    2    1    2    0    0  0.00000000000E+00  0.00000000000E+00  0.14742655758E+04  0.20446349859E+04  0.14167121223E+04 0.  0.
        2    1    3    3  502    0 -0.42532078756E+03  0.56326993054E+03  0.65056906445E+03  0.95990150255E+03  0.25500000920E-02 0. -1.
       -2    1    3    3    0  502  0.42532078756E+03 -0.56326993054E+03  0.82369651136E+03  0.10847334833E+04  0.25500000920E-02 0.  1.
</event>
<event>
 5   0  0.2223112E-04  0.1406508E+04  0.7818609E-02  0.8949121E-01
        1   -1    0    0  501    0  0.00000000000E+00  0.00000000000E+00  0.50656357495E+03  0.50656357498E+03  0.50400001928E-02 0.  1.
       -1   -1    0    0    0  501  0.00000000000E+00  0.00000000000E+00 -0.97631650208E+03  0.97631650209E+03  0.50400001928E-02 0. -1.
    10030    2    1    2    0    0  0.00000000000E+00  0.00000000000E+00 -0.46975292712E+03  0.14828800771E+04  0.14065082689E+04 0.  0.
        1    1    3    3  502    0  0.44749126594E+03  0.51245595204E+02 -0.80428749381E+03  0.92182043634E+03  0.50400001928E-02 0. -1.
       -1    1    3    3    0  502 -0.44749126594E+03 -0.51245595204E+02  0.33453456669E+03  0.56105964073E+03  0.50400001928E-02 0.  1.
</event>
<event>
 5   0  0.3975164E-04  0.1400462E+04  0.7818609E-02  0.8953484E-01
       -2   -1    0    0    0  501  0.00000000000E+00  0.00000000000E+00  0.25267545791E+03  0.25267545792E+03  0.25500000920E-02 0. -1.
        2   -1    0    0  501    0  0.00000000000E+00  0.00000000000E+00 -0.19405267903E+04  0.19405267903E+04  0.25500000920E-02 0.  1.
    10030    2    1    2    0    0  0.00000000000E+00  0.00000000000E+00 -0.16878513324E+04  0.21932022483E+04  0.14004620600E+04 0.  0.
        5    1    3    3  502    0 -0.29869082894E+02 -0.66996281240E+03 -0.52853317749E+03  0.85388040252E+03  0.46999998093E+01 0.  1.
       -5    1    3    3    0  502  0.29869082894E+02  0.66996281240E+03 -0.11593181549E+04  0.13393218457E+04  0.46999998093E+01 0. -1.
</event>
<event>
 5   0  0.2215876E-04  0.1403318E+04  0.7818609E-02  0.8951420E-01
        1   -1    0    0  501    0  0.00000000000E+00  0.00000000000E+00  0.11277812057E+04  0.11277812057E+04  0.50400001928E-02 0. -1.
       -1   -1    0    0    0  501  0.00000000000E+00  0.00000000000E+00 -0.43654352663E+03  0.43654352666E+03  0.50400001928E-02 0.  1.
    10030    2    1    2    0    0  0.00000000000E+00  0.00000000000E+00  0.69123767911E+03  0.15643247324E+04  0.14033183315E+04 0.  0.
        3    1    3    3  502    0 -0.14084973432E+03 -0.62009189972E+03  0.67625117348E+03  0.92826088552E+03  0.10100000352E+00 0. -1.
       -3    1    3    3    0  502  0.14084973432E+03  0.62009189972E+03  0.14986505621E+02  0.63606384688E+03  0.10100000352E+00 0.  1.
</event>
<event>
 5   0  0.3932568E-04  0.1381833E+04  0.7818609E-02  0.8967075E-01
       -2   -1    0    0    0  501  0.00000000000E+00  0.00000000000E+00  0.22432820573E+03  0.22432820574E+03  0.25500000920E-02 0.  1.
        2   -1    0    0  501    0  0.00000000000E+00  0.00000000000E+00 -0.21279788051E+04  0.21279788051E+04  0.25500000920E-02 0. -1.
    10030    2    1    2    0    0  0.00000000000E+00  0.00000000000E+00 -0.19036505994E+04  0.23523070108E+04  0.13818330828E+04 0.  0.
        2    1    3    3  502    0  0.55446905537E+03 -0.17456553653E+03 -0.15875337210E+04  0.16906130176E+04  0.25500000920E-02 0. -1.
       -2    1    3    3    0  502 -0.55446905537E+03  0.17456553653E+03 -0.31611687836E+03  0.66169399324E+03  0.25500000920E-02 0.  1.
</event>
<event>
 5   0  0.1497625E-04  0.1407266E+04  0.7818609E-02  0.8948576E-01
        3   -1    0    0  501    0  0.00000000000E+00  0.00000000000E+00  0.74268520456E+03  0.74268521143E+03  0.10100000352E+00 0.  1.
       -3   -1    0    0    0  501  0.00000000000E+00  0.00000000000E+00 -0.66663400226E+03  0.66663400991E+03  0.10100000352E+00 0. -1.
    10030    2    1    2    0    0  0.00000000000E+00  0.00000000000E+00  0.76051202296E+02  0.14093192213E+04  0.14072657469E+04 0.  0.
        3    1    3    3  502    0 -0.38078245078E+03  0.58338899617E+03 -0.60917425405E+02  0.69932034046E+03  0.10100000352E+00 0. -1.
       -3    1    3    3    0  502  0.38078245078E+03 -0.58338899617E+03  0.13696862770E+03  0.70999888088E+03  0.10100000352E+00 0.  1.
</event>
<event>
 5   0  0.3975164E-04  0.1402902E+04  0.7818609E-02  0.8951720E-01
        2   -1    0    0  501    0  0.00000000000E+00  0.00000000000E+00  0.11574598241E+04  0.11574598241E+04  0.25500000920E-02 0.  1.
       -2   -1    0    0    0  501  0.00000000000E+00  0.00000000000E+00 -0.42509788122E+03  0.42509788123E+03  0.25500000920E-02 0. -1.
    10030    2    1    2    0    0  0.00000000000E+00  0.00000000000E+00  0.73236194292E+03  0.15825577054E+04  0.14029023043E+04 0.  0.
        5    1    3    3  502    0 -0.12135572264E+03 -0.29742343009E+02  0.11447872765E+04  0.11515953356E+04  0.46999998093E+01 0.  1.
       -5    1    3    3    0  502  0.12135572264E+03  0.29742343009E+02 -0.41242533361E+03  0.43096236980E+03  0.46999998093E+01 0. -1.
</event>
<event>
 5   0  0.2223112E-04  0.1401572E+04  0.7818609E-02  0.8952682E-01
       -1   -1    0    0    0  501  0.00000000000E+00  0.00000000000E+00  0.35127712904E+03  0.35127712907E+03  0.50400001928E-02 0.  1.
        1   -1    0    0  501    0  0.00000000000E+00  0.00000000000E+00 -0.13980438356E+04  0.13980438357E+04  0.50400001928E-02 0. -1.
    10030    2    1    2    0    0  0.00000000000E+00  0.00000000000E+00 -0.10467667066E+04  0.17493209647E+04  0.14015717247E+04 0.  0.
        1    1    3    3  502    0 -0.45302219287E+03 -0.50007416337E+03 -0.75952947543E+03  0.10159666826E+04  0.50400001928E-02 0. -1.
       -1    1    3    3    0  502  0.45302219287E+03  0.50007416337E+03 -0.28723723118E+03  0.73335428212E+03  0.50400001928E-02 0.  1.
</event>
<event>
 5   0  0.2143942E-04  0.1404581E+04  0.7818609E-02  0.8950509E-01
       -1   -1    0    0    0  501  0.00000000000E+00  0.00000000000E+00  0.39518512222E+03  0.39518512225E+03  0.50400001928E-02 0.  1.
        1   -1    0    0  501    0  0.00000000000E+00  0.00000000000E+00 -0.12480535928E+04  0.12480535928E+04  0.50400001928E-02 0. -1.
    10030    2    1    2    0    0  0.00000000000E+00  0.00000000000E+00 -0.85286847054E+03  0.16432387150E+04  0.14045813777E+04 0.  0.
        4    1    3    3  502    0 -0.50605397897E+03 -0.81250860534E+02 -0.98813682354E+03  0.11131524275E+04  0.12699999809E+01 0. -1.
       -4    1    3    3    0  502  0.50605397897E+03  0.81250860534E+02  0.13526835300E+03  0.53008628750E+03  0.12699999809E+01 0.  1.
</event>
<event>
 5   0  0.3917598E-04  0.1357362E+04  0.7818609E-02  0.8985274E-01
        2   -1    0    0  501    0  0.00000000000E+00  0.00000000000E+00  0.97462299882E+03  0.97462299882E+03  0.25500000920E-02 0. -1.
       -2   -1    0    0    0  501  0.00000000000E+00  0.00000000000E+00 -0.47260108614E+03  0.47260108614E+03  0.25500000920E-02 0.  1.
    10030    2    1    2    0    0  0.00000000000E+00  0.00000000000E+00  0.50202191268E+03  0.14472240850E+04  0.13573619824E+04 0.  0.
        3    1    3    3  502    0  0.44740498652E+01  0.24310152985E+03  0.92659160312E+03  0.95796157549E+03  0.10100000352E+00 0. -1.
       -3    1    3    3    0  502 -0.44740498652E+01 -0.24310152985E+03 -0.42456969044E+03  0.48926250948E+03  0.10100000352E+00 0.  1.
</event>
<event>
 5   0  0.2217251E-04  0.1395971E+04  0.7818609E-02  0.8956740E-01
        1   -1    0    0  501    0  0.00000000000E+00  0.00000000000E+00  0.37101484333E+03  0.37101484337E+03  0.50400001928E-02 0. -1.
       -1   -1    0    0    0  501  0.00000000000E+00  0.00000000000E+00 -0.13131119087E+04  0.13131119088E+04  0.50400001928E-02 0.  1.
    10030    2    1    2    0    0  0.00000000000E+00  0.00000000000E+00 -0.94209706542E+03  0.16841267521E+04  0.13959713595E+04 0.  0.
        5    1    3    3  502    0 -0.39167583420E+03  0.46200405645E+03 -0.88949382154E+03  0.10761408160E+04  0.46999998093E+01 0.  1.
       -5    1    3    3    0  502  0.39167583420E+03 -0.46200405645E+03 -0.52603243878E+02  0.60798593614E+03  0.46999998093E+01 0. -1.
</event>
<event>
 5   0  0.4310348E-04  0.1398087E+04  0.7818609E-02  0.8955205E-01
       -2   -1    0    0    0  501  0.00000000000E+00  0.00000000000E+00  0.39479716093E+03  0.39479716093E+03  0.25500000920E-02 0.  1.
        2   -1    0    0  501    0  0.00000000000E+00  0.00000000000E+00 -0.12377535249E+04  0.12377535249E+04  0.25500000920E-02 0. -1.
    10030    2    1    2    0    0  0.00000000000E+00  0.00000000000E+00 -0.84295636399E+03  0.16325506859E+04  0.13980866605E+04 0.  0.
        1    1    3    3  502    0  0.15739946970E+03 -0.53209440491E+03  0.74984701987E+02  0.55993013346E+03  0.50400001928E-02 0.  1.
       -1    1    3    3    0  502 -0.15739946970E+03  0.53209440491E+03 -0.91794106598E+03  0.10726205524E+04  0.50400001928E-02 0. -1.
</event>
<event>
 5   0  0.2223112E-04  0.1401290E+04  0.7818609E-02  0.8952885E-01
        1   -1    0    0  501    0  0.00000000000E+00  0.00000000000E+00  0.12200452529E+04  0.12200452529E+04  0.50400001928E-02 0. -1.
       -1   -1    0    0    0  501  0.00000000000E+00  0.00000000000E+00 -0.40236515956E+03  0.40236515960E+03  0.50400001928E-02 0.  1.
    10030    2    1    2    0    0  0.00000000000E+00  0.00000000000E+00  0.81768009331E+03  0.16224104125E+04  0.14012904094E+04 0.  0.
        1    1    3    3  502    0 -0.29678271048E+03 -0.32546281318E+03  0.10397043867E+04  0.11291550964E+04  0.50400001928E-02 0. -1.
       -1    1    3    3    0  502  0.29678271048E+03  0.32546281318E+03 -0.22202429335E+03  0.49325531611E+03  0.50400001928E-02 0.  1.
</event>
<event>
 5   0  0.3932568E-04  0.1400745E+04  0.7818609E-02  0.8953279E-01
       -2   -1    0    0    0  501  0.00000000000E+00  0.00000000000E+00  0.36088547767E+03  0.36088547768E+03  0.25500000920E-02 0.  1.
        2   -1    0    0  501    0  0.00000000000E+00  0.00000000000E+00 -0.13592168824E+04  0.13592168825E+04  0.25500000920E-02 0. -1.
    10030    2    1    2    0    0  0.00000000000E+00  0.00000000000E+00 -0.99833140477E+03  0.17201023601E+04  0.14007449931E+04 0.  0.
        2    1    3    3  502    0  0.10036835779E+03  0.20179624262E+03 -0.13134692681E+04  0.13326653928E+04  0.25500000920E-02 0. -1.
       -2    1    3    3    0  502 -0.10036835779E+03 -0.20179624262E+03  0.31513786333E+03  0.38743696738E+03  0.25500000920E-02 0.  1.
</event>
<event>
 5   0  0.2215876E-04  0.1397767E+04  0.7818609E-02  0.8955436E-01
        1   -1    0    0  501    0  0.00000000000E+00  0.00000000000E+00  0.13171504153E+04  0.13171504153E+04  0.50400001928E-02 0.  1.
       -1   -1    0    0    0  501  0.00000000000E+00  0.00000000000E+00 -0.37082954576E+03  0.37082954579E+03  0.50400001928E-02 0. -1.
    10030    2    1    2    0    0  0.00000000000E+00  0.00000000000E+00  0.94632086953E+03  0.16879799611E+04  0.13977672056E+04 0.  0.
        3    1    3    3  502    0  0.12684388594E+03 -0.23244611168E+03  0.12542225395E+04  0.12818715829E+04  0.10100000352E+00 0.  1.
       -3    1    3    3    0  502 -0.12684388594E+03  0.23244611168E+03 -0.30790167000E+03  0.40610837817E+03  0.10100000352E+00 0. -1.
</event>
<event>
 5   0  0.4208622E-04  0.1403807E+04  0.7818609E-02  0.8951067E-01
        2   -1    0    0  501    0  0.00000000000E+00  0.00000000000E+00  0.19714682087E+04  0.19714682087E+04  0.25500000920E-02 0. -1.
       -2   -1    0    0    0  501  0.00000000000E+00  0.00000000000E+00 -0.24989933551E+03  0.24989933552E+03  0.25500000920E-02 0.  1.
    10030    2    1    2    0    0  0.00000000000E+00  0.00000000000E+00  0.17215688732E+04  0.22213675443E+04  0.14038071026E+04 0.  0.
        4    1    3    3  502    0 -0.19659171705E+03 -0.57079332074E+03  0.14273890977E+04  0.15498046869E+04  0.12699999809E+01 0. -1.
       -4    1    3    3    0  502  0.19659171705E+03  0.57079332074E+03  0.29417977551E+03  0.67156285740E+03  0.12699999809E+01 0.  1.
</event>
<event>
 5   0  0.4310348E-04  0.1385230E+04  0.7818609E-02  0.8964580E-01
        2   -1    0    0  501    0  0.00000000000E+00  0.00000000000E+00  0.88365712219E+03  0.88365712219E+03  0.25500000920E-02 0.  1.
       -2   -1    0    0    0  501  0.00000000000E+00  0.00000000000E+00 -0.54287493137E+03  0.54287493138E+03  0.25500000920E-02 0. -1.
    10030    2    1    2    0    0  0.00000000000E+00  0.00000000000E+00  0.34078219082E+03  0.14265320536E+04  0.13852296554E+04 0.  0.
        1    1    3    3  502    0 -0.20109895276E+03 -0.66246116706E+03  0.19148883395E+03  0.71830603520E+03  0.50400001928E-02 0. -1.
       -1    1    3    3    0  502  0.20109895276E+03  0.66246116706E+03  0.14929335687E+03  0.70822601837E+03  0.50400001928E-02 0.  1.
</event>
<event>
 5   0  0.2215876E-04  0.1392664E+04  0.7818609E-02  0.8959146E-01
       -1   -1    0    0    0  501  0.00000000000E+00  0.00000000000E+00  0.63311689972E+03  0.63311689974E+03  0.50400001928E-02 0. -1.
        1   -1    0    0  501    0  0.00000000000E+00  0.00000000000E+00 -0.76585898800E+03  0.76585898802E+03  0.50400001928E-02 0.  1.
    10030    2    1    2    0    0  0.00000000000E+00  0.00000000000E+00 -0.13274208828E+03  0.13989758878E+04  0.13926640200E+04 0.  0.
        3    1    3    3  502    0 -0.35525648107E+03  0.16720464475E+03 -0.64405454648E+03  0.75430155084E+03  0.10100000352E+00 0.  1.
       -3    1    3    3    0  502  0.35525648107E+03 -0.16720464475E+03  0.51131245820E+03  0.64467433692E+03  0.10100000352E+00 0. -1.
</event>
<event>
 5   0  0.2217251E-04  0.1382412E+04  0.7818609E-02  0.8966649E-01
        1   -1    0    0  501    0  0.00000000000E+00  0.00000000000E+00  0.79113016095E+03  0.79113016097E+03  0.50400001928E-02 0.  1.
       -1   -1    0    0    0  501  0.00000000000E+00  0.00000000000E+00 -0.60390304951E+03  0.60390304953E+03  0.50400001928E-02 0. -1.
    10030    2    1    2    0    0  0.00000000000E+00  0.00000000000E+00  0.18722711144E+03  0.13950332105E+04  0.13824122638E+04 0.  0.
        5    1    3    3  502    0 -0.60874666745E+03 -0.31375125111E+03 -0.68189776906E+00  0.68486123243E+03  0.46999998093E+01 0.  1.
       -5    1    3    3    0  502  0.60874666745E+03  0.31375125111E+03  0.18790900921E+03  0.71017197807E+03  0.46999998093E+01 0. -1.
</event>
<event>
 5   0  0.2215876E-04  0.1360461E+04  0.7818609E-02  0.8982947E-01
       -1   -1    0    0    0  501  0.00000000000E+00  0.00000000000E+00  0.39994864039E+03  0.39994864042E+03  0.50400001928E-02 0.  1.
        1   -1    0    0  501    0  0.00000000000E+00  0.00000000000E+00 -0.11569323013E+04  0.11569323014E+04  0.50400001928E-02 0. -1.
    10030    2    1    2    0    0  0.00000000000E+00  0.00000000000E+00 -0.75698366095E+03  0.15568809418E+04  0.13604609527E+04 0.  0.
        3    1    3    3  502    0 -0.59279772368E+03  0.18076820683E+03 -0.69938150284E+03  0.93446283100E+03  0.10100000352E+00 0. -1.
       -3    1    3    3    0  502  0.59279772368E+03 -0.18076820683E+03 -0.57602158111E+02  0.62241811078E+03  0.10100000352E+00 0.  1.
</event>
<event>
 5   0  0.1497625E-04  0.1393890E+04  0.7818609E-02  0.8958253E-01
        3   -1    0    0  501    0  0.00000000000E+00  0.00000000000E+00  0.27764437728E+03  0.27764439565E+03  0.10100000352E+00 0. -1.
       -3   -1    0    0    0  501  0.00000000000E+00  0.00000000000E+00 -0.17494770184E+04  0.17494770213E+04  0.10100000352E+00 0.  1.
    10030    2    1    2    0    0  0.00000000000E+00  0.00000000000E+00 -0.14718326411E+04  0.20271214169E+04  0.13938902093E+04 0.  0.
        2    1    3    3  502    0  0.52596974639E+03  0.45251746234E+03 -0.64037207324E+03  0.94418886883E+03  0.25500000920E-02 0. -1.
       -2    1    3    3    0  502 -0.52596974639E+03 -0.45251746234E+03 -0.83146056784E+03  0.10829325481E+04  0.25500000920E-02 0.  1.
</event>
<event>
 5   0  0.3932568E-04  0.1350284E+04  0.7818609E-02  0.8990613E-01
       -2   -1    0    0    0  501  0.00000000000E+00  0.00000000000E+00  0.26364181979E+03  0.26364181980E+03  0.25500000920E-02 0.  1.
        2   -1    0    0  501    0  0.00000000000E+00  0.00000000000E+00 -0.17289231224E+04  0.17289231224E+04  0.25500000920E-02 0. -1.
    10030    2    1    2    0    0  0.00000000000E+00  0.00000000000E+00 -0.14652813026E+04  0.19925649422E+04  0.13502835825E+04 0.  0.
        2    1    3    3  502    0  0.28152776061E+03 -0.37551753943E+03 -0.16456728164E+02  0.46961912900E+03  0.25500000920E-02 0.  1.
       -2    1    3    3    0  502 -0.28152776061E+03  0.37551753943E+03 -0.14488245744E+04  0.15229458132E+04  0.25500000920E-02 0. -1.
</event>
<event>
 5   0  0.2215876E-04  0.1397817E+04  0.7818609E-02  0.8955400E-01
        1   -1    0    0  501    0  0.00000000000E+00  0.00000000000E+00  0.58494258688E+03  0.58494258691E+03  0.50400001928E-02 0. -1.
       -1   -1    0    0    0  501  0.00000000000E+00  0.00000000000E+00 -0.83507921258E+03  0.83507921259E+03  0.50400001928E-02 0.  1.
    10030    2    1    2    0    0  0.00000000000E+00  0.00000000000E+00 -0.25013662569E+03  0.14200217995E+04  0.13978174343E+04 0.  0.
        3    1    3    3  502    0  0.58109531812E+03 -0.38555307416E+03 -0.17217781569E+03  0.71830923157E+03  0.10100000352E+00 0. -1.
       -3    1    3    3    0  502 -0.58109531812E+03  0.38555307416E+03 -0.77958810006E+02  0.70171256793E+03  0.10100000352E+00 0.  1.
</event>
<event>
 5   0  0.3917598E-04  0.1407513E+04  0.7818609E-02  0.8948398E-01
       -2   -1    0    0    0  501  0.00000000000E+00  0.00000000000E+00  0.44811655479E+03  0.44811655479E+03  0.25500000920E-02 0.  1.
        2   -1    0    0  501    0  0.00000000000E+00  0.00000000000E+00 -0.11052323486E+04  0.11052323486E+04  0.25500000920E-02 0. -1.
    10030    2    1    2    0    0  0.00000000000E+00  0.00000000000E+00 -0.65711579376E+03  0.15533489033E+04  0.14075125751E+04 0.  0.
        3    1    3    3  502    0 -0.56366616269E+02 -0.27379414223E+03 -0.10413349870E+04  0.10782017405E+04  0.10100000352E+00 0. -1.
       -3    1    3    3    0  502  0.56366616269E+02  0.27379414223E+03  0.38421919324E+03  0.47514716289E+03  0.10100000352E+00 0.  1.
</event>
<event>
 5   0  0.4208622E-04  0.1400104E+04  0.7818609E-02  0.8953744E-01
        2   -1    0    0  501    0  0.00000000000E+00  0.00000000000E+00  0.13255589310E+04  0.13255589310E+04  0.25500000920E-02 0.  1.
       -2   -1    0    0    0  501  0.00000000000E+00  0.00000000000E+00 -0.36971013518E+03  0.36971013519E+03  0.25500000920E-02 0. -1.
    10030    2    1    2    0    0  0.00000000000E+00  0.00000000000E+00  0.95584879581E+03  0.16952690662E+04  0.14001036698E+04 0.  0.
        4    1    3    3  502    0  0.62511592504E+03  0.28975730292E+03  0.62789834242E+03  0.93219480563E+03  0.12699999809E+01 0.  1.
       -4    1    3    3    0  502 -0.62511592504E+03 -0.28975730292E+03  0.32795045339E+03  0.76307426055E+03  0.12699999809E+01 0. -1.
</event>
<event>
 5   0  0.2217251E-04  0.1409190E+04  0.7818609E-02  0.8947193E-01
       -1   -1    0    0    0  501  0.00000000000E+00  0.00000000000E+00  0.58764134451E+03  0.58764134454E+03  0.50400001928E-02 0. -1.
        1   -1    0    0  501    0  0.00000000000E+00  0.00000000000E+00 -0.84482502990E+03  0.84482502991E+03  0.50400001928E-02 0.  1.
    10030    2    1    2    0    0  0.00000000000E+00  0.00000000000E+00 -0.25718368538E+03  0.14324663744E+04  0.14091900035E+04 0.  0.
        5    1    3    3  502    0  0.33994881831E+03  0.50523839255E+03  0.23166432172E+03  0.65155312932E+03  0.46999998093E+01 0. -1.
       -5    1    3    3    0  502 -0.33994881831E+03 -0.50523839255E+03 -0.48884800710E+03  0.78091324513E+03  0.46999998093E+01 0.  1.
</event>
<event>
 5   0  0.3917598E-04  0.1398420E+04  0.7818609E-02  0.8954963E-01
       -2   -1    0    0    0  501  0.00000000000E+00  0.00000000000E+00  0.25349693808E+03  0.25349693810E+03  0.25500000920E-02 0.  1.
        2   -1    0    0  501    0  0.00000000000E+00  0.00000000000E+00 -0.19286008418E+04  0.19286008418E+04  0.25500000920E-02 0. -1.
    10030    2    1    2    0    0  0.00000000000E+00  0.00000000000E+00 -0.16751039037E+04  0.21820977799E+04  0.13984196912E+04 0.  0.
        3    1    3    3  502    0 -0.56105737644E+03  0.18642740272E+03 -0.25505165646E+03  0.64388812212E+03  0.10100000352E+00 0.  1.
       -3    1    3    3    0  502  0.56105737644E+03 -0.18642740272E+03 -0.14200522472E+04  0.15382096577E+04  0.10100000352E+00 0. -1.
</event>
<event>
 5   0  0.3917598E-04  0.1484185E+04  0.7818609E-02  0.8895038E-01
       -2   -1    0    0    0  501  0.00000000000E+00  0.00000000000E+00  0.48788419766E+03  0.48788419767E+03  0.25500000920E-02 0. -1.
        2   -1    0    0  501    0  0.00000000000E+00  0.00000000000E+00 -0.11287538147E+04  0.11287538147E+04  0.25500000920E-02 0.  1.
    10030    2    1    2    0    0  0.00000000000E+00  0.00000000000E+00 -0.64086961708E+03  0.16166380124E+04  0.14841848258E+04 0.  0.
        3    1    3    3  502    0 -0.64928209074E+03  0.29244122066E+03 -0.54790683203E+03  0.89849374382E+03  0.10100000352E+00 0.  1.
       -3    1    3    3    0  502  0.64928209074E+03 -0.29244122066E+03 -0.92962785054E+02  0.71814426859E+03  0.10100000352E+00 0. -1.
</event>
<event>
 5   0  0.2155352E-04  0.1395626E+04  0.7818609E-02  0.8956991E-01
        1   -1    0    0  501    0  0.00000000000E+00  0.00000000000E+00  0.57077722625E+03  0.57077722627E+03  0.50400001928E-02 0. -1.
       -1   -1    0    0    0  501  0.00000000000E+00  0.00000000000E+00 -0.85312241437E+03  0.85312241438E+03  0.50400001928E-02 0.  1.
    10030    2    1    2    0    0  0.00000000000E+00  0.00000000000E+00 -0.28234518812E+03  0.14238996407E+04  0.13956258028E+04 0.  0.
        2    1    3    3  502    0 -0.31120637078E+03  0.60136659251E+03  0.30920802861E+02  0.67782540514E+03  0.25500000920E-02 0. -1.
       -2    1    3    3    0  502  0.31120637078E+03 -0.60136659251E+03 -0.31326599098E+03  0.74607423552E+03  0.25500000920E-02 0.  1.
</event>
<event>
 5   0  0.2217251E-04  0.1426758E+04  0.7818609E-02  0.8934674E-01
        1   -1    0    0  501    0  0.00000000000E+00  0.00000000000E+00  0.98275959007E+03  0.98275959008E+03  0.50400001928E-02 0. -1.
       -1   -1    0    0    0  501  0.00000000000E+00  0.00000000000E+00 -0.51783718268E+03  0.51783718270E+03  0.50400001928E-02 0.  1.
    10030    2    1    2    0    0  0.00000000000E+00  0.00000000000E+00  0.46492240739E+03  0.15005967728E+04  0.14267578034E+04 0.  0.
        5    1    3    3  502    0 -0.43630402182E+03  0.51448761192E+03  0.47647846950E+03  0.82590103776E+03  0.46999998093E+01 0.  1.
       -5    1    3    3    0  502  0.43630402182E+03 -0.51448761192E+03 -0.11556062118E+02  0.67469573502E+03  0.46999998093E+01 0. -1.
</event>
<event>
 5   0  0.2223112E-04  0.1397811E+04  0.7818609E-02  0.8955404E-01
        1   -1    0    0  501    0  0.00000000000E+00  0.00000000000E+00  0.67574913614E+03  0.67574913616E+03  0.50400001928E-02 0.  1.
       -1   -1    0    0    0  501  0.00000000000E+00  0.00000000000E+00 -0.72285554585E+03  0.72285554587E+03  0.50400001928E-02 0. -1.
    10030    2    1    2    0    0  0.00000000000E+00  0.00000000000E+00 -0.47106409715E+02  0.13986046820E+04  0.13978111613E+04 0.  0.
        1    1    3    3  502    0 -0.34040030381E+03  0.39200760324E+03 -0.49171484095E+03  0.71507049489E+03  0.50400001928E-02 0. -1.
       -1    1    3    3    0  502  0.34040030381E+03 -0.39200760324E+03  0.44460843123E+03  0.68353418714E+03  0.50400001928E-02 0.  1.
</event>
<event>
 5   0  0.3975164E-04  0.1432518E+04  0.7818609E-02  0.8930611E-01
        2   -1    0    0  501    0  0.00000000000E+00  0.00000000000E+00  0.47402275749E+03  0.47402275750E+03  0.25500000920E-02 0. -1.
       -2   -1    0    0    0  501  0.00000000000E+00  0.00000000000E+00 -0.10822838738E+04  0.10822838738E+04  0.25500000920E-02 0.  1.
    10030    2    1    2    0    0  0.00000000000E+00  0.00000000000E+00 -0.60826111630E+03  0.15563066313E+04  0.14325183227E+04 0.  0.
        5    1    3    3  502    0 -0.10221865977E+03  0.37003334828E+03  0.35279618278E+03  0.52140250270E+03  0.46999998093E+01 0. -1.
       -5    1    3    3    0  502  0.10221865977E+03 -0.37003334828E+03 -0.96105729908E+03  0.10349041286E+04  0.46999998093E+01 0.  1.
</event>
<event>
 5   0  0.3917598E-04  0.1398345E+04  0.7818609E-02  0.8955018E-01
       -2   -1    0    0    0  501  0.00000000000E+00  0.00000000000E+00  0.51422008780E+03  0.51422008781E+03  0.25500000920E-02 0. -1.
        2   -1    0    0  501    0  0.00000000000E+00  0.00000000000E+00 -0.95064722012E+03  0.95064722012E+03  0.25500000920E-02 0.  1.
    10030    2    1    2    0    0  0.00000000000E+00  0.00000000000E+00 -0.43642713231E+03  0.14648673079E+04  0.13983445884E+04 0.  0.
        3    1    3    3  502    0  0.62106021965E+03  0.24754647922E+03 -0.39169229054E+01  0.66858836984E+03  0.10100000352E+00 0. -1.
       -3    1    3    3    0  502 -0.62106021965E+03 -0.24754647922E+03 -0.43251020941E+03  0.79627893809E+03  0.10100000352E+00 0.  1.
</event>
<event>
 5   0  0.4208622E-04  0.1402439E+04  0.7818609E-02  0.8952055E-01
       -2   -1    0    0    0  501  0.00000000000E+00  0.00000000000E+00  0.61066295512E+03  0.61066295512E+03  0.25500000920E-02 0.  1.
        2   -1    0    0  501    0  0.00000000000E+00  0.00000000000E+00 -0.80520520677E+03  0.80520520678E+03  0.25500000920E-02 0. -1.
    10030    2    1    2    0    0  0.00000000000E+00  0.00000000000E+00 -0.19454225166E+03  0.14158681619E+04  0.14024392907E+04 0.  0.
        4    1    3    3  502    0 -0.31671751100E+03 -0.46272095409E+03  0.32781491347E+03  0.64952666883E+03  0.12699999809E+01 0.  1.
       -4    1    3    3    0  502  0.31671751100E+03  0.46272095409E+03 -0.52235716513E+03  0.76634149307E+03  0.12699999809E+01 0. -1.
</event>
<event>
 5   0  0.3917598E-04  0.1345706E+04  0.7818609E-02  0.8994085E-01
        2   -1    0    0  501    0  0.00000000000E+00  0.00000000000E+00  0.67554649628E+03  0.67554649629E+03  0.25500000920E-02 0. -1.
       -2   -1    0    0    0  501  0.00000000000E+00  0.00000000000E+00 -0.67016999320E+03  0.67016999321E+03  0.25500000920E-02 0.  1.
    10030    2    1    2    0    0  0.00000000000E+00  0.00000000000E+00  0.53765030767E+01  0.13457164895E+04  0.13457057492E+04 0.  0.
        3    1    3    3  502    0 -0.36576754343E+03 -0.47522437058E+03  0.30782489079E+03  0.67407734854E+03  0.10100000352E+00 0.  1.
       -3    1    3    3    0  502  0.36576754343E+03  0.47522437058E+03 -0.30244838772E+03  0.67163914095E+03  0.10100000352E+00 0. -1.
</event>
<event>
 5   0  0.2217251E-04  0.1402310E+04  0.7818609E-02  0.8952148E-01
       -1   -1    0    0    0  501  0.00000000000E+00  0.00000000000E+00  0.95562016993E+03  0.95562016995E+03  0.50400001928E-02 0.  1.
        1   -1    0    0  501    0  0.00000000000E+00  0.00000000000E+00 -0.51444975194E+03  0.51444975196E+03  0.50400001928E-02 0. -1.
    10030    2    1    2    0    0  0.00000000000E+00  0.00000000000E+00  0.44117041800E+03  0.14700699219E+04  0.14023103214E+04 0.  0.
        5    1    3    3  502    0  0.73459830346E+02  0.69444187441E+03  0.15469426804E+03  0.71526098046E+03  0.46999998093E+01 0. -1.
       -5    1    3    3    0  502 -0.73459830346E+02 -0.69444187441E+03  0.28647614996E+03  0.75480894145E+03  0.46999998093E+01 0.  1.
</event>
<event>
 5   0  0.2143942E-04  0.1404966E+04  0.7818609E-02  0.8950232E-01
       -1   -1    0    0    0  501  0.00000000000E+00  0.00000000000E+00  0.31288431913E+03  0.31288431917E+03  0.50400001928E-02 0. -1.
        1   -1    0    0  501    0  0.00000000000E+00  0.00000000000E+00 -0.15772033944E+04  0.15772033944E+04  0.50400001928E-02 0.  1.
    10030    2    1    2    0    0  0.00000000000E+00  0.00000000000E+00 -0.12643190753E+04  0.18900877136E+04  0.14049657793E+04 0.  0.
        4    1    3    3  502    0 -0.29272123995E+03 -0.65588744716E+02 -0.14867031053E+04  0.15166658643E+04  0.12699999809E+01 0.  1.
       -4    1    3    3    0  502  0.29272123995E+03  0.65588744716E+02  0.22238403007E+03  0.37342184923E+03  0.12699999809E+01 0. -1.
</event>
<event>
 5   0  0.2217251E-04  0.1402516E+04  0.7818609E-02  0.8951999E-01
       -1   -1    0    0    0  501  0.00000000000E+00  0.00000000000E+00  0.70691787937E+03  0.70691787939E+03  0.50400001928E-02 0.  1.
        1   -1    0    0  501    0  0.00000000000E+00  0.00000000000E+00 -0.69564353847E+03  0.69564353849E+03  0.50400001928E-02 0. -1.
    10030    2    1    2    0    0  0.00000000000E+00  0.00000000000E+00  0.11274340898E+02  0.14025614179E+04  0.14025161034E+04 0.  0.
        5    1    3    3  502    0  0.64057187394E+03 -0.24774189804E+03  0.14717757391E+03  0.70241846643E+03  0.46999998093E+01 0.  1.
       -5    1    3    3    0  502 -0.64057187394E+03  0.24774189804E+03 -0.13590323301E+03  0.70014295145E+03  0.46999998093E+01 0. -1.
</event>
<event>
 5   0  0.2143942E-04  0.1393658E+04  0.7818609E-02  0.8958422E-01
        1   -1    0    0  501    0  0.00000000000E+00  0.00000000000E+00  0.77293641075E+03  0.77293641077E+03  0.50400001928E-02 0.  1.
       -1   -1    0    0    0  501  0.00000000000E+00  0.00000000000E+00 -0.62821575088E+03  0.62821575090E+03  0.50400001928E-02 0. -1.
    10030    2    1    2    0    0  0.00000000000E+00  0.00000000000E+00  0.14472065987E+03  0.14011521617E+04  0.13936582475E+04 0.  0.
        4    1    3    3  502    0  0.12620933374E+03 -0.38136407838E+03  0.64480927853E+03  0.75970255678E+03  0.12699999809E+01 0.  1.
       -4    1    3    3    0  502 -0.12620933374E+03  0.38136407838E+03 -0.50008861866E+03  0.64144960489E+03  0.12699999809E+01 0. -1.
</event>
<event>
 5   0  0.3917598E-04  0.1398970E+04  0.7818609E-02  0.8954564E-01
        2   -1    0    0  501    0  0.00000000000E+00  0.00000000000E+00  0.16864390624E+04  0.16864390624E+04  0.25500000920E-02 0. -1.
       -2   -1    0    0    0  501  0.00000000000E+00  0.00000000000E+00 -0.29012579321E+03  0.29012579322E+03  0.25500000920E-02 0.  1.
    10030    2    1    2    0    0  0.00000000000E+00  0.00000000000E+00  0.13963132692E+04  0.19765648557E+04  0.13989702938E+04 0.  0.
        3    1    3    3  502    0 -0.39572509387E+03  0.21517319684E+03 -0.57936224786E+02  0.45415247539E+03  0.10100000352E+00 0.  1.
       -3    1    3    3    0  502  0.39572509387E+03 -0.21517319684E+03  0.14542494940E+04  0.15224123803E+04  0.10100000352E+00 0. -1.
</event>
<event>
 5   0  0.2215876E-04  0.1389841E+04  0.7818609E-02  0.8961205E-01
        1   -1    0    0  501    0  0.00000000000E+00  0.00000000000E+00  0.12319288551E+04  0.12319288551E+04  0.50400001928E-02 0.  1.
       -1   -1    0    0    0  501  0.00000000000E+00  0.00000000000E+00 -0.39199881073E+03  0.39199881076E+03  0.50400001928E-02 0. -1.
    10030    2    1    2    0    0  0.00000000000E+00  0.00000000000E+00  0.83993004438E+03  0.16239276659E+04  0.13898412084E+04 0.  0.
        3    1    3    3  502    0  0.44339587028E+03 -0.46410815468E+03  0.10880711983E+03  0.65102632554E+03  0.10100000352E+00 0.  1.
       -3    1    3    3    0  502 -0.44339587028E+03  0.46410815468E+03  0.73112292455E+03  0.97290134034E+03  0.10100000352E+00 0. -1.
</event>
<event>
 5   0  0.1497625E-04  0.1403402E+04  0.7818609E-02  0.8951359E-01
        4   -1    0    0  501    0  0.00000000000E+00  0.00000000000E+00  0.53111342436E+03  0.53111494278E+03  0.12699999809E+01 0. -1.
       -4   -1    0    0    0  501  0.00000000000E+00  0.00000000000E+00 -0.92707656750E+03  0.92707743739E+03  0.12699999809E+01 0.  1.
    10030    2    1    2    0    0  0.00000000000E+00  0.00000000000E+00 -0.39596314314E+03  0.14581923802E+04  0.14034023681E+04 0.  0.
        1    1    3    3  502    0 -0.25664204443E+03 -0.52189387722E+03 -0.60592413631E+03  0.83987047635E+03  0.50400001928E-02 0.  1.
       -1    1    3    3    0  502  0.25664204443E+03  0.52189387722E+03  0.20996099318E+03  0.61832190381E+03  0.50400001928E-02 0. -1.
</event>
<event>
 5   0  0.3917598E-04  0.1406715E+04  0.7818609E-02  0.8948972E-01
        2   -1    0    0  501    0  0.00000000000E+00  0.00000000000E+00  0.76261935835E+03  0.76261935836E+03  0.25500000920E-02 0. -1.
       -2   -1    0    0    0  501  0.00000000000E+00  0.00000000000E+00 -0.64870052317E+03  0.64870052318E+03  0.25500000920E-02 0.  1.
    10030    2    1    2    0    0  0.00000000000E+00  0.00000000000E+00  0.11391883518E+03  0.14113198815E+04  0.14067147213E+04 0.  0.
        3    1    3    3  502    0  0.18936650168E+03  0.55907337460E+03  0.44068879554E+03  0.73663378612E+03  0.10100000352E+00 0. -1.
       -3    1    3    3    0  502 -0.18936650168E+03 -0.55907337460E+03 -0.32676996036E+03  0.67468609541E+03  0.10100000352E+00 0.  1.
</event>
<event>
 5   0  0.2215876E-04  0.1402445E+04  0.7818609E-02  0.8952050E-01
       -1   -1    0    0    0  501  0.00000000000E+00  0.00000000000E+00  0.17898735477E+03  0.17898735484E+03  0.50400001928E-02 0. -1.
        1   -1    0    0  501    0  0.00000000000E+00  0.00000000000E+00 -0.27471959129E+04  0.27471959129E+04  0.50400001928E-02 0.  1.
    10030    2    1    2    0    0  0.00000000000E+00  0.00000000000E+00 -0.25682085581E+04  0.29261832677E+04  0.14024454779E+04 0.  0.
        3    1    3    3  502    0  0.15462535461E+03 -0.54436877389E+03 -0.21480883919E+04  0.22213802268E+04  0.10100000352E+00 0.  1.
       -3    1    3    3    0  502 -0.15462535461E+03  0.54436877389E+03 -0.42012016619E+03  0.70480304094E+03  0.10100000352E+00 0. -1.
</event>
<event>
 5   0  0.4208622E-04  0.1402866E+04  0.7818609E-02  0.8951747E-01
       -2   -1    0    0    0  501  0.00000000000E+00  0.00000000000E+00  0.87083659722E+03  0.87083659722E+03  0.25500000920E-02 0.  1.
        2   -1    0    0  501    0  0.00000000000E+00  0.00000000000E+00 -0.56498328338E+03  0.56498328339E+03  0.25500000920E-02 0. -1.
    10030    2    1    2    0    0  0.00000000000E+00  0.00000000000E+00  0.30585331383E+03  0.14358198806E+04  0.14028658097E+04 0.  0.
        4    1    3    3  502    0  0.58752951871E+02 -0.56381048919E+02  0.86598141148E+03  0.86980236259E+03  0.12699999809E+01 0.  1.
       -4    1    3    3    0  502 -0.58752951871E+02  0.56381048919E+02 -0.56012809765E+03  0.56601751802E+03  0.12699999809E+01 0. -1.
</event>
<event>
 5   0  0.1497625E-04  0.1436417E+04  0.7818609E-02  0.8927872E-01
        4   -1    0    0  501    0  0.00000000000E+00  0.00000000000E+00  0.93141209642E+03  0.93141296226E+03  0.12699999809E+01 0. -1.
       -4   -1    0    0    0  501  0.00000000000E+00  0.00000000000E+00 -0.55380615922E+03  0.55380761541E+03  0.12699999809E+01 0.  1.
    10030    2    1    2    0    0  0.00000000000E+00  0.00000000000E+00  0.37760593720E+03  0.14852205777E+04  0.14364170427E+04 0.  0.
        3    1    3    3  502    0  0.46473904938E+03  0.54757437750E+03  0.18690005515E+03  0.74212648769E+03  0.10100000352E+00 0. -1.
       -3    1    3    3    0  502 -0.46473904938E+03 -0.54757437750E+03  0.19070588206E+03  0.74309408998E+03  0.10100000352E+00 0.  1.
</event>
<event>
 5   0  0.2155352E-04  0.1401025E+04  0.7818609E-02  0.8953077E-01
        1   -1    0    0  501    0  0.00000000000E+00  0.00000000000E+00  0.38677596592E+03  0.38677596596E+03  0.50400001928E-02 0.  1.
       -1   -1    0    0    0  501  0.00000000000E+00  0.00000000000E+00 -0.12687385264E+04  0.12687385264E+04  0.50400001928E-02 0. -1.
    10030    2    1    2    0    0  0.00000000000E+00  0.00000000000E+00 -0.88196256046E+03  0.16555144923E+04  0.14010247237E+04 0.  0.
        2    1    3    3  502    0  0.70246287129E+02  0.17296318964E+03 -0.12388035457E+04  0.12527908966E+04  0.25500000920E-02 0. -1.
       -2    1    3    3    0  502 -0.70246287129E+02 -0.17296318964E+03  0.35684098522E+03  0.40272359574E+03  0.25500000920E-02 0.  1.
</event>
<event>
 5   0  0.2143942E-04  0.1399346E+04  0.7818609E-02  0.8954292E-01
        1   -1    0    0  501    0  0.00000000000E+00  0.00000000000E+00  0.84890356048E+03  0.84890356049E+03  0.50400001928E-02 0.  1.
       -1   -1    0    0    0  501  0.00000000000E+00  0.00000000000E+00 -0.57667564029E+03  0.57667564031E+03  0.50400001928E-02 0. -1.
    10030    2    1    2    0    0  0.00000000000E+00  0.00000000000E+00  0.27222792019E+03  0.14255792008E+04  0.13993455675E+04 0.  0.
        4    1    3    3  502    0  0.16111447734E+02 -0.32546258630E+03  0.76687795230E+03  0.83323998971E+03  0.12699999809E+01 0.  1.
       -4    1    3    3    0  502 -0.16111447734E+02  0.32546258630E+03 -0.49465003211E+03  0.59233921109E+03  0.12699999809E+01 0. -1.
</event>
<event>
 5   0  0.2215876E-04  0.1401634E+04  0.7818609E-02  0.8952637E-01
       -1   -1    0    0    0  501  0.00000000000E+00  0.00000000000E+00  0.19528507811E+03  0.19528507818E+03  0.50400001928E-02 0. -1.
        1   -1    0    0  501    0  0.00000000000E+00  0.00000000000E+00 -0.25150122451E+04  0.25150122451E+04  0.50400001928E-02 0.  1.
    10030    2    1    2    0    0  0.00000000000E+00  0.00000000000E+00 -0.23197271670E+04  0.27102973233E+04  0.14016338507E+04 0.  0.
        3    1    3    3  502    0  0.10576071821E+03  0.65053624103E+03 -0.69917255155E+03  0.96084598009E+03  0.10100000352E+00 0. -1.
       -3    1    3    3    0  502 -0.10576071821E+03 -0.65053624103E+03 -0.16205546154E+04  0.17494513432E+04  0.10100000352E+00 0.  1.
</event>
<event>
 5   0  0.2217251E-04  0.1454383E+04  0.7818609E-02  0.8915368E-01
       -1   -1    0    0    0  501  0.00000000000E+00  0.00000000000E+00  0.78512049204E+03  0.78512049205E+03  0.50400001928E-02 0.  1.
        1   -1    0    0  501    0  0.00000000000E+00  0.00000000000E+00 -0.67353640663E+03  0.67353640665E+03  0.50400001928E-02 0. -1.
    10030    2    1    2    0    0  0.00000000000E+00  0.00000000000E+00  0.11158408541E+03  0.14586568987E+04  0.14543826663E+04 0.  0.
        5    1    3    3  502    0 -0.20183348973E+02 -0.27667127701E+03  0.72995109107E+03  0.78090015267E+03  0.46999998093E+01 0.  1.
       -5    1    3    3    0  502  0.20183348973E+02  0.27667127701E+03 -0.61836700566E+03  0.67775674602E+03  0.46999998093E+01 0. -1.
</event>
<event>
 5   0  0.3917598E-04  0.1408213E+04  0.7818609E-02  0.8947895E-01
        2   -1    0    0  501    0  0.00000000000E+00  0.00000000000E+00  0.98908353198E+03  0.98908353199E+03  0.25500000920E-02 0.  1.
       -2   -1    0    0    0  501  0.00000000000E+00  0.00000000000E+00 -0.50123781595E+03  0.50123781596E+03  0.25500000920E-02 0. -1.
    10030    2    1    2    0    0  0.00000000000E+00  0.00000000000E+00  0.48784571603E+03  0.14903213479E+04  0.14082131506E+04 0.  0.
        3    1    3    3  502    0 -0.23945385388E+03  0.66153232716E+03  0.27391033057E+03  0.75497685223E+03  0.10100000352E+00 0.  1.
       -3    1    3    3    0  502  0.23945385388E+03 -0.66153232716E+03  0.21393538547E+03  0.73534449571E+03  0.10100000352E+00 0. -1.
</event>
<event>
 5   0  0.2223112E-04  0.1401670E+04  0.7818609E-02  0.8952610E-01
        1   -1    0    0  501    0  0.00000000000E+00  0.00000000000E+00  0.53889448444E+03  0.53889448446E+03  0.50400001928E-02 0.  1.
       -1   -1    0    0    0  501  0.00000000000E+00  0.00000000000E+00 -0.91143993747E+03  0.91143993749E+03  0.50400001928E-02 0. -1.
    10030    2    1    2    0    0  0.00000000000E+00  0.00000000000E+00 -0.37254545304E+03  0.14503344219E+04  0.14016703681E+04 0.  0.
        1    1    3    3  502    0 -0.42868665038E+03  0.16129422176E+03 -0.73514378277E+03  0.86615498125E+03  0.50400001928E-02 0. -1.
       -1    1    3    3    0  502  0.42868665038E+03 -0.16129422176E+03  0.36259832973E+03  0.58417944070E+03  0.50400001928E-02 0.  1.
</event>
<event>
 5   0  0.4310348E-04  0.1400698E+04  0.7818609E-02  0.8953313E-01
       -2   -1    0    0    0  501  0.00000000000E+00  0.00000000000E+00  0.29588122772E+03  0.29588122773E+03  0.25500000920E-02 0. -1.
        2   -1    0    0  501    0  0.00000000000E+00  0.00000000000E+00 -0.16577217678E+04  0.16577217678E+04  0.25500000920E-02 0.  1.
    10030    2    1    2    0    0  0.00000000000E+00  0.00000000000E+00 -0.13618405401E+04  0.19536029955E+04  0.14006980430E+04 0.  0.
        1    1    3    3  502    0 -0.90795611704E+02 -0.92789132668E+02  0.27895261526E+03  0.30768202390E+03  0.50400001928E-02 0. -1.
       -1    1    3    3    0  502  0.90795611704E+02  0.92789132668E+02 -0.16407931553E+04  0.16459209716E+04  0.50400001928E-02 0.  1.
</event>
<event>
 5   0  0.2215876E-04  0.1318732E+04  0.7818609E-02  0.9014841E-01
       -1   -1    0    0    0  501  0.00000000000E+00  0.00000000000E+00  0.63647451624E+03  0.63647451626E+03  0.50400001928E-02 0.  1.
        1   -1    0    0  501    0  0.00000000000E+00  0.00000000000E+00 -0.68308124605E+03  0.68308124606E+03  0.50400001928E-02 0. -1.
    10030    2    1    2    0    0  0.00000000000E+00  0.00000000000E+00 -0.46606729801E+02  0.13195557623E+04  0.13187324303E+04 0.  0.
        3    1    3    3  502    0  0.47058609094E+03 -0.23352203308E+03  0.37541748047E+03  0.64569505478E+03  0.10100000352E+00 0.  1.
       -3    1    3    3    0  502 -0.47058609094E+03  0.23352203308E+03 -0.42202421027E+03  0.67386070755E+03  0.10100000352E+00 0. -1.
</event>
<event>
 5   0  0.2155352E-04  0.1347072E+04  0.7818609E-02  0.8993047E-01
       -1   -1    0    0    0  501  0.00000000000E+00  0.00000000000E+00  0.10717374549E+04  0.10717374550E+04  0.50400001928E-02 0.  1.
        1   -1    0    0  501    0  0.00000000000E+00  0.00000000000E+00 -0.42328538700E+03  0.42328538703E+03  0.50400001928E-02 0. -1.
    10030    2    1    2    0    0  0.00000000000E+00  0.00000000000E+00  0.64845206795E+03  0.14950228420E+04  0.13470720893E+04 0.  0.
        2    1    3    3  502    0 -0.11689404744E+03 -0.28249824448E+02  0.10597257108E+04  0.10665274742E+04  0.25500000920E-02 0.  1.
       -2    1    3    3    0  502  0.11689404744E+03  0.28249824448E+02 -0.41127364290E+03  0.42849536784E+03  0.25500000920E-02 0. -1.
</event>
<event>
 5   0  0.2217251E-04  0.1397559E+04  0.7818609E-02  0.8955587E-01
       -1   -1    0    0    0  501  0.00000000000E+00  0.00000000000E+00  0.26817798745E+03  0.26817798750E+03  0.50400001928E-02 0. -1.
        1   -1    0    0  501    0  0.00000000000E+00  0.00000000000E+00 -0.18207783294E+04  0.18207783294E+04  0.50400001928E-02 0.  1.
    10030    2    1    2    0    0  0.00000000000E+00  0.00000000000E+00 -0.15526003420E+04  0.20889563169E+04  0.13975588260E+04 0.  0.
        5    1    3    3  502    0 -0.58138006300E+03 -0.37507540860E+03 -0.92264701812E+03  0.11532493008E+04  0.46999998093E+01 0. -1.
       -5    1    3    3    0  502  0.58138006300E+03  0.37507540860E+03 -0.62995332384E+03  0.93570701611E+03  0.46999998093E+01 0.  1.
</event>
<event>
 5   0  0.3975164E-04  0.1384624E+04  0.7818609E-02  0.8965024E-01
        2   -1    0    0  501    0  0.00000000000E+00  0.00000000000E+00  0.10443904881E+04  0.10443904881E+04  0.25500000920E-02 0.  1.
       -2   -1    0    0    0  501  0.00000000000E+00  0.00000000000E+00 -0.45892414519E+03  0.45892414520E+03  0.25500000920E-02 0. -1.
    10030    2    1    2    0    0  0.00000000000E+00  0.00000000000E+00  0.58546634289E+03  0.15033146333E+04  0.13846241541E+04 0.  0.
        5    1    3    3  502    0 -0.25997523312E+03 -0.23998197941E+03 -0.35333471504E+03  0.50004598101E+03  0.46999998093E+01 0. -1.
       -5    1    3    3    0  502  0.25997523312E+03  0.23998197941E+03  0.93880105793E+03  0.10032686523E+04  0.46999998093E+01 0.  1.
</event>
<event>
 5   0  0.3975164E-04  0.1402924E+04  0.7818609E-02  0.8951704E-01
       -2   -1    0    0    0  501  0.00000000000E+00  0.00000000000E+00  0.53810152621E+03  0.53810152622E+03  0.25500000920E-02 0. -1.
        2   -1    0    0  501    0  0.00000000000E+00  0.00000000000E+00 -0.91441706217E+03  0.91441706217E+03  0.25500000920E-02 0.  1.
    10030    2    1    2    0    0  0.00000000000E+00  0.00000000000E+00 -0.37631553595E+03  0.14525185884E+04  0.14029243982E+04 0.  0.
        5    1    3    3  502    0  0.64743629286E+03 -0.24116099150E+03 -0.31366493490E+03  0.75877543352E+03  0.46999998093E+01 0.  1.
       -5    1    3    3    0  502 -0.64743629286E+03  0.24116099150E+03 -0.62650601055E+02  0.69374315488E+03  0.46999998093E+01 0. -1.
</event>
<event>
 5   0  0.3975164E-04  0.1401526E+04  0.7818609E-02  0.8952714E-01
        2   -1    0    0  501    0  0.00000000000E+00  0.00000000000E+00  0.23291833037E+04  0.23291833037E+04  0.25500000920E-02 0. -1.
       -2   -1    0    0    0  501  0.00000000000E+00  0.00000000000E+00 -0.21083311807E+03  0.21083311809E+03  0.25500000920E-02 0.  1.
    10030    2    1    2    0    0  0.00000000000E+00  0.00000000000E+00  0.21183501857E+04  0.25400164218E+04  0.14015262802E+04 0.  0.
        5    1    3    3  502    0  0.19345185051E+03  0.63249895405E+03  0.63971621963E+03  0.92018339313E+03  0.46999998093E+01 0. -1.
       -5    1    3    3    0  502 -0.19345185051E+03 -0.63249895405E+03  0.14786339660E+04  0.16198330287E+04  0.46999998093E+01 0.  1.
</event>
<event>
 5   0  0.2143942E-04  0.1393875E+04  0.7818609E-02  0.8958264E-01
        1   -1    0    0  501    0  0.00000000000E+00  0.00000000000E+00  0.83209706851E+03  0.83209706852E+03  0.50400001928E-02 0.  1.
       -1   -1    0    0    0  501  0.00000000000E+00  0.00000000000E+00 -0.58373213173E+03  0.58373213175E+03  0.50400001928E-02 0. -1.
    10030    2    1    2    0    0  0.00000000000E+00  0.00000000000E+00  0.24836493678E+03  0.14158292003E+04  0.13938748805E+04 0.  0.
        4    1    3    3  502    0  0.61414633877E+03  0.24555305929E+03 -0.98931837091E+02  0.66877586054E+03  0.12699999809E+01 0.  1.
       -4    1    3    3    0  502 -0.61414633877E+03 -0.24555305929E+03  0.34729677387E+03  0.74705333973E+03  0.12699999809E+01 0. -1.
</event>
<event>
 5   0  0.3932568E-04  0.1391854E+04  0.7818609E-02  0.8959737E-01
       -2   -1    0    0    0  501  0.00000000000E+00  0.00000000000E+00  0.42949696196E+03  0.42949696196E+03  0.25500000920E-02 0.  1.
        2   -1    0    0  501    0  0.00000000000E+00  0.00000000000E+00 -0.11276310400E+04  0.11276310400E+04  0.25500000920E-02 0. -1.
    10030    2    1    2    0    0  0.00000000000E+00  0.00000000000E+00 -0.69813407801E+03  0.15571280019E+04  0.13918535927E+04 0.  0.
        2    1    3    3  502    0 -0.90834834286E+02 -0.14380379123E+03  0.40588516433E+03  0.44008324681E+03  0.25500000920E-02 0.  1.
       -2    1    3    3    0  502  0.90834834286E+02  0.14380379123E+03 -0.11040192423E+04  0.11170447551E+04  0.25500000920E-02 0. -1.
</event>
<event>
 5   0  0.3917598E-04  0.1401428E+04  0.7818609E-02  0.8952785E-01
        2   -1    0    0  501    0  0.00000000000E+00  0.00000000000E+00  0.44982092256E+03  0.44982092257E+03  0.25500000920E-02 0.  1.
       -2   -1    0    0    0  501  0.00000000000E+00  0.00000000000E+00 -0.10915464516E+04  0.10915464516E+04  0.25500000920E-02 0. -1.
    10030    2    1    2    0    0  0.00000000000E+00  0.00000000000E+00 -0.64172552906E+03  0.15413673742E+04  0.14014284597E+04 0.  0.
        3    1    3    3  502    0  0.31400749228E+03  0.60450857202E+03 -0.50148386297E+03  0.84588261235E+03  0.10100000352E+00 0. -1.
       -3    1    3    3    0  502 -0.31400749228E+03 -0.60450857202E+03 -0.14024166609E+03  0.69548476185E+03  0.10100000352E+00 0.  1.
</event>
<event>
 5   0  0.2215876E-04  0.1403473E+04  0.7818609E-02  0.8951308E-01
       -1   -1    0    0    0  501  0.00000000000E+00  0.00000000000E+00  0.95423380518E+03  0.95423380519E+03  0.50400001928E-02 0.  1.
        1   -1    0    0  501    0  0.00000000000E+00  0.00000000000E+00 -0.51605196121E+03  0.51605196124E+03  0.50400001928E-02 0. -1.
    10030    2    1    2    0    0  0.00000000000E+00  0.00000000000E+00  0.43818184397E+03  0.14702857664E+04  0.14034731585E+04 0.  0.
        3    1    3    3  502    0 -0.24217508627E+03 -0.63886393809E+03  0.51348711656E+02  0.68515151915E+03  0.10100000352E+00 0. -1.
       -3    1    3    3    0  502  0.24217508627E+03  0.63886393809E+03  0.38683313231E+03  0.78513424728E+03  0.10100000352E+00 0.  1.
</event>
<event>
 5   0  0.3917598E-04  0.1399344E+04  0.7818609E-02  0.8954294E-01
       -2   -1    0    0    0  501  0.00000000000E+00  0.00000000000E+00  0.22608217339E+03  0.22608217340E+03  0.25500000920E-02 0. -1.
        2   -1    0    0  501    0  0.00000000000E+00  0.00000000000E+00 -0.21653226087E+04  0.21653226087E+04  0.25500000920E-02 0.  1.
    10030    2    1    2    0    0  0.00000000000E+00  0.00000000000E+00 -0.19392404353E+04  0.23914047821E+04  0.13993439055E+04 0.  0.
        3    1    3    3  502    0  0.16947573032E+03  0.30182066686E+03 -0.20087431314E+04  0.20383490172E+04  0.10100000352E+00 0.  1.
       -3    1    3    3    0  502 -0.16947573032E+03 -0.30182066686E+03  0.69502696082E+02  0.35305576483E+03  0.10100000352E+00 0. -1.
</event>
<event>
 5   0  0.2143942E-04  0.1407088E+04  0.7818609E-02  0.8948704E-01
        1   -1    0    0  501    0  0.00000000000E+00  0.00000000000E+00  0.10185299145E+04  0.10185299145E+04  0.50400001928E-02 0.  1.
       -1   -1    0    0    0  501  0.00000000000E+00  0.00000000000E+00 -0.48596892735E+03  0.48596892738E+03  0.50400001928E-02 0. -1.
    10030    2    1    2    0    0  0.00000000000E+00  0.00000000000E+00  0.53256098717E+03  0.15044988419E+04  0.14070876164E+04 0.  0.
        4    1    3    3  502    0  0.37671194577E+03  0.17925367266E+03 -0.33944362322E+03  0.53783580719E+03  0.12699999809E+01 0. -1.
       -4    1    3    3    0  502 -0.37671194577E+03 -0.17925367266E+03  0.87200461039E+03  0.96666303472E+03  0.12699999809E+01 0.  1.
</event>
<event>
 5   0  0.3975164E-04  0.1395414E+04  0.7818609E-02  0.8957144E-01
        2   -1    0    0  501    0  0.00000000000E+00  0.00000000000E+00  0.13278094771E+04  0.13278094771E+04  0.25500000920E-02 0. -1.
       -2   -1    0    0    0  501  0.00000000000E+00  0.00000000000E+00 -0.36661539373E+03  0.36661539374E+03  0.25500000920E-02 0.  1.
    10030    2    1    2    0    0  0.00000000000E+00  0.00000000000E+00  0.96119408341E+03  0.16944248709E+04  0.13954144822E+04 0.  0.
        5    1    3    3  502    0  0.50442441863E+03  0.36978004113E+03  0.10516620899E+03  0.63424229947E+03  0.46999998093E+01 0.  1.
       -5    1    3    3    0  502 -0.50442441863E+03 -0.36978004113E+03  0.85602787443E+03  0.10601825714E+04  0.46999998093E+01 0. -1.
</event>
<event>
 5   0  0.2215876E-04  0.1392727E+04  0.7818609E-02  0.8959100E-01
        1   -1    0    0  501    0  0.00000000000E+00  0.00000000000E+00  0.73188058653E+03  0.73188058654E+03  0.50400001928E-02 0. -1.
       -1   -1    0    0    0  501  0.00000000000E+00  0.00000000000E+00 -0.66257039422E+03  0.66257039424E+03  0.50400001928E-02 0.  1.
    10030    2    1    2    0    0  0.00000000000E+00  0.00000000000E+00  0.69310192306E+02  0.13944509808E+04  0.13927274087E+04 0.  0.
        3    1    3    3  502    0 -0.40937091806E+03  0.47984863075E+03 -0.26080863209E+03  0.68253967633E+03  0.10100000352E+00 0.  1.
       -3    1    3    3    0  502  0.40937091806E+03 -0.47984863075E+03  0.33011882440E+03  0.71191130445E+03  0.10100000352E+00 0. -1.
</event>
<event>
 5   0  0.3932568E-04  0.1399637E+04  0.7818609E-02  0.8954081E-01
        2   -1    0    0  501    0  0.00000000000E+00  0.00000000000E+00  0.15401112996E+04  0.15401112996E+04  0.25500000920E-02 0.  1.
       -2   -1    0    0    0  501  0.00000000000E+00  0.00000000000E+00 -0.31799407488E+03  0.31799407489E+03  0.25500000920E-02 0. -1.
    10030    2    1    2    0    0  0.00000000000E+00  0.00000000000E+00  0.12221172247E+04  0.18581053745E+04  0.13996374787E+04 0.  0.
        2    1    3    3  502    0 -0.54078409597E+03  0.38114219816E+03  0.30824219880E+03  0.72988359811E+03  0.25500000920E-02 0. -1.
       -2    1    3    3    0  502  0.54078409597E+03 -0.38114219816E+03  0.91387502589E+03  0.11282217763E+04  0.25500000920E-02 0.  1.
</event>
<event>
 5   0  0.2217251E-04  0.1390174E+04  0.7818609E-02  0.8960962E-01
       -1   -1    0    0    0  501  0.00000000000E+00  0.00000000000E+00  0.42538613667E+03  0.42538613670E+03  0.50400001928E-02 0. -1.
        1   -1    0    0  501    0  0.00000000000E+00  0.00000000000E+00 -0.11357825636E+04  0.11357825636E+04  0.50400001928E-02 0.  1.
    10030    2    1    2    0    0  0.00000000000E+00  0.00000000000E+00 -0.71039642689E+03  0.15611687003E+04  0.13901743155E+04 0.  0.
        5    1    3    3  502    0 -0.16335648829E+00 -0.10343806845E+03 -0.11270729560E+04  0.11318193313E+04  0.46999998093E+01 0.  1.
       -5    1    3    3    0  502  0.16335648829E+00  0.10343806845E+03  0.41667652910E+03  0.42934936892E+03  0.46999998093E+01 0. -1.
</event>
<event>
 5   0  0.2155352E-04  0.1402078E+04  0.7818609E-02  0.8952316E-01
        1   -1    0    0  501    0  0.00000000000E+00  0.00000000000E+00  0.13970585010E+04  0.13970585010E+04  0.50400001928E-02 0.  1.
       -1   -1    0    0    0  501  0.00000000000E+00  0.00000000000E+00 -0.35177891984E+03  0.35177891987E+03  0.50400001928E-02 0. -1.
    10030    2    1    2    0    0  0.00000000000E+00  0.00000000000E+00  0.10452795812E+04  0.17488374209E+04  0.14020780727E+04 0.  0.
        2    1    3    3  502    0 -0.52533537012E+03 -0.44059326170E+03  0.70491926892E+03  0.98336709781E+03  0.25500000920E-02 0.  1.
       -2    1    3    3    0  502  0.52533537012E+03  0.44059326170E+03  0.34036031224E+03  0.76547032307E+03  0.25500000920E-02 0. -1.
</event>
<event>
 5   0  0.2217251E-04  0.1400404E+04  0.7818609E-02  0.8953526E-01
       -1   -1    0    0    0  501  0.00000000000E+00  0.00000000000E+00  0.71355138374E+03  0.71355138376E+03  0.50400001928E-02 0. -1.
        1   -1    0    0  501    0  0.00000000000E+00  0.00000000000E+00 -0.68710246849E+03  0.68710246851E+03  0.50400001928E-02 0.  1.
    10030    2    1    2    0    0  0.00000000000E+00  0.00000000000E+00  0.26448915253E+02  0.14006538523E+04  0.14004041091E+04 0.  0.
        5    1    3    3  502    0  0.62925061091E+03  0.14343348280E+03 -0.25835910629E+03  0.69519854223E+03  0.46999998093E+01 0.  1.
       -5    1    3    3    0  502 -0.62925061091E+03 -0.14343348280E+03  0.28480802154E+03  0.70545531003E+03  0.46999998093E+01 0. -1.
</event>
<event>
 5   0  0.3975164E-04  0.1398213E+04  0.7818609E-02  0.8955113E-01
        2   -1    0    0  501    0  0.00000000000E+00  0.00000000000E+00  0.44051610608E+03  0.44051610608E+03  0.25500000920E-02 0. -1.
       -2   -1    0    0    0  501  0.00000000000E+00  0.00000000000E+00 -0.11094943001E+04  0.11094943001E+04  0.25500000920E-02 0.  1.
    10030    2    1    2    0    0  0.00000000000E+00  0.00000000000E+00 -0.66897819406E+03  0.15500104062E+04  0.13982133011E+04 0.  0.
        5    1    3    3  502    0  0.57921301346E+03  0.29897183479E+03 -0.61462097702E+03  0.89590898442E+03  0.46999998093E+01 0.  1.
       -5    1    3    3    0  502 -0.57921301346E+03 -0.29897183479E+03 -0.54357217032E+02  0.65410142180E+03  0.46999998093E+01 0. -1.
</event>
<event>
 5   0  0.2217251E-04  0.1405440E+04  0.7818609E-02  0.8949890E-01
       -1   -1    0    0    0  501  0.00000000000E+00  0.00000000000E+00  0.81615127686E+03  0.81615127687E+03  0.50400001928E-02 0.  1.
        1   -1    0    0  501    0  0.00000000000E+00  0.00000000000E+00 -0.60505359112E+03  0.60505359115E+03  0.50400001928E-02 0. -1.
    10030    2    1    2    0    0  0.00000000000E+00  0.00000000000E+00  0.21109768573E+03  0.14212048680E+04  0.14054398045E+04 0.  0.
        5    1    3    3  502    0 -0.19611071046E+03 -0.59466197558E+03 -0.21695001066E+03  0.66270028903E+03  0.46999998093E+01 0. -1.
       -5    1    3    3    0  502  0.19611071046E+03  0.59466197558E+03  0.42804769640E+03  0.75850457899E+03  0.46999998093E+01 0.  1.
</event>
<event>
 5   0  0.4310348E-04  0.1391160E+04  0.7818609E-02  0.8960242E-01
        2   -1    0    0  501    0  0.00000000000E+00  0.00000000000E+00  0.16331887770E+04  0.16331887770E+04  0.25500000920E-02 0. -1.
       -2   -1    0    0    0  501  0.00000000000E+00  0.00000000000E+00 -0.29624970268E+03  0.29624970269E+03  0.25500000920E-02 0.  1.
    10030    2    1    2    0    0  0.00000000000E+00  0.00000000000E+00  0.13369390744E+04  0.19294384797E+04  0.13911602203E+04 0.  0.
        1    1    3    3  502    0 -0.43483489593E+03 -0.74387267062E+02  0.14143437136E+04  0.14815474992E+04  0.50400001928E-02 0. -1.
       -1    1    3    3    0  502  0.43483489593E+03  0.74387267062E+02 -0.77404639239E+02  0.44789098051E+03  0.50400001928E-02 0.  1.
</event>
<event>
 5   0  0.3975164E-04  0.1399092E+04  0.7818609E-02  0.8954476E-01
       -2   -1    0    0    0  501  0.00000000000E+00  0.00000000000E+00  0.26130151956E+03  0.26130151957E+03  0.25500000920E-02 0. -1.
        2   -1    0    0  501    0  0.00000000000E+00  0.00000000000E+00 -0.18727975106E+04  0.18727975106E+04  0.25500000920E-02 0.  1.
    10030    2    1    2    0    0  0.00000000000E+00  0.00000000000E+00 -0.16114959911E+04  0.21340990302E+04  0.13990923277E+04 0.  0.
        5    1    3    3  502    0  0.66791790329E+03  0.10025329030E+02 -0.48897553879E+03  0.82784902023E+03  0.46999998093E+01 0. -1.
       -5    1    3    3    0  502 -0.66791790329E+03 -0.10025329030E+02 -0.11225204523E+04  0.13062500100E+04  0.46999998093E+01 0.  1.
</event>
<event>
 5   0  0.3975164E-04  0.1404131E+04  0.7818609E-02  0.8950834E-01
        2   -1    0    0  501    0  0.00000000000E+00  0.00000000000E+00  0.17633286929E+04  0.17633286929E+04  0.25500000920E-02 0.  1.
       -2   -1    0    0    0  501  0.00000000000E+00  0.00000000000E+00 -0.27952589904E+03  0.27952589906E+03  0.25500000920E-02 0. -1.
    10030    2    1    2    0    0  0.00000000000E+00  0.00000000000E+00  0.14838027939E+04  0.20428545920E+04  0.14041311024E+04 0.  0.
        5    1    3    3  502    0  0.80071050002E+02 -0.56273666473E+03  0.14240596632E+03  0.58599102051E+03  0.46999998093E+01 0. -1.
       -5    1    3    3    0  502 -0.80071050002E+02  0.56273666473E+03  0.13413968276E+04  0.14568635715E+04  0.46999998093E+01 0.  1.
</event>
<event>
 5   0  0.2217251E-04  0.1406866E+04  0.7818609E-02  0.8948864E-01
        1   -1    0    0  501    0  0.00000000000E+00  0.00000000000E+00  0.74917299185E+03  0.74917299187E+03  0.50400001928E-02 0.  1.
       -1   -1    0    0    0  501  0.00000000000E+00  0.00000000000E+00 -0.66048550373E+03  0.66048550375E+03  0.50400001928E-02 0. -1.
    10030    2    1    2    0    0  0.00000000000E+00  0.00000000000E+00  0.88687488119E+02  0.14096584956E+04  0.14068658798E+04 0.  0.
        5    1    3    3  502    0 -0.64514170970E+03 -0.43629701931E+02 -0.23312548378E+03  0.68737250284E+03  0.46999998093E+01 0. -1.
       -5    1    3    3    0  502  0.64514170970E+03  0.43629701931E+02  0.32181297190E+03  0.72228599278E+03  0.46999998093E+01 0.  1.
</event>
<event>
 5   0  0.2217251E-04  0.1407051E+04  0.7818609E-02  0.8948730E-01
        1   -1    0    0  501    0  0.00000000000E+00  0.00000000000E+00  0.12603057160E+04  0.12603057161E+04  0.50400001928E-02 0.  1.
       -1   -1    0    0    0  501  0.00000000000E+00  0.00000000000E+00 -0.39272094320E+03  0.39272094323E+03  0.50400001928E-02 0. -1.
    10030    2    1    2    0    0  0.00000000000E+00  0.00000000000E+00  0.86758477285E+03  0.16530266593E+04  0.14070514554E+04 0.  0.
        5    1    3    3  502    0  0.63441290455E+03 -0.21989170689E+03  0.68048771385E+03  0.95599043662E+03  0.46999998093E+01 0.  1.
       -5    1    3    3    0  502 -0.63441290455E+03  0.21989170689E+03  0.18709705900E+03  0.69703622266E+03  0.46999998093E+01 0. -1.
</event>
<event>
 5   0  0.3975164E-04  0.1399218E+04  0.7818609E-02  0.8954385E-01
       -2   -1    0    0    0  501  0.00000000000E+00  0.00000000000E+00  0.29833793645E+03  0.29833793646E+03  0.25500000920E-02 0. -1.
        2   -1    0    0  501    0  0.00000000000E+00  0.00000000000E+00 -0.16405991400E+04  0.16405991400E+04  0.25500000920E-02 0.  1.
    10030    2    1    2    0    0  0.00000000000E+00  0.00000000000E+00 -0.13422612035E+04  0.19389370764E+04  0.13992182989E+04 0.  0.
        5    1    3    3  502    0  0.34671777087E+03  0.11930923647E+03  0.15449280270E+03  0.39791710522E+03  0.46999998093E+01 0. -1.
       -5    1    3    3    0  502 -0.34671777087E+03 -0.11930923647E+03 -0.14967540062E+04  0.15410199712E+04  0.46999998093E+01 0.  1.
</event>
<event>
 5   0  0.2143942E-04  0.1383645E+04  0.7818609E-02  0.8965743E-01
        1   -1    0    0  501    0  0.00000000000E+00  0.00000000000E+00  0.12974120274E+04  0.12974120274E+04  0.50400001928E-02 0. -1.
       -1   -1    0    0    0  501  0.00000000000E+00  0.00000000000E+00 -0.36890230013E+03  0.36890230017E+03  0.50400001928E-02 0.  1.
    10030    2    1    2    0    0  0.00000000000E+00  0.00000000000E+00  0.92850972730E+03  0.16663143276E+04  0.13836448694E+04 0.  0.
        4    1    3    3  502    0  0.50834142502E+03 -0.22956006747E+03  0.95714469658E+03  0.11078070283E+04  0.12699999809E+01 0. -1.
       -4    1    3    3    0  502 -0.50834142502E+03  0.22956006747E+03 -0.28634969282E+02  0.55850729926E+03  0.12699999809E+01 0.  1.
</event>
<event>
 5   0  0.4310348E-04  0.1404271E+04  0.7818609E-02  0.8950733E-01
        2   -1    0    0  501    0  0.00000000000E+00  0.00000000000E+00  0.76907975141E+03  0.76907975142E+03  0.25500000920E-02 0.  1.
       -2   -1    0    0    0  501  0.00000000000E+00  0.00000000000E+00 -0.64101806019E+03  0.64101806019E+03  0.25500000920E-02 0. -1.
    10030    2    1    2    0    0  0.00000000000E+00  0.00000000000E+00  0.12806169123E+03  0.14100978116E+04  0.14042706440E+04 0.  0.
        1    1    3    3  502    0  0.21639206355E+03 -0.34067038528E+03 -0.51290721685E+03  0.65265277881E+03  0.50400001928E-02 0. -1.
       -1    1    3    3    0  502 -0.21639206355E+03  0.34067038528E+03  0.64096890807E+03  0.75744503280E+03  0.50400001928E-02 0.  1.
</event>
<event>
 5   0  0.2217251E-04  0.1401005E+04  0.7818609E-02  0.8953092E-01
        1   -1    0    0  501    0  0.00000000000E+00  0.00000000000E+00  0.16941448075E+04  0.16941448075E+04  0.50400001928E-02 0. -1.
       -1   -1    0    0    0  501  0.00000000000E+00  0.00000000000E+00 -0.28964680762E+03  0.28964680767E+03  0.50400001928E-02 0.  1.
    10030    2    1    2    0    0  0.00000000000E+00  0.00000000000E+00  0.14044979999E+04  0.19837916152E+04  0.14010048326E+04 0.  0.
        5    1    3    3  502    0  0.42016834892E+03  0.38454596763E+03  0.12487637915E+03  0.58312369419E+03  0.46999998093E+01 0.  1.
       -5    1    3    3    0  502 -0.42016834892E+03 -0.38454596763E+03  0.12796216208E+04  0.14006679210E+04  0.46999998093E+01 0. -1.
</event>
<event>
 5   0  0.2223112E-04  0.1403137E+04  0.7818609E-02  0.8951551E-01
        1   -1    0    0  501    0  0.00000000000E+00  0.00000000000E+00  0.92748629470E+03  0.92748629471E+03  0.50400001928E-02 0.  1.
       -1   -1    0    0    0  501  0.00000000000E+00  0.00000000000E+00 -0.53068006082E+03  0.53068006085E+03  0.50400001928E-02 0. -1.
    10030    2    1    2    0    0  0.00000000000E+00  0.00000000000E+00  0.39680623387E+03  0.14581663556E+04  0.14031371755E+04 0.  0.
        1    1    3    3  502    0  0.21579010450E+03 -0.48713848631E+03  0.67273468049E+03  0.85816153748E+03  0.50400001928E-02 0.  1.
       -1    1    3    3    0  502 -0.21579010450E+03  0.48713848631E+03 -0.27592844662E+03  0.60000481808E+03  0.50400001928E-02 0. -1.
</event>
<event>
 5   0  0.2223112E-04  0.1409565E+04  0.7818609E-02  0.8946924E-01
        1   -1    0    0  501    0  0.00000000000E+00  0.00000000000E+00  0.65243520780E+03  0.65243520782E+03  0.50400001928E-02 0. -1.
       -1   -1    0    0    0  501  0.00000000000E+00  0.00000000000E+00 -0.76132962931E+03  0.76132962933E+03  0.50400001928E-02 0.  1.
    10030    2    1    2    0    0  0.00000000000E+00  0.00000000000E+00 -0.10889442151E+03  0.14137648371E+04  0.14095648335E+04 0.  0.
        1    1    3    3  502    0 -0.53631969377E+03 -0.64627349463E+01  0.40412148237E+03  0.67156142936E+03  0.50400001928E-02 0. -1.
       -1    1    3    3    0  502  0.53631969377E+03  0.64627349463E+01 -0.51301590388E+03  0.74220340779E+03  0.50400001928E-02 0.  1.
</event>
<event>
 5   0  0.2143942E-04  0.1400262E+04  0.7818609E-02  0.8953629E-01
        1   -1    0    0  501    0  0.00000000000E+00  0.00000000000E+00  0.11807063846E+04  0.11807063846E+04  0.50400001928E-02 0. -1.
       -1   -1    0    0    0  501  0.00000000000E+00  0.00000000000E+00 -0.41516140867E+03  0.41516140870E+03  0.50400001928E-02 0.  1.
    10030    2    1    2    0    0  0.00000000000E+00  0.00000000000E+00  0.76554497595E+03  0.15958677933E+04  0.14002624410E+04 0.  0.
        4    1    3    3  502    0  0.62187678022E+03 -0.32105929233E+01  0.74932312916E+03  0.97376989196E+03  0.12699999809E+01 0.  1.
       -4    1    3    3    0  502 -0.62187678022E+03  0.32105929233E+01  0.16221846791E+02  0.62209790138E+03  0.12699999809E+01 0. -1.
</event>
<event>
 5   0  0.4208622E-04  0.1402526E+04  0.7818609E-02  0.8951992E-01
        2   -1    0    0  501    0  0.00000000000E+00  0.00000000000E+00  0.76181945913E+03  0.76181945913E+03  0.25500000920E-02 0. -1.
       -2   -1    0    0    0  501  0.00000000000E+00  0.00000000000E+00 -0.64552037286E+03  0.64552037286E+03  0.25500000920E-02 0.  1.
    10030    2    1    2    0    0  0.00000000000E+00  0.00000000000E+00  0.11629908627E+03  0.14073398320E+04  0.14025262654E+04 0.  0.
        4    1    3    3  502    0 -0.17313338837E+03 -0.67677181716E+03 -0.34868851671E+01  0.69857643386E+03  0.12699999809E+01 0. -1.
       -4    1    3    3    0  502  0.17313338837E+03  0.67677181716E+03  0.11978597144E+03  0.70876339813E+03  0.12699999809E+01 0.  1.
</event>
<event>
 5   0  0.3917598E-04  0.1313801E+04  0.7818609E-02  0.9018692E-01
        2   -1    0    0  501    0  0.00000000000E+00  0.00000000000E+00  0.15778769190E+04  0.15778769190E+04  0.25500000920E-02 0.  1.
       -2   -1    0    0    0  501  0.00000000000E+00  0.00000000000E+00 -0.27348032059E+03  0.27348032060E+03  0.25500000920E-02 0. -1.
    10030    2    1    2    0    0  0.00000000000E+00  0.00000000000E+00  0.13043965984E+04  0.18513572396E+04  0.13138010286E+04 0.  0.
        3    1    3    3  502    0  0.46627026748E+03  0.26051662543E+03  0.11331366452E+03  0.54600079783E+03  0.10100000352E+00 0. -1.
       -3    1    3    3    0  502 -0.46627026748E+03 -0.26051662543E+03  0.11910829339E+04  0.13053564418E+04  0.10100000352E+00 0.  1.
</event>
<event>
 5   0  0.2143942E-04  0.1407481E+04  0.7818609E-02  0.8948421E-01
        1   -1    0    0  501    0  0.00000000000E+00  0.00000000000E+00  0.94629571357E+03  0.94629571358E+03  0.50400001928E-02 0. -1.
       -1   -1    0    0    0  501  0.00000000000E+00  0.00000000000E+00 -0.52335731119E+03  0.52335731121E+03  0.50400001928E-02 0.  1.
    10030    2    1    2    0    0  0.00000000000E+00  0.00000000000E+00  0.42293840238E+03  0.14696530248E+04  0.14074811264E+04 0.  0.
        4    1    3    3  502    0  0.17371675154E+02 -0.62479804531E+03  0.54913396526E+03  0.83200005843E+03  0.12699999809E+01 0. -1.
       -4    1    3    3    0  502 -0.17371675154E+02  0.62479804531E+03 -0.12619556288E+03  0.63765296637E+03  0.12699999809E+01 0.  1.
</event>
<event>
 5   0  0.3975164E-04  0.1396895E+04  0.7818609E-02  0.8956069E-01
        2   -1    0    0  501    0  0.00000000000E+00  0.00000000000E+00  0.10990648443E+04  0.10990648443E+04  0.25500000920E-02 0. -1.
       -2   -1    0    0    0  501  0.00000000000E+00  0.00000000000E+00 -0.44385792293E+03  0.44385792294E+03  0.25500000920E-02 0.  1.
    10030    2    1    2    0    0  0.00000000000E+00  0.00000000000E+00  0.65520692137E+03  0.15429227672E+04  0.13968946116E+04 0.  0.
        5    1    3    3  502    0 -0.98403915378E+02 -0.34903960013E+03  0.98690661093E+03  0.10514365039E+04  0.46999998093E+01 0. -1.
       -5    1    3    3    0  502  0.98403915378E+02  0.34903960013E+03 -0.33169968956E+03  0.49148626336E+03  0.46999998093E+01 0.  1.
</event>
<event>
 5   0  0.3917598E-04  0.1398718E+04  0.7818609E-02  0.8954747E-01
        2   -1    0    0  501    0  0.00000000000E+00  0.00000000000E+00  0.16581341480E+04  0.16581341480E+04  0.25500000920E-02 0.  1.
       -2   -1    0    0    0  501  0.00000000000E+00  0.00000000000E+00 -0.29497194074E+03  0.29497194075E+03  0.25500000920E-02 0. -1.
    10030    2    1    2    0    0  0.00000000000E+00  0.00000000000E+00  0.13631622073E+04  0.19531060888E+04  0.13987180526E+04 0.  0.
        3    1    3    3  502    0 -0.58799157612E+03 -0.17220448809E+03  0.11524539944E+04  0.13051968046E+04  0.10100000352E+00 0.  1.
       -3    1    3    3    0  502  0.58799157612E+03  0.17220448809E+03  0.21070821282E+03  0.64790928412E+03  0.10100000352E+00 0. -1.
</event>
<event>
 5   0  0.4208622E-04  0.1348969E+04  0.7818609E-02  0.8991609E-01
       -2   -1    0    0    0  501  0.00000000000E+00  0.00000000000E+00  0.37348212024E+03  0.37348212024E+03  0.25500000920E-02 0.  1.
        2   -1    0    0  501    0  0.00000000000E+00  0.00000000000E+00 -0.12180757251E+04  0.12180757251E+04  0.25500000920E-02 0. -1.
    10030    2    1    2    0    0  0.00000000000E+00  0.00000000000E+00 -0.84459360489E+03  0.15915578454E+04  0.13489692427E+04 0.  0.
        4    1    3    3  502    0 -0.51589432559E+03  0.19969715608E+03 -0.87756846536E+03  0.10373783946E+04  0.12699999809E+01 0. -1.
       -4    1    3    3    0  502  0.51589432559E+03 -0.19969715608E+03  0.32974860474E+02  0.55417945076E+03  0.12699999809E+01 0.  1.
</event>
<event>
 5   0  0.3932568E-04  0.1392672E+04  0.7818609E-02  0.8959140E-01
       -2   -1    0    0    0  501  0.00000000000E+00  0.00000000000E+00  0.43967738442E+03  0.43967738443E+03  0.25500000920E-02 0.  1.
        2   -1    0    0  501    0  0.00000000000E+00  0.00000000000E+00 -0.11028166153E+04  0.11028166153E+04  0.25500000920E-02 0. -1.
    10030    2    1    2    0    0  0.00000000000E+00  0.00000000000E+00 -0.66313923084E+03  0.15424939997E+04  0.13926715692E+04 0.  0.
        2    1    3    3  502    0 -0.58822380809E+03  0.64808923331E+02  0.74892438095E+02  0.59650341343E+03  0.25500000920E-02 0.  1.
       -2    1    3    3    0  502  0.58822380809E+03 -0.64808923331E+02 -0.73803166893E+03  0.94599058626E+03  0.25500000920E-02 0. -1.
</event>
<event>
 5   0  0.3932568E-04  0.1392477E+04  0.7818609E-02  0.8959282E-01
        2   -1    0    0  501    0  0.00000000000E+00  0.00000000000E+00  0.19239292709E+04  0.19239292709E+04  0.25500000920E-02 0. -1.
       -2   -1    0    0    0  501  0.00000000000E+00  0.00000000000E+00 -0.25195747911E+03  0.25195747912E+03  0.25500000920E-02 0.  1.
    10030    2    1    2    0    0  0.00000000000E+00  0.00000000000E+00  0.16719717918E+04  0.21758867500E+04  0.13924774599E+04 0.  0.
        2    1    3    3  502    0  0.72389811880E+02  0.66114656540E+03  0.11577197361E+04  0.13351666761E+04  0.25500000920E-02 0. -1.
       -2    1    3    3    0  502 -0.72389811880E+02 -0.66114656540E+03  0.51425205575E+03  0.84072007390E+03  0.25500000920E-02 0.  1.
</event>
<event>
 5   0  0.3932568E-04  0.1398400E+04  0.7818609E-02  0.8954978E-01
       -2   -1    0    0    0  501  0.00000000000E+00  0.00000000000E+00  0.59770092122E+03  0.59770092123E+03  0.25500000920E-02 0.  1.
        2   -1    0    0  501    0  0.00000000000E+00  0.00000000000E+00 -0.81793500675E+03  0.81793500675E+03  0.25500000920E-02 0. -1.
    10030    2    1    2    0    0  0.00000000000E+00  0.00000000000E+00 -0.22023408552E+03  0.14156359280E+04  0.13983998098E+04 0.  0.
        2    1    3    3  502    0  0.60855415692E+03  0.21729321898E+03 -0.38047811556E+03  0.74987872443E+03  0.25500000920E-02 0. -1.
       -2    1    3    3    0  502 -0.60855415692E+03 -0.21729321898E+03  0.16024403003E+03  0.66575720356E+03  0.25500000920E-02 0.  1.
</event>
<event>
 5   0  0.3917598E-04  0.1407997E+04  0.7818609E-02  0.8948050E-01
        2   -1    0    0  501    0  0.00000000000E+00  0.00000000000E+00  0.10600979271E+04  0.10600979271E+04  0.25500000920E-02 0. -1.
       -2   -1    0    0    0  501  0.00000000000E+00  0.00000000000E+00 -0.46751712824E+03  0.46751712825E+03  0.25500000920E-02 0.  1.
    10030    2    1    2    0    0  0.00000000000E+00  0.00000000000E+00  0.59258079890E+03  0.15276150554E+04  0.14079970718E+04 0.  0.
        3    1    3    3  502    0  0.65443928354E+03 -0.85928391153E+02  0.30665608135E+02  0.66076838149E+03  0.10100000352E+00 0.  1.
       -3    1    3    3    0  502 -0.65443928354E+03  0.85928391153E+02  0.56191519077E+03  0.86684667391E+03  0.10100000352E+00 0. -1.
</event>
<event>
 5   0  0.4208622E-04  0.1396441E+04  0.7818609E-02  0.8956399E-01
       -2   -1    0    0    0  501  0.00000000000E+00  0.00000000000E+00  0.65547122688E+03  0.65547122689E+03  0.25500000920E-02 0. -1.
        2   -1    0    0  501    0  0.00000000000E+00  0.00000000000E+00 -0.74375782073E+03  0.74375782073E+03  0.25500000920E-02 0.  1.
    10030    2    1    2    0    0  0.00000000000E+00  0.00000000000E+00 -0.88286593847E+02  0.13992290476E+04  0.13964409780E+04 0.  0.
        4    1    3    3  502    0  0.26617710524E+03 -0.64541199749E+03 -0.54329246795E+02  0.70025722260E+03  0.12699999809E+01 0. -1.
       -4    1    3    3    0  502 -0.26617710524E+03  0.64541199749E+03 -0.33957347051E+02  0.69897182502E+03  0.12699999809E+01 0.  1.
</event>
<event>
 5   0  0.4310348E-04  0.1403753E+04  0.7818609E-02  0.8951106E-01
       -2   -1    0    0    0  501  0.00000000000E+00  0.00000000000E+00  0.21094388063E+03  0.21094388064E+03  0.25500000920E-02 0. -1.
        2   -1    0    0  501    0  0.00000000000E+00  0.00000000000E+00 -0.23353638166E+04  0.23353638166E+04  0.25500000920E-02 0.  1.
    10030    2    1    2    0    0  0.00000000000E+00  0.00000000000E+00 -0.21244199360E+04  0.25463076973E+04  0.14037531210E+04 0.  0.
        1    1    3    3  502    0 -0.77460469944E+02  0.18890320167E+01  0.20316213276E+03  0.21743630115E+03  0.50400001928E-02 0. -1.
       -1    1    3    3    0  502  0.77460469944E+02 -0.18890320167E+01 -0.23275820688E+04  0.23288713961E+04  0.50400001928E-02 0.  1.
</event>
<event>
 5   0  0.2223112E-04  0.1407447E+04  0.7818609E-02  0.8948445E-01
        1   -1    0    0  501    0  0.00000000000E+00  0.00000000000E+00  0.64569967547E+03  0.64569967549E+03  0.50400001928E-02 0. -1.
       -1   -1    0    0    0  501  0.00000000000E+00  0.00000000000E+00 -0.76696178236E+03  0.76696178238E+03  0.50400001928E-02 0.  1.
    10030    2    1    2    0    0  0.00000000000E+00  0.00000000000E+00 -0.12126210689E+03  0.14126614579E+04  0.14074472978E+04 0.  0.
        1    1    3    3  502    0  0.33952811327E+02  0.61259237388E+02 -0.76345478460E+03  0.76666074356E+03  0.50400001928E-02 0.  1.
       -1    1    3    3    0  502 -0.33952811327E+02 -0.61259237388E+02  0.64219267771E+03  0.64600071431E+03  0.50400001928E-02 0. -1.
</event>
<event>
 5   0  0.2215876E-04  0.1409263E+04  0.7818609E-02  0.8947141E-01
        1   -1    0    0  501    0  0.00000000000E+00  0.00000000000E+00  0.23945906741E+04  0.23945906741E+04  0.50400001928E-02 0. -1.
       -1   -1    0    0    0  501  0.00000000000E+00  0.00000000000E+00 -0.20734450556E+03  0.20734450562E+03  0.50400001928E-02 0.  1.
    10030    2    1    2    0    0  0.00000000000E+00  0.00000000000E+00  0.21872461685E+04  0.26019351797E+04  0.14092625297E+04 0.  0.
        3    1    3    3  502    0  0.13711935637E+03 -0.30875914688E+03 -0.48064297122E+02  0.34123908852E+03  0.10100000352E+00 0.  1.
       -3    1    3    3    0  502 -0.13711935637E+03  0.30875914688E+03  0.22353104657E+04  0.22606960912E+04  0.10100000352E+00 0. -1.
</event>
<event>
 5   0  0.2223112E-04  0.1402750E+04  0.7818609E-02  0.8951831E-01
        1   -1    0    0  501    0  0.00000000000E+00  0.00000000000E+00  0.65065706212E+03  0.65065706214E+03  0.50400001928E-02 0.  1.
       -1   -1    0    0    0  501  0.00000000000E+00  0.00000000000E+00 -0.75604587244E+03  0.75604587246E+03  0.50400001928E-02 0. -1.
    10030    2    1    2    0    0  0.00000000000E+00  0.00000000000E+00 -0.10538881032E+03  0.14067029346E+04  0.14027495660E+04 0.  0.
        1    1    3    3  502    0 -0.24086758643E+03  0.23149575695E+03 -0.67113262660E+03  0.74968425499E+03  0.50400001928E-02 0. -1.
       -1    1    3    3    0  502  0.24086758643E+03 -0.23149575695E+03  0.56574381627E+03  0.65701867961E+03  0.50400001928E-02 0.  1.
</event>
<event>
 5   0  0.4208622E-04  0.1398600E+04  0.7818609E-02  0.8954833E-01
        2   -1    0    0  501    0  0.00000000000E+00  0.00000000000E+00  0.52681437357E+03  0.52681437358E+03  0.25500000920E-02 0. -1.
       -2   -1    0    0    0  501  0.00000000000E+00  0.00000000000E+00 -0.92825920994E+03  0.92825920994E+03  0.25500000920E-02 0.  1.
    10030    2    1    2    0    0  0.00000000000E+00  0.00000000000E+00 -0.40144483637E+03  0.14550735835E+04  0.13985997200E+04 0.  0.
        4    1    3    3  502    0  0.37458731703E+03 -0.25190499839E+03 -0.75637326707E+03  0.88083705550E+03  0.12699999809E+01 0.  1.
       -4    1    3    3    0  502 -0.37458731703E+03  0.25190499839E+03  0.35492843071E+03  0.57423652803E+03  0.12699999809E+01 0. -1.
</event>
<event>
 5   0  0.3932568E-04  0.1370203E+04  0.7818609E-02  0.8975674E-01
       -2   -1    0    0    0  501  0.00000000000E+00  0.00000000000E+00  0.38742287058E+03  0.38742287059E+03  0.25500000920E-02 0. -1.
        2   -1    0    0  501    0  0.00000000000E+00  0.00000000000E+00 -0.12115029333E+04  0.12115029333E+04  0.25500000920E-02 0.  1.
    10030    2    1    2    0    0  0.00000000000E+00  0.00000000000E+00 -0.82408006270E+03  0.15989258039E+04  0.13702028231E+04 0.  0.
        2    1    3    3  502    0 -0.63284931000E+03  0.14250330059E+03 -0.15489620393E+03  0.66693198593E+03  0.25500000920E-02 0. -1.
       -2    1    3    3    0  502  0.63284931000E+03 -0.14250330059E+03 -0.66918385877E+03  0.93199381795E+03  0.25500000920E-02 0.  1.
</event>
<event>
 5   0  0.3932568E-04  0.1401314E+04  0.7818609E-02  0.8952868E-01
        2   -1    0    0  501    0  0.00000000000E+00  0.00000000000E+00  0.27945058576E+03  0.27945058578E+03  0.25500000920E-02 0.  1.
       -2   -1    0    0    0  501  0.00000000000E+00  0.00000000000E+00 -0.17567337018E+04  0.17567337018E+04  0.25500000920E-02 0. -1.
    10030    2    1    2    0    0  0.00000000000E+00  0.00000000000E+00 -0.14772831160E+04  0.20361842876E+04  0.14013140433E+04 0.  0.
        2    1    3    3  502    0  0.54854409040E+03  0.95747038165E+02 -0.13565774803E+04  0.14664141893E+04  0.25500000920E-02 0. -1.
       -2    1    3    3    0  502 -0.54854409040E+03 -0.95747038165E+02 -0.12070563575E+03  0.56977009832E+03  0.25500000920E-02 0.  1.
</event>
<event>
 5   0  0.4310348E-04  0.1396333E+04  0.7818609E-02  0.8956477E-01
       -2   -1    0    0    0  501  0.00000000000E+00  0.00000000000E+00  0.45140596343E+03  0.45140596343E+03  0.25500000920E-02 0.  1.
        2   -1    0    0  501    0  0.00000000000E+00  0.00000000000E+00 -0.10798177654E+04  0.10798177654E+04  0.25500000920E-02 0. -1.
    10030    2    1    2    0    0  0.00000000000E+00  0.00000000000E+00 -0.62841180193E+03  0.15312237288E+04  0.13963325946E+04 0.  0.
        1    1    3    3  502    0  0.39966858319E+03 -0.50853627045E+03 -0.25959523659E+02  0.64731600602E+03  0.50400001928E-02 0. -1.
       -1    1    3    3    0  502 -0.39966858319E+03  0.50853627045E+03 -0.60245227827E+03  0.88390772277E+03  0.50400001928E-02 0.  1.
</event>
<event>
 5   0  0.3975164E-04  0.1400398E+04  0.7818609E-02  0.8953531E-01
       -2   -1    0    0    0  501  0.00000000000E+00  0.00000000000E+00  0.40112791900E+03  0.40112791901E+03  0.25500000920E-02 0. -1.
        2   -1    0    0  501    0  0.00000000000E+00  0.00000000000E+00 -0.12222501070E+04  0.12222501070E+04  0.25500000920E-02 0.  1.
    10030    2    1    2    0    0  0.00000000000E+00  0.00000000000E+00 -0.82112218796E+03  0.16233780260E+04  0.14003980033E+04 0.  0.
        5    1    3    3  502    0 -0.33329762966E+03 -0.29739835756E+02 -0.11235415358E+04  0.11723222426E+04  0.46999998093E+01 0.  1.
       -5    1    3    3    0  502  0.33329762966E+03  0.29739835756E+02  0.30241934786E+03  0.45105578339E+03  0.46999998093E+01 0. -1.
</event>
<event>
 5   0  0.2155352E-04  0.1401981E+04  0.7818609E-02  0.8952386E-01
       -1   -1    0    0    0  501  0.00000000000E+00  0.00000000000E+00  0.57378358781E+03  0.57378358783E+03  0.50400001928E-02 0. -1.
        1   -1    0    0  501    0  0.00000000000E+00  0.00000000000E+00 -0.85639867334E+03  0.85639867336E+03  0.50400001928E-02 0.  1.
    10030    2    1    2    0    0  0.00000000000E+00  0.00000000000E+00 -0.28261508553E+03  0.14301822612E+04  0.14019807465E+04 0.  0.
        2    1    3    3  502    0 -0.28266530209E+03  0.19661184719E+02  0.51276172821E+03  0.58584197965E+03  0.25500000920E-02 0. -1.
       -2    1    3    3    0  502  0.28266530209E+03 -0.19661184719E+02 -0.79537681374E+03  0.84434028154E+03  0.25500000920E-02 0.  1.
</event>
<event>
 5   0  0.2215876E-04  0.1402036E+04  0.7818609E-02  0.8952346E-01
        1   -1    0    0  501    0  0.00000000000E+00  0.00000000000E+00  0.54645308759E+03  0.54645308761E+03  0.50400001928E-02 0.  1.
       -1   -1    0    0    0  501  0.00000000000E+00  0.00000000000E+00 -0.89930136384E+03  0.89930136385E+03  0.50400001928E-02 0. -1.
    10030    2    1    2    0    0  0.00000000000E+00  0.00000000000E+00 -0.35284827625E+03  0.14457544515E+04  0.14020356728E+04 0.  0.
        3    1    3    3  502    0  0.36632257614E+03 -0.53583081537E+03  0.96633075493E+02  0.65623536477E+03  0.10100000352E+00 0.  1.
       -3    1    3    3    0  502 -0.36632257614E+03  0.53583081537E+03 -0.44948135174E+03  0.78951908669E+03  0.10100000352E+00 0. -1.
</event>
<event>
 5   0  0.2223112E-04  0.1411695E+04  0.7818609E-02  0.8945397E-01
       -1   -1    0    0    0  501  0.00000000000E+00  0.00000000000E+00  0.53145317518E+03  0.53145317521E+03  0.50400001928E-02 0. -1.
        1   -1    0    0  501    0  0.00000000000E+00  0.00000000000E+00 -0.93746830814E+03  0.93746830816E+03  0.50400001928E-02 0.  1.
    10030    2    1    2    0    0  0.00000000000E+00  0.00000000000E+00 -0.40601513296E+03  0.14689214834E+04  0.14116947390E+04 0.  0.
        1    1    3    3  502    0  0.27639079819E+03 -0.64684579282E+03 -0.26385149446E+03  0.75127822021E+03  0.50400001928E-02 0.  1.
       -1    1    3    3    0  502 -0.27639079819E+03  0.64684579282E+03 -0.14216363850E+03  0.71764326315E+03  0.50400001928E-02 0. -1.
</event>
<event>
 5   0  0.2155352E-04  0.1383026E+04  0.7818609E-02  0.8966198E-01
        1   -1    0    0  501    0  0.00000000000E+00  0.00000000000E+00  0.14360683364E+04  0.14360683365E+04  0.50400001928E-02 0. -1.
       -1   -1    0    0    0  501  0.00000000000E+00  0.00000000000E+00 -0.33298559242E+03  0.33298559246E+03  0.50400001928E-02 0.  1.
    10030    2    1    2    0    0  0.00000000000E+00  0.00000000000E+00  0.11030827440E+04  0.17690539289E+04  0.13830257638E+04 0.  0.
        2    1    3    3  502    0  0.63606579761E+03  0.25657208629E+03  0.66437334384E+03  0.95488264953E+03  0.25500000920E-02 0.  1.
       -2    1    3    3    0  502 -0.63606579761E+03 -0.25657208629E+03  0.43870940019E+03  0.81417127939E+03  0.25500000920E-02 0. -1.
</event>
<event>
 5   0  0.3917598E-04  0.1398805E+04  0.7818609E-02  0.8954684E-01
       -2   -1    0    0    0  501  0.00000000000E+00  0.00000000000E+00  0.81307351072E+03  0.81307351072E+03  0.25500000920E-02 0. -1.
        2   -1    0    0  501    0  0.00000000000E+00  0.00000000000E+00 -0.60162316529E+03  0.60162316530E+03  0.25500000920E-02 0.  1.
    10030    2    1    2    0    0  0.00000000000E+00  0.00000000000E+00  0.21145034542E+03  0.14146966760E+04  0.13988050030E+04 0.  0.
        3    1    3    3  502    0  0.63796364742E+03 -0.11644748312E+03  0.37062879268E+03  0.74694266441E+03  0.10100000352E+00 0.  1.
       -3    1    3    3    0  502 -0.63796364742E+03  0.11644748312E+03 -0.15917844726E+03  0.66775401161E+03  0.10100000352E+00 0. -1.
</event>
<event>
 5   0  0.2155352E-04  0.1415370E+04  0.7818609E-02  0.8942767E-01
       -1   -1    0    0    0  501  0.00000000000E+00  0.00000000000E+00  0.88313260130E+03  0.88313260131E+03  0.50400001928E-02 0.  1.
        1   -1    0    0  501    0  0.00000000000E+00  0.00000000000E+00 -0.56709300405E+03  0.56709300407E+03  0.50400001928E-02 0. -1.
    10030    2    1    2    0    0  0.00000000000E+00  0.00000000000E+00  0.31603959725E+03  0.14502256054E+04  0.14153703683E+04 0.  0.
        2    1    3    3  502    0  0.62891238870E+03  0.18335915754E+03  0.43231923823E+03  0.78488935339E+03  0.25500000920E-02 0.  1.
       -2    1    3    3    0  502 -0.62891238870E+03 -0.18335915754E+03 -0.11627964098E+03  0.66533625200E+03  0.25500000920E-02 0. -1.
</event>
<event>
 5   0  0.3975164E-04  0.1395067E+04  0.7818609E-02  0.8957397E-01
       -2   -1    0    0    0  501  0.00000000000E+00  0.00000000000E+00  0.30989478221E+03  0.30989478222E+03  0.25500000920E-02 0.  1.
        2   -1    0    0  501    0  0.00000000000E+00  0.00000000000E+00 -0.15700594998E+04  0.15700594998E+04  0.25500000920E-02 0. -1.
    10030    2    1    2    0    0  0.00000000000E+00  0.00000000000E+00 -0.12601647176E+04  0.18799542820E+04  0.13950673772E+04 0.  0.
        5    1    3    3  502    0 -0.22605139300E+03  0.28438512780E+03 -0.14324901764E+04  0.14778444873E+04  0.46999998093E+01 0. -1.
       -5    1    3    3    0  502  0.22605139300E+03 -0.28438512780E+03  0.17232545887E+03  0.40210979466E+03  0.46999998093E+01 0.  1.
</event>
<event>
 5   0  0.4310348E-04  0.1387941E+04  0.7818609E-02  0.8962594E-01
        2   -1    0    0  501    0  0.00000000000E+00  0.00000000000E+00  0.18111684392E+04  0.18111684392E+04  0.25500000920E-02 0.  1.
       -2   -1    0    0    0  501  0.00000000000E+00  0.00000000000E+00 -0.26590294402E+03  0.26590294403E+03  0.25500000920E-02 0. -1.
    10030    2    1    2    0    0  0.00000000000E+00  0.00000000000E+00  0.15452654952E+04  0.20770713832E+04  0.13879409499E+04 0.  0.
        1    1    3    3  502    0 -0.50858080044E+03  0.54376142294E+02  0.14745336602E+04  0.15607244185E+04  0.50400001928E-02 0.  1.
       -1    1    3    3    0  502  0.50858080044E+03 -0.54376142294E+02  0.70731834916E+02  0.51634696467E+03  0.50400001928E-02 0. -1.
</event>
<event>
 5   0  0.2217251E-04  0.1405025E+04  0.7818609E-02  0.8950189E-01
       -1   -1    0    0    0  501  0.00000000000E+00  0.00000000000E+00  0.52663446930E+03  0.52663446932E+03  0.50400001928E-02 0. -1.
        1   -1    0    0  501    0  0.00000000000E+00  0.00000000000E+00 -0.93712783943E+03  0.93712783944E+03  0.50400001928E-02 0.  1.
    10030    2    1    2    0    0  0.00000000000E+00  0.00000000000E+00 -0.41049337013E+03  0.14637623088E+04  0.14050250139E+04 0.  0.
        5    1    3    3  502    0 -0.15716699310E+03  0.12069212604E+03  0.49689728413E+03  0.53497388159E+03  0.46999998093E+01 0. -1.
       -5    1    3    3    0  502  0.15716699310E+03 -0.12069212604E+03 -0.90739065426E+03  0.92878842717E+03  0.46999998093E+01 0.  1.
</event>
<event>
 5   0  0.2215876E-04  0.1399056E+04  0.7818609E-02  0.8954502E-01
        1   -1    0    0  501    0  0.00000000000E+00  0.00000000000E+00  0.13143672599E+04  0.13143672599E+04  0.50400001928E-02 0. -1.
       -1   -1    0    0    0  501  0.00000000000E+00  0.00000000000E+00 -0.37230017353E+03  0.37230017356E+03  0.50400001928E-02 0.  1.
    10030    2    1    2    0    0  0.00000000000E+00  0.00000000000E+00  0.94206708637E+03  0.16866674335E+04  0.13990556229E+04 0.  0.
        3    1    3    3  502    0  0.31648152345E+02 -0.30138007405E+03 -0.28906026253E+03  0.41879278904E+03  0.10100000352E+00 0.  1.
       -3    1    3    3    0  502 -0.31648152345E+02  0.30138007405E+03  0.12311273489E+04  0.12678746444E+04  0.10100000352E+00 0. -1.
</event>
<event>
 5   0  0.2223112E-04  0.1396767E+04  0.7818609E-02  0.8956162E-01
        1   -1    0    0  501    0  0.00000000000E+00  0.00000000000E+00  0.17607665317E+04  0.17607665317E+04  0.50400001928E-02 0. -1.
       -1   -1    0    0    0  501  0.00000000000E+00  0.00000000000E+00 -0.27700422453E+03  0.27700422457E+03  0.50400001928E-02 0.  1.
    10030    2    1    2    0    0  0.00000000000E+00  0.00000000000E+00  0.14837623072E+04  0.20377707563E+04  0.13967673647E+04 0.  0.
        1    1    3    3  502    0 -0.55077389369E+03  0.85846100862E+02  0.13557002127E+04  0.14658255359E+04  0.50400001928E-02 0. -1.
       -1    1    3    3    0  502  0.55077389369E+03 -0.85846100862E+02  0.12806209444E+03  0.57194522033E+03  0.50400001928E-02 0.  1.
</event>
<event>
 5   0  0.2217251E-04  0.1399954E+04  0.7818609E-02  0.8953852E-01
        1   -1    0    0  501    0  0.00000000000E+00  0.00000000000E+00  0.75082659188E+03  0.75082659189E+03  0.50400001928E-02 0.  1.
       -1   -1    0    0    0  501  0.00000000000E+00  0.00000000000E+00 -0.65257132997E+03  0.65257132999E+03  0.50400001928E-02 0. -1.
    10030    2    1    2    0    0  0.00000000000E+00  0.00000000000E+00  0.98255261908E+02  0.14033979219E+04  0.13999541531E+04 0.  0.
        5    1    3    3  502    0  0.96030251961E+01  0.25459735639E+03 -0.60442225390E+03  0.65594236254E+03  0.46999998093E+01 0. -1.
       -5    1    3    3    0  502 -0.96030251961E+01 -0.25459735639E+03  0.70267751580E+03  0.74745555934E+03  0.46999998093E+01 0.  1.
</event>
<event>
 5   0  0.3932568E-04  0.1398497E+04  0.7818609E-02  0.8954907E-01
        2   -1    0    0  501    0  0.00000000000E+00  0.00000000000E+00  0.14596552019E+04  0.14596552019E+04  0.25500000920E-02 0. -1.
       -2   -1    0    0    0  501  0.00000000000E+00  0.00000000000E+00 -0.33497513709E+03  0.33497513710E+03  0.25500000920E-02 0.  1.
    10030    2    1    2    0    0  0.00000000000E+00  0.00000000000E+00  0.11246800648E+04  0.17946303390E+04  0.13984966233E+04 0.  0.
        2    1    3    3  502    0  0.72803198694E+02 -0.68443362192E+03  0.72054281938E+03  0.99645955419E+03  0.25500000920E-02 0.  1.
       -2    1    3    3    0  502 -0.72803198694E+02  0.68443362192E+03  0.40413724540E+03  0.79817078478E+03  0.25500000920E-02 0. -1.
</event>
<event>
 5   0  0.2155352E-04  0.1400938E+04  0.7818609E-02  0.8953140E-01
       -1   -1    0    0    0  501  0.00000000000E+00  0.00000000000E+00  0.63096789090E+03  0.63096789092E+03  0.50400001928E-02 0. -1.
        1   -1    0    0  501    0  0.00000000000E+00  0.00000000000E+00 -0.77762534061E+03  0.77762534062E+03  0.50400001928E-02 0.  1.
    10030    2    1    2    0    0  0.00000000000E+00  0.00000000000E+00 -0.14665744971E+03  0.14085932315E+04  0.14009377161E+04 0.  0.
        2    1    3    3  502    0  0.49542302394E+02  0.63247999380E+03 -0.37188777544E+03  0.73538146551E+03  0.25500000920E-02 0.  1.
       -2    1    3    3    0  502 -0.49542302394E+02 -0.63247999380E+03  0.22523032573E+03  0.67321176603E+03  0.25500000920E-02 0. -1.
</event>
<event>
 5   0  0.3975164E-04  0.1400283E+04  0.7818609E-02  0.8953614E-01
        2   -1    0    0  501    0  0.00000000000E+00  0.00000000000E+00  0.80712536727E+03  0.80712536727E+03  0.25500000920E-02 0.  1.
       -2   -1    0    0    0  501  0.00000000000E+00  0.00000000000E+00 -0.60733813502E+03  0.60733813502E+03  0.25500000920E-02 0. -1.
    10030    2    1    2    0    0  0.00000000000E+00  0.00000000000E+00  0.19978723225E+03  0.14144635023E+04  0.14002828504E+04 0.  0.
        5    1    3    3  502    0 -0.94458214619E+02 -0.57057043126E+03 -0.29869455110E+03  0.65093278931E+03  0.46999998093E+01 0. -1.
       -5    1    3    3    0  502  0.94458214619E+02  0.57057043126E+03  0.49848178335E+03  0.76353071299E+03  0.46999998093E+01 0.  1.
</event>
<event>
 5   0  0.2223112E-04  0.1400352E+04  0.7818609E-02  0.8953564E-01
        1   -1    0    0  501    0  0.00000000000E+00  0.00000000000E+00  0.14452165990E+04  0.14452165990E+04  0.50400001928E-02 0.  1.
       -1   -1    0    0    0  501  0.00000000000E+00  0.00000000000E+00 -0.33921990569E+03  0.33921990573E+03  0.50400001928E-02 0. -1.
    10030    2    1    2    0    0  0.00000000000E+00  0.00000000000E+00  0.11059966933E+04  0.17844365048E+04  0.14003517251E+04 0.  0.
        1    1    3    3  502    0  0.48285105589E+03  0.56943541042E+01 -0.93084996087E+02  0.49177472928E+03  0.50400001928E-02 0. -1.
       -1    1    3    3    0  502 -0.48285105589E+03 -0.56943541042E+01  0.11990816894E+04  0.12926617755E+04  0.50400001928E-02 0.  1.
</event>
<event>
 5   0  0.3975164E-04  0.1399004E+04  0.7818609E-02  0.8954540E-01
        2   -1    0    0  501    0  0.00000000000E+00  0.00000000000E+00  0.15180957709E+04  0.15180957709E+04  0.25500000920E-02 0.  1.
       -2   -1    0    0    0  501  0.00000000000E+00  0.00000000000E+00 -0.32231363518E+03  0.32231363519E+03  0.25500000920E-02 0. -1.
    10030    2    1    2    0    0  0.00000000000E+00  0.00000000000E+00  0.11957821358E+04  0.18404094061E+04  0.13990038835E+04 0.  0.
        5    1    3    3  502    0 -0.32582297723E+03  0.71720850676E+02  0.14066663259E+04  0.14456959346E+04  0.46999998093E+01 0.  1.
       -5    1    3    3    0  502  0.32582297723E+03 -0.71720850676E+02 -0.21088419018E+03  0.39471347149E+03  0.46999998093E+01 0. -1.
</event>
<event>
 5   0  0.3975164E-04  0.1405022E+04  0.7818609E-02  0.8950191E-01
        2   -1    0    0  501    0  0.00000000000E+00  0.00000000000E+00  0.55756161773E+03  0.55756161774E+03  0.25500000920E-02 0. -1.
       -2   -1    0    0    0  501  0.00000000000E+00  0.00000000000E+00 -0.88514317750E+03  0.88514317750E+03  0.25500000920E-02 0.  1.
    10030    2    1    2    0    0  0.00000000000E+00  0.00000000000E+00 -0.32758155977E+03  0.14427047952E+04  0.14050222233E+04 0.  0.
        5    1    3    3  502    0  0.35541593354E+03  0.13673213122E+02 -0.78583717167E+03  0.86259468637E+03  0.46999998093E+01 0.  1.
       -5    1    3    3    0  502 -0.35541593354E+03 -0.13673213122E+02  0.45825561190E+03  0.58011010887E+03  0.46999998093E+01 0. -1.
</event>
<event>
 5   0  0.3975164E-04  0.1399779E+04  0.7818609E-02  0.8953979E-01
        2   -1    0    0  501    0  0.00000000000E+00  0.00000000000E+00  0.20635399566E+04  0.20635399566E+04  0.25500000920E-02 0. -1.
       -2   -1    0    0    0  501  0.00000000000E+00  0.00000000000E+00 -0.23738097745E+03  0.23738097747E+03  0.25500000920E-02 0.  1.
    10030    2    1    2    0    0  0.00000000000E+00  0.00000000000E+00  0.18261589792E+04  0.23009209341E+04  0.13997787424E+04 0.  0.
        5    1    3    3  502    0 -0.20542614025E+03 -0.31890416964E+03 -0.53710605853E+02  0.38315360848E+03  0.46999998093E+01 0.  1.
       -5    1    3    3    0  502  0.20542614025E+03  0.31890416964E+03  0.18798695850E+04  0.19177673256E+04  0.46999998093E+01 0. -1.
</event>
<event>
 5   0  0.3917598E-04  0.1400965E+04  0.7818609E-02  0.8953120E-01
       -2   -1    0    0    0  501  0.00000000000E+00  0.00000000000E+00  0.24689435897E+03  0.24689435898E+03  0.25500000920E-02 0. -1.
        2   -1    0    0  501    0  0.00000000000E+00  0.00000000000E+00 -0.19873913563E+04  0.19873913563E+04  0.25500000920E-02 0.  1.
    10030    2    1    2    0    0  0.00000000000E+00  0.00000000000E+00 -0.17404969974E+04  0.22342857153E+04  0.14009649745E+04 0.  0.
        3    1    3    3  502    0  0.44522085939E+03  0.35733142490E+03 -0.15176121633E+04  0.16214357987E+04  0.10100000352E+00 0.  1.
       -3    1    3    3    0  502 -0.44522085939E+03 -0.35733142490E+03 -0.22288483407E+03  0.61284991664E+03  0.10100000352E+00 0. -1.
</event>
<event>
 5   0  0.2223112E-04  0.1316027E+04  0.7818609E-02  0.9016952E-01
       -1   -1    0    0    0  501  0.00000000000E+00  0.00000000000E+00  0.51253994369E+03  0.51253994371E+03  0.50400001928E-02 0. -1.
        1   -1    0    0  501    0  0.00000000000E+00  0.00000000000E+00 -0.84477621389E+03  0.84477621390E+03  0.50400001928E-02 0.  1.
    10030    2    1    2    0    0  0.00000000000E+00  0.00000000000E+00 -0.33223627020E+03  0.13573161576E+04  0.13160266762E+04 0.  0.
        1    1    3    3  502    0  0.11140373365E+03 -0.64534278493E+03 -0.23218610483E+03  0.69482982753E+03  0.50400001928E-02 0. -1.
       -1    1    3    3    0  502 -0.11140373365E+03  0.64534278493E+03 -0.10005016537E+03  0.66248633008E+03  0.50400001928E-02 0.  1.
</event>
<event>
 5   0  0.2143942E-04  0.1408436E+04  0.7818609E-02  0.8947735E-01
        1   -1    0    0  501    0  0.00000000000E+00  0.00000000000E+00  0.73370914355E+03  0.73370914357E+03  0.50400001928E-02 0. -1.
       -1   -1    0    0    0  501  0.00000000000E+00  0.00000000000E+00 -0.67591208014E+03  0.67591208016E+03  0.50400001928E-02 0.  1.
    10030    2    1    2    0    0  0.00000000000E+00  0.00000000000E+00  0.57797063411E+02  0.14096212237E+04  0.14084358323E+04 0.  0.
        4    1    3    3  502    0  0.65323781938E+03  0.98691970047E+02 -0.21515400165E+03  0.69480400902E+03  0.12699999809E+01 0.  1.
       -4    1    3    3    0  502 -0.65323781938E+03 -0.98691970047E+02  0.27295106506E+03  0.71481721471E+03  0.12699999809E+01 0. -1.
</event>
<event>
 5   0  0.2217251E-04  0.1395014E+04  0.7818609E-02  0.8957436E-01
       -1   -1    0    0    0  501  0.00000000000E+00  0.00000000000E+00  0.54307711542E+03  0.54307711544E+03  0.50400001928E-02 0. -1.
        1   -1    0    0  501    0  0.00000000000E+00  0.00000000000E+00 -0.89585078847E+03  0.89585078849E+03  0.50400001928E-02 0.  1.
    10030    2    1    2    0    0  0.00000000000E+00  0.00000000000E+00 -0.35277367305E+03  0.14389279039E+04  0.13950140674E+04 0.  0.
        5    1    3    3  502    0 -0.43974462172E+03  0.54121209774E+03 -0.19126679479E+03  0.72311198570E+03  0.46999998093E+01 0. -1.
       -5    1    3    3    0  502  0.43974462172E+03 -0.54121209774E+03 -0.16150687827E+03  0.71581591823E+03  0.46999998093E+01 0.  1.
</event>
<event>
 5   0  0.3932568E-04  0.1396039E+04  0.7818609E-02  0.8956691E-01
        2   -1    0    0  501    0  0.00000000000E+00  0.00000000000E+00  0.17256918629E+04  0.17256918629E+04  0.25500000920E-02 0. -1.
       -2   -1    0    0    0  501  0.00000000000E+00  0.00000000000E+00 -0.28233958613E+03  0.28233958614E+03  0.25500000920E-02 0.  1.
    10030    2    1    2    0    0  0.00000000000E+00  0.00000000000E+00  0.14433522768E+04  0.20080314490E+04  0.13960388624E+04 0.  0.
        2    1    3    3  502    0 -0.46054530630E+03 -0.31059459422E+03  0.13296527092E+04  0.14410230075E+04  0.25500000920E-02 0. -1.
       -2    1    3    3    0  502  0.46054530630E+03  0.31059459422E+03  0.11369956762E+03  0.56700844156E+03  0.25500000920E-02 0.  1.
</event>
<event>
 5   0  0.2215876E-04  0.1398201E+04  0.7818609E-02  0.8955122E-01
       -1   -1    0    0    0  501  0.00000000000E+00  0.00000000000E+00  0.78770958624E+03  0.78770958626E+03  0.50400001928E-02 0.  1.
        1   -1    0    0  501    0  0.00000000000E+00  0.00000000000E+00 -0.62045925312E+03  0.62045925314E+03  0.50400001928E-02 0. -1.
    10030    2    1    2    0    0  0.00000000000E+00  0.00000000000E+00  0.16725033312E+03  0.14081688394E+04  0.13982012753E+04 0.  0.
        3    1    3    3  502    0  0.75042567598E+02  0.15501838920E+03 -0.59875914694E+03  0.62303660743E+03  0.10100000352E+00 0. -1.
       -3    1    3    3    0  502 -0.75042567598E+02 -0.15501838920E+03  0.76600948006E+03  0.78513223198E+03  0.10100000352E+00 0.  1.
</event>
<event>
 5   0  0.2143942E-04  0.1395461E+04  0.7818609E-02  0.8957111E-01
        1   -1    0    0  501    0  0.00000000000E+00  0.00000000000E+00  0.58042245412E+03  0.58042245414E+03  0.50400001928E-02 0.  1.
       -1   -1    0    0    0  501  0.00000000000E+00  0.00000000000E+00 -0.83874726996E+03  0.83874726997E+03  0.50400001928E-02 0. -1.
    10030    2    1    2    0    0  0.00000000000E+00  0.00000000000E+00 -0.25832481584E+03  0.14191697241E+04  0.13954608541E+04 0.  0.
        4    1    3    3  502    0  0.40256215202E+03  0.27735310170E+02  0.44971898244E+03  0.60421379473E+03  0.12699999809E+01 0.  1.
       -4    1    3    3    0  502 -0.40256215202E+03 -0.27735310170E+02 -0.70804379828E+03  0.81495592939E+03  0.12699999809E+01 0. -1.
</event>
<event>
 5   0  0.4208622E-04  0.1400684E+04  0.7818609E-02  0.8953323E-01
       -2   -1    0    0    0  501  0.00000000000E+00  0.00000000000E+00  0.11853857205E+04  0.11853857205E+04  0.25500000920E-02 0.  1.
        2   -1    0    0  501    0  0.00000000000E+00  0.00000000000E+00 -0.41377171993E+03  0.41377171994E+03  0.25500000920E-02 0. -1.
    10030    2    1    2    0    0  0.00000000000E+00  0.00000000000E+00  0.77161400058E+03  0.15991574405E+04  0.14006842447E+04 0.  0.
        4    1    3    3  502    0 -0.61106697421E+03  0.23783316360E+03  0.66665065045E+03  0.93508938788E+03  0.12699999809E+01 0. -1.
       -4    1    3    3    0  502  0.61106697421E+03 -0.23783316360E+03  0.10496335013E+03  0.66406805257E+03  0.12699999809E+01 0.  1.
</event>
<event>
 5   0  0.2143942E-04  0.1392932E+04  0.7818609E-02  0.8958951E-01
        1   -1    0    0  501    0  0.00000000000E+00  0.00000000000E+00  0.40236508597E+03  0.40236508600E+03  0.50400001928E-02 0.  1.
       -1   -1    0    0    0  501  0.00000000000E+00  0.00000000000E+00 -0.12055335402E+04  0.12055335403E+04  0.50400001928E-02 0. -1.
    10030    2    1    2    0    0  0.00000000000E+00  0.00000000000E+00 -0.80316845428E+03  0.16078986263E+04  0.13929315943E+04 0.  0.
        4    1    3    3  502    0  0.51919531630E+03 -0.16407146557E+03 -0.90285966791E+03  0.10543435944E+04  0.12699999809E+01 0. -1.
       -4    1    3    3    0  502 -0.51919531630E+03  0.16407146557E+03  0.99691213630E+02  0.55355503182E+03  0.12699999809E+01 0.  1.
</event>
<event>
 5   0  0.2143942E-04  0.1397633E+04  0.7818609E-02  0.8955534E-01
       -1   -1    0    0    0  501  0.00000000000E+00  0.00000000000E+00  0.55685512904E+03  0.55685512907E+03  0.50400001928E-02 0. -1.
        1   -1    0    0  501    0  0.00000000000E+00  0.00000000000E+00 -0.87696858656E+03  0.87696858657E+03  0.50400001928E-02 0.  1.
    10030    2    1    2    0    0  0.00000000000E+00  0.00000000000E+00 -0.32011345751E+03  0.14338237156E+04  0.13976329353E+04 0.  0.
        4    1    3    3  502    0  0.69247835982E+03  0.81055840544E+02 -0.11143199437E+03  0.70605596830E+03  0.12699999809E+01 0. -1.
       -4    1    3    3    0  502 -0.69247835982E+03 -0.81055840544E+02 -0.20868146314E+03  0.72776774734E+03  0.12699999809E+01 0.  1.
</event>
<event>
 5   0  0.2223112E-04  0.1399005E+04  0.7818609E-02  0.8954539E-01
       -1   -1    0    0    0  501  0.00000000000E+00  0.00000000000E+00  0.42511929229E+03  0.42511929232E+03  0.50400001928E-02 0. -1.
        1   -1    0    0  501    0  0.00000000000E+00  0.00000000000E+00 -0.11509794091E+04  0.11509794091E+04  0.50400001928E-02 0.  1.
    10030    2    1    2    0    0  0.00000000000E+00  0.00000000000E+00 -0.72586011679E+03  0.15760987014E+04  0.13990047203E+04 0.  0.
        1    1    3    3  502    0 -0.26423608620E+03  0.32669334294E+02 -0.10916625662E+04  0.11236614940E+04  0.50400001928E-02 0.  1.
       -1    1    3    3    0  502  0.26423608620E+03 -0.32669334294E+02  0.36580244940E+03  0.45243720742E+03  0.50400001928E-02 0. -1.
</event>
<event>
 5   0  0.4310348E-04  0.1398963E+04  0.7818609E-02  0.8954569E-01
       -2   -1    0    0    0  501  0.00000000000E+00  0.00000000000E+00  0.40257834720E+03  0.40257834720E+03  0.25500000920E-02 0.  1.
        2   -1    0    0  501    0  0.00000000000E+00  0.00000000000E+00 -0.12153520384E+04  0.12153520384E+04  0.25500000920E-02 0. -1.
    10030    2    1    2    0    0  0.00000000000E+00  0.00000000000E+00 -0.81277369118E+03  0.16179303856E+04  0.13989630658E+04 0.  0.
        1    1    3    3  502    0 -0.65936975412E+03 -0.30852848970E+02 -0.13874764885E+03  0.67451558990E+03  0.50400001928E-02 0.  1.
       -1    1    3    3    0  502  0.65936975412E+03  0.30852848970E+02 -0.67402604232E+03  0.94341479567E+03  0.50400001928E-02 0. -1.
</event>
<event>
 5   0  0.2215876E-04  0.1400920E+04  0.7818609E-02  0.8953153E-01
       -1   -1    0    0    0  501  0.00000000000E+00  0.00000000000E+00  0.83386142488E+03  0.83386142489E+03  0.50400001928E-02 0. -1.
        1   -1    0    0  501    0  0.00000000000E+00  0.00000000000E+00 -0.58839990006E+03  0.58839990009E+03  0.50400001928E-02 0.  1.
    10030    2    1    2    0    0  0.00000000000E+00  0.00000000000E+00  0.24546152481E+03  0.14222613250E+04  0.14009196681E+04 0.  0.
        3    1    3    3  502    0  0.59182443933E+03 -0.98869424011E+02 -0.24417857996E+03  0.64780747071E+03  0.10100000352E+00 0. -1.
       -3    1    3    3    0  502 -0.59182443933E+03  0.98869424011E+02  0.48964010477E+03  0.77445385427E+03  0.10100000352E+00 0.  1.
</event>
<event>
 5   0  0.3932568E-04  0.1400941E+04  0.7818609E-02  0.8953138E-01
       -2   -1    0    0    0  501  0.00000000000E+00  0.00000000000E+00  0.34806723534E+03  0.34806723534E+03  0.25500000920E-02 0.  1.
        2   -1    0    0  501    0  0.00000000000E+00  0.00000000000E+00 -0.14096661553E+04  0.14096661553E+04  0.25500000920E-02 0. -1.
    10030    2    1    2    0    0  0.00000000000E+00  0.00000000000E+00 -0.10615989200E+04  0.17577333907E+04  0.14009405433E+04 0.  0.
        2    1    3    3  502    0  0.50588171837E+02  0.68148967920E+03 -0.72383796475E+03  0.99545403972E+03  0.25500000920E-02 0. -1.
       -2    1    3    3    0  502 -0.50588171837E+02 -0.68148967920E+03 -0.33776095523E+03  0.76227935094E+03  0.25500000920E-02 0.  1.
</event>
<event>
 5   0  0.3975164E-04  0.1398240E+04  0.7818609E-02  0.8955094E-01
       -2   -1    0    0    0  501  0.00000000000E+00  0.00000000000E+00  0.58172376549E+03  0.58172376550E+03  0.25500000920E-02 0. -1.
        2   -1    0    0  501    0  0.00000000000E+00  0.00000000000E+00 -0.84020757504E+03  0.84020757504E+03  0.25500000920E-02 0.  1.
    10030    2    1    2    0    0  0.00000000000E+00  0.00000000000E+00 -0.25848380954E+03  0.14219313405E+04  0.13982399141E+04 0.  0.
        5    1    3    3  502    0 -0.14035929898E+03 -0.36176662833E+03  0.46213584779E+03  0.60346288866E+03  0.46999998093E+01 0. -1.
       -5    1    3    3    0  502  0.14035929898E+03  0.36176662833E+03 -0.72061965734E+03  0.81846845188E+03  0.46999998093E+01 0.  1.
</event>
<event>
 5   0  0.1497625E-04  0.1403650E+04  0.7818609E-02  0.8951180E-01
       -3   -1    0    0    0  501  0.00000000000E+00  0.00000000000E+00  0.79593693223E+03  0.79593693864E+03  0.10100000352E+00 0.  1.
        3   -1    0    0  501    0  0.00000000000E+00  0.00000000000E+00 -0.61884117713E+03  0.61884118537E+03  0.10100000352E+00 0. -1.
    10030    2    1    2    0    0  0.00000000000E+00  0.00000000000E+00  0.17709575510E+03  0.14147781240E+04  0.14036503246E+04 0.  0.
        5    1    3    3  502    0  0.51829293345E+03 -0.46854971742E+03  0.21917327720E+02  0.69904854038E+03  0.46999998093E+01 0.  1.
       -5    1    3    3    0  502 -0.51829293345E+03  0.46854971742E+03  0.15517842738E+03  0.71572958363E+03  0.46999998093E+01 0. -1.
</event>
<event>
 5   0  0.2217251E-04  0.1402491E+04  0.7818609E-02  0.8952017E-01
        1   -1    0    0  501    0  0.00000000000E+00  0.00000000000E+00  0.12981793705E+04  0.12981793705E+04  0.50400001928E-02 0.  1.
       -1   -1    0    0    0  501  0.00000000000E+00  0.00000000000E+00 -0.37879612973E+03  0.37879612976E+03  0.50400001928E-02 0. -1.
    10030    2    1    2    0    0  0.00000000000E+00  0.00000000000E+00  0.91938324076E+03  0.16769755003E+04  0.14024910998E+04 0.  0.
        5    1    3    3  502    0  0.74027032509E+02  0.11340133384E+03  0.12823757154E+04  0.12895151917E+04  0.46999998093E+01 0.  1.
       -5    1    3    3    0  502 -0.74027032509E+02 -0.11340133384E+03 -0.36299247467E+03  0.38746030858E+03  0.46999998093E+01 0. -1.
</event>
<event>
 5   0  0.4208622E-04  0.1390922E+04  0.7818609E-02  0.8960416E-01
        2   -1    0    0  501    0  0.00000000000E+00  0.00000000000E+00  0.27200274276E+04  0.27200274276E+04  0.25500000920E-02 0. -1.
       -2   -1    0    0    0  501  0.00000000000E+00  0.00000000000E+00 -0.17781657732E+03  0.17781657734E+03  0.25500000920E-02 0.  1.
    10030    2    1    2    0    0  0.00000000000E+00  0.00000000000E+00  0.25422108503E+04  0.28978440050E+04  0.13909219495E+04 0.  0.
        4    1    3    3  502    0  0.33304400801E+01 -0.67430934553E+03  0.91655926173E+03  0.11378869357E+04  0.12699999809E+01 0.  1.
       -4    1    3    3    0  502 -0.33304400801E+01  0.67430934553E+03  0.16256515886E+04  0.17599570693E+04  0.12699999809E+01 0. -1.
</event>
<event>
 5   0  0.4208622E-04  0.1401151E+04  0.7818609E-02  0.8952986E-01
        2   -1    0    0  501    0  0.00000000000E+00  0.00000000000E+00  0.59555332502E+03  0.59555332502E+03  0.25500000920E-02 0.  1.
       -2   -1    0    0    0  501  0.00000000000E+00  0.00000000000E+00 -0.82411724903E+03  0.82411724903E+03  0.25500000920E-02 0. -1.
    10030    2    1    2    0    0  0.00000000000E+00  0.00000000000E+00 -0.22856392401E+03  0.14196705741E+04  0.14011506241E+04 0.  0.
        4    1    3    3  502    0  0.36695850459E+03 -0.16008417999E+02 -0.71873177398E+03  0.80715041310E+03  0.12699999809E+01 0. -1.
       -4    1    3    3    0  502 -0.36695850459E+03  0.16008417999E+02  0.49016784997E+03  0.61252016096E+03  0.12699999809E+01 0.  1.
</event>
<event>
 5   0  0.3932568E-04  0.1448745E+04  0.7818609E-02  0.8919271E-01
       -2   -1    0    0    0  501  0.00000000000E+00  0.00000000000E+00  0.20243454751E+03  0.20243454752E+03  0.25500000920E-02 0.  1.
        2   -1    0    0  501    0  0.00000000000E+00  0.00000000000E+00 -0.25920262149E+04  0.25920262149E+04  0.25500000920E-02 0. -1.
    10030    2    1    2    0    0  0.00000000000E+00  0.00000000000E+00 -0.23895916674E+04  0.27944607624E+04  0.14487451867E+04 0.  0.
        2    1    3    3  502    0  0.49123483166E+03 -0.53200597375E+03 -0.12320806097E+04  0.14291132372E+04  0.25500000920E-02 0.  1.
       -2    1    3    3    0  502 -0.49123483166E+03  0.53200597375E+03 -0.11575110577E+04  0.13653475252E+04  0.25500000920E-02 0. -1.
</event>
<event>
 5   0  0.2217251E-04  0.1399500E+04  0.7818609E-02  0.8954181E-01
        1   -1    0    0  501    0  0.00000000000E+00  0.00000000000E+00  0.97775700181E+03  0.97775700183E+03  0.50400001928E-02 0. -1.
       -1   -1    0    0    0  501  0.00000000000E+00  0.00000000000E+00 -0.50078884630E+03  0.50078884633E+03  0.50400001928E-02 0.  1.
    10030    2    1    2    0    0  0.00000000000E+00  0.00000000000E+00  0.47696815551E+03  0.14785458482E+04  0.13994996262E+04 0.  0.
        5    1    3    3  502    0  0.64246557268E+03 -0.26231635954E+02 -0.53107954439E+02  0.64520745162E+03  0.46999998093E+01 0.  1.
       -5    1    3    3    0  502 -0.64246557268E+03  0.26231635954E+02  0.53007610995E+03  0.83333839654E+03  0.46999998093E+01 0. -1.
</event>
<event>
 5   0  0.3917598E-04  0.1392039E+04  0.7818609E-02  0.8959601E-01
       -2   -1    0    0    0  501  0.00000000000E+00  0.00000000000E+00  0.30624110840E+03  0.30624110841E+03  0.25500000920E-02 0.  1.
        2   -1    0    0  501    0  0.00000000000E+00  0.00000000000E+00 -0.15819016863E+04  0.15819016863E+04  0.25500000920E-02 0. -1.
    10030    2    1    2    0    0  0.00000000000E+00  0.00000000000E+00 -0.12756605779E+04  0.18881427947E+04  0.13920392606E+04 0.  0.
        3    1    3    3  502    0  0.64704056326E+03 -0.25073617807E+03 -0.71103989357E+03  0.99353302006E+03  0.10100000352E+00 0. -1.
       -3    1    3    3    0  502 -0.64704056326E+03  0.25073617807E+03 -0.56462068428E+03  0.89460977461E+03  0.10100000352E+00 0.  1.
</event>
<event>
 5   0  0.1497625E-04  0.1381249E+04  0.7818609E-02  0.8967504E-01
       -3   -1    0    0    0  501  0.00000000000E+00  0.00000000000E+00  0.35700507403E+03  0.35700508832E+03  0.10100000352E+00 0. -1.
        3   -1    0    0  501    0  0.00000000000E+00  0.00000000000E+00 -0.13360093468E+04  0.13360093506E+04  0.10100000352E+00 0.  1.
    10030    2    1    2    0    0  0.00000000000E+00  0.00000000000E+00 -0.97900427278E+03  0.16930144390E+04  0.13812489002E+04 0.  0.
        1    1    3    3  502    0  0.21824741859E+03  0.37545913659E+03  0.16869608018E+03  0.46589684101E+03  0.50400001928E-02 0. -1.
       -1    1    3    3    0  502 -0.21824741859E+03 -0.37545913659E+03 -0.11477003530E+04  0.12271175979E+04  0.50400001928E-02 0.  1.
</event>
<event>
 5   0  0.2215876E-04  0.1402225E+04  0.7818609E-02  0.8952209E-01
       -1   -1    0    0    0  501  0.00000000000E+00  0.00000000000E+00  0.26487859594E+03  0.26487859598E+03  0.50400001928E-02 0.  1.
        1   -1    0    0  501    0  0.00000000000E+00  0.00000000000E+00 -0.18557896989E+04  0.18557896989E+04  0.50400001928E-02 0. -1.
    10030    2    1    2    0    0  0.00000000000E+00  0.00000000000E+00 -0.15909111030E+04  0.21206682949E+04  0.14022253312E+04 0.  0.
        3    1    3    3  502    0  0.26614107743E+03 -0.62549863510E+03 -0.10551208071E+04  0.12551332771E+04  0.10100000352E+00 0. -1.
       -3    1    3    3    0  502 -0.26614107743E+03  0.62549863510E+03 -0.53579029587E+03  0.86553501775E+03  0.10100000352E+00 0.  1.
</event>
<event>
 5   0  0.1497625E-04  0.1397958E+04  0.7818609E-02  0.8955298E-01
       -3   -1    0    0    0  501  0.00000000000E+00  0.00000000000E+00  0.75197546859E+03  0.75197547537E+03  0.10100000352E+00 0.  1.
        3   -1    0    0  501    0  0.00000000000E+00  0.00000000000E+00 -0.64971731357E+03  0.64971732142E+03  0.10100000352E+00 0. -1.
    10030    2    1    2    0    0  0.00000000000E+00  0.00000000000E+00  0.10225815502E+03  0.14016927968E+04  0.13979577842E+04 0.  0.
        3    1    3    3  502    0  0.13269421187E+03  0.43786582601E+02 -0.63557040069E+03  0.65074938580E+03  0.10100000352E+00 0. -1.
       -3    1    3    3    0  502 -0.13269421187E+03 -0.43786582601E+02  0.73782855572E+03  0.75094341099E+03  0.10100000352E+00 0.  1.
</event>
<event>
 5   0  0.4208622E-04  0.1401166E+04  0.7818609E-02  0.8952975E-01
       -2   -1    0    0    0  501  0.00000000000E+00  0.00000000000E+00  0.43265661603E+03  0.43265661604E+03  0.25500000920E-02 0. -1.
        2   -1    0    0  501    0  0.00000000000E+00  0.00000000000E+00 -0.11344248963E+04  0.11344248963E+04  0.25500000920E-02 0.  1.
    10030    2    1    2    0    0  0.00000000000E+00  0.00000000000E+00 -0.70176828029E+03  0.15670815124E+04  0.14011658528E+04 0.  0.
        4    1    3    3  502    0 -0.90206841348E+01 -0.57045274402E+03 -0.80562183406E+03  0.98718076274E+03  0.12699999809E+01 0.  1.
       -4    1    3    3    0  502  0.90206841348E+01  0.57045274402E+03  0.10385355377E+03  0.57990074963E+03  0.12699999809E+01 0. -1.
</event>
<event>
 5   0  0.2143942E-04  0.1406098E+04  0.7818609E-02  0.8949416E-01
       -1   -1    0    0    0  501  0.00000000000E+00  0.00000000000E+00  0.30738071518E+03  0.30738071522E+03  0.50400001928E-02 0.  1.
        1   -1    0    0  501    0  0.00000000000E+00  0.00000000000E+00 -0.16080326849E+04  0.16080326849E+04  0.50400001928E-02 0. -1.
    10030    2    1    2    0    0  0.00000000000E+00  0.00000000000E+00 -0.13006519697E+04  0.19154134001E+04  0.14060984841E+04 0.  0.
        4    1    3    3  502    0 -0.27072260519E+03  0.36831258356E+03  0.77322820186E+02  0.46360038783E+03  0.12699999809E+01 0.  1.
       -4    1    3    3    0  502  0.27072260519E+03 -0.36831258356E+03 -0.13779747899E+04  0.14518130123E+04  0.12699999809E+01 0. -1.
</event>
<event>
 5   0  0.2215876E-04  0.1403459E+04  0.7818609E-02  0.8951319E-01
       -1   -1    0    0    0  501  0.00000000000E+00  0.00000000000E+00  0.21833632186E+03  0.21833632192E+03  0.50400001928E-02 0. -1.
        1   -1    0    0  501    0  0.00000000000E+00  0.00000000000E+00 -0.22553465689E+04  0.22553465689E+04  0.50400001928E-02 0.  1.
    10030    2    1    2    0    0  0.00000000000E+00  0.00000000000E+00 -0.20370102470E+04  0.24736828908E+04  0.14034586912E+04 0.  0.
        3    1    3    3  502    0 -0.28193175489E+03  0.50985092818E+03 -0.32909645836E+03  0.66913225336E+03  0.10100000352E+00 0.  1.
       -3    1    3    3    0  502  0.28193175489E+03 -0.50985092818E+03 -0.17079137887E+04  0.18045506375E+04  0.10100000352E+00 0. -1.
</event>
<event>
 5   0  0.3932568E-04  0.1398739E+04  0.7818609E-02  0.8954732E-01
        2   -1    0    0  501    0  0.00000000000E+00  0.00000000000E+00  0.84935279970E+03  0.84935279971E+03  0.25500000920E-02 0.  1.
       -2   -1    0    0    0  501  0.00000000000E+00  0.00000000000E+00 -0.57587133136E+03  0.57587133137E+03  0.25500000920E-02 0. -1.
    10030    2    1    2    0    0  0.00000000000E+00  0.00000000000E+00  0.27348146834E+03  0.14252241311E+04  0.13987393289E+04 0.  0.
        2    1    3    3  502    0 -0.53849613143E+03 -0.30174083805E+01  0.59143087112E+03  0.79986102771E+03  0.25500000920E-02 0.  1.
       -2    1    3    3    0  502  0.53849613143E+03  0.30174083805E+01 -0.31794940279E+03  0.62536310337E+03  0.25500000920E-02 0. -1.
</event>
<event>
 5   0  0.2215876E-04  0.1398931E+04  0.7818609E-02  0.8954593E-01
       -1   -1    0    0    0  501  0.00000000000E+00  0.00000000000E+00  0.78141846538E+03  0.78141846540E+03  0.50400001928E-02 0.  1.
        1   -1    0    0  501    0  0.00000000000E+00  0.00000000000E+00 -0.62610759111E+03  0.62610759113E+03  0.50400001928E-02 0. -1.
    10030    2    1    2    0    0  0.00000000000E+00  0.00000000000E+00  0.15531087427E+03  0.14075260565E+04  0.13989310677E+04 0.  0.
        3    1    3    3  502    0 -0.40116622735E+03 -0.24486057009E+03  0.59887392805E+03  0.76127592412E+03  0.10100000352E+00 0.  1.
       -3    1    3    3    0  502  0.40116622735E+03  0.24486057009E+03 -0.44356305377E+03  0.64625013240E+03  0.10100000352E+00 0. -1.
</event>
<event>
 5   0  0.4310348E-04  0.1396832E+04  0.7818609E-02  0.8956115E-01
        2   -1    0    0  501    0  0.00000000000E+00  0.00000000000E+00  0.11639469005E+04  0.11639469005E+04  0.25500000920E-02 0.  1.
       -2   -1    0    0    0  501  0.00000000000E+00  0.00000000000E+00 -0.41907852156E+03  0.41907852157E+03  0.25500000920E-02 0. -1.
    10030    2    1    2    0    0  0.00000000000E+00  0.00000000000E+00  0.74486837894E+03  0.15830254221E+04  0.13968323396E+04 0.  0.
        1    1    3    3  502    0 -0.28647924432E+03  0.21167217141E+03 -0.30840237824E+03  0.47115548655E+03  0.50400001928E-02 0. -1.
       -1    1    3    3    0  502  0.28647924432E+03 -0.21167217141E+03  0.10532707572E+04  0.11118699355E+04  0.50400001928E-02 0.  1.
</event>
<event>
 5   0  0.4310348E-04  0.1401088E+04  0.7818609E-02  0.8953031E-01
       -2   -1    0    0    0  501  0.00000000000E+00  0.00000000000E+00  0.62442477952E+03  0.62442477953E+03  0.25500000920E-02 0.  1.
        2   -1    0    0  501    0  0.00000000000E+00  0.00000000000E+00 -0.78594290368E+03  0.78594290369E+03  0.25500000920E-02 0. -1.
    10030    2    1    2    0    0  0.00000000000E+00  0.00000000000E+00 -0.16151812416E+03  0.14103676832E+04  0.14010884688E+04 0.  0.
        1    1    3    3  502    0 -0.60322692048E+03  0.13746040317E+03  0.25002668235E+03  0.66730159744E+03  0.50400001928E-02 0.  1.
       -1    1    3    3    0  502  0.60322692048E+03 -0.13746040317E+03 -0.41154480651E+03  0.74306608577E+03  0.50400001928E-02 0. -1.
</event>
<event>
 5   0  0.3917598E-04  0.1397674E+04  0.7818609E-02  0.8955504E-01
       -2   -1    0    0    0  501  0.00000000000E+00  0.00000000000E+00  0.85313843007E+03  0.85313843007E+03  0.25500000920E-02 0. -1.
        2   -1    0    0  501    0  0.00000000000E+00  0.00000000000E+00 -0.57244315431E+03  0.57244315431E+03  0.25500000920E-02 0.  1.
    10030    2    1    2    0    0  0.00000000000E+00  0.00000000000E+00  0.28069527576E+03  0.14255815844E+04  0.13976741451E+04 0.  0.
        3    1    3    3  502    0  0.35611753461E+03  0.51808803732E+03 -0.17093175483E+03  0.65150025931E+03  0.10100000352E+00 0.  1.
       -3    1    3    3    0  502 -0.35611753461E+03 -0.51808803732E+03  0.45162703059E+03  0.77408132507E+03  0.10100000352E+00 0. -1.
</event>
<event>
 5   0  0.3917598E-04  0.1398108E+04  0.7818609E-02  0.8955189E-01
       -2   -1    0    0    0  501  0.00000000000E+00  0.00000000000E+00  0.25981245236E+03  0.25981245238E+03  0.25500000920E-02 0. -1.
        2   -1    0    0  501    0  0.00000000000E+00  0.00000000000E+00 -0.18808815479E+04  0.18808815479E+04  0.25500000920E-02 0.  1.
    10030    2    1    2    0    0  0.00000000000E+00  0.00000000000E+00 -0.16210690956E+04  0.21406940003E+04  0.13981079323E+04 0.  0.
        3    1    3    3  502    0 -0.55784159180E+03  0.32431721128E+03 -0.12222580822E+04  0.13821301403E+04  0.10100000352E+00 0.  1.
       -3    1    3    3    0  502  0.55784159180E+03 -0.32431721128E+03 -0.39881101334E+03  0.75856385997E+03  0.10100000352E+00 0. -1.
</event>
<event>
 5   0  0.3975164E-04  0.1408358E+04  0.7818609E-02  0.8947791E-01
       -2   -1    0    0    0  501  0.00000000000E+00  0.00000000000E+00  0.63449565633E+03  0.63449565633E+03  0.25500000920E-02 0. -1.
        2   -1    0    0  501    0  0.00000000000E+00  0.00000000000E+00 -0.78151543079E+03  0.78151543080E+03  0.25500000920E-02 0.  1.
    10030    2    1    2    0    0  0.00000000000E+00  0.00000000000E+00 -0.14701977447E+03  0.14160110871E+04  0.14083581167E+04 0.  0.
        5    1    3    3  502    0 -0.32205105837E+03  0.62041143065E+03  0.11915493206E+02  0.69913610725E+03  0.46999998093E+01 0. -1.
       -5    1    3    3    0  502  0.32205105837E+03 -0.62041143065E+03 -0.15893526767E+03  0.71687497989E+03  0.46999998093E+01 0.  1.
</event>
<event>
 5   0  0.2215876E-04  0.1401234E+04  0.7818609E-02  0.8952926E-01
       -1   -1    0    0    0  501  0.00000000000E+00  0.00000000000E+00  0.78222416315E+03  0.78222416317E+03  0.50400001928E-02 0. -1.
        1   -1    0    0  501    0  0.00000000000E+00  0.00000000000E+00 -0.62752383205E+03  0.62752383207E+03  0.50400001928E-02 0.  1.
    10030    2    1    2    0    0  0.00000000000E+00  0.00000000000E+00  0.15470033110E+03  0.14097479952E+04  0.14012341766E+04 0.  0.
        3    1    3    3  502    0 -0.69004173699E+03 -0.11176451130E+03  0.12470407123E+03  0.71007043338E+03  0.10100000352E+00 0. -1.
       -3    1    3    3    0  502  0.69004173699E+03  0.11176451130E+03  0.29996259864E+02  0.69967756187E+03  0.10100000352E+00 0.  1.
</event>
<event>
 5   0  0.2143942E-04  0.1386202E+04  0.7818609E-02  0.8963867E-01
       -1   -1    0    0    0  501  0.00000000000E+00  0.00000000000E+00  0.86193709367E+03  0.86193709369E+03  0.50400001928E-02 0.  1.
        1   -1    0    0  501    0  0.00000000000E+00  0.00000000000E+00 -0.55733654204E+03  0.55733654206E+03  0.50400001928E-02 0. -1.
    10030    2    1    2    0    0  0.00000000000E+00  0.00000000000E+00  0.30460055164E+03  0.14192736358E+04  0.13862020621E+04 0.  0.
        4    1    3    3  502    0  0.14376567554E+03  0.67139195317E+03  0.24917096866E+03  0.73042693596E+03  0.12699999809E+01 0. -1.
       -4    1    3    3    0  502 -0.14376567554E+03 -0.67139195317E+03  0.55429582976E+02  0.68884669979E+03  0.12699999809E+01 0.  1.
</event>
<event>
 5   0  0.4208622E-04  0.1419291E+04  0.7818609E-02  0.8939972E-01
       -2   -1    0    0    0  501  0.00000000000E+00  0.00000000000E+00  0.76513260351E+03  0.76513260352E+03  0.25500000920E-02 0.  1.
        2   -1    0    0  501    0  0.00000000000E+00  0.00000000000E+00 -0.65818265693E+03  0.65818265694E+03  0.25500000920E-02 0. -1.
    10030    2    1    2    0    0  0.00000000000E+00  0.00000000000E+00  0.10694994658E+03  0.14233152605E+04  0.14192913864E+04 0.  0.
        4    1    3    3  502    0 -0.41474308327E+02 -0.53558353675E+03  0.51849812604E+03  0.74660013575E+03  0.12699999809E+01 0.  1.
       -4    1    3    3    0  502  0.41474308327E+02  0.53558353675E+03 -0.41154817946E+03  0.67671512471E+03  0.12699999809E+01 0. -1.
</event>
<event>
 5   0  0.2215876E-04  0.1397341E+04  0.7818609E-02  0.8955745E-01
       -1   -1    0    0    0  501  0.00000000000E+00  0.00000000000E+00  0.56785445412E+03  0.56785445414E+03  0.50400001928E-02 0.  1.
        1   -1    0    0  501    0  0.00000000000E+00  0.00000000000E+00 -0.85962310946E+03  0.85962310947E+03  0.50400001928E-02 0. -1.
    10030    2    1    2    0    0  0.00000000000E+00  0.00000000000E+00 -0.29176865534E+03  0.14274775636E+04  0.13973414924E+04 0.  0.
        3    1    3    3  502    0 -0.19497310782E+03 -0.53763153533E+03  0.26411740032E+03  0.62993665706E+03  0.10100000352E+00 0.  1.
       -3    1    3    3    0  502  0.19497310782E+03  0.53763153533E+03 -0.55588605566E+03  0.79754090655E+03  0.10100000352E+00 0. -1.
</event>
<event>
 5   0  0.2155352E-04  0.1394658E+04  0.7818609E-02  0.8957694E-01
       -1   -1    0    0    0  501  0.00000000000E+00  0.00000000000E+00  0.86180698093E+03  0.86180698094E+03  0.50400001928E-02 0.  1.
        1   -1    0    0  501    0  0.00000000000E+00  0.00000000000E+00 -0.56424237819E+03  0.56424237821E+03  0.50400001928E-02 0. -1.
    10030    2    1    2    0    0  0.00000000000E+00  0.00000000000E+00  0.29756460274E+03  0.14260493592E+04  0.13946584105E+04 0.  0.
        2    1    3    3  502    0 -0.46900804806E+03 -0.36661291242E+02 -0.37754162408E+03  0.60320003095E+03  0.25500000920E-02 0. -1.
       -2    1    3    3    0  502  0.46900804806E+03  0.36661291242E+02  0.67510622682E+03  0.82284932820E+03  0.25500000920E-02 0.  1.
</event>
<event>
 5   0  0.2217251E-04  0.1402451E+04  0.7818609E-02  0.8952046E-01
       -1   -1    0    0    0  501  0.00000000000E+00  0.00000000000E+00  0.70753810494E+03  0.70753810496E+03  0.50400001928E-02 0. -1.
        1   -1    0    0  501    0  0.00000000000E+00  0.00000000000E+00 -0.69496955446E+03  0.69496955448E+03  0.50400001928E-02 0.  1.
    10030    2    1    2    0    0  0.00000000000E+00  0.00000000000E+00  0.12568550479E+02  0.14025076594E+04  0.14024513419E+04 0.  0.
        5    1    3    3  502    0 -0.22705368534E+03  0.46014432725E+03 -0.47165663979E+03  0.69697076968E+03  0.46999998093E+01 0.  1.
       -5    1    3    3    0  502  0.22705368534E+03 -0.46014432725E+03  0.48422519026E+03  0.70553688976E+03  0.46999998093E+01 0. -1.
</event>
<event>
 5   0  0.2215876E-04  0.1401791E+04  0.7818609E-02  0.8952523E-01
       -1   -1    0    0    0  501  0.00000000000E+00  0.00000000000E+00  0.42143053935E+03  0.42143053938E+03  0.50400001928E-02 0.  1.
        1   -1    0    0  501    0  0.00000000000E+00  0.00000000000E+00 -0.11656831414E+04  0.11656831414E+04  0.50400001928E-02 0. -1.
    10030    2    1    2    0    0  0.00000000000E+00  0.00000000000E+00 -0.74425260201E+03  0.15871136807E+04  0.14017909616E+04 0.  0.
        3    1    3    3  502    0 -0.32158864781E+03  0.46629494349E+03 -0.83950075204E+03  0.10127249161E+04  0.10100000352E+00 0. -1.
       -3    1    3    3    0  502  0.32158864781E+03 -0.46629494349E+03  0.95248150023E+02  0.57438876469E+03  0.10100000352E+00 0.  1.
</event>
<event>
 5   0  0.2217251E-04  0.1380423E+04  0.7818609E-02  0.8968112E-01
       -1   -1    0    0    0  501  0.00000000000E+00  0.00000000000E+00  0.28770184815E+03  0.28770184819E+03  0.50400001928E-02 0. -1.
        1   -1    0    0  501    0  0.00000000000E+00  0.00000000000E+00 -0.16558534535E+04  0.16558534535E+04  0.50400001928E-02 0.  1.
    10030    2    1    2    0    0  0.00000000000E+00  0.00000000000E+00 -0.13681516053E+04  0.19435553017E+04  0.13804232668E+04 0.  0.
        5    1    3    3  502    0 -0.22970823139E+03  0.54256122129E+03 -0.11902135813E+04  0.13280696554E+04  0.46999998093E+01 0.  1.
       -5    1    3    3    0  502  0.22970823139E+03 -0.54256122129E+03 -0.17793802403E+03  0.61548564630E+03  0.46999998093E+01 0. -1.
</event>
<event>
 5   0  0.2155352E-04  0.1398580E+04  0.7818609E-02  0.8954847E-01
        1   -1    0    0  501    0  0.00000000000E+00  0.00000000000E+00  0.89898789232E+03  0.89898789233E+03  0.50400001928E-02 0.  1.
       -1   -1    0    0    0  501  0.00000000000E+00  0.00000000000E+00 -0.54395196467E+03  0.54395196469E+03  0.50400001928E-02 0. -1.
    10030    2    1    2    0    0  0.00000000000E+00  0.00000000000E+00  0.35503592765E+03  0.14429398570E+04  0.13985796084E+04 0.  0.
        2    1    3    3  502    0  0.34776522082E+03  0.22390505217E+03  0.75925703527E+03  0.86460705919E+03  0.25500000920E-02 0.  1.
       -2    1    3    3    0  502 -0.34776522082E+03 -0.22390505217E+03 -0.40422110762E+03  0.57833279783E+03  0.25500000920E-02 0. -1.
</event>
<event>
 5   0  0.2155352E-04  0.1408549E+04  0.7818609E-02  0.8947653E-01
        1   -1    0    0  501    0  0.00000000000E+00  0.00000000000E+00  0.17326897381E+04  0.17326897381E+04  0.50400001928E-02 0.  1.
       -1   -1    0    0    0  501  0.00000000000E+00  0.00000000000E+00 -0.28626173041E+03  0.28626173045E+03  0.50400001928E-02 0. -1.
    10030    2    1    2    0    0  0.00000000000E+00  0.00000000000E+00  0.14464280077E+04  0.20189514686E+04  0.14085492718E+04 0.  0.
        2    1    3    3  502    0 -0.70184213972E+03  0.31141391258E+02  0.79416997276E+03  0.10603103890E+04  0.25500000920E-02 0. -1.
       -2    1    3    3    0  502  0.70184213972E+03 -0.31141391258E+02  0.65225803495E+03  0.95864107960E+03  0.25500000920E-02 0.  1.
</event>
<event>
 5   0  0.3975164E-04  0.1404490E+04  0.7818609E-02  0.8950575E-01
       -2   -1    0    0    0  501  0.00000000000E+00  0.00000000000E+00  0.29530002686E+03  0.29530002687E+03  0.25500000920E-02 0.  1.
        2   -1    0    0  501    0  0.00000000000E+00  0.00000000000E+00 -0.16699889713E+04  0.16699889713E+04  0.25500000920E-02 0. -1.
    10030    2    1    2    0    0  0.00000000000E+00  0.00000000000E+00 -0.13746889445E+04  0.19652889982E+04  0.14044896413E+04 0.  0.
        5    1    3    3  502    0 -0.24969780021E+03  0.74558761885E+02 -0.15998038697E+04  0.16208955895E+04  0.46999998093E+01 0. -1.
       -5    1    3    3    0  502  0.24969780021E+03 -0.74558761885E+02  0.22511492526E+03  0.34439340873E+03  0.46999998093E+01 0.  1.
</event>
<event>
 5   0  0.2215876E-04  0.1399190E+04  0.7818609E-02  0.8954405E-01
        1   -1    0    0  501    0  0.00000000000E+00  0.00000000000E+00  0.19675675654E+04  0.19675675654E+04  0.50400001928E-02 0. -1.
       -1   -1    0    0    0  501  0.00000000000E+00  0.00000000000E+00 -0.24875024256E+03  0.24875024261E+03  0.50400001928E-02 0.  1.
    10030    2    1    2    0    0  0.00000000000E+00  0.00000000000E+00  0.17188173229E+04  0.22163178080E+04  0.13991896358E+04 0.  0.
        3    1    3    3  502    0 -0.31294932870E+03 -0.60750178684E+03  0.62214034741E+03  0.92415059672E+03  0.10100000352E+00 0. -1.
       -3    1    3    3    0  502  0.31294932870E+03  0.60750178684E+03  0.10966769754E+04  0.12921672113E+04  0.10100000352E+00 0.  1.
</event>
<event>
 5   0  0.3975164E-04  0.1395615E+04  0.7818609E-02  0.8956999E-01
        2   -1    0    0  501    0  0.00000000000E+00  0.00000000000E+00  0.10176541385E+04  0.10176541385E+04  0.25500000920E-02 0.  1.
       -2   -1    0    0    0  501  0.00000000000E+00  0.00000000000E+00 -0.47848823811E+03  0.47848823812E+03  0.25500000920E-02 0. -1.
    10030    2    1    2    0    0  0.00000000000E+00  0.00000000000E+00  0.53916590040E+03  0.14961423766E+04  0.13956153277E+04 0.  0.
        5    1    3    3  502    0 -0.58305973201E+03 -0.18231868283E+03 -0.91923028545E+02  0.61779501970E+03  0.46999998093E+01 0. -1.
       -5    1    3    3    0  502  0.58305973201E+03  0.18231868283E+03  0.63108892894E+03  0.87834735693E+03  0.46999998093E+01 0.  1.
</event>
<event>
 5   0  0.2215876E-04  0.1404539E+04  0.7818609E-02  0.8950539E-01
        1   -1    0    0  501    0  0.00000000000E+00  0.00000000000E+00  0.12045334095E+04  0.12045334095E+04  0.50400001928E-02 0. -1.
       -1   -1    0    0    0  501  0.00000000000E+00  0.00000000000E+00 -0.40943865803E+03  0.40943865806E+03  0.50400001928E-02 0.  1.
    10030    2    1    2    0    0  0.00000000000E+00  0.00000000000E+00  0.79509475150E+03  0.16139720676E+04  0.14045391312E+04 0.  0.
        3    1    3    3  502    0 -0.42622955516E+02  0.61136108547E+03  0.79161629474E+03  0.10011171068E+04  0.10100000352E+00 0. -1.
       -3    1    3    3    0  502  0.42622955516E+02 -0.61136108547E+03  0.34784567557E+01  0.61285496084E+03  0.10100000352E+00 0.  1.
</event>
<event>
 5   0  0.4208622E-04  0.1404194E+04  0.7818609E-02  0.8950788E-01
        2   -1    0    0  501    0  0.00000000000E+00  0.00000000000E+00  0.98146033629E+03  0.98146033629E+03  0.25500000920E-02 0. -1.
       -2   -1    0    0    0  501  0.00000000000E+00  0.00000000000E+00 -0.50225171375E+03  0.50225171376E+03  0.25500000920E-02 0.  1.
    10030    2    1    2    0    0  0.00000000000E+00  0.00000000000E+00  0.47920862254E+03  0.14837120500E+04  0.14041939124E+04 0.  0.
        4    1    3    3  502    0  0.44728639939E+03  0.54117011244E+03  0.23655848482E+03  0.74087228543E+03  0.12699999809E+01 0.  1.
       -4    1    3    3    0  502 -0.44728639939E+03 -0.54117011244E+03  0.24265013771E+03  0.74283976462E+03  0.12699999809E+01 0. -1.
</event>
<event>
 5   0  0.2143942E-04  0.1400722E+04  0.7818609E-02  0.8953296E-01
       -1   -1    0    0    0  501  0.00000000000E+00  0.00000000000E+00  0.71501971937E+03  0.71501971938E+03  0.50400001928E-02 0. -1.
        1   -1    0    0  501    0  0.00000000000E+00  0.00000000000E+00 -0.68600282890E+03  0.68600282892E+03  0.50400001928E-02 0.  1.
    10030    2    1    2    0    0  0.00000000000E+00  0.00000000000E+00  0.29016890465E+02  0.14010225483E+04  0.14007220284E+04 0.  0.
        4    1    3    3  502    0  0.59559747854E+02 -0.69725363339E+03 -0.13674620653E+02  0.69992756839E+03  0.12699999809E+01 0.  1.
       -4    1    3    3    0  502 -0.59559747854E+02  0.69725363339E+03  0.42691511118E+02  0.70109497992E+03  0.12699999809E+01 0. -1.
</event>
<event>
 5   0  0.4208622E-04  0.1397522E+04  0.7818609E-02  0.8955614E-01
        2   -1    0    0  501    0  0.00000000000E+00  0.00000000000E+00  0.60323616070E+03  0.60323616071E+03  0.25500000920E-02 0. -1.
       -2   -1    0    0    0  501  0.00000000000E+00  0.00000000000E+00 -0.80941263154E+03  0.80941263154E+03  0.25500000920E-02 0.  1.
    10030    2    1    2    0    0  0.00000000000E+00  0.00000000000E+00 -0.20617647083E+03  0.14126487922E+04  0.13975220475E+04 0.  0.
        4    1    3    3  502    0 -0.32188501791E+03 -0.20919318991E+03 -0.69326887439E+03  0.79246141897E+03  0.12699999809E+01 0.  1.
       -4    1    3    3    0  502  0.32188501791E+03  0.20919318991E+03  0.48709240356E+03  0.62018737327E+03  0.12699999809E+01 0. -1.
</event>
<event>
 5   0  0.3932568E-04  0.1399797E+04  0.7818609E-02  0.8953966E-01
        2   -1    0    0  501    0  0.00000000000E+00  0.00000000000E+00  0.97294256323E+03  0.97294256324E+03  0.25500000920E-02 0. -1.
       -2   -1    0    0    0  501  0.00000000000E+00  0.00000000000E+00 -0.50348057532E+03  0.50348057532E+03  0.25500000920E-02 0.  1.
    10030    2    1    2    0    0  0.00000000000E+00  0.00000000000E+00  0.46946198792E+03  0.14764231386E+04  0.13997966731E+04 0.  0.
        2    1    3    3  502    0  0.84603896933E+02 -0.56763002499E+03  0.65728090556E+03  0.87257083006E+03  0.25500000920E-02 0. -1.
       -2    1    3    3    0  502 -0.84603896933E+02  0.56763002499E+03 -0.18781891764E+03  0.60385230850E+03  0.25500000920E-02 0.  1.
</event>
<event>
 5   0  0.2223112E-04  0.1411151E+04  0.7818609E-02  0.8945786E-01
        1   -1    0    0  501    0  0.00000000000E+00  0.00000000000E+00  0.13970076378E+04  0.13970076378E+04  0.50400001928E-02 0.  1.
       -1   -1    0    0    0  501  0.00000000000E+00  0.00000000000E+00 -0.35635920278E+03  0.35635920282E+03  0.50400001928E-02 0. -1.
    10030    2    1    2    0    0  0.00000000000E+00  0.00000000000E+00  0.10406484350E+04  0.17533668406E+04  0.14111506342E+04 0.  0.
        1    1    3    3  502    0 -0.29979434001E+03  0.35227990054E+03  0.11823128918E+04  0.12695832185E+04  0.50400001928E-02 0.  1.
       -1    1    3    3    0  502  0.29979434001E+03 -0.35227990054E+03 -0.14166445682E+03  0.48378362206E+03  0.50400001928E-02 0. -1.
</event>
<event>
 5   0  0.1497625E-04  0.1400119E+04  0.7818609E-02  0.8953733E-01
        3   -1    0    0  501    0  0.00000000000E+00  0.00000000000E+00  0.40490298724E+03  0.40490299984E+03  0.10100000352E+00 0.  1.
       -3   -1    0    0    0  501  0.00000000000E+00  0.00000000000E+00 -0.12103717534E+04  0.12103717576E+04  0.10100000352E+00 0. -1.
    10030    2    1    2    0    0  0.00000000000E+00  0.00000000000E+00 -0.80546876615E+03  0.16152747574E+04  0.14001187838E+04 0.  0.
        3    1    3    3  502    0  0.37674327579E+03 -0.15863084716E+03  0.25291546002E+03  0.48069271020E+03  0.10100000352E+00 0.  1.
       -3    1    3    3    0  502 -0.37674327579E+03  0.15863084716E+03 -0.10583842262E+04  0.11345820472E+04  0.10100000352E+00 0. -1.
</event>
<event>
 5   0  0.2223112E-04  0.1400619E+04  0.7818609E-02  0.8953371E-01
        1   -1    0    0  501    0  0.00000000000E+00  0.00000000000E+00  0.17912934949E+04  0.17912934949E+04  0.50400001928E-02 0.  1.
       -1   -1    0    0    0  501  0.00000000000E+00  0.00000000000E+00 -0.27378721790E+03  0.27378721795E+03  0.50400001928E-02 0. -1.
    10030    2    1    2    0    0  0.00000000000E+00  0.00000000000E+00  0.15175062770E+04  0.20650807129E+04  0.14006188096E+04 0.  0.
        1    1    3    3  502    0 -0.21005609733E+03 -0.22720821899E+02 -0.22567478460E+03  0.30914221356E+03  0.50400001928E-02 0. -1.
       -1    1    3    3    0  502  0.21005609733E+03  0.22720821899E+02  0.17431810616E+04  0.17559384993E+04  0.50400001928E-02 0.  1.
</event>
<event>
 5   0  0.3975164E-04  0.1404998E+04  0.7818609E-02  0.8950209E-01
       -2   -1    0    0    0  501  0.00000000000E+00  0.00000000000E+00  0.41113989498E+03  0.41113989499E+03  0.25500000920E-02 0. -1.
        2   -1    0    0  501    0  0.00000000000E+00  0.00000000000E+00 -0.12003331143E+04  0.12003331143E+04  0.25500000920E-02 0.  1.
    10030    2    1    2    0    0  0.00000000000E+00  0.00000000000E+00 -0.78919321932E+03  0.16114730093E+04  0.14049979794E+04 0.  0.
        5    1    3    3  502    0  0.44155304581E+03 -0.54636206866E+03 -0.39291945042E+03  0.80491514264E+03  0.46999998093E+01 0.  1.
       -5    1    3    3    0  502 -0.44155304581E+03  0.54636206866E+03 -0.39627376890E+03  0.80655786665E+03  0.46999998093E+01 0. -1.
</event>
<event>
 5   0  0.3917598E-04  0.1396521E+04  0.7818609E-02  0.8956341E-01
        2   -1    0    0  501    0  0.00000000000E+00  0.00000000000E+00  0.10989900577E+04  0.10989900577E+04  0.25500000920E-02 0. -1.
       -2   -1    0    0    0  501  0.00000000000E+00  0.00000000000E+00 -0.44365060099E+03  0.44365060100E+03  0.25500000920E-02 0.  1.
    10030    2    1    2    0    0  0.00000000000E+00  0.00000000000E+00  0.65533945672E+03  0.15426406587E+04  0.13965208192E+04 0.  0.
        3    1    3    3  502    0 -0.38020605714E+03  0.58544865077E+03  0.34550946678E+03  0.77889894750E+03  0.10100000352E+00 0. -1.
       -3    1    3    3    0  502  0.38020605714E+03 -0.58544865077E+03  0.30982998994E+03  0.76374171121E+03  0.10100000352E+00 0.  1.
</event>
<event>
 5   0  0.3975164E-04  0.1410108E+04  0.7818609E-02  0.8946534E-01
       -2   -1    0    0    0  501  0.00000000000E+00  0.00000000000E+00  0.42320795993E+03  0.42320795994E+03  0.25500000920E-02 0.  1.
        2   -1    0    0  501    0  0.00000000000E+00  0.00000000000E+00 -0.11746022201E+04  0.11746022201E+04  0.25500000920E-02 0. -1.
    10030    2    1    2    0    0  0.00000000000E+00  0.00000000000E+00 -0.75139426020E+03  0.15978101801E+04  0.14101078105E+04 0.  0.
        5    1    3    3  502    0  0.96647498278E+02  0.33221409997E+03 -0.10717747753E+04  0.11262460682E+04  0.46999998093E+01 0. -1.
       -5    1    3    3    0  502 -0.96647498278E+02 -0.33221409997E+03  0.32038051511E+03  0.47156411187E+03  0.46999998093E+01 0.  1.
</event>
<event>
 5   0  0.2155352E-04  0.1406874E+04  0.7818609E-02  0.8948858E-01
       -1   -1    0    0    0  501  0.00000000000E+00  0.00000000000E+00  0.14772148101E+04  0.14772148101E+04  0.50400001928E-02 0.  1.
        1   -1    0    0  501    0  0.00000000000E+00  0.00000000000E+00 -0.33497062641E+03  0.33497062645E+03  0.50400001928E-02 0. -1.
    10030    2    1    2    0    0  0.00000000000E+00  0.00000000000E+00  0.11422441837E+04  0.18121854365E+04  0.14068739394E+04 0.  0.
        2    1    3    3  502    0 -0.34886674533E+03  0.15885766040E+03 -0.18861278155E+03  0.42722189040E+03  0.25500000920E-02 0. -1.
       -2    1    3    3    0  502  0.34886674533E+03 -0.15885766040E+03  0.13308569652E+04  0.13849635461E+04  0.25500000920E-02 0.  1.
</event>
<event>
 5   0  0.4208622E-04  0.1395672E+04  0.7818609E-02  0.8956957E-01
        2   -1    0    0  501    0  0.00000000000E+00  0.00000000000E+00  0.51757555495E+03  0.51757555496E+03  0.25500000920E-02 0. -1.
       -2   -1    0    0    0  501  0.00000000000E+00  0.00000000000E+00 -0.94087706324E+03  0.94087706325E+03  0.25500000920E-02 0.  1.
    10030    2    1    2    0    0  0.00000000000E+00  0.00000000000E+00 -0.42330150829E+03  0.14584526182E+04  0.13956718356E+04 0.  0.
        4    1    3    3  502    0  0.48454623432E+03 -0.40804627252E+03  0.94239272275E+02  0.64044474161E+03  0.12699999809E+01 0.  1.
       -4    1    3    3    0  502 -0.48454623432E+03  0.40804627252E+03 -0.51754078057E+03  0.81800787659E+03  0.12699999809E+01 0. -1.
</event>
<event>
 5   0  0.2223112E-04  0.1395106E+04  0.7818609E-02  0.8957368E-01
        1   -1    0    0  501    0  0.00000000000E+00  0.00000000000E+00  0.14665926381E+04  0.14665926381E+04  0.50400001928E-02 0.  1.
       -1   -1    0    0    0  501  0.00000000000E+00  0.00000000000E+00 -0.33177613075E+03  0.33177613079E+03  0.50400001928E-02 0. -1.
    10030    2    1    2    0    0  0.00000000000E+00  0.00000000000E+00  0.11348165074E+04  0.17983687689E+04  0.13951063485E+04 0.  0.
        1    1    3    3  502    0  0.63179758581E+02 -0.65012794429E+03  0.88295670627E+03  0.10983034968E+04  0.50400001928E-02 0.  1.
       -1    1    3    3    0  502 -0.63179758581E+02  0.65012794429E+03  0.25185980111E+03  0.70006527216E+03  0.50400001928E-02 0. -1.
</event>
<event>
 5   0  0.3917598E-04  0.1394062E+04  0.7818609E-02  0.8958128E-01
        2   -1    0    0  501    0  0.00000000000E+00  0.00000000000E+00  0.88332015051E+03  0.88332015052E+03  0.25500000920E-02 0. -1.
       -2   -1    0    0    0  501  0.00000000000E+00  0.00000000000E+00 -0.55002977181E+03  0.55002977181E+03  0.25500000920E-02 0.  1.
    10030    2    1    2    0    0  0.00000000000E+00  0.00000000000E+00  0.33329037871E+03  0.14333499223E+04  0.13940622380E+04 0.  0.
        3    1    3    3  502    0 -0.12610253279E+03 -0.61223309853E+03  0.48375422818E+03  0.79041089263E+03  0.10100000352E+00 0. -1.
       -3    1    3    3    0  502  0.12610253279E+03  0.61223309853E+03 -0.15046384947E+03  0.64293902970E+03  0.10100000352E+00 0.  1.
</event>
<event>
 5   0  0.2223112E-04  0.1401597E+04  0.7818609E-02  0.8952664E-01
       -1   -1    0    0    0  501  0.00000000000E+00  0.00000000000E+00  0.62789863254E+03  0.62789863256E+03  0.50400001928E-02 0.  1.
        1   -1    0    0  501    0  0.00000000000E+00  0.00000000000E+00 -0.78216169875E+03  0.78216169877E+03  0.50400001928E-02 0. -1.
    10030    2    1    2    0    0  0.00000000000E+00  0.00000000000E+00 -0.15426306621E+03  0.14100603313E+04  0.14015966054E+04 0.  0.
        1    1    3    3  502    0 -0.45624363352E+03 -0.23527435161E+03 -0.55709314054E+03  0.75753880489E+03  0.50400001928E-02 0. -1.
       -1    1    3    3    0  502  0.45624363352E+03  0.23527435161E+03  0.40283007433E+03  0.65252152644E+03  0.50400001928E-02 0.  1.
</event>
<event>
 5   0  0.3975164E-04  0.1398334E+04  0.7818609E-02  0.8955026E-01
       -2   -1    0    0    0  501  0.00000000000E+00  0.00000000000E+00  0.50845418886E+03  0.50845418887E+03  0.25500000920E-02 0.  1.
        2   -1    0    0  501    0  0.00000000000E+00  0.00000000000E+00 -0.96141262993E+03  0.96141262993E+03  0.25500000920E-02 0. -1.
    10030    2    1    2    0    0  0.00000000000E+00  0.00000000000E+00 -0.45295844106E+03  0.14698668188E+04  0.13983336925E+04 0.  0.
        5    1    3    3  502    0  0.65610610615E+03 -0.38126438265E+02 -0.47718232546E+03  0.81219080859E+03  0.46999998093E+01 0. -1.
       -5    1    3    3    0  502 -0.65610610615E+03  0.38126438265E+02  0.24223884398E+02  0.65767601021E+03  0.46999998093E+01 0.  1.
</event>
<event>
 5   0  0.1497625E-04  0.1401107E+04  0.7818609E-02  0.8953018E-01
        3   -1    0    0  501    0  0.00000000000E+00  0.00000000000E+00  0.14477581897E+04  0.14477581932E+04  0.10100000352E+00 0.  1.
       -3   -1    0    0    0  501  0.00000000000E+00  0.00000000000E+00 -0.33898982716E+03  0.33898984220E+03  0.10100000352E+00 0. -1.
    10030    2    1    2    0    0  0.00000000000E+00  0.00000000000E+00  0.11087683625E+04  0.17867480354E+04  0.14011071552E+04 0.  0.
        5    1    3    3  502    0 -0.59540106724E+03 -0.24800647826E+02  0.84729122927E+02  0.60192907994E+03  0.46999998093E+01 0. -1.
       -5    1    3    3    0  502  0.59540106724E+03  0.24800647826E+02  0.10240392396E+04  0.11848189554E+04  0.46999998093E+01 0.  1.
</event>
<event>
 5   0  0.2143942E-04  0.1401329E+04  0.7818609E-02  0.8952857E-01
        1   -1    0    0  501    0  0.00000000000E+00  0.00000000000E+00  0.10313257406E+04  0.10313257406E+04  0.50400001928E-02 0.  1.
       -1   -1    0    0    0  501  0.00000000000E+00  0.00000000000E+00 -0.47601916013E+03  0.47601916016E+03  0.50400001928E-02 0. -1.
    10030    2    1    2    0    0  0.00000000000E+00  0.00000000000E+00  0.55530658044E+03  0.15073449007E+04  0.14013291018E+04 0.  0.
        4    1    3    3  502    0 -0.18199550838E+03  0.41024634396E+03 -0.30110917572E+03  0.54045608185E+03  0.12699999809E+01 0. -1.
       -4    1    3    3    0  502  0.18199550838E+03 -0.41024634396E+03  0.85641575615E+03  0.96688881889E+03  0.12699999809E+01 0.  1.
</event>
<event>
 5   0  0.3932568E-04  0.1403354E+04  0.7818609E-02  0.8951394E-01
        2   -1    0    0  501    0  0.00000000000E+00  0.00000000000E+00  0.79332679453E+03  0.79332679453E+03  0.25500000920E-02 0.  1.
       -2   -1    0    0    0  501  0.00000000000E+00  0.00000000000E+00 -0.62061529594E+03  0.62061529595E+03  0.25500000920E-02 0. -1.
    10030    2    1    2    0    0  0.00000000000E+00  0.00000000000E+00  0.17271149859E+03  0.14139420905E+04  0.14033541868E+04 0.  0.
        2    1    3    3  502    0  0.56374628708E+03 -0.39720298506E+03 -0.44122869677E+02  0.69103322292E+03  0.25500000920E-02 0. -1.
       -2    1    3    3    0  502 -0.56374628708E+03  0.39720298506E+03  0.21683436827E+03  0.72290886757E+03  0.25500000920E-02 0.  1.
</event>
<event>
 5   0  0.3917598E-04  0.1383782E+04  0.7818609E-02  0.8965642E-01
       -2   -1    0    0    0  501  0.00000000000E+00  0.00000000000E+00  0.33148722623E+03  0.33148722624E+03  0.25500000920E-02 0. -1.
        2   -1    0    0  501    0  0.00000000000E+00  0.00000000000E+00 -0.14441372059E+04  0.14441372059E+04  0.25500000920E-02 0.  1.
    10030    2    1    2    0    0  0.00000000000E+00  0.00000000000E+00 -0.11126499797E+04  0.17756244322E+04  0.13837818278E+04 0.  0.
        3    1    3    3  502    0 -0.47408428784E+03  0.40127288140E+03 -0.94750644320E+03  0.11329361445E+04  0.10100000352E+00 0.  1.
       -3    1    3    3    0  502  0.47408428784E+03 -0.40127288140E+03 -0.16514353651E+03  0.64268828772E+03  0.10100000352E+00 0. -1.
</event>
<event>
 5   0  0.2217251E-04  0.1397807E+04  0.7818609E-02  0.8955408E-01
        1   -1    0    0  501    0  0.00000000000E+00  0.00000000000E+00  0.85228384047E+03  0.85228384049E+03  0.50400001928E-02 0. -1.
       -1   -1    0    0    0  501  0.00000000000E+00  0.00000000000E+00 -0.57312580344E+03  0.57312580347E+03  0.50400001928E-02 0.  1.
    10030    2    1    2    0    0  0.00000000000E+00  0.00000000000E+00  0.27915803703E+03  0.14254096440E+04  0.13978066545E+04 0.  0.
        5    1    3    3  502    0  0.51614023011E+03  0.26957535173E+03  0.53369806621E+03  0.78989070337E+03  0.46999998093E+01 0. -1.
       -5    1    3    3    0  502 -0.51614023011E+03 -0.26957535173E+03 -0.25454002918E+03  0.63551894059E+03  0.46999998093E+01 0.  1.
</event>
<event>
 5   0  0.1497625E-04  0.1401627E+04  0.7818609E-02  0.8952642E-01
       -4   -1    0    0    0  501  0.00000000000E+00  0.00000000000E+00  0.10609718783E+04  0.10609726384E+04  0.12699999809E+01 0. -1.
        4   -1    0    0  501    0  0.00000000000E+00  0.00000000000E+00 -0.46291280705E+03  0.46291454917E+03  0.12699999809E+01 0.  1.
    10030    2    1    2    0    0  0.00000000000E+00  0.00000000000E+00  0.59805907123E+03  0.15238871876E+04  0.14016267362E+04 0.  0.
        5    1    3    3  502    0  0.63436643333E+03 -0.16548279531E+03  0.29818385687E+02  0.65628999185E+03  0.46999998093E+01 0.  1.
       -5    1    3    3    0  502 -0.63436643333E+03  0.16548279531E+03  0.56824068554E+03  0.86759719570E+03  0.46999998093E+01 0. -1.
</event>
<event>
 5   0  0.4310348E-04  0.1396053E+04  0.7818609E-02  0.8956681E-01
       -2   -1    0    0    0  501  0.00000000000E+00  0.00000000000E+00  0.80238604275E+03  0.80238604275E+03  0.25500000920E-02 0.  1.
        2   -1    0    0  501    0  0.00000000000E+00  0.00000000000E+00 -0.60723987552E+03  0.60723987553E+03  0.25500000920E-02 0. -1.
    10030    2    1    2    0    0  0.00000000000E+00  0.00000000000E+00  0.19514616723E+03  0.14096259183E+04  0.13960527221E+04 0.  0.
        1    1    3    3  502    0 -0.13966407722E+03  0.45066728940E+02 -0.59148672256E+03  0.60942071470E+03  0.50400001928E-02 0. -1.
       -1    1    3    3    0  502  0.13966407722E+03 -0.45066728940E+02  0.78663288978E+03  0.80020520358E+03  0.50400001928E-02 0.  1.
</event>
<event>
 5   0  0.3932568E-04  0.1404323E+04  0.7818609E-02  0.8950695E-01
       -2   -1    0    0    0  501  0.00000000000E+00  0.00000000000E+00  0.56036143917E+03  0.56036143917E+03  0.25500000920E-02 0.  1.
        2   -1    0    0  501    0  0.00000000000E+00  0.00000000000E+00 -0.87984482013E+03  0.87984482014E+03  0.25500000920E-02 0. -1.
    10030    2    1    2    0    0  0.00000000000E+00  0.00000000000E+00 -0.31948338096E+03  0.14402062593E+04  0.14043234808E+04 0.  0.
        2    1    3    3  502    0 -0.26251141391E+03 -0.55327248050E+03  0.19255945239E+03  0.64195157358E+03  0.25500000920E-02 0.  1.
       -2    1    3    3    0  502  0.26251141391E+03  0.55327248050E+03 -0.51204283335E+03  0.79825468573E+03  0.25500000920E-02 0. -1.
</event>
<event>
 5   0  0.2155352E-04  0.1400212E+04  0.7818609E-02  0.8953665E-01
       -1   -1    0    0    0  501  0.00000000000E+00  0.00000000000E+00  0.34703733467E+03  0.34703733471E+03  0.50400001928E-02 0. -1.
        1   -1    0    0  501    0  0.00000000000E+00  0.00000000000E+00 -0.14123804306E+04  0.14123804306E+04  0.50400001928E-02 0.  1.
    10030    2    1    2    0    0  0.00000000000E+00  0.00000000000E+00 -0.10653430959E+04  0.17594177653E+04  0.14002124699E+04 0.  0.
        2    1    3    3  502    0  0.43000237609E+03 -0.53015708162E+03 -0.33728049785E+03  0.76139786503E+03  0.25500000920E-02 0. -1.
       -2    1    3    3    0  502 -0.43000237609E+03  0.53015708162E+03 -0.72806259806E+03  0.99801990026E+03  0.25500000920E-02 0.  1.
</event>
<event>
 5   0  0.3932568E-04  0.1398161E+04  0.7818609E-02  0.8955151E-01
        2   -1    0    0  501    0  0.00000000000E+00  0.00000000000E+00  0.58207976308E+03  0.58207976309E+03  0.25500000920E-02 0. -1.
       -2   -1    0    0    0  501  0.00000000000E+00  0.00000000000E+00 -0.83959911233E+03  0.83959911234E+03  0.25500000920E-02 0.  1.
    10030    2    1    2    0    0  0.00000000000E+00  0.00000000000E+00 -0.25751934925E+03  0.14216788754E+04  0.13981611529E+04 0.  0.
        2    1    3    3  502    0 -0.37152755544E+03  0.14834129625E+03  0.45418606845E+03  0.60524610648E+03  0.25500000920E-02 0. -1.
       -2    1    3    3    0  502  0.37152755544E+03 -0.14834129625E+03 -0.71170541770E+03  0.81643276895E+03  0.25500000920E-02 0.  1.
</event>
<event>
 5   0  0.3975164E-04  0.1401392E+04  0.7818609E-02  0.8952812E-01
       -2   -1    0    0    0  501  0.00000000000E+00  0.00000000000E+00  0.34089316501E+03  0.34089316502E+03  0.25500000920E-02 0.  1.
        2   -1    0    0  501    0  0.00000000000E+00  0.00000000000E+00 -0.14402593162E+04  0.14402593162E+04  0.25500000920E-02 0. -1.
    10030    2    1    2    0    0  0.00000000000E+00  0.00000000000E+00 -0.10993661512E+04  0.17811524812E+04  0.14013915324E+04 0.  0.
        5    1    3    3  502    0 -0.11553445472E+03  0.45129561770E+03 -0.12149050393E+04  0.13011657424E+04  0.46999998093E+01 0. -1.
       -5    1    3    3    0  502  0.11553445472E+03 -0.45129561770E+03  0.11553888808E+03  0.47998673882E+03  0.46999998093E+01 0.  1.
</event>
<event>
 5   0  0.4208622E-04  0.1398053E+04  0.7818609E-02  0.8955229E-01
       -2   -1    0    0    0  501  0.00000000000E+00  0.00000000000E+00  0.46472307876E+03  0.46472307877E+03  0.25500000920E-02 0.  1.
        2   -1    0    0  501    0  0.00000000000E+00  0.00000000000E+00 -0.10514607677E+04  0.10514607677E+04  0.25500000920E-02 0. -1.
    10030    2    1    2    0    0  0.00000000000E+00  0.00000000000E+00 -0.58673768895E+03  0.15161838465E+04  0.13980530536E+04 0.  0.
        4    1    3    3  502    0  0.42548560427E+02 -0.68522557232E+03 -0.15075853636E+03  0.70290412870E+03  0.12699999809E+01 0.  1.
       -4    1    3    3    0  502 -0.42548560427E+02  0.68522557232E+03 -0.43597915259E+03  0.81327971778E+03  0.12699999809E+01 0. -1.
</event>
<event>
 5   0  0.3932568E-04  0.1403453E+04  0.7818609E-02  0.8951323E-01
        2   -1    0    0  501    0  0.00000000000E+00  0.00000000000E+00  0.87220799680E+03  0.87220799680E+03  0.25500000920E-02 0. -1.
       -2   -1    0    0    0  501  0.00000000000E+00  0.00000000000E+00 -0.56456765231E+03  0.56456765232E+03  0.25500000920E-02 0.  1.
    10030    2    1    2    0    0  0.00000000000E+00  0.00000000000E+00  0.30764034448E+03  0.14367756491E+04  0.14034534849E+04 0.  0.
        2    1    3    3  502    0  0.42590095835E+03 -0.55752547916E+03  0.13955612779E+03  0.71533362779E+03  0.25500000920E-02 0. -1.
       -2    1    3    3    0  502 -0.42590095835E+03  0.55752547916E+03  0.16808421669E+03  0.72144202133E+03  0.25500000920E-02 0.  1.
</event>
<event>
 5   0  0.1497625E-04  0.1401199E+04  0.7818609E-02  0.8952951E-01
       -4   -1    0    0    0  501  0.00000000000E+00  0.00000000000E+00  0.37484513713E+03  0.37484728855E+03  0.12699999809E+01 0. -1.
        4   -1    0    0  501    0  0.00000000000E+00  0.00000000000E+00 -0.13094402588E+04  0.13094408747E+04  0.12699999809E+01 0.  1.
    10030    2    1    2    0    0  0.00000000000E+00  0.00000000000E+00 -0.93459512165E+03  0.16842881632E+04  0.14011989778E+04 0.  0.
        4    1    3    3  502    0  0.53830813207E+03 -0.11393777629E+03  0.54003429219E+02  0.55287923201E+03  0.12699999809E+01 0. -1.
       -4    1    3    3    0  502 -0.53830813207E+03  0.11393777629E+03 -0.98859855087E+03  0.11314089312E+04  0.12699999809E+01 0.  1.
</event>
<event>
 5   0  0.2223112E-04  0.1404334E+04  0.7818609E-02  0.8950688E-01
       -1   -1    0    0    0  501  0.00000000000E+00  0.00000000000E+00  0.37589384225E+03  0.37589384229E+03  0.50400001928E-02 0. -1.
        1   -1    0    0  501    0  0.00000000000E+00  0.00000000000E+00 -0.13116422993E+04  0.13116422993E+04  0.50400001928E-02 0.  1.
    10030    2    1    2    0    0  0.00000000000E+00  0.00000000000E+00 -0.93574845704E+03  0.16875361416E+04  0.14043336692E+04 0.  0.
        1    1    3    3  502    0  0.67517948463E+03 -0.81292054320E+01 -0.69934602078E+03  0.97212050552E+03  0.50400001928E-02 0.  1.
       -1    1    3    3    0  502 -0.67517948463E+03  0.81292054320E+01 -0.23640243626E+03  0.71541563607E+03  0.50400001928E-02 0. -1.
</event>
<event>
 5   0  0.3917598E-04  0.1399252E+04  0.7818609E-02  0.8954360E-01
       -2   -1    0    0    0  501  0.00000000000E+00  0.00000000000E+00  0.67611196388E+03  0.67611196389E+03  0.25500000920E-02 0.  1.
        2   -1    0    0  501    0  0.00000000000E+00  0.00000000000E+00 -0.72395736710E+03  0.72395736710E+03  0.25500000920E-02 0. -1.
    10030    2    1    2    0    0  0.00000000000E+00  0.00000000000E+00 -0.47845403215E+02  0.14000693310E+04  0.13992515674E+04 0.  0.
        3    1    3    3  502    0  0.51733345694E+03  0.32716852024E+03 -0.36294675459E+03  0.71162033640E+03  0.10100000352E+00 0. -1.
       -3    1    3    3    0  502 -0.51733345694E+03 -0.32716852024E+03  0.31510135138E+03  0.68844899459E+03  0.10100000352E+00 0.  1.
</event>
<event>
 5   0  0.2223112E-04  0.1394551E+04  0.7818609E-02  0.8957772E-01
       -1   -1    0    0    0  501  0.00000000000E+00  0.00000000000E+00  0.43788942906E+03  0.43788942909E+03  0.50400001928E-02 0.  1.
        1   -1    0    0  501    0  0.00000000000E+00  0.00000000000E+00 -0.11103107697E+04  0.11103107697E+04  0.50400001928E-02 0. -1.
    10030    2    1    2    0    0  0.00000000000E+00  0.00000000000E+00 -0.67242134062E+03  0.15482001988E+04  0.13945513243E+04 0.  0.
        1    1    3    3  502    0  0.68072187332E+03  0.13632353793E+03 -0.26403225146E+03  0.74275124075E+03  0.50400001928E-02 0. -1.
       -1    1    3    3    0  502 -0.68072187332E+03 -0.13632353793E+03 -0.40838908916E+03  0.80544895802E+03  0.50400001928E-02 0.  1.
</event>
<event>
 5   0  0.3932568E-04  0.1403843E+04  0.7818609E-02  0.8951042E-01
        2   -1    0    0  501    0  0.00000000000E+00  0.00000000000E+00  0.20896754869E+04  0.20896754869E+04  0.25500000920E-02 0. -1.
       -2   -1    0    0    0  501  0.00000000000E+00  0.00000000000E+00 -0.23577521733E+03  0.23577521734E+03  0.25500000920E-02 0.  1.
    10030    2    1    2    0    0  0.00000000000E+00  0.00000000000E+00  0.18539002696E+04  0.23254507043E+04  0.14038428574E+04 0.  0.
        2    1    3    3  502    0  0.68742406346E+03  0.91435117913E+00  0.11620375040E+04  0.13501421554E+04  0.25500000920E-02 0. -1.
       -2    1    3    3    0  502 -0.68742406346E+03 -0.91435117913E+00  0.69186276556E+03  0.97530854884E+03  0.25500000920E-02 0.  1.
</event>
<event>
 5   0  0.3975164E-04  0.1400767E+04  0.7818609E-02  0.8953263E-01
        2   -1    0    0  501    0  0.00000000000E+00  0.00000000000E+00  0.12210970790E+04  0.12210970790E+04  0.25500000920E-02 0. -1.
       -2   -1    0    0    0  501  0.00000000000E+00  0.00000000000E+00 -0.40171835374E+03  0.40171835374E+03  0.25500000920E-02 0.  1.
    10030    2    1    2    0    0  0.00000000000E+00  0.00000000000E+00  0.81937872531E+03  0.16228154328E+04  0.14007670875E+04 0.  0.
        5    1    3    3  502    0  0.92297990017E+02  0.36227630357E+03  0.10958143967E+04  0.11578403695E+04  0.46999998093E+01 0. -1.
       -5    1    3    3    0  502 -0.92297990017E+02 -0.36227630357E+03 -0.27643567142E+03  0.46497506333E+03  0.46999998093E+01 0.  1.
</event>
<event>
 5   0  0.2215876E-04  0.1388985E+04  0.7818609E-02  0.8961831E-01
        1   -1    0    0  501    0  0.00000000000E+00  0.00000000000E+00  0.12971497732E+04  0.12971497732E+04  0.50400001928E-02 0. -1.
       -1   -1    0    0    0  501  0.00000000000E+00  0.00000000000E+00 -0.37183042459E+03  0.37183042462E+03  0.50400001928E-02 0.  1.
    10030    2    1    2    0    0  0.00000000000E+00  0.00000000000E+00  0.92531934859E+03  0.16689801978E+04  0.13889848825E+04 0.  0.
        3    1    3    3  502    0  0.27802085060E+03  0.20886443002E+02 -0.30163373064E+03  0.41074901647E+03  0.10100000352E+00 0.  1.
       -3    1    3    3    0  502 -0.27802085060E+03 -0.20886443002E+02  0.12269530792E+04  0.12582311813E+04  0.10100000352E+00 0. -1.
</event>
<event>
 5   0  0.2223112E-04  0.1398341E+04  0.7818609E-02  0.8955020E-01
       -1   -1    0    0    0  501  0.00000000000E+00  0.00000000000E+00  0.11194685736E+04  0.11194685736E+04  0.50400001928E-02 0.  1.
        1   -1    0    0  501    0  0.00000000000E+00  0.00000000000E+00 -0.43667108803E+03  0.43667108806E+03  0.50400001928E-02 0. -1.
    10030    2    1    2    0    0  0.00000000000E+00  0.00000000000E+00  0.68279748558E+03  0.15561396617E+04  0.13983412460E+04 0.  0.
        1    1    3    3  502    0 -0.28793924912E+03 -0.43942865453E+03 -0.17200010987E+03  0.55280248862E+03  0.50400001928E-02 0. -1.
       -1    1    3    3    0  502  0.28793924912E+03  0.43942865453E+03  0.85479759545E+03  0.10033371731E+04  0.50400001928E-02 0.  1.
</event>
<event>
 5   0  0.2217251E-04  0.1400463E+04  0.7818609E-02  0.8953483E-01
        1   -1    0    0  501    0  0.00000000000E+00  0.00000000000E+00  0.12733994279E+04  0.12733994279E+04  0.50400001928E-02 0.  1.
       -1   -1    0    0    0  501  0.00000000000E+00  0.00000000000E+00 -0.38505150219E+03  0.38505150222E+03  0.50400001928E-02 0. -1.
    10030    2    1    2    0    0  0.00000000000E+00  0.00000000000E+00  0.88834792573E+03  0.16584509301E+04  0.14004632985E+04 0.  0.
        5    1    3    3  502    0 -0.13895543510E+03 -0.68617497232E+03  0.42930900717E+03  0.82126306334E+03  0.46999998093E+01 0. -1.
       -5    1    3    3    0  502  0.13895543510E+03  0.68617497232E+03  0.45903891856E+03  0.83718786681E+03  0.46999998093E+01 0.  1.
</event>
<event>
 5   0  0.1497625E-04  0.1369983E+04  0.7818609E-02  0.8975837E-01
       -3   -1    0    0    0  501  0.00000000000E+00  0.00000000000E+00  0.15588213604E+04  0.15588213637E+04  0.10100000352E+00 0.  1.
        3   -1    0    0  501    0  0.00000000000E+00  0.00000000000E+00 -0.30100536431E+03  0.30100538125E+03  0.10100000352E+00 0. -1.
    10030    2    1    2    0    0  0.00000000000E+00  0.00000000000E+00  0.12578159961E+04  0.18598267450E+04  0.13699833726E+04 0.  0.
        5    1    3    3  502    0 -0.42873378438E+03  0.22340588720E+02 -0.95674751409E+02  0.43987214941E+03  0.46999998093E+01 0. -1.
       -5    1    3    3    0  502  0.42873378438E+03 -0.22340588720E+02  0.13534907475E+04  0.14199545956E+04  0.46999998093E+01 0.  1.
</event>
<event>
 5   0  0.1497625E-04  0.1393989E+04  0.7818609E-02  0.8958181E-01
       -3   -1    0    0    0  501  0.00000000000E+00  0.00000000000E+00  0.86003150404E+03  0.86003150997E+03  0.10100000352E+00 0.  1.
        3   -1    0    0  501    0  0.00000000000E+00  0.00000000000E+00 -0.56486469096E+03  0.56486469999E+03  0.10100000352E+00 0. -1.
    10030    2    1    2    0    0  0.00000000000E+00  0.00000000000E+00  0.29516681308E+03  0.14248962100E+04  0.13939891541E+04 0.  0.
        1    1    3    3  502    0  0.64788818224E+03  0.14971909514E+03 -0.65917244276E+02  0.66822151061E+03  0.50400001928E-02 0. -1.
       -1    1    3    3    0  502 -0.64788818224E+03 -0.14971909514E+03  0.36108405736E+03  0.75667469935E+03  0.50400001928E-02 0.  1.
</event>
<event>
 5   0  0.2215876E-04  0.1396429E+04  0.7818609E-02  0.8956407E-01
       -1   -1    0    0    0  501  0.00000000000E+00  0.00000000000E+00  0.96140113971E+03  0.96140113972E+03  0.50400001928E-02 0. -1.
        1   -1    0    0  501    0  0.00000000000E+00  0.00000000000E+00 -0.50707630586E+03  0.50707630588E+03  0.50400001928E-02 0.  1.
    10030    2    1    2    0    0  0.00000000000E+00  0.00000000000E+00  0.45432483385E+03  0.14684774456E+04  0.13964293586E+04 0.  0.
        3    1    3    3  502    0 -0.68427875465E+03  0.13070777830E+03  0.17804281204E+03  0.71904185587E+03  0.10100000352E+00 0.  1.
       -3    1    3    3    0  502  0.68427875465E+03 -0.13070777830E+03  0.27628202181E+03  0.74943558973E+03  0.10100000352E+00 0. -1.
</event>
<event>
 5   0  0.3975164E-04  0.1401737E+04  0.7818609E-02  0.8952562E-01
       -2   -1    0    0    0  501  0.00000000000E+00  0.00000000000E+00  0.52118129269E+03  0.52118129270E+03  0.25500000920E-02 0.  1.
        2   -1    0    0  501    0  0.00000000000E+00  0.00000000000E+00 -0.94250582243E+03  0.94250582243E+03  0.25500000920E-02 0. -1.
    10030    2    1    2    0    0  0.00000000000E+00  0.00000000000E+00 -0.42132452974E+03  0.14636871151E+04  0.14017366413E+04 0.  0.
        5    1    3    3  502    0 -0.60069899501E+03 -0.21282227753E+02  0.16568598860E+03  0.62351114877E+03  0.46999998093E+01 0.  1.
       -5    1    3    3    0  502  0.60069899501E+03  0.21282227753E+02 -0.58701051833E+03  0.84017596636E+03  0.46999998093E+01 0. -1.
</event>
<event>
 5   0  0.1497625E-04  0.1423390E+04  0.7818609E-02  0.8937060E-01
       -3   -1    0    0    0  501  0.00000000000E+00  0.00000000000E+00  0.64550937537E+03  0.64550938327E+03  0.10100000352E+00 0.  1.
        3   -1    0    0  501    0  0.00000000000E+00  0.00000000000E+00 -0.78466639446E+03  0.78466640096E+03  0.10100000352E+00 0. -1.
    10030    2    1    2    0    0  0.00000000000E+00  0.00000000000E+00 -0.13915701908E+03  0.14301757842E+04  0.14233896507E+04 0.  0.
        1    1    3    3  502    0  0.12712297695E+03 -0.47515153402E+03  0.44724750151E+03  0.66480039048E+03  0.50400001928E-02 0.  1.
       -1    1    3    3    0  502 -0.12712297695E+03  0.47515153402E+03 -0.58640452060E+03  0.76537539375E+03  0.50400001928E-02 0. -1.
</event>
<event>
 5   0  0.3975164E-04  0.1400093E+04  0.7818609E-02  0.8953752E-01
       -2   -1    0    0    0  501  0.00000000000E+00  0.00000000000E+00  0.53666414077E+03  0.53666414077E+03  0.25500000920E-02 0. -1.
        2   -1    0    0  501    0  0.00000000000E+00  0.00000000000E+00 -0.91316854295E+03  0.91316854295E+03  0.25500000920E-02 0.  1.
    10030    2    1    2    0    0  0.00000000000E+00  0.00000000000E+00 -0.37650440218E+03  0.14498326837E+04  0.14000925848E+04 0.  0.
        5    1    3    3  502    0 -0.24706772748E+03  0.65185436752E+03 -0.12205830946E+03  0.70772657102E+03  0.46999998093E+01 0. -1.
       -5    1    3    3    0  502  0.24706772748E+03 -0.65185436752E+03 -0.25444609272E+03  0.74210611270E+03  0.46999998093E+01 0.  1.
</event>
<event>
 5   0  0.2223112E-04  0.1396161E+04  0.7818609E-02  0.8956602E-01
        1   -1    0    0  501    0  0.00000000000E+00  0.00000000000E+00  0.13199418633E+04  0.13199418633E+04  0.50400001928E-02 0.  1.
       -1   -1    0    0    0  501  0.00000000000E+00  0.00000000000E+00 -0.36919532358E+03  0.36919532362E+03  0.50400001928E-02 0. -1.
    10030    2    1    2    0    0  0.00000000000E+00  0.00000000000E+00  0.95074653973E+03  0.16891371869E+04  0.13961609698E+04 0.  0.
        1    1    3    3  502    0  0.84357268483E+02  0.59528871938E+03  0.90453818675E+03  0.10861280493E+04  0.50400001928E-02 0.  1.
       -1    1    3    3    0  502 -0.84357268483E+02 -0.59528871938E+03  0.46208352983E+02  0.60300913764E+03  0.50400001928E-02 0. -1.
</event>
<event>
 5   0  0.2217251E-04  0.1397864E+04  0.7818609E-02  0.8955366E-01
       -1   -1    0    0    0  501  0.00000000000E+00  0.00000000000E+00  0.34536569379E+03  0.34536569383E+03  0.50400001928E-02 0.  1.
        1   -1    0    0  501    0  0.00000000000E+00  0.00000000000E+00 -0.14144605678E+04  0.14144605678E+04  0.50400001928E-02 0. -1.
    10030    2    1    2    0    0  0.00000000000E+00  0.00000000000E+00 -0.10690948740E+04  0.17598262616E+04  0.13978643073E+04 0.  0.
        5    1    3    3  502    0  0.72532928538E+02 -0.41542837545E+03 -0.12362209423E+04  0.13061799528E+04  0.46999998093E+01 0. -1.
       -5    1    3    3    0  502 -0.72532928538E+02  0.41542837545E+03  0.16712606829E+03  0.45364630887E+03  0.46999998093E+01 0.  1.
</event>
<event>
 5   0  0.3917598E-04  0.1405175E+04  0.7818609E-02  0.8950081E-01
        2   -1    0    0  501    0  0.00000000000E+00  0.00000000000E+00  0.92899424408E+03  0.92899424408E+03  0.25500000920E-02 0. -1.
       -2   -1    0    0    0  501  0.00000000000E+00  0.00000000000E+00 -0.53135855284E+03  0.53135855285E+03  0.25500000920E-02 0.  1.
    10030    2    1    2    0    0  0.00000000000E+00  0.00000000000E+00  0.39763569124E+03  0.14603527969E+04  0.14051747751E+04 0.  0.
        3    1    3    3  502    0  0.46655636994E+02  0.69603200183E+03  0.28571784916E+03  0.75383817598E+03  0.10100000352E+00 0. -1.
       -3    1    3    3    0  502 -0.46655636994E+02 -0.69603200183E+03  0.11191784208E+03  0.70651462095E+03  0.10100000352E+00 0.  1.
</event>
<event>
 5   0  0.3975164E-04  0.1424635E+04  0.7818609E-02  0.8936177E-01
       -2   -1    0    0    0  501  0.00000000000E+00  0.00000000000E+00  0.25022310456E+03  0.25022310457E+03  0.25500000920E-02 0.  1.
        2   -1    0    0  501    0  0.00000000000E+00  0.00000000000E+00 -0.20277754600E+04  0.20277754600E+04  0.25500000920E-02 0. -1.
    10030    2    1    2    0    0  0.00000000000E+00  0.00000000000E+00 -0.17775523554E+04  0.22779985646E+04  0.14246350704E+04 0.  0.
        5    1    3    3  502    0  0.60519120321E+03  0.24472228352E+03 -0.43304912115E+03  0.78338944327E+03  0.46999998093E+01 0.  1.
       -5    1    3    3    0  502 -0.60519120321E+03 -0.24472228352E+03 -0.13445032343E+04  0.14946091213E+04  0.46999998093E+01 0. -1.
</event>
<event>
 5   0  0.1497625E-04  0.1395934E+04  0.7818609E-02  0.8956767E-01
        3   -1    0    0  501    0  0.00000000000E+00  0.00000000000E+00  0.39532209245E+03  0.39532210535E+03  0.10100000352E+00 0. -1.
       -3   -1    0    0    0  501  0.00000000000E+00  0.00000000000E+00 -0.12323062383E+04  0.12323062425E+04  0.10100000352E+00 0.  1.
    10030    2    1    2    0    0  0.00000000000E+00  0.00000000000E+00 -0.83698414586E+03  0.16276283478E+04  0.13959339448E+04 0.  0.
        3    1    3    3  502    0 -0.70045280106E+02  0.34707945770E+03  0.28282932818E+03  0.45316986915E+03  0.10100000352E+00 0. -1.
       -3    1    3    3    0  502  0.70045280106E+02 -0.34707945770E+03 -0.11198134740E+04  0.11744584787E+04  0.10100000352E+00 0.  1.
</event>
<event>
 5   0  0.4208622E-04  0.1405925E+04  0.7818609E-02  0.8949541E-01
       -2   -1    0    0    0  501  0.00000000000E+00  0.00000000000E+00  0.37154199473E+03  0.37154199474E+03  0.25500000920E-02 0.  1.
        2   -1    0    0  501    0  0.00000000000E+00  0.00000000000E+00 -0.13300147457E+04  0.13300147457E+04  0.25500000920E-02 0. -1.
    10030    2    1    2    0    0  0.00000000000E+00  0.00000000000E+00 -0.95847275101E+03  0.17015567405E+04  0.14059250786E+04 0.  0.
        4    1    3    3  502    0  0.52115905475E+03  0.14626791896E+03 -0.10220468521E+04  0.11565389943E+04  0.12699999809E+01 0. -1.
       -4    1    3    3    0  502 -0.52115905475E+03 -0.14626791896E+03  0.63574101092E+02  0.54501774622E+03  0.12699999809E+01 0.  1.
</event>
<event>
 5   0  0.2215876E-04  0.1411482E+04  0.7818609E-02  0.8945549E-01
        1   -1    0    0  501    0  0.00000000000E+00  0.00000000000E+00  0.48042205681E+03  0.48042205683E+03  0.50400001928E-02 0.  1.
       -1   -1    0    0    0  501  0.00000000000E+00  0.00000000000E+00 -0.10367354270E+04  0.10367354270E+04  0.50400001928E-02 0. -1.
    10030    2    1    2    0    0  0.00000000000E+00  0.00000000000E+00 -0.55631337019E+03  0.15171574838E+04  0.14114822935E+04 0.  0.
        3    1    3    3  502    0  0.38143347864E+03 -0.38437810632E+03 -0.76462515001E+03  0.93695766045E+03  0.10100000352E+00 0. -1.
       -3    1    3    3    0  502 -0.38143347864E+03  0.38437810632E+03  0.20831177982E+03  0.58019982339E+03  0.10100000352E+00 0.  1.
</event>
<event>
 5   0  0.2143942E-04  0.1320577E+04  0.7818609E-02  0.9013405E-01
        1   -1    0    0  501    0  0.00000000000E+00  0.00000000000E+00  0.58946030664E+03  0.58946030667E+03  0.50400001928E-02 0.  1.
       -1   -1    0    0    0  501  0.00000000000E+00  0.00000000000E+00 -0.73962669893E+03  0.73962669894E+03  0.50400001928E-02 0. -1.
    10030    2    1    2    0    0  0.00000000000E+00  0.00000000000E+00 -0.15016639228E+03  0.13290870056E+04  0.13205765116E+04 0.  0.
        4    1    3    3  502    0  0.20743353750E+03  0.26581404497E+03  0.49628413765E+03  0.59998778085E+03  0.12699999809E+01 0.  1.
       -4    1    3    3    0  502 -0.20743353750E+03 -0.26581404497E+03 -0.64645052994E+03  0.72909922476E+03  0.12699999809E+01 0. -1.
</event>
<event>
 5   0  0.2143942E-04  0.1401316E+04  0.7818609E-02  0.8952867E-01
        1   -1    0    0  501    0  0.00000000000E+00  0.00000000000E+00  0.14904700534E+04  0.14904700534E+04  0.50400001928E-02 0.  1.
       -1   -1    0    0    0  501  0.00000000000E+00  0.00000000000E+00 -0.32937362310E+03  0.32937362314E+03  0.50400001928E-02 0. -1.
    10030    2    1    2    0    0  0.00000000000E+00  0.00000000000E+00  0.11610964303E+04  0.18198436765E+04  0.14013158411E+04 0.  0.
        4    1    3    3  502    0 -0.19519226494E+03  0.65849538833E+03  0.76051429003E+03  0.10247437704E+04  0.12699999809E+01 0.  1.
       -4    1    3    3    0  502  0.19519226494E+03 -0.65849538833E+03  0.40058214026E+03  0.79509990614E+03  0.12699999809E+01 0. -1.
</event>
<event>
 5   0  0.2143942E-04  0.1399733E+04  0.7818609E-02  0.8954012E-01
       -1   -1    0    0    0  501  0.00000000000E+00  0.00000000000E+00  0.52159427489E+03  0.52159427491E+03  0.50400001928E-02 0.  1.
        1   -1    0    0  501    0  0.00000000000E+00  0.00000000000E+00 -0.93906863106E+03  0.93906863108E+03  0.50400001928E-02 0. -1.
    10030    2    1    2    0    0  0.00000000000E+00  0.00000000000E+00 -0.41747435618E+03  0.14606629060E+04  0.13997325769E+04 0.  0.
        4    1    3    3  502    0  0.28773737929E+03 -0.24942426658E+03  0.40402549542E+03  0.55519679218E+03  0.12699999809E+01 0.  1.
       -4    1    3    3    0  502 -0.28773737929E+03  0.24942426658E+03 -0.82149985159E+03  0.90546611381E+03  0.12699999809E+01 0. -1.
</event>
<event>
 5   0  0.2223112E-04  0.1411249E+04  0.7818609E-02  0.8945716E-01
       -1   -1    0    0    0  501  0.00000000000E+00  0.00000000000E+00  0.42296500398E+03  0.42296500401E+03  0.50400001928E-02 0. -1.
        1   -1    0    0  501    0  0.00000000000E+00  0.00000000000E+00 -0.11771797065E+04  0.11771797065E+04  0.50400001928E-02 0.  1.
    10030    2    1    2    0    0  0.00000000000E+00  0.00000000000E+00 -0.75421470254E+03  0.16001447105E+04  0.14112488360E+04 0.  0.
        1    1    3    3  502    0  0.54713574013E+03 -0.12294892844E+03  0.10850871982E+03  0.57118131923E+03  0.50400001928E-02 0. -1.
       -1    1    3    3    0  502 -0.54713574013E+03  0.12294892844E+03 -0.86272342236E+03  0.10289633913E+04  0.50400001928E-02 0.  1.
</event>
<event>
 5   0  0.2217251E-04  0.1407234E+04  0.7818609E-02  0.8948599E-01
       -1   -1    0    0    0  501  0.00000000000E+00  0.00000000000E+00  0.47235940011E+03  0.47235940013E+03  0.50400001928E-02 0. -1.
        1   -1    0    0  501    0  0.00000000000E+00  0.00000000000E+00 -0.10480935435E+04  0.10480935436E+04  0.50400001928E-02 0.  1.
    10030    2    1    2    0    0  0.00000000000E+00  0.00000000000E+00 -0.57573414344E+03  0.15204529437E+04  0.14072339358E+04 0.  0.
        5    1    3    3  502    0 -0.18698518708E+03 -0.60713247260E+03 -0.61466041334E+03  0.88396991646E+03  0.46999998093E+01 0. -1.
       -5    1    3    3    0  502  0.18698518708E+03  0.60713247260E+03  0.38926269893E+02  0.63648302724E+03  0.46999998093E+01 0.  1.
</event>
<event>
 5   0  0.4208622E-04  0.1398182E+04  0.7818609E-02  0.8955135E-01
        2   -1    0    0  501    0  0.00000000000E+00  0.00000000000E+00  0.57766711980E+03  0.57766711981E+03  0.25500000920E-02 0.  1.
       -2   -1    0    0    0  501  0.00000000000E+00  0.00000000000E+00 -0.84603802282E+03  0.84603802283E+03  0.25500000920E-02 0. -1.
    10030    2    1    2    0    0  0.00000000000E+00  0.00000000000E+00 -0.26837090302E+03  0.14237051426E+04  0.13981821740E+04 0.  0.
        4    1    3    3  502    0  0.27835284621E+03 -0.57298095623E+03 -0.42743432306E+03  0.76713049517E+03  0.12699999809E+01 0.  1.
       -4    1    3    3    0  502 -0.27835284621E+03  0.57298095623E+03  0.15906342004E+03  0.65657464746E+03  0.12699999809E+01 0. -1.
</event>
<event>
 5   0  0.2217251E-04  0.1399482E+04  0.7818609E-02  0.8954194E-01
       -1   -1    0    0    0  501  0.00000000000E+00  0.00000000000E+00  0.60897893993E+03  0.60897893995E+03  0.50400001928E-02 0.  1.
        1   -1    0    0  501    0  0.00000000000E+00  0.00000000000E+00 -0.80403027746E+03  0.80403027748E+03  0.50400001928E-02 0. -1.
    10030    2    1    2    0    0  0.00000000000E+00  0.00000000000E+00 -0.19505133753E+03  0.14130092174E+04  0.13994820557E+04 0.  0.
        5    1    3    3  502    0  0.41390163276E+03  0.48899037920E+03 -0.38165156102E+03  0.74572525542E+03  0.46999998093E+01 0.  1.
       -5    1    3    3    0  502 -0.41390163276E+03 -0.48899037920E+03  0.18660022348E+03  0.66728396201E+03  0.46999998093E+01 0. -1.
</event>
<event>
 5   0  0.4208622E-04  0.1394270E+04  0.7818609E-02  0.8957977E-01
        2   -1    0    0  501    0  0.00000000000E+00  0.00000000000E+00  0.11198786538E+04  0.11198786538E+04  0.25500000920E-02 0.  1.
       -2   -1    0    0    0  501  0.00000000000E+00  0.00000000000E+00 -0.43397301043E+03  0.43397301043E+03  0.25500000920E-02 0. -1.
    10030    2    1    2    0    0  0.00000000000E+00  0.00000000000E+00  0.68590564337E+03  0.15538516642E+04  0.13942698601E+04 0.  0.
        4    1    3    3  502    0 -0.39270380430E+03  0.57482419126E+03  0.30190863526E+03  0.75880799002E+03  0.12699999809E+01 0. -1.
       -4    1    3    3    0  502  0.39270380430E+03 -0.57482419126E+03  0.38399700811E+03  0.79504367421E+03  0.12699999809E+01 0.  1.
</event>
<event>
 5   0  0.2223112E-04  0.1409684E+04  0.7818609E-02  0.8946838E-01
        1   -1    0    0  501    0  0.00000000000E+00  0.00000000000E+00  0.50809202306E+03  0.50809202308E+03  0.50400001928E-02 0.  1.
       -1   -1    0    0    0  501  0.00000000000E+00  0.00000000000E+00 -0.97778014225E+03  0.97778014226E+03  0.50400001928E-02 0. -1.
    10030    2    1    2    0    0  0.00000000000E+00  0.00000000000E+00 -0.46968811919E+03  0.14858721653E+04  0.14096840648E+04 0.  0.
        1    1    3    3  502    0  0.63266244852E+03  0.30741257732E+03 -0.28242842879E+03  0.75797762756E+03  0.50400001928E-02 0. -1.
       -1    1    3    3    0  502 -0.63266244852E+03 -0.30741257732E+03 -0.18725969040E+03  0.72789453778E+03  0.50400001928E-02 0.  1.
</event>
<event>
 5   0  0.3917598E-04  0.1397813E+04  0.7818609E-02  0.8955403E-01
        2   -1    0    0  501    0  0.00000000000E+00  0.00000000000E+00  0.16037625888E+04  0.16037625888E+04  0.25500000920E-02 0.  1.
       -2   -1    0    0    0  501  0.00000000000E+00  0.00000000000E+00 -0.30457759665E+03  0.30457759666E+03  0.25500000920E-02 0. -1.
    10030    2    1    2    0    0  0.00000000000E+00  0.00000000000E+00  0.12991849921E+04  0.19083401854E+04  0.13978127985E+04 0.  0.
        3    1    3    3  502    0 -0.58551190585E+02 -0.57973217207E+03  0.12268946351E+03  0.59545809921E+03  0.10100000352E+00 0. -1.
       -3    1    3    3    0  502  0.58551190585E+02  0.57973217207E+03  0.11764955286E+04  0.13128820862E+04  0.10100000352E+00 0.  1.
</event>
<event>
 5   0  0.2215876E-04  0.1422744E+04  0.7818609E-02  0.8937518E-01
        1   -1    0    0  501    0  0.00000000000E+00  0.00000000000E+00  0.11981385091E+04  0.11981385091E+04  0.50400001928E-02 0. -1.
       -1   -1    0    0    0  501  0.00000000000E+00  0.00000000000E+00 -0.42236353518E+03  0.42236353521E+03  0.50400001928E-02 0.  1.
    10030    2    1    2    0    0  0.00000000000E+00  0.00000000000E+00  0.77577497387E+03  0.16205020443E+04  0.14227438510E+04 0.  0.
        3    1    3    3  502    0  0.38796674154E+03 -0.59091646390E+03  0.47864742972E+03  0.85370008318E+03  0.10100000352E+00 0. -1.
       -3    1    3    3    0  502 -0.38796674154E+03  0.59091646390E+03  0.29712754415E+03  0.76680196110E+03  0.10100000352E+00 0.  1.
</event>
<event>
 5   0  0.3932568E-04  0.1398361E+04  0.7818609E-02  0.8955006E-01
       -2   -1    0    0    0  501  0.00000000000E+00  0.00000000000E+00  0.66206338694E+03  0.66206338695E+03  0.25500000920E-02 0.  1.
        2   -1    0    0  501    0  0.00000000000E+00  0.00000000000E+00 -0.73837802695E+03  0.73837802696E+03  0.25500000920E-02 0. -1.
    10030    2    1    2    0    0  0.00000000000E+00  0.00000000000E+00 -0.76314640009E+02  0.14004414139E+04  0.13983605506E+04 0.  0.
        2    1    3    3  502    0  0.20323806742E+03  0.29809114124E+03 -0.63795505454E+03  0.73290565024E+03  0.25500000920E-02 0. -1.
       -2    1    3    3    0  502 -0.20323806742E+03 -0.29809114124E+03  0.56164041453E+03  0.66753576367E+03  0.25500000920E-02 0.  1.
</event>
<event>
 5   0  0.2223112E-04  0.1398602E+04  0.7818609E-02  0.8954831E-01
        1   -1    0    0  501    0  0.00000000000E+00  0.00000000000E+00  0.85859945798E+03  0.85859945800E+03  0.50400001928E-02 0. -1.
       -1   -1    0    0    0  501  0.00000000000E+00  0.00000000000E+00 -0.56955775912E+03  0.56955775914E+03  0.50400001928E-02 0.  1.
    10030    2    1    2    0    0  0.00000000000E+00  0.00000000000E+00  0.28904169886E+03  0.14281572171E+04  0.13986021354E+04 0.  0.
        1    1    3    3  502    0  0.67799102563E+03  0.17124435390E+03  0.14967970809E+03  0.71512269899E+03  0.50400001928E-02 0.  1.
       -1    1    3    3    0  502 -0.67799102563E+03 -0.17124435390E+03  0.13936199077E+03  0.71303451815E+03  0.50400001928E-02 0. -1.
</event>
<event>
 5   0  0.2215876E-04  0.1401449E+04  0.7818609E-02  0.8952770E-01
        1   -1    0    0  501    0  0.00000000000E+00  0.00000000000E+00  0.11483865780E+04  0.11483865780E+04  0.50400001928E-02 0.  1.
       -1   -1    0    0    0  501  0.00000000000E+00  0.00000000000E+00 -0.42756955378E+03  0.42756955381E+03  0.50400001928E-02 0. -1.
    10030    2    1    2    0    0  0.00000000000E+00  0.00000000000E+00  0.72081702421E+03  0.15759561318E+04  0.14014494450E+04 0.  0.
        3    1    3    3  502    0 -0.12183634163E+03 -0.46667146944E+03 -0.21120634392E+03  0.52653061112E+03  0.10100000352E+00 0. -1.
       -3    1    3    3    0  502  0.12183634163E+03  0.46667146944E+03  0.93202336813E+03  0.10494255207E+04  0.10100000352E+00 0.  1.
</event>
<event>
 5   0  0.2223112E-04  0.1411050E+04  0.7818609E-02  0.8945859E-01
        1   -1    0    0  501    0  0.00000000000E+00  0.00000000000E+00  0.14008222938E+04  0.14008222938E+04  0.50400001928E-02 0. -1.
       -1   -1    0    0    0  501  0.00000000000E+00  0.00000000000E+00 -0.35533796251E+03  0.35533796255E+03  0.50400001928E-02 0.  1.
    10030    2    1    2    0    0  0.00000000000E+00  0.00000000000E+00  0.10454843313E+04  0.17561602564E+04  0.14110497366E+04 0.  0.
        1    1    3    3  502    0 -0.18400151787E+03 -0.68109314441E+03  0.52843327320E+03  0.88146818104E+03  0.50400001928E-02 0. -1.
       -1    1    3    3    0  502  0.18400151787E+03  0.68109314441E+03  0.51705105813E+03  0.87469207535E+03  0.50400001928E-02 0.  1.
</event>
<event>
 5   0  0.3975164E-04  0.1412418E+04  0.7818609E-02  0.8944879E-01
       -2   -1    0    0    0  501  0.00000000000E+00  0.00000000000E+00  0.38012127756E+03  0.38012127757E+03  0.25500000920E-02 0.  1.
        2   -1    0    0  501    0  0.00000000000E+00  0.00000000000E+00 -0.13120311816E+04  0.13120311816E+04  0.25500000920E-02 0. -1.
    10030    2    1    2    0    0  0.00000000000E+00  0.00000000000E+00 -0.93190990401E+03  0.16921524591E+04  0.14124177412E+04 0.  0.
        5    1    3    3  502    0  0.50590673545E+03  0.46417488289E+03 -0.26797159497E+03  0.73704193408E+03  0.46999998093E+01 0.  1.
       -5    1    3    3    0  502 -0.50590673545E+03 -0.46417488289E+03 -0.66393830904E+03  0.95511052506E+03  0.46999998093E+01 0. -1.
</event>
<event>
 5   0  0.3917598E-04  0.1408348E+04  0.7818609E-02  0.8947798E-01
        2   -1    0    0  501    0  0.00000000000E+00  0.00000000000E+00  0.30281372185E+03  0.30281372186E+03  0.25500000920E-02 0. -1.
       -2   -1    0    0    0  501  0.00000000000E+00  0.00000000000E+00 -0.16375118850E+04  0.16375118850E+04  0.25500000920E-02 0.  1.
    10030    2    1    2    0    0  0.00000000000E+00  0.00000000000E+00 -0.13346981632E+04  0.19403256069E+04  0.14083480656E+04 0.  0.
        3    1    3    3  502    0 -0.44014118183E+02  0.33126682064E+03 -0.15213049802E+04  0.15575762588E+04  0.10100000352E+00 0.  1.
       -3    1    3    3    0  502  0.44014118183E+02 -0.33126682064E+03  0.18660681705E+03  0.38274934805E+03  0.10100000352E+00 0. -1.
</event>
<event>
 5   0  0.4310348E-04  0.1433881E+04  0.7818609E-02  0.8929653E-01
       -2   -1    0    0    0  501  0.00000000000E+00  0.00000000000E+00  0.19244977949E+03  0.19244977951E+03  0.25500000920E-02 0.  1.
        2   -1    0    0  501    0  0.00000000000E+00  0.00000000000E+00 -0.26708444703E+04  0.26708444703E+04  0.25500000920E-02 0. -1.
    10030    2    1    2    0    0  0.00000000000E+00  0.00000000000E+00 -0.24783946908E+04  0.28632942498E+04  0.14338806497E+04 0.  0.
        1    1    3    3  502    0 -0.67057066143E+03  0.22493938725E+03 -0.14732735352E+04  0.16342575223E+04  0.50400001928E-02 0. -1.
       -1    1    3    3    0  502  0.67057066143E+03 -0.22493938725E+03 -0.10051211556E+04  0.12290367275E+04  0.50400001928E-02 0.  1.
</event>
<event>
 5   0  0.2155352E-04  0.1437390E+04  0.7818609E-02  0.8927190E-01
        1   -1    0    0  501    0  0.00000000000E+00  0.00000000000E+00  0.89220515418E+03  0.89220515419E+03  0.50400001928E-02 0.  1.
       -1   -1    0    0    0  501  0.00000000000E+00  0.00000000000E+00 -0.57892798584E+03  0.57892798586E+03  0.50400001928E-02 0. -1.
    10030    2    1    2    0    0  0.00000000000E+00  0.00000000000E+00  0.31327716833E+03  0.14711331401E+04  0.14373900416E+04 0.  0.
        2    1    3    3  502    0 -0.31525889584E+03  0.38592128821E+03 -0.37339821435E+03  0.62269546215E+03  0.25500000920E-02 0. -1.
       -2    1    3    3    0  502  0.31525889584E+03 -0.38592128821E+03  0.68667538268E+03  0.84843767790E+03  0.25500000920E-02 0.  1.
</event>
<event>
 5   0  0.2223112E-04  0.1400229E+04  0.7818609E-02  0.8953653E-01
       -1   -1    0    0    0  501  0.00000000000E+00  0.00000000000E+00  0.22811208190E+03  0.22811208196E+03  0.50400001928E-02 0. -1.
        1   -1    0    0  501    0  0.00000000000E+00  0.00000000000E+00 -0.21487685316E+04  0.21487685316E+04  0.50400001928E-02 0.  1.
    10030    2    1    2    0    0  0.00000000000E+00  0.00000000000E+00 -0.19206564497E+04  0.23768806135E+04  0.14002286432E+04 0.  0.
        1    1    3    3  502    0  0.57907610713E+03 -0.35646076998E+03 -0.12431872983E+04  0.14170067314E+04  0.50400001928E-02 0.  1.
       -1    1    3    3    0  502 -0.57907610713E+03  0.35646076998E+03 -0.67746915140E+03  0.95987388208E+03  0.50400001928E-02 0. -1.
</event>
<event>
 5   0  0.3975164E-04  0.1407213E+04  0.7818609E-02  0.8948614E-01
       -2   -1    0    0    0  501  0.00000000000E+00  0.00000000000E+00  0.10819051449E+04  0.10819051449E+04  0.25500000920E-02 0. -1.
        2   -1    0    0  501    0  0.00000000000E+00  0.00000000000E+00 -0.45758393082E+03  0.45758393082E+03  0.25500000920E-02 0.  1.
    10030    2    1    2    0    0  0.00000000000E+00  0.00000000000E+00  0.62432121412E+03  0.15394890758E+04  0.14072134294E+04 0.  0.
        5    1    3    3  502    0  0.65248326699E+03 -0.22019020737E+02  0.25163615377E+02  0.65335637176E+03  0.46999998093E+01 0.  1.
       -5    1    3    3    0  502 -0.65248326699E+03  0.22019020737E+02  0.59915759875E+03  0.88613270401E+03  0.46999998093E+01 0. -1.
</event>
<event>
 5   0  0.2217251E-04  0.1400721E+04  0.7818609E-02  0.8953297E-01
        1   -1    0    0  501    0  0.00000000000E+00  0.00000000000E+00  0.17795111672E+04  0.17795111673E+04  0.50400001928E-02 0.  1.
       -1   -1    0    0    0  501  0.00000000000E+00  0.00000000000E+00 -0.27564027143E+03  0.27564027147E+03  0.50400001928E-02 0. -1.
    10030    2    1    2    0    0  0.00000000000E+00  0.00000000000E+00  0.15038708958E+04  0.20551514387E+04  0.14007211588E+04 0.  0.
        5    1    3    3  502    0 -0.13291298689E+03 -0.28061646912E+03  0.16729777800E+04  0.17015546442E+04  0.46999998093E+01 0.  1.
       -5    1    3    3    0  502  0.13291298689E+03  0.28061646912E+03 -0.16910688418E+03  0.35359679453E+03  0.46999998093E+01 0. -1.
</event>
<event>
 5   0  0.2143942E-04  0.1416737E+04  0.7818609E-02  0.8941791E-01
       -1   -1    0    0    0  501  0.00000000000E+00  0.00000000000E+00  0.58340190547E+03  0.58340190549E+03  0.50400001928E-02 0. -1.
        1   -1    0    0  501    0  0.00000000000E+00  0.00000000000E+00 -0.86010393343E+03  0.86010393344E+03  0.50400001928E-02 0.  1.
    10030    2    1    2    0    0  0.00000000000E+00  0.00000000000E+00 -0.27670202796E+03  0.14435058389E+04  0.14167374827E+04 0.  0.
        4    1    3    3  502    0  0.63381436025E+03 -0.27212996107E+03 -0.30267217995E+03  0.75325123325E+03  0.12699999809E+01 0.  1.
       -4    1    3    3    0  502 -0.63381436025E+03  0.27212996107E+03  0.25970151993E+02  0.69025460568E+03  0.12699999809E+01 0. -1.
</event>
<event>
 5   0  0.3975164E-04  0.1403963E+04  0.7818609E-02  0.8950955E-01
       -2   -1    0    0    0  501  0.00000000000E+00  0.00000000000E+00  0.28515584525E+03  0.28515584527E+03  0.25500000920E-02 0. -1.
        2   -1    0    0  501    0  0.00000000000E+00  0.00000000000E+00 -0.17281007187E+04  0.17281007187E+04  0.25500000920E-02 0.  1.
    10030    2    1    2    0    0  0.00000000000E+00  0.00000000000E+00 -0.14429448734E+04  0.20132565639E+04  0.14039629926E+04 0.  0.
        5    1    3    3  502    0 -0.30432744446E+03 -0.55080079126E+03 -0.27541615855E+03  0.68693002226E+03  0.46999998093E+01 0.  1.
       -5    1    3    3    0  502  0.30432744446E+03  0.55080079126E+03 -0.11675287149E+04  0.13263265417E+04  0.46999998093E+01 0. -1.
</event>
<event>
 5   0  0.1497625E-04  0.1404867E+04  0.7818609E-02  0.8950303E-01
        3   -1    0    0  501    0  0.00000000000E+00  0.00000000000E+00  0.62260281292E+03  0.62260282111E+03  0.10100000352E+00 0. -1.
       -3   -1    0    0    0  501  0.00000000000E+00  0.00000000000E+00 -0.79250010774E+03  0.79250011417E+03  0.10100000352E+00 0.  1.
    10030    2    1    2    0    0  0.00000000000E+00  0.00000000000E+00 -0.16989729482E+03  0.14151029353E+04  0.14048669783E+04 0.  0.
        4    1    3    3  502    0 -0.18871021182E+03 -0.23095779061E+02 -0.76609023012E+03  0.78932934359E+03  0.12699999809E+01 0.  1.
       -4    1    3    3    0  502  0.18871021182E+03  0.23095779061E+02  0.59619293531E+03  0.62577359170E+03  0.12699999809E+01 0. -1.
</event>
<event>
 5   0  0.3975164E-04  0.1385398E+04  0.7818609E-02  0.8964456E-01
        2   -1    0    0  501    0  0.00000000000E+00  0.00000000000E+00  0.66244531774E+03  0.66244531774E+03  0.25500000920E-02 0.  1.
       -2   -1    0    0    0  501  0.00000000000E+00  0.00000000000E+00 -0.72433443079E+03  0.72433443079E+03  0.25500000920E-02 0. -1.
    10030    2    1    2    0    0  0.00000000000E+00  0.00000000000E+00 -0.61889113050E+02  0.13867797485E+04  0.13853980687E+04 0.  0.
        5    1    3    3  502    0  0.55856656482E+03  0.38712077194E+03  0.10316952098E+03  0.68740464026E+03  0.46999998093E+01 0.  1.
       -5    1    3    3    0  502 -0.55856656482E+03 -0.38712077194E+03 -0.16505863403E+03  0.69937510827E+03  0.46999998093E+01 0. -1.
</event>
<event>
 5   0  0.4208622E-04  0.1405617E+04  0.7818609E-02  0.8949763E-01
       -2   -1    0    0    0  501  0.00000000000E+00  0.00000000000E+00  0.44952123298E+03  0.44952123298E+03  0.25500000920E-02 0. -1.
        2   -1    0    0  501    0  0.00000000000E+00  0.00000000000E+00 -0.10988131791E+04  0.10988131791E+04  0.25500000920E-02 0.  1.
    10030    2    1    2    0    0  0.00000000000E+00  0.00000000000E+00 -0.64929194608E+03  0.15483344120E+04  0.14056170959E+04 0.  0.
        4    1    3    3  502    0 -0.61021913565E+03  0.27996849537E+03 -0.95727022197E+02  0.67817035293E+03  0.12699999809E+01 0. -1.
       -4    1    3    3    0  502  0.61021913565E+03 -0.27996849537E+03 -0.55356492389E+03  0.87016405912E+03  0.12699999809E+01 0.  1.
</event>
<event>
 5   0  0.4310348E-04  0.1396766E+04  0.7818609E-02  0.8956163E-01
        2   -1    0    0  501    0  0.00000000000E+00  0.00000000000E+00  0.53523788817E+03  0.53523788817E+03  0.25500000920E-02 0. -1.
       -2   -1    0    0    0  501  0.00000000000E+00  0.00000000000E+00 -0.91125583367E+03  0.91125583367E+03  0.25500000920E-02 0.  1.
    10030    2    1    2    0    0  0.00000000000E+00  0.00000000000E+00 -0.37601794550E+03  0.14464937218E+04  0.13967657613E+04 0.  0.
        1    1    3    3  502    0  0.32687021967E+03  0.54531415996E+03 -0.48730871821E+03  0.80105022341E+03  0.50400001928E-02 0.  1.
       -1    1    3    3    0  502 -0.32687021967E+03 -0.54531415996E+03  0.11129077271E+03  0.64544349844E+03  0.50400001928E-02 0. -1.
</event>
<event>
 5   0  0.3917598E-04  0.1404904E+04  0.7818609E-02  0.8950276E-01
       -2   -1    0    0    0  501  0.00000000000E+00  0.00000000000E+00  0.72181931868E+03  0.72181931869E+03  0.25500000920E-02 0.  1.
        2   -1    0    0  501    0  0.00000000000E+00  0.00000000000E+00 -0.68360432462E+03  0.68360432463E+03  0.25500000920E-02 0. -1.
    10030    2    1    2    0    0  0.00000000000E+00  0.00000000000E+00  0.38214994060E+02  0.14054236433E+04  0.14049039937E+04 0.  0.
        3    1    3    3  502    0  0.30089761249E+03  0.48586034571E+03  0.42771806170E+03  0.71382238635E+03  0.10100000352E+00 0.  1.
       -3    1    3    3    0  502 -0.30089761249E+03 -0.48586034571E+03 -0.38950306764E+03  0.69160125697E+03  0.10100000352E+00 0. -1.
</event>
<event>
 5   0  0.2155352E-04  0.1399647E+04  0.7818609E-02  0.8954074E-01
       -1   -1    0    0    0  501  0.00000000000E+00  0.00000000000E+00  0.35613192156E+03  0.35613192160E+03  0.50400001928E-02 0. -1.
        1   -1    0    0  501    0  0.00000000000E+00  0.00000000000E+00 -0.13752015309E+04  0.13752015309E+04  0.50400001928E-02 0.  1.
    10030    2    1    2    0    0  0.00000000000E+00  0.00000000000E+00 -0.10190696094E+04  0.17313334525E+04  0.13996473324E+04 0.  0.
        2    1    3    3  502    0  0.68873002587E+03  0.76191791094E+01 -0.35629888010E+03  0.77547146459E+03  0.25500000920E-02 0. -1.
       -2    1    3    3    0  502 -0.68873002587E+03 -0.76191791094E+01 -0.66277072927E+03  0.95586198795E+03  0.25500000920E-02 0.  1.
</event>
<event>
 5   0  0.4310348E-04  0.1391277E+04  0.7818609E-02  0.8960157E-01
       -2   -1    0    0    0  501  0.00000000000E+00  0.00000000000E+00  0.41092845662E+03  0.41092845663E+03  0.25500000920E-02 0. -1.
        2   -1    0    0  501    0  0.00000000000E+00  0.00000000000E+00 -0.11776081413E+04  0.11776081413E+04  0.25500000920E-02 0.  1.
    10030    2    1    2    0    0  0.00000000000E+00  0.00000000000E+00 -0.76667968467E+03  0.15885365979E+04  0.13912766742E+04 0.  0.
        1    1    3    3  502    0 -0.39026793862E+03  0.14223755282E+03 -0.10204632721E+04  0.11017648910E+04  0.50400001928E-02 0.  1.
       -1    1    3    3    0  502  0.39026793862E+03 -0.14223755282E+03  0.25378358744E+03  0.48677170689E+03  0.50400001928E-02 0. -1.
</event>
<event>
 5   0  0.2217251E-04  0.1401555E+04  0.7818609E-02  0.8952694E-01
        1   -1    0    0  501    0  0.00000000000E+00  0.00000000000E+00  0.15219239832E+04  0.15219239832E+04  0.50400001928E-02 0. -1.
       -1   -1    0    0    0  501  0.00000000000E+00  0.00000000000E+00 -0.32267634521E+03  0.32267634525E+03  0.50400001928E-02 0.  1.
    10030    2    1    2    0    0  0.00000000000E+00  0.00000000000E+00  0.11992476380E+04  0.18446003285E+04  0.14015546634E+04 0.  0.
        5    1    3    3  502    0  0.49612383747E+03 -0.33545699151E+03  0.12073959370E+03  0.61095858677E+03  0.46999998093E+01 0.  1.
       -5    1    3    3    0  502 -0.49612383747E+03  0.33545699151E+03  0.10785080443E+04  0.12336417417E+04  0.46999998093E+01 0. -1.
</event>
<event>
 5   0  0.2215876E-04  0.1392312E+04  0.7818609E-02  0.8959403E-01
        1   -1    0    0  501    0  0.00000000000E+00  0.00000000000E+00  0.15681826515E+04  0.15681826515E+04  0.50400001928E-02 0.  1.
       -1   -1    0    0    0  501  0.00000000000E+00  0.00000000000E+00 -0.30904118344E+03  0.30904118348E+03  0.50400001928E-02 0. -1.
    10030    2    1    2    0    0  0.00000000000E+00  0.00000000000E+00  0.12591414681E+04  0.18772238350E+04  0.13923117790E+04 0.  0.
        3    1    3    3  502    0  0.27736133947E+03  0.18830289913E+03 -0.19304008625E+03  0.38684852275E+03  0.10100000352E+00 0. -1.
       -3    1    3    3    0  502 -0.27736133947E+03 -0.18830289913E+03  0.14521815543E+04  0.14903753123E+04  0.10100000352E+00 0.  1.
</event>
<event>
 5   0  0.4208622E-04  0.1404001E+04  0.7818609E-02  0.8950928E-01
        2   -1    0    0  501    0  0.00000000000E+00  0.00000000000E+00  0.52661174369E+03  0.52661174369E+03  0.25500000920E-02 0.  1.
       -2   -1    0    0    0  501  0.00000000000E+00  0.00000000000E+00 -0.93580216442E+03  0.93580216443E+03  0.25500000920E-02 0. -1.
    10030    2    1    2    0    0  0.00000000000E+00  0.00000000000E+00 -0.40919042074E+03  0.14624139081E+04  0.14040005834E+04 0.  0.
        4    1    3    3  502    0 -0.51226800345E+03 -0.47010039561E+03 -0.30552832473E+03  0.75944852322E+03  0.12699999809E+01 0.  1.
       -4    1    3    3    0  502  0.51226800345E+03  0.47010039561E+03 -0.10366209600E+03  0.70296538489E+03  0.12699999809E+01 0. -1.
</event>
<event>
 5   0  0.2143942E-04  0.1401278E+04  0.7818609E-02  0.8952894E-01
       -1   -1    0    0    0  501  0.00000000000E+00  0.00000000000E+00  0.53734817889E+03  0.53734817892E+03  0.50400001928E-02 0. -1.
        1   -1    0    0  501    0  0.00000000000E+00  0.00000000000E+00 -0.91355089366E+03  0.91355089367E+03  0.50400001928E-02 0.  1.
    10030    2    1    2    0    0  0.00000000000E+00  0.00000000000E+00 -0.37620271477E+03  0.14508990726E+04  0.14012778583E+04 0.  0.
        4    1    3    3  502    0 -0.17676656540E+03 -0.46999027250E+03  0.31782826686E+03  0.59426735987E+03  0.12699999809E+01 0. -1.
       -4    1    3    3    0  502  0.17676656540E+03  0.46999027250E+03 -0.69403098162E+03  0.85663171272E+03  0.12699999809E+01 0.  1.
</event>
<event>
 5   0  0.3917598E-04  0.1399281E+04  0.7818609E-02  0.8954339E-01
       -2   -1    0    0    0  501  0.00000000000E+00  0.00000000000E+00  0.88870705903E+03  0.88870705904E+03  0.25500000920E-02 0.  1.
        2   -1    0    0  501    0  0.00000000000E+00  0.00000000000E+00 -0.55079664999E+03  0.55079664999E+03  0.25500000920E-02 0. -1.
    10030    2    1    2    0    0  0.00000000000E+00  0.00000000000E+00  0.33791040905E+03  0.14395037090E+04  0.13992810596E+04 0.  0.
        3    1    3    3  502    0 -0.12370639661E+03  0.63824455310E+03  0.43491614601E+03  0.78218376765E+03  0.10100000352E+00 0.  1.
       -3    1    3    3    0  502  0.12370639661E+03 -0.63824455310E+03 -0.97005736958E+02  0.65731994137E+03  0.10100000352E+00 0. -1.
</event>
<event>
 5   0  0.3917598E-04  0.1406067E+04  0.7818609E-02  0.8949438E-01
        2   -1    0    0  501    0  0.00000000000E+00  0.00000000000E+00  0.12655166860E+04  0.12655166860E+04  0.25500000920E-02 0. -1.
       -2   -1    0    0    0  501  0.00000000000E+00  0.00000000000E+00 -0.39055690131E+03  0.39055690132E+03  0.25500000920E-02 0.  1.
    10030    2    1    2    0    0  0.00000000000E+00  0.00000000000E+00  0.87495978466E+03  0.16560735873E+04  0.14060672465E+04 0.  0.
        3    1    3    3  502    0 -0.59973123641E+03  0.15280079755E+03  0.44667003908E+02  0.62050043602E+03  0.10100000352E+00 0.  1.
       -3    1    3    3    0  502  0.59973123641E+03 -0.15280079755E+03  0.83029278075E+03  0.10355731513E+04  0.10100000352E+00 0. -1.
</event>
<event>
 5   0  0.3917598E-04  0.1402190E+04  0.7818609E-02  0.8952235E-01
        2   -1    0    0  501    0  0.00000000000E+00  0.00000000000E+00  0.57067731659E+03  0.57067731660E+03  0.25500000920E-02 0.  1.
       -2   -1    0    0    0  501  0.00000000000E+00  0.00000000000E+00 -0.86131694522E+03  0.86131694522E+03  0.25500000920E-02 0. -1.
    10030    2    1    2    0    0  0.00000000000E+00  0.00000000000E+00 -0.29063962862E+03  0.14319942618E+04  0.14021897775E+04 0.  0.
        3    1    3    3  502    0  0.37374777729E+03 -0.55495704561E+03  0.68582202622E+02  0.67258326786E+03  0.10100000352E+00 0.  1.
       -3    1    3    3    0  502 -0.37374777729E+03  0.55495704561E+03 -0.35922183124E+03  0.75941099395E+03  0.10100000352E+00 0. -1.
</event>
<event>
 5   0  0.2155352E-04  0.1406097E+04  0.7818609E-02  0.8949417E-01
       -1   -1    0    0    0  501  0.00000000000E+00  0.00000000000E+00  0.45245466230E+03  0.45245466233E+03  0.50400001928E-02 0. -1.
        1   -1    0    0  501    0  0.00000000000E+00  0.00000000000E+00 -0.10924355021E+04  0.10924355021E+04  0.50400001928E-02 0.  1.
    10030    2    1    2    0    0  0.00000000000E+00  0.00000000000E+00 -0.63998083978E+03  0.15448901644E+04  0.14060974877E+04 0.  0.
        2    1    3    3  502    0  0.15748196792E+03 -0.67346065825E+03 -0.18132798711E+03  0.71500326387E+03  0.25500000920E-02 0. -1.
       -2    1    3    3    0  502 -0.15748196792E+03  0.67346065825E+03 -0.45865285267E+03  0.82988690055E+03  0.25500000920E-02 0.  1.
</event>
<event>
 5   0  0.3975164E-04  0.1401562E+04  0.7818609E-02  0.8952689E-01
       -2   -1    0    0    0  501  0.00000000000E+00  0.00000000000E+00  0.38981440717E+03  0.38981440718E+03  0.25500000920E-02 0.  1.
        2   -1    0    0  501    0  0.00000000000E+00  0.00000000000E+00 -0.12598153512E+04  0.12598153512E+04  0.25500000920E-02 0. -1.
    10030    2    1    2    0    0  0.00000000000E+00  0.00000000000E+00 -0.87000094406E+03  0.16496297584E+04  0.14015622345E+04 0.  0.
        5    1    3    3  502    0 -0.38934476458E+03 -0.38236824645E+03  0.82444866346E+02  0.55191853347E+03  0.46999998093E+01 0.  1.
       -5    1    3    3    0  502  0.38934476458E+03  0.38236824645E+03 -0.95244581041E+03  0.10977112249E+04  0.46999998093E+01 0. -1.
</event>
<event>
 5   0  0.3975164E-04  0.1407575E+04  0.7818609E-02  0.8948354E-01
        2   -1    0    0  501    0  0.00000000000E+00  0.00000000000E+00  0.14385006840E+04  0.14385006840E+04  0.25500000920E-02 0. -1.
       -2   -1    0    0    0  501  0.00000000000E+00  0.00000000000E+00 -0.34432849144E+03  0.34432849145E+03  0.25500000920E-02 0.  1.
    10030    2    1    2    0    0  0.00000000000E+00  0.00000000000E+00  0.10941721926E+04  0.17828291755E+04  0.14075748939E+04 0.  0.
        5    1    3    3  502    0  0.62167422401E+00  0.47350391620E+03 -0.11238176593E+03  0.48668069249E+03  0.46999998093E+01 0.  1.
       -5    1    3    3    0  502 -0.62167422401E+00 -0.47350391620E+03  0.12065539585E+04  0.12961484830E+04  0.46999998093E+01 0. -1.
</event>
<event>
 5   0  0.4208622E-04  0.1401726E+04  0.7818609E-02  0.8952570E-01
        2   -1    0    0  501    0  0.00000000000E+00  0.00000000000E+00  0.13830845733E+04  0.13830845733E+04  0.25500000920E-02 0.  1.
       -2   -1    0    0    0  501  0.00000000000E+00  0.00000000000E+00 -0.35515461585E+03  0.35515461586E+03  0.25500000920E-02 0. -1.
    10030    2    1    2    0    0  0.00000000000E+00  0.00000000000E+00  0.10279299575E+04  0.17382391892E+04  0.14017258938E+04 0.  0.
        4    1    3    3  502    0 -0.44166641591E+03 -0.58548353159E+02 -0.15694664069E+03  0.47236743487E+03  0.12699999809E+01 0. -1.
       -4    1    3    3    0  502  0.44166641591E+03  0.58548353159E+02  0.11848765982E+04  0.12658717543E+04  0.12699999809E+01 0.  1.
</event>
<event>
 5   0  0.4208622E-04  0.1401062E+04  0.7818609E-02  0.8953050E-01
        2   -1    0    0  501    0  0.00000000000E+00  0.00000000000E+00  0.16649592227E+04  0.16649592227E+04  0.25500000920E-02 0. -1.
       -2   -1    0    0    0  501  0.00000000000E+00  0.00000000000E+00 -0.29474813594E+03  0.29474813595E+03  0.25500000920E-02 0.  1.
    10030    2    1    2    0    0  0.00000000000E+00  0.00000000000E+00  0.13702110867E+04  0.19597073586E+04  0.14010619220E+04 0.  0.
        4    1    3    3  502    0 -0.52770357977E+03  0.52818277106E+02  0.13252918713E+04  0.14274666355E+04  0.12699999809E+01 0. -1.
       -4    1    3    3    0  502  0.52770357977E+03 -0.52818277106E+02  0.44919215418E+02  0.53224072309E+03  0.12699999809E+01 0.  1.
</event>
<event>
 5   0  0.2155352E-04  0.1402413E+04  0.7818609E-02  0.8952074E-01
        1   -1    0    0  501    0  0.00000000000E+00  0.00000000000E+00  0.14958764277E+04  0.14958764277E+04  0.50400001928E-02 0.  1.
       -1   -1    0    0    0  501  0.00000000000E+00  0.00000000000E+00 -0.32869710782E+03  0.32869710786E+03  0.50400001928E-02 0. -1.
    10030    2    1    2    0    0  0.00000000000E+00  0.00000000000E+00  0.11671793199E+04  0.18245735356E+04  0.14024125719E+04 0.  0.
        2    1    3    3  502    0 -0.43597637180E+03 -0.54580331701E+03  0.50430612404E+03  0.86156910598E+03  0.25500000920E-02 0.  1.
       -2    1    3    3    0  502  0.43597637180E+03  0.54580331701E+03  0.66287319583E+03  0.96300442957E+03  0.25500000920E-02 0. -1.
</event>
<event>
 5   0  0.3917598E-04  0.1353786E+04  0.7818609E-02  0.8987967E-01
        2   -1    0    0  501    0  0.00000000000E+00  0.00000000000E+00  0.75141621034E+03  0.75141621034E+03  0.25500000920E-02 0.  1.
       -2   -1    0    0    0  501  0.00000000000E+00  0.00000000000E+00 -0.60976054208E+03  0.60976054209E+03  0.25500000920E-02 0. -1.
    10030    2    1    2    0    0  0.00000000000E+00  0.00000000000E+00  0.14165566826E+03  0.13611767524E+04  0.13537857375E+04 0.  0.
        3    1    3    3  502    0 -0.26135191383E+03  0.38625085547E+03  0.56410733773E+03  0.73192325069E+03  0.10100000352E+00 0.  1.
       -3    1    3    3    0  502  0.26135191383E+03 -0.38625085547E+03 -0.42245166947E+03  0.62925350174E+03  0.10100000352E+00 0. -1.
</event>
<event>
 5   0  0.2143942E-04  0.1392857E+04  0.7818609E-02  0.8959006E-01
        1   -1    0    0  501    0  0.00000000000E+00  0.00000000000E+00  0.47338519108E+03  0.47338519111E+03  0.50400001928E-02 0. -1.
       -1   -1    0    0    0  501  0.00000000000E+00  0.00000000000E+00 -0.10245618379E+04  0.10245618379E+04  0.50400001928E-02 0.  1.
    10030    2    1    2    0    0  0.00000000000E+00  0.00000000000E+00 -0.55117664678E+03  0.14979470290E+04  0.13928566350E+04 0.  0.
        4    1    3    3  502    0 -0.17172299863E+03 -0.38629028847E+03  0.31961428052E+03  0.52996592007E+03  0.12699999809E+01 0. -1.
       -4    1    3    3    0  502  0.17172299863E+03  0.38629028847E+03 -0.87079092730E+03  0.96798110890E+03  0.12699999809E+01 0.  1.
</event>
<event>
 5   0  0.4310348E-04  0.1395501E+04  0.7818609E-02  0.8957082E-01
        2   -1    0    0  501    0  0.00000000000E+00  0.00000000000E+00  0.59624131261E+03  0.59624131262E+03  0.25500000920E-02 0.  1.
       -2   -1    0    0    0  501  0.00000000000E+00  0.00000000000E+00 -0.81654129192E+03  0.81654129193E+03  0.25500000920E-02 0. -1.
    10030    2    1    2    0    0  0.00000000000E+00  0.00000000000E+00 -0.22029997931E+03  0.14127826045E+04  0.13955008444E+04 0.  0.
        1    1    3    3  502    0 -0.20501910622E+03  0.26529163144E+03 -0.72964553917E+03  0.80299134272E+03  0.50400001928E-02 0. -1.
       -1    1    3    3    0  502  0.20501910622E+03 -0.26529163144E+03  0.50934555986E+03  0.60979126183E+03  0.50400001928E-02 0.  1.
</event>
<event>
 5   0  0.3932568E-04  0.1396222E+04  0.7818609E-02  0.8956558E-01
       -2   -1    0    0    0  501  0.00000000000E+00  0.00000000000E+00  0.40749750599E+03  0.40749750599E+03  0.25500000920E-02 0.  1.
        2   -1    0    0  501    0  0.00000000000E+00  0.00000000000E+00 -0.11959794913E+04  0.11959794913E+04  0.25500000920E-02 0. -1.
    10030    2    1    2    0    0  0.00000000000E+00  0.00000000000E+00 -0.78848198536E+03  0.16034769973E+04  0.13962215583E+04 0.  0.
        2    1    3    3  502    0  0.17084925040E+02  0.15636488815E+03 -0.11753633866E+04  0.11858418796E+04  0.25500000920E-02 0. -1.
       -2    1    3    3    0  502 -0.17084925040E+02 -0.15636488815E+03  0.38688140124E+03  0.41763511771E+03  0.25500000920E-02 0.  1.
</event>
<event>
 5   0  0.2143942E-04  0.1405949E+04  0.7818609E-02  0.8949524E-01
        1   -1    0    0  501    0  0.00000000000E+00  0.00000000000E+00  0.75922281387E+03  0.75922281389E+03  0.50400001928E-02 0. -1.
       -1   -1    0    0    0  501  0.00000000000E+00  0.00000000000E+00 -0.65089309815E+03  0.65089309817E+03  0.50400001928E-02 0.  1.
    10030    2    1    2    0    0  0.00000000000E+00  0.00000000000E+00  0.10832971572E+03  0.14101159121E+04  0.14059486328E+04 0.  0.
        4    1    3    3  502    0 -0.20488394219E+02 -0.69576901722E+03  0.15272605237E+03  0.71262974931E+03  0.12699999809E+01 0.  1.
       -4    1    3    3    0  502  0.20488394219E+02  0.69576901722E+03 -0.44396336652E+02  0.69748616275E+03  0.12699999809E+01 0. -1.
</event>
<event>
 5   0  0.2155352E-04  0.1371280E+04  0.7818609E-02  0.8974874E-01
       -1   -1    0    0    0  501  0.00000000000E+00  0.00000000000E+00  0.67692997223E+03  0.67692997225E+03  0.50400001928E-02 0. -1.
        1   -1    0    0  501    0  0.00000000000E+00  0.00000000000E+00 -0.69446176990E+03  0.69446176992E+03  0.50400001928E-02 0.  1.
    10030    2    1    2    0    0  0.00000000000E+00  0.00000000000E+00 -0.17531797668E+02  0.13713917422E+04  0.13712796748E+04 0.  0.
        2    1    3    3  502    0 -0.43415425758E+02  0.52769887318E+03 -0.44440566127E+03  0.69126506619E+03  0.25500000920E-02 0.  1.
       -2    1    3    3    0  502  0.43415425758E+02 -0.52769887318E+03  0.42687386360E+03  0.68012667599E+03  0.25500000920E-02 0. -1.
</event>
<event>
 5   0  0.4208622E-04  0.1400122E+04  0.7818609E-02  0.8953730E-01
       -2   -1    0    0    0  501  0.00000000000E+00  0.00000000000E+00  0.25073364098E+03  0.25073364099E+03  0.25500000920E-02 0. -1.
        2   -1    0    0  501    0  0.00000000000E+00  0.00000000000E+00 -0.19546057322E+04  0.19546057322E+04  0.25500000920E-02 0.  1.
    10030    2    1    2    0    0  0.00000000000E+00  0.00000000000E+00 -0.17038720912E+04  0.22053393731E+04  0.14001220117E+04 0.  0.
        4    1    3    3  502    0 -0.12926281091E+03  0.52914419137E+03 -0.15928125673E+03  0.56751615060E+03  0.12699999809E+01 0. -1.
       -4    1    3    3    0  502  0.12926281091E+03 -0.52914419137E+03 -0.15445908345E+04  0.16378232225E+04  0.12699999809E+01 0.  1.
</event>
<event>
 5   0  0.4208622E-04  0.1401162E+04  0.7818609E-02  0.8952978E-01
        2   -1    0    0  501    0  0.00000000000E+00  0.00000000000E+00  0.61619199020E+03  0.61619199020E+03  0.25500000920E-02 0. -1.
       -2   -1    0    0    0  501  0.00000000000E+00  0.00000000000E+00 -0.79652785574E+03  0.79652785575E+03  0.25500000920E-02 0.  1.
    10030    2    1    2    0    0  0.00000000000E+00  0.00000000000E+00 -0.18033586555E+03  0.14127198460E+04  0.14011624955E+04 0.  0.
        4    1    3    3  502    0  0.39826942501E+03 -0.12758456266E+03  0.47653235463E+03  0.63401975792E+03  0.12699999809E+01 0. -1.
       -4    1    3    3    0  502 -0.39826942501E+03  0.12758456266E+03 -0.65686822017E+03  0.77870008803E+03  0.12699999809E+01 0.  1.
</event>
<event>
 5   0  0.2143942E-04  0.1399904E+04  0.7818609E-02  0.8953888E-01
       -1   -1    0    0    0  501  0.00000000000E+00  0.00000000000E+00  0.34593875824E+03  0.34593875828E+03  0.50400001928E-02 0. -1.
        1   -1    0    0  501    0  0.00000000000E+00  0.00000000000E+00 -0.14162406236E+04  0.14162406236E+04  0.50400001928E-02 0.  1.
    10030    2    1    2    0    0  0.00000000000E+00  0.00000000000E+00 -0.10703018654E+04  0.17621793819E+04  0.13999036006E+04 0.  0.
        4    1    3    3  502    0  0.22842534128E+03  0.58273326810E+03 -0.14073740509E+03  0.64153318572E+03  0.12699999809E+01 0.  1.
       -4    1    3    3    0  502 -0.22842534128E+03 -0.58273326810E+03 -0.92956446029E+03  0.11206461962E+04  0.12699999809E+01 0. -1.
</event>
<event>
 5   0  0.2155352E-04  0.1400791E+04  0.7818609E-02  0.8953246E-01
        1   -1    0    0  501    0  0.00000000000E+00  0.00000000000E+00  0.12177958882E+04  0.12177958882E+04  0.50400001928E-02 0.  1.
       -1   -1    0    0    0  501  0.00000000000E+00  0.00000000000E+00 -0.40282105633E+03  0.40282105636E+03  0.50400001928E-02 0. -1.
    10030    2    1    2    0    0  0.00000000000E+00  0.00000000000E+00  0.81497483187E+03  0.16206169446E+04  0.14007909567E+04 0.  0.
        2    1    3    3  502    0  0.12215111601E+03  0.66093589929E+03  0.17960843940E+03  0.69571283560E+03  0.25500000920E-02 0.  1.
       -2    1    3    3    0  502 -0.12215111601E+03 -0.66093589929E+03  0.63536639246E+03  0.92490410897E+03  0.25500000920E-02 0. -1.
</event>
<event>
 5   0  0.3975164E-04  0.1399571E+04  0.7818609E-02  0.8954129E-01
       -2   -1    0    0    0  501  0.00000000000E+00  0.00000000000E+00  0.60287523141E+03  0.60287523141E+03  0.25500000920E-02 0.  1.
        2   -1    0    0  501    0  0.00000000000E+00  0.00000000000E+00 -0.81227334182E+03  0.81227334183E+03  0.25500000920E-02 0. -1.
    10030    2    1    2    0    0  0.00000000000E+00  0.00000000000E+00 -0.20939811041E+03  0.14151485732E+04  0.13995706183E+04 0.  0.
        5    1    3    3  502    0  0.24639887269E+03 -0.26570569426E+03  0.50060042197E+03  0.61800873205E+03  0.46999998093E+01 0.  1.
       -5    1    3    3    0  502 -0.24639887269E+03  0.26570569426E+03 -0.70999853238E+03  0.79713984119E+03  0.46999998093E+01 0. -1.
</event>
<event>
 5   0  0.1497625E-04  0.1396141E+04  0.7818609E-02  0.8956616E-01
       -4   -1    0    0    0  501  0.00000000000E+00  0.00000000000E+00  0.59346517232E+03  0.59346653120E+03  0.12699999809E+01 0. -1.
        4   -1    0    0  501    0  0.00000000000E+00  0.00000000000E+00 -0.82111125522E+03  0.82111223737E+03  0.12699999809E+01 0.  1.
    10030    2    1    2    0    0  0.00000000000E+00  0.00000000000E+00 -0.22764608290E+03  0.14145787686E+04  0.13961412369E+04 0.  0.
        1    1    3    3  502    0  0.59061270376E+03 -0.37198486197E+03 -0.12427847117E+03  0.70897196123E+03  0.50400001928E-02 0.  1.
       -1    1    3    3    0  502 -0.59061270376E+03  0.37198486197E+03 -0.10336761173E+03  0.70560680734E+03  0.50400001928E-02 0. -1.
</event>
<event>
 5   0  0.2217251E-04  0.1397063E+04  0.7818609E-02  0.8955947E-01
        1   -1    0    0  501    0  0.00000000000E+00  0.00000000000E+00  0.95773009886E+03  0.95773009887E+03  0.50400001928E-02 0.  1.
       -1   -1    0    0    0  501  0.00000000000E+00  0.00000000000E+00 -0.50948178146E+03  0.50948178148E+03  0.50400001928E-02 0. -1.
    10030    2    1    2    0    0  0.00000000000E+00  0.00000000000E+00  0.44824831740E+03  0.14672118804E+04  0.13970626857E+04 0.  0.
        5    1    3    3  502    0 -0.14913774200E+03  0.50604138520E+03 -0.25668941778E+03  0.58671244816E+03  0.46999998093E+01 0. -1.
       -5    1    3    3    0  502  0.14913774200E+03 -0.50604138520E+03  0.70493773518E+03  0.88049943220E+03  0.46999998093E+01 0.  1.
</event>
<event>
 5   0  0.3932568E-04  0.1403669E+04  0.7818609E-02  0.8951167E-01
        2   -1    0    0  501    0  0.00000000000E+00  0.00000000000E+00  0.11548689505E+04  0.11548689505E+04  0.25500000920E-02 0.  1.
       -2   -1    0    0    0  501  0.00000000000E+00  0.00000000000E+00 -0.42651756354E+03  0.42651756355E+03  0.25500000920E-02 0. -1.
    10030    2    1    2    0    0  0.00000000000E+00  0.00000000000E+00  0.72835138697E+03  0.15813865141E+04  0.14036693214E+04 0.  0.
        2    1    3    3  502    0 -0.47064348298E+03  0.20151446244E+03 -0.17666531148E+03  0.54159394285E+03  0.25500000920E-02 0. -1.
       -2    1    3    3    0  502  0.47064348298E+03 -0.20151446244E+03  0.90501669845E+03  0.10397925712E+04  0.25500000920E-02 0.  1.
</event>
<event>
 5   0  0.2143942E-04  0.1400907E+04  0.7818609E-02  0.8953162E-01
        1   -1    0    0  501    0  0.00000000000E+00  0.00000000000E+00  0.11484239814E+04  0.11484239814E+04  0.50400001928E-02 0. -1.
       -1   -1    0    0    0  501  0.00000000000E+00  0.00000000000E+00 -0.42722461901E+03  0.42722461904E+03  0.50400001928E-02 0.  1.
    10030    2    1    2    0    0  0.00000000000E+00  0.00000000000E+00  0.72119936242E+03  0.15756486005E+04  0.14009068463E+04 0.  0.
        4    1    3    3  502    0 -0.31482159483E+03  0.60461742541E+03  0.17938638816E+03  0.70488010103E+03  0.12699999809E+01 0.  1.
       -4    1    3    3    0  502  0.31482159483E+03 -0.60461742541E+03  0.54181297426E+03  0.87076849946E+03  0.12699999809E+01 0. -1.
</event>
<event>
 5   0  0.3917598E-04  0.1411836E+04  0.7818609E-02  0.8945295E-01
       -2   -1    0    0    0  501  0.00000000000E+00  0.00000000000E+00  0.48533892847E+03  0.48533892847E+03  0.25500000920E-02 0.  1.
        2   -1    0    0  501    0  0.00000000000E+00  0.00000000000E+00 -0.10267467662E+04  0.10267467662E+04  0.25500000920E-02 0. -1.
    10030    2    1    2    0    0  0.00000000000E+00  0.00000000000E+00 -0.54140783775E+03  0.15120856947E+04  0.14118359329E+04 0.  0.
        3    1    3    3  502    0 -0.61814902797E+03  0.30994033768E+01 -0.63579364090E+03  0.88676456350E+03  0.10100000352E+00 0.  1.
       -3    1    3    3    0  502  0.61814902797E+03 -0.30994033768E+01  0.94385803150E+02  0.62532113119E+03  0.10100000352E+00 0. -1.
</event>
<event>
 5   0  0.1497625E-04  0.1396880E+04  0.7818609E-02  0.8956080E-01
       -4   -1    0    0    0  501  0.00000000000E+00  0.00000000000E+00  0.54280528788E+03  0.54280677358E+03  0.12699999809E+01 0. -1.
        4   -1    0    0  501    0  0.00000000000E+00  0.00000000000E+00 -0.89869513464E+03  0.89869603199E+03  0.12699999809E+01 0.  1.
    10030    2    1    2    0    0  0.00000000000E+00  0.00000000000E+00 -0.35588984676E+03  0.14415028056E+04  0.13968796496E+04 0.  0.
        5    1    3    3  502    0  0.36639166905E+03 -0.37102720327E+03  0.30153986624E+03  0.60237232809E+03  0.46999998093E+01 0. -1.
       -5    1    3    3    0  502 -0.36639166905E+03  0.37102720327E+03 -0.65742971300E+03  0.83913047749E+03  0.46999998093E+01 0.  1.
</event>
<event>
 5   0  0.3932568E-04  0.1397494E+04  0.7818609E-02  0.8955634E-01
       -2   -1    0    0    0  501  0.00000000000E+00  0.00000000000E+00  0.28779748651E+03  0.28779748652E+03  0.25500000920E-02 0.  1.
        2   -1    0    0  501    0  0.00000000000E+00  0.00000000000E+00 -0.16964965798E+04  0.16964965798E+04  0.25500000920E-02 0. -1.
    10030    2    1    2    0    0  0.00000000000E+00  0.00000000000E+00 -0.14086990933E+04  0.19842940664E+04  0.13974941167E+04 0.  0.
        2    1    3    3  502    0  0.60867669585E+03 -0.19809790886E+03 -0.30648168281E+03  0.70969086472E+03  0.25500000920E-02 0.  1.
       -2    1    3    3    0  502 -0.60867669585E+03  0.19809790886E+03 -0.11022174105E+04  0.12746032016E+04  0.25500000920E-02 0. -1.
</event>
<event>
 5   0  0.2215876E-04  0.1400031E+04  0.7818609E-02  0.8953796E-01
        1   -1    0    0  501    0  0.00000000000E+00  0.00000000000E+00  0.10714724960E+04  0.10714724960E+04  0.50400001928E-02 0.  1.
       -1   -1    0    0    0  501  0.00000000000E+00  0.00000000000E+00 -0.45733473054E+03  0.45733473056E+03  0.50400001928E-02 0. -1.
    10030    2    1    2    0    0  0.00000000000E+00  0.00000000000E+00  0.61413776548E+03  0.15288072266E+04  0.14000308358E+04 0.  0.
        3    1    3    3  502    0  0.67056006786E+02  0.55313737637E+03 -0.15565817384E+03  0.57852134141E+03  0.10100000352E+00 0.  1.
       -3    1    3    3    0  502 -0.67056006786E+02 -0.55313737637E+03  0.76979593932E+03  0.95028588518E+03  0.10100000352E+00 0. -1.
</event>
<event>
 5   0  0.3932568E-04  0.1402514E+04  0.7818609E-02  0.8952001E-01
       -2   -1    0    0    0  501  0.00000000000E+00  0.00000000000E+00  0.64402173918E+03  0.64402173918E+03  0.25500000920E-02 0. -1.
        2   -1    0    0  501    0  0.00000000000E+00  0.00000000000E+00 -0.76357848279E+03  0.76357848280E+03  0.25500000920E-02 0.  1.
    10030    2    1    2    0    0  0.00000000000E+00  0.00000000000E+00 -0.11955674362E+03  0.14076002220E+04  0.14025136612E+04 0.  0.
        2    1    3    3  502    0 -0.37408930467E+02  0.46822724690E+03 -0.58236341613E+03  0.74818669547E+03  0.25500000920E-02 0.  1.
       -2    1    3    3    0  502  0.37408930467E+02 -0.46822724690E+03  0.46280667251E+03  0.65941352652E+03  0.25500000920E-02 0. -1.
</event>
<event>
 5   0  0.2217251E-04  0.1404327E+04  0.7818609E-02  0.8950693E-01
        1   -1    0    0  501    0  0.00000000000E+00  0.00000000000E+00  0.16361321503E+04  0.16361321503E+04  0.50400001928E-02 0.  1.
       -1   -1    0    0    0  501  0.00000000000E+00  0.00000000000E+00 -0.30134086073E+03  0.30134086078E+03  0.50400001928E-02 0. -1.
    10030    2    1    2    0    0  0.00000000000E+00  0.00000000000E+00  0.13347912896E+04  0.19374730111E+04  0.14043268430E+04 0.  0.
        5    1    3    3  502    0  0.56402404827E+03  0.33078892300E+03  0.10203987222E+04  0.12119323747E+04  0.46999998093E+01 0.  1.
       -5    1    3    3    0  502 -0.56402404827E+03 -0.33078892300E+03  0.31439256736E+03  0.72554063636E+03  0.46999998093E+01 0. -1.
</event>
<event>
 5   0  0.2143942E-04  0.1400996E+04  0.7818609E-02  0.8953098E-01
        1   -1    0    0  501    0  0.00000000000E+00  0.00000000000E+00  0.55644319111E+03  0.55644319113E+03  0.50400001928E-02 0. -1.
       -1   -1    0    0    0  501  0.00000000000E+00  0.00000000000E+00 -0.88184675934E+03  0.88184675935E+03  0.50400001928E-02 0.  1.
    10030    2    1    2    0    0  0.00000000000E+00  0.00000000000E+00 -0.32540356823E+03  0.14382899505E+04  0.14009962525E+04 0.  0.
        4    1    3    3  502    0  0.60326434180E+03 -0.26915711340E+03 -0.40197810544E+03  0.77327965701E+03  0.12699999809E+01 0.  1.
       -4    1    3    3    0  502 -0.60326434180E+03  0.26915711340E+03  0.76574537219E+02  0.66501029348E+03  0.12699999809E+01 0. -1.
</event>
<event>
 5   0  0.3917598E-04  0.1381159E+04  0.7818609E-02  0.8967570E-01
       -2   -1    0    0    0  501  0.00000000000E+00  0.00000000000E+00  0.53802242256E+03  0.53802242257E+03  0.25500000920E-02 0.  1.
        2   -1    0    0  501    0  0.00000000000E+00  0.00000000000E+00 -0.88639474807E+03  0.88639474807E+03  0.25500000920E-02 0. -1.
    10030    2    1    2    0    0  0.00000000000E+00  0.00000000000E+00 -0.34837232551E+03  0.14244171706E+04  0.13811592952E+04 0.  0.
        3    1    3    3  502    0  0.20568140866E+03 -0.27222505932E+03 -0.79339819513E+03  0.86365041019E+03  0.10100000352E+00 0. -1.
       -3    1    3    3    0  502 -0.20568140866E+03  0.27222505932E+03  0.44502586962E+03  0.56076676045E+03  0.10100000352E+00 0.  1.
</event>
<event>
 5   0  0.2215876E-04  0.1401466E+04  0.7818609E-02  0.8952758E-01
        1   -1    0    0  501    0  0.00000000000E+00  0.00000000000E+00  0.60170580357E+03  0.60170580359E+03  0.50400001928E-02 0.  1.
       -1   -1    0    0    0  501  0.00000000000E+00  0.00000000000E+00 -0.81605741990E+03  0.81605741991E+03  0.50400001928E-02 0. -1.
    10030    2    1    2    0    0  0.00000000000E+00  0.00000000000E+00 -0.21435161633E+03  0.14177632235E+04  0.14014656409E+04 0.  0.
        3    1    3    3  502    0 -0.68006162494E+03  0.15025131007E+03 -0.18532180765E+03  0.72069650512E+03  0.10100000352E+00 0. -1.
       -3    1    3    3    0  502  0.68006162494E+03 -0.15025131007E+03 -0.29029808676E+02  0.69706671839E+03  0.10100000352E+00 0.  1.
</event>
<event>
 5   0  0.2155352E-04  0.1407183E+04  0.7818609E-02  0.8948635E-01
        1   -1    0    0  501    0  0.00000000000E+00  0.00000000000E+00  0.81978684251E+03  0.81978684253E+03  0.50400001928E-02 0.  1.
       -1   -1    0    0    0  501  0.00000000000E+00  0.00000000000E+00 -0.60386552544E+03  0.60386552546E+03  0.50400001928E-02 0. -1.
    10030    2    1    2    0    0  0.00000000000E+00  0.00000000000E+00  0.21592131707E+03  0.14236523680E+04  0.14071830193E+04 0.  0.
        2    1    3    3  502    0  0.38930084290E+03  0.51234266721E+03 -0.17995903250E+03  0.66815822102E+03  0.25500000920E-02 0. -1.
       -2    1    3    3    0  502 -0.38930084290E+03 -0.51234266721E+03  0.39588034958E+03  0.75549414697E+03  0.25500000920E-02 0.  1.
</event>
<event>
 5   0  0.2155352E-04  0.1401405E+04  0.7818609E-02  0.8952802E-01
       -1   -1    0    0    0  501  0.00000000000E+00  0.00000000000E+00  0.41200226131E+03  0.41200226134E+03  0.50400001928E-02 0.  1.
        1   -1    0    0  501    0  0.00000000000E+00  0.00000000000E+00 -0.11917026970E+04  0.11917026970E+04  0.50400001928E-02 0. -1.
    10030    2    1    2    0    0  0.00000000000E+00  0.00000000000E+00 -0.77970043568E+03  0.16037049583E+04  0.14014053033E+04 0.  0.
        2    1    3    3  502    0 -0.58557422509E+03  0.26704770635E+03 -0.72773967511E+02  0.64769414148E+03  0.25500000920E-02 0.  1.
       -2    1    3    3    0  502  0.58557422509E+03 -0.26704770635E+03 -0.70692646817E+03  0.95601081686E+03  0.25500000920E-02 0. -1.
</event>
<event>
 5   0  0.4208622E-04  0.1403114E+04  0.7818609E-02  0.8951567E-01
        2   -1    0    0  501    0  0.00000000000E+00  0.00000000000E+00  0.18424923684E+04  0.18424923684E+04  0.25500000920E-02 0. -1.
       -2   -1    0    0    0  501  0.00000000000E+00  0.00000000000E+00 -0.26712863435E+03  0.26712863437E+03  0.25500000920E-02 0.  1.
    10030    2    1    2    0    0  0.00000000000E+00  0.00000000000E+00  0.15753637341E+04  0.21096210028E+04  0.14031143506E+04 0.  0.
        4    1    3    3  502    0  0.20690228720E+03  0.53077702751E+02  0.17924107350E+04  0.18050938078E+04  0.12699999809E+01 0. -1.
       -4    1    3    3    0  502 -0.20690228720E+03 -0.53077702751E+02 -0.21704700095E+03  0.30452719501E+03  0.12699999809E+01 0.  1.
</event>
<event>
 5   0  0.2223112E-04  0.1388914E+04  0.7818609E-02  0.8961883E-01
        1   -1    0    0  501    0  0.00000000000E+00  0.00000000000E+00  0.23154801743E+04  0.23154801743E+04  0.50400001928E-02 0.  1.
       -1   -1    0    0    0  501  0.00000000000E+00  0.00000000000E+00 -0.20828093029E+03  0.20828093035E+03  0.50400001928E-02 0. -1.
    10030    2    1    2    0    0  0.00000000000E+00  0.00000000000E+00  0.21071992440E+04  0.25237611046E+04  0.13889137696E+04 0.  0.
        1    1    3    3  502    0  0.26557914496E+03 -0.14863265593E+03 -0.80649109989E+02  0.31484635556E+03  0.50400001928E-02 0. -1.
       -1    1    3    3    0  502 -0.26557914496E+03  0.14863265593E+03  0.21878483540E+04  0.22089147491E+04  0.50400001928E-02 0.  1.
</event>
<event>
 5   0  0.2223112E-04  0.1337870E+04  0.7818609E-02  0.9000062E-01
       -1   -1    0    0    0  501  0.00000000000E+00  0.00000000000E+00  0.57878896301E+03  0.57878896303E+03  0.50400001928E-02 0.  1.
        1   -1    0    0  501    0  0.00000000000E+00  0.00000000000E+00 -0.77312090081E+03  0.77312090083E+03  0.50400001928E-02 0. -1.
    10030    2    1    2    0    0  0.00000000000E+00  0.00000000000E+00 -0.19433193780E+03  0.13519098639E+04  0.13378697164E+04 0.  0.
        1    1    3    3  502    0  0.53143740087E+03 -0.42152848370E+02  0.31114288743E+03  0.61726207570E+03  0.50400001928E-02 0.  1.
       -1    1    3    3    0  502 -0.53143740087E+03  0.42152848370E+02 -0.50547482523E+03  0.73464778816E+03  0.50400001928E-02 0. -1.
</event>
<event>
 5   0  0.3975164E-04  0.1399183E+04  0.7818609E-02  0.8954410E-01
        2   -1    0    0  501    0  0.00000000000E+00  0.00000000000E+00  0.84997323342E+03  0.84997323343E+03  0.25500000920E-02 0. -1.
       -2   -1    0    0    0  501  0.00000000000E+00  0.00000000000E+00 -0.57581630830E+03  0.57581630831E+03  0.25500000920E-02 0.  1.
    10030    2    1    2    0    0  0.00000000000E+00  0.00000000000E+00  0.27415692512E+03  0.14257895417E+04  0.13991832610E+04 0.  0.
        5    1    3    3  502    0  0.17345144800E+03  0.16669578982E+03  0.80648209681E+03  0.84161057124E+03  0.46999998093E+01 0. -1.
       -5    1    3    3    0  502 -0.17345144800E+03 -0.16669578982E+03 -0.53232517169E+03  0.58417897049E+03  0.46999998093E+01 0.  1.
</event>
<event>
 5   0  0.4310348E-04  0.1399073E+04  0.7818609E-02  0.8954490E-01
       -2   -1    0    0    0  501  0.00000000000E+00  0.00000000000E+00  0.62860604190E+03  0.62860604190E+03  0.25500000920E-02 0.  1.
        2   -1    0    0  501    0  0.00000000000E+00  0.00000000000E+00 -0.77847029978E+03  0.77847029978E+03  0.25500000920E-02 0. -1.
    10030    2    1    2    0    0  0.00000000000E+00  0.00000000000E+00 -0.14986425788E+03  0.14070763417E+04  0.13990727413E+04 0.  0.
        1    1    3    3  502    0 -0.29880276332E+03  0.52732537405E+03  0.27634522108E+03  0.66612447990E+03  0.50400001928E-02 0.  1.
       -1    1    3    3    0  502  0.29880276332E+03 -0.52732537405E+03 -0.42620947896E+03  0.74095186178E+03  0.50400001928E-02 0. -1.
</event>
<event>
 5   0  0.4310348E-04  0.1408991E+04  0.7818609E-02  0.8947336E-01
       -2   -1    0    0    0  501  0.00000000000E+00  0.00000000000E+00  0.40791397556E+03  0.40791397557E+03  0.25500000920E-02 0. -1.
        2   -1    0    0  501    0  0.00000000000E+00  0.00000000000E+00 -0.12167129969E+04  0.12167129969E+04  0.25500000920E-02 0.  1.
    10030    2    1    2    0    0  0.00000000000E+00  0.00000000000E+00 -0.80879902134E+03  0.16246269725E+04  0.14089914630E+04 0.  0.
        1    1    3    3  502    0 -0.25487788413E+03  0.63947147097E+03 -0.23172110458E+03  0.72634782875E+03  0.50400001928E-02 0.  1.
       -1    1    3    3    0  502  0.25487788413E+03 -0.63947147097E+03 -0.57707791676E+03  0.89827914372E+03  0.50400001928E-02 0. -1.
</event>
<event>
 5   0  0.2215876E-04  0.1405120E+04  0.7818609E-02  0.8950121E-01
        1   -1    0    0  501    0  0.00000000000E+00  0.00000000000E+00  0.10674892890E+04  0.10674892890E+04  0.50400001928E-02 0.  1.
       -1   -1    0    0    0  501  0.00000000000E+00  0.00000000000E+00 -0.46238447792E+03  0.46238447795E+03  0.50400001928E-02 0. -1.
    10030    2    1    2    0    0  0.00000000000E+00  0.00000000000E+00  0.60510481103E+03  0.15298737669E+04  0.14051198918E+04 0.  0.
        3    1    3    3  502    0  0.21464512495E+03  0.14025977423E+03 -0.40962060985E+03  0.48325395823E+03  0.10100000352E+00 0. -1.
       -3    1    3    3    0  502 -0.21464512495E+03 -0.14025977423E+03  0.10147254209E+04  0.10466198087E+04  0.10100000352E+00 0.  1.
</event>
<event>
 5   0  0.3975164E-04  0.1391016E+04  0.7818609E-02  0.8960347E-01
       -2   -1    0    0    0  501  0.00000000000E+00  0.00000000000E+00  0.38351056226E+03  0.38351056227E+03  0.25500000920E-02 0.  1.
        2   -1    0    0  501    0  0.00000000000E+00  0.00000000000E+00 -0.12613248062E+04  0.12613248062E+04  0.25500000920E-02 0. -1.
    10030    2    1    2    0    0  0.00000000000E+00  0.00000000000E+00 -0.87781424395E+03  0.16448353685E+04  0.13910160109E+04 0.  0.
        5    1    3    3  502    0  0.34371890206E+03 -0.22960319522E+03 -0.11002972101E+04  0.11753877451E+04  0.46999998093E+01 0. -1.
       -5    1    3    3    0  502 -0.34371890206E+03  0.22960319522E+03  0.22248296611E+03  0.46944762338E+03  0.46999998093E+01 0.  1.
</event>
<event>
 5   0  0.3932568E-04  0.1395448E+04  0.7818609E-02  0.8957120E-01
        2   -1    0    0  501    0  0.00000000000E+00  0.00000000000E+00  0.49148944981E+03  0.49148944982E+03  0.25500000920E-02 0. -1.
       -2   -1    0    0    0  501  0.00000000000E+00  0.00000000000E+00 -0.99049665587E+03  0.99049665588E+03  0.25500000920E-02 0.  1.
    10030    2    1    2    0    0  0.00000000000E+00  0.00000000000E+00 -0.49900720606E+03  0.14819861057E+04  0.13954478227E+04 0.  0.
        2    1    3    3  502    0 -0.41012418051E+03 -0.44022473447E+03 -0.62471055135E+03  0.86733092488E+03  0.25500000920E-02 0.  1.
       -2    1    3    3    0  502  0.41012418051E+03  0.44022473447E+03  0.12570334529E+03  0.61465518081E+03  0.25500000920E-02 0. -1.
</event>
<event>
 5   0  0.2217251E-04  0.1399744E+04  0.7818609E-02  0.8954004E-01
       -1   -1    0    0    0  501  0.00000000000E+00  0.00000000000E+00  0.57995412781E+03  0.57995412784E+03  0.50400001928E-02 0. -1.
        1   -1    0    0  501    0  0.00000000000E+00  0.00000000000E+00 -0.84458569160E+03  0.84458569161E+03  0.50400001928E-02 0.  1.
    10030    2    1    2    0    0  0.00000000000E+00  0.00000000000E+00 -0.26463156378E+03  0.14245398194E+04  0.13997442026E+04 0.  0.
        5    1    3    3  502    0 -0.19556774278E+03 -0.11848098532E+02  0.55145784329E+03  0.58524777862E+03  0.46999998093E+01 0. -1.
       -5    1    3    3    0  502  0.19556774278E+03  0.11848098532E+02 -0.81608940708E+03  0.83929204083E+03  0.46999998093E+01 0.  1.
</event>
<event>
 5   0  0.4310348E-04  0.1397883E+04  0.7818609E-02  0.8955352E-01
       -2   -1    0    0    0  501  0.00000000000E+00  0.00000000000E+00  0.14786888551E+04  0.14786888551E+04  0.25500000920E-02 0. -1.
        2   -1    0    0  501    0  0.00000000000E+00  0.00000000000E+00 -0.33037333226E+03  0.33037333227E+03  0.25500000920E-02 0.  1.
    10030    2    1    2    0    0  0.00000000000E+00  0.00000000000E+00  0.11483155229E+04  0.18090621874E+04  0.13978832061E+04 0.  0.
        1    1    3    3  502    0  0.58853201336E+03 -0.35447159029E+03  0.40792535106E+03  0.79901384915E+03  0.50400001928E-02 0.  1.
       -1    1    3    3    0  502 -0.58853201336E+03  0.35447159029E+03  0.74039017182E+03  0.10100483383E+04  0.50400001928E-02 0. -1.
</event>
<event>
 5   0  0.4208622E-04  0.1405178E+04  0.7818609E-02  0.8950079E-01
        2   -1    0    0  501    0  0.00000000000E+00  0.00000000000E+00  0.19908564482E+04  0.19908564482E+04  0.25500000920E-02 0.  1.
       -2   -1    0    0    0  501  0.00000000000E+00  0.00000000000E+00 -0.24794936684E+03  0.24794936686E+03  0.25500000920E-02 0. -1.
    10030    2    1    2    0    0  0.00000000000E+00  0.00000000000E+00  0.17429070814E+04  0.22388058151E+04  0.14051784169E+04 0.  0.
        4    1    3    3  502    0  0.62176238471E+03  0.27898272833E+03  0.59915086880E+03  0.90741567224E+03  0.12699999809E+01 0. -1.
       -4    1    3    3    0  502 -0.62176238471E+03 -0.27898272833E+03  0.11437562126E+04  0.13313901429E+04  0.12699999809E+01 0.  1.
</event>
<event>
 5   0  0.4310348E-04  0.1400704E+04  0.7818609E-02  0.8953309E-01
        2   -1    0    0  501    0  0.00000000000E+00  0.00000000000E+00  0.24641482275E+04  0.24641482275E+04  0.25500000920E-02 0.  1.
       -2   -1    0    0    0  501  0.00000000000E+00  0.00000000000E+00 -0.19905158847E+03  0.19905158848E+03  0.25500000920E-02 0. -1.
    10030    2    1    2    0    0  0.00000000000E+00  0.00000000000E+00  0.22650966390E+04  0.26631998159E+04  0.14007035645E+04 0.  0.
        1    1    3    3  502    0  0.60133829407E+03 -0.33744368276E+03  0.13655418404E+04  0.15297648515E+04  0.50400001928E-02 0.  1.
       -1    1    3    3    0  502 -0.60133829407E+03  0.33744368276E+03  0.89955479860E+03  0.11334349645E+04  0.50400001928E-02 0. -1.
</event>
<event>
 5   0  0.3932568E-04  0.1408391E+04  0.7818609E-02  0.8947767E-01
       -2   -1    0    0    0  501  0.00000000000E+00  0.00000000000E+00  0.47163558210E+03  0.47163558211E+03  0.25500000920E-02 0. -1.
        2   -1    0    0  501    0  0.00000000000E+00  0.00000000000E+00 -0.10514293271E+04  0.10514293271E+04  0.25500000920E-02 0.  1.
    10030    2    1    2    0    0  0.00000000000E+00  0.00000000000E+00 -0.57979374503E+03  0.15230649092E+04  0.14083912564E+04 0.  0.
        2    1    3    3  502    0 -0.25981478094E+03  0.19781643257E+03  0.38480666142E+03  0.50468923911E+03  0.25500000920E-02 0. -1.
       -2    1    3    3    0  502  0.25981478094E+03 -0.19781643257E+03 -0.96460040646E+03  0.10183756701E+04  0.25500000920E-02 0.  1.
</event>
<event>
 5   0  0.2155352E-04  0.1395941E+04  0.7818609E-02  0.8956762E-01
       -1   -1    0    0    0  501  0.00000000000E+00  0.00000000000E+00  0.31577557181E+03  0.31577557185E+03  0.50400001928E-02 0.  1.
        1   -1    0    0  501    0  0.00000000000E+00  0.00000000000E+00 -0.15427509756E+04  0.15427509756E+04  0.50400001928E-02 0. -1.
    10030    2    1    2    0    0  0.00000000000E+00  0.00000000000E+00 -0.12269754038E+04  0.18585265475E+04  0.13959413620E+04 0.  0.
        2    1    3    3  502    0  0.49513021983E+03  0.12578107093E+02 -0.12682376498E+04  0.13615207967E+04  0.25500000920E-02 0. -1.
       -2    1    3    3    0  502 -0.49513021983E+03 -0.12578107093E+02  0.41262246021E+02  0.49700575079E+03  0.25500000920E-02 0.  1.
</event>
<event>
 5   0  0.2155352E-04  0.1400115E+04  0.7818609E-02  0.8953735E-01
       -1   -1    0    0    0  501  0.00000000000E+00  0.00000000000E+00  0.24599523589E+03  0.24599523594E+03  0.50400001928E-02 0.  1.
        1   -1    0    0  501    0  0.00000000000E+00  0.00000000000E+00 -0.19922361482E+04  0.19922361482E+04  0.50400001928E-02 0. -1.
    10030    2    1    2    0    0  0.00000000000E+00  0.00000000000E+00 -0.17462409123E+04  0.22382313841E+04  0.14001151400E+04 0.  0.
        2    1    3    3  502    0  0.64919092900E+03  0.23590183720E+03 -0.69097721017E+03  0.97700974614E+03  0.25500000920E-02 0.  1.
       -2    1    3    3    0  502 -0.64919092900E+03 -0.23590183720E+03 -0.10552637021E+04  0.12612216380E+04  0.25500000920E-02 0. -1.
</event>
<event>
 5   0  0.4310348E-04  0.1398393E+04  0.7818609E-02  0.8954982E-01
        2   -1    0    0  501    0  0.00000000000E+00  0.00000000000E+00  0.72900933755E+03  0.72900933756E+03  0.25500000920E-02 0. -1.
       -2   -1    0    0    0  501  0.00000000000E+00  0.00000000000E+00 -0.67060316261E+03  0.67060316261E+03  0.25500000920E-02 0.  1.
    10030    2    1    2    0    0  0.00000000000E+00  0.00000000000E+00  0.58406174946E+02  0.13996125002E+04  0.13983933171E+04 0.  0.
        1    1    3    3  502    0  0.21005280343E+02 -0.69771408682E+03  0.69609048288E+02  0.70149240080E+03  0.50400001928E-02 0.  1.
       -1    1    3    3    0  502 -0.21005280343E+02  0.69771408682E+03 -0.11202873341E+02  0.69812009937E+03  0.50400001928E-02 0. -1.
</event>
<event>
 5   0  0.2223112E-04  0.1403839E+04  0.7818609E-02  0.8951045E-01
       -1   -1    0    0    0  501  0.00000000000E+00  0.00000000000E+00  0.40411551243E+03  0.40411551246E+03  0.50400001928E-02 0.  1.
        1   -1    0    0  501    0  0.00000000000E+00  0.00000000000E+00 -0.12191828044E+04  0.12191828044E+04  0.50400001928E-02 0. -1.
    10030    2    1    2    0    0  0.00000000000E+00  0.00000000000E+00 -0.81506729197E+03  0.16232983169E+04  0.14038385716E+04 0.  0.
        1    1    3    3  502    0 -0.28001857540E+02 -0.23386205167E+03  0.35705660123E+03  0.42774405869E+03  0.50400001928E-02 0.  1.
       -1    1    3    3    0  502  0.28001857540E+02  0.23386205167E+03 -0.11721238932E+04  0.11955542582E+04  0.50400001928E-02 0. -1.
</event>
<event>
 5   0  0.2217251E-04  0.1401011E+04  0.7818609E-02  0.8953087E-01
        1   -1    0    0  501    0  0.00000000000E+00  0.00000000000E+00  0.91910800469E+03  0.91910800471E+03  0.50400001928E-02 0. -1.
       -1   -1    0    0    0  501  0.00000000000E+00  0.00000000000E+00 -0.53389586723E+03  0.53389586726E+03  0.50400001928E-02 0.  1.
    10030    2    1    2    0    0  0.00000000000E+00  0.00000000000E+00  0.38521213746E+03  0.14530038720E+04  0.14010110139E+04 0.  0.
        5    1    3    3  502    0 -0.49769090583E+03  0.49053009175E+03  0.24309395331E+03  0.73988699731E+03  0.46999998093E+01 0. -1.
       -5    1    3    3    0  502  0.49769090583E+03 -0.49053009175E+03  0.14211818415E+03  0.71311687466E+03  0.46999998093E+01 0.  1.
</event>
<event>
 5   0  0.3917598E-04  0.1396736E+04  0.7818609E-02  0.8956185E-01
        2   -1    0    0  501    0  0.00000000000E+00  0.00000000000E+00  0.12575325016E+04  0.12575325017E+04  0.25500000920E-02 0.  1.
       -2   -1    0    0    0  501  0.00000000000E+00  0.00000000000E+00 -0.38783722790E+03  0.38783722790E+03  0.25500000920E-02 0. -1.
    10030    2    1    2    0    0  0.00000000000E+00  0.00000000000E+00  0.86969527375E+03  0.16453697296E+04  0.13967360802E+04 0.  0.
        3    1    3    3  502    0 -0.55324954150E+03 -0.30273042101E+03  0.81469732481E+02  0.63589943426E+03  0.10100000352E+00 0. -1.
       -3    1    3    3    0  502  0.55324954150E+03  0.30273042101E+03  0.78822554127E+03  0.10094702953E+04  0.10100000352E+00 0.  1.
</event>
<event>
 5   0  0.2143942E-04  0.1395953E+04  0.7818609E-02  0.8956753E-01
       -1   -1    0    0    0  501  0.00000000000E+00  0.00000000000E+00  0.73827275202E+03  0.73827275203E+03  0.50400001928E-02 0.  1.
        1   -1    0    0  501    0  0.00000000000E+00  0.00000000000E+00 -0.65987956279E+03  0.65987956281E+03  0.50400001928E-02 0. -1.
    10030    2    1    2    0    0  0.00000000000E+00  0.00000000000E+00  0.78393189227E+02  0.13981523148E+04  0.13959528657E+04 0.  0.
        4    1    3    3  502    0  0.20532578834E+03 -0.46340062191E+02  0.70572495017E+03  0.73644782498E+03  0.12699999809E+01 0.  1.
       -4    1    3    3    0  502 -0.20532578834E+03  0.46340062191E+02 -0.62733176094E+03  0.66170448987E+03  0.12699999809E+01 0. -1.
</event>
<event>
 5   0  0.3932568E-04  0.1411248E+04  0.7818609E-02  0.8945717E-01
        2   -1    0    0  501    0  0.00000000000E+00  0.00000000000E+00  0.16755952452E+04  0.16755952452E+04  0.25500000920E-02 0. -1.
       -2   -1    0    0    0  501  0.00000000000E+00  0.00000000000E+00 -0.29715117317E+03  0.29715117318E+03  0.25500000920E-02 0.  1.
    10030    2    1    2    0    0  0.00000000000E+00  0.00000000000E+00  0.13784440720E+04  0.19727464183E+04  0.14112478065E+04 0.  0.
        2    1    3    3  502    0 -0.30160331367E+03 -0.15659069283E+03  0.15536687329E+04  0.15903998665E+04  0.25500000920E-02 0. -1.
       -2    1    3    3    0  502  0.30160331367E+03  0.15659069283E+03 -0.17522466088E+03  0.38234655182E+03  0.25500000920E-02 0.  1.
</event>
<event>
 5   0  0.2143942E-04  0.1391959E+04  0.7818609E-02  0.8959659E-01
        1   -1    0    0  501    0  0.00000000000E+00  0.00000000000E+00  0.26469360247E+03  0.26469360252E+03  0.50400001928E-02 0.  1.
       -1   -1    0    0    0  501  0.00000000000E+00  0.00000000000E+00 -0.18299939484E+04  0.18299939484E+04  0.50400001928E-02 0. -1.
    10030    2    1    2    0    0  0.00000000000E+00  0.00000000000E+00 -0.15653003459E+04  0.20946875509E+04  0.13919593252E+04 0.  0.
        4    1    3    3  502    0  0.58742767736E+03 -0.57474795914E+02 -0.13376341457E+04  0.14620674912E+04  0.12699999809E+01 0. -1.
       -4    1    3    3    0  502 -0.58742767736E+03  0.57474795914E+02 -0.22766620023E+03  0.63262005969E+03  0.12699999809E+01 0.  1.
</event>
<event>
 5   0  0.2223112E-04  0.1398425E+04  0.7818609E-02  0.8954959E-01
        1   -1    0    0  501    0  0.00000000000E+00  0.00000000000E+00  0.77338630186E+03  0.77338630187E+03  0.50400001928E-02 0.  1.
       -1   -1    0    0    0  501  0.00000000000E+00  0.00000000000E+00 -0.63215282939E+03  0.63215282941E+03  0.50400001928E-02 0. -1.
    10030    2    1    2    0    0  0.00000000000E+00  0.00000000000E+00  0.14123347246E+03  0.14055391313E+04  0.13984253129E+04 0.  0.
        1    1    3    3  502    0  0.39368545164E+03  0.51792879144E+03 -0.18692859272E+03  0.67689051303E+03  0.50400001928E-02 0.  1.
       -1    1    3    3    0  502 -0.39368545164E+03 -0.51792879144E+03  0.32816206518E+03  0.72864861825E+03  0.50400001928E-02 0. -1.
</event>
<event>
 5   0  0.3975164E-04  0.1410026E+04  0.7818609E-02  0.8946593E-01
        2   -1    0    0  501    0  0.00000000000E+00  0.00000000000E+00  0.93046618971E+03  0.93046618971E+03  0.25500000920E-02 0.  1.
       -2   -1    0    0    0  501  0.00000000000E+00  0.00000000000E+00 -0.53418724294E+03  0.53418724294E+03  0.25500000920E-02 0. -1.
    10030    2    1    2    0    0  0.00000000000E+00  0.00000000000E+00  0.39627894677E+03  0.14646534327E+04  0.14100257707E+04 0.  0.
        5    1    3    3  502    0  0.26847818039E+03  0.27348007716E+03  0.81279867592E+03  0.89862988128E+03  0.46999998093E+01 0.  1.
       -5    1    3    3    0  502 -0.26847818039E+03 -0.27348007716E+03 -0.41651972914E+03  0.56602355138E+03  0.46999998093E+01 0. -1.
</event>
<event>
 5   0  0.2215876E-04  0.1394932E+04  0.7818609E-02  0.8957495E-01
       -1   -1    0    0    0  501  0.00000000000E+00  0.00000000000E+00  0.11963933379E+04  0.11963933379E+04  0.50400001928E-02 0.  1.
        1   -1    0    0  501    0  0.00000000000E+00  0.00000000000E+00 -0.40660460806E+03  0.40660460809E+03  0.50400001928E-02 0. -1.
    10030    2    1    2    0    0  0.00000000000E+00  0.00000000000E+00  0.78978872984E+03  0.16029979460E+04  0.13949323199E+04 0.  0.
        3    1    3    3  502    0  0.40470691181E+03 -0.56298612667E+03  0.30799816292E+03  0.75868566735E+03  0.10100000352E+00 0. -1.
       -3    1    3    3    0  502 -0.40470691181E+03  0.56298612667E+03  0.48179056693E+03  0.84431227864E+03  0.10100000352E+00 0.  1.
</event>
<event>
 5   0  0.2217251E-04  0.1397057E+04  0.7818609E-02  0.8955952E-01
        1   -1    0    0  501    0  0.00000000000E+00  0.00000000000E+00  0.12759984592E+04  0.12759984592E+04  0.50400001928E-02 0. -1.
       -1   -1    0    0    0  501  0.00000000000E+00  0.00000000000E+00 -0.38240016868E+03  0.38240016871E+03  0.50400001928E-02 0.  1.
    10030    2    1    2    0    0  0.00000000000E+00  0.00000000000E+00  0.89359829053E+03  0.16583986279E+04  0.13970569438E+04 0.  0.
        5    1    3    3  502    0 -0.39904585325E+03  0.46757272949E+03  0.84060829191E+03  0.10413962938E+04  0.46999998093E+01 0. -1.
       -5    1    3    3    0  502  0.39904585325E+03 -0.46757272949E+03  0.52989998628E+02  0.61700233412E+03  0.46999998093E+01 0.  1.
</event>
<event>
 5   0  0.3932568E-04  0.1403841E+04  0.7818609E-02  0.8951043E-01
       -2   -1    0    0    0  501  0.00000000000E+00  0.00000000000E+00  0.50053323147E+03  0.50053323147E+03  0.25500000920E-02 0. -1.
        2   -1    0    0  501    0  0.00000000000E+00  0.00000000000E+00 -0.98433558997E+03  0.98433558998E+03  0.25500000920E-02 0.  1.
    10030    2    1    2    0    0  0.00000000000E+00  0.00000000000E+00 -0.48380235851E+03  0.14848688215E+04  0.14038414066E+04 0.  0.
        2    1    3    3  502    0  0.11934074960E+03 -0.14560722320E+03  0.47332997038E+03  0.50939664195E+03  0.25500000920E-02 0. -1.
       -2    1    3    3    0  502 -0.11934074960E+03  0.14560722320E+03 -0.95713232889E+03  0.97547217950E+03  0.25500000920E-02 0.  1.
</event>
<event>
 5   0  0.4208622E-04  0.1407987E+04  0.7818609E-02  0.8948057E-01
       -2   -1    0    0    0  501  0.00000000000E+00  0.00000000000E+00  0.13854822942E+04  0.13854822942E+04  0.25500000920E-02 0. -1.
        2   -1    0    0  501    0  0.00000000000E+00  0.00000000000E+00 -0.35771449743E+03  0.35771449744E+03  0.25500000920E-02 0.  1.
    10030    2    1    2    0    0  0.00000000000E+00  0.00000000000E+00  0.10277677968E+04  0.17431967917E+04  0.14079873616E+04 0.  0.
        4    1    3    3  502    0 -0.69162036160E+03  0.74137124921E+02  0.37956280193E+03  0.79240429794E+03  0.12699999809E+01 0.  1.
       -4    1    3    3    0  502  0.69162036160E+03 -0.74137124921E+02  0.64820499487E+03  0.95079249374E+03  0.12699999809E+01 0. -1.
</event>
<event>
 5   0  0.2215876E-04  0.1399504E+04  0.7818609E-02  0.8954178E-01
        1   -1    0    0  501    0  0.00000000000E+00  0.00000000000E+00  0.48807244275E+03  0.48807244278E+03  0.50400001928E-02 0. -1.
       -1   -1    0    0    0  501  0.00000000000E+00  0.00000000000E+00 -0.10032379411E+04  0.10032379411E+04  0.50400001928E-02 0.  1.
    10030    2    1    2    0    0  0.00000000000E+00  0.00000000000E+00 -0.51516549835E+03  0.14913103839E+04  0.13995039015E+04 0.  0.
        3    1    3    3  502    0  0.14873114546E+03 -0.34044769890E+03  0.37429804488E+03  0.52737522308E+03  0.10100000352E+00 0. -1.
       -3    1    3    3    0  502 -0.14873114546E+03  0.34044769890E+03 -0.88946354322E+03  0.96393516081E+03  0.10100000352E+00 0.  1.
</event>
<event>
 5   0  0.3932568E-04  0.1409863E+04  0.7818609E-02  0.8946710E-01
        2   -1    0    0  501    0  0.00000000000E+00  0.00000000000E+00  0.17258749891E+04  0.17258749891E+04  0.25500000920E-02 0.  1.
       -2   -1    0    0    0  501  0.00000000000E+00  0.00000000000E+00 -0.28792850634E+03  0.28792850635E+03  0.25500000920E-02 0. -1.
    10030    2    1    2    0    0  0.00000000000E+00  0.00000000000E+00  0.14379464828E+04  0.20138034955E+04  0.14098632668E+04 0.  0.
        2    1    3    3  502    0 -0.29137828746E+03 -0.53502861213E+03  0.21241249209E+03  0.64519453579E+03  0.25500000920E-02 0. -1.
       -2    1    3    3    0  502  0.29137828746E+03  0.53502861213E+03  0.12255339907E+04  0.13686089597E+04  0.25500000920E-02 0.  1.
</event>
<event>
 5   0  0.4208622E-04  0.1393047E+04  0.7818609E-02  0.8958867E-01
       -2   -1    0    0    0  501  0.00000000000E+00  0.00000000000E+00  0.17423203534E+03  0.17423203536E+03  0.25500000920E-02 0. -1.
        2   -1    0    0  501    0  0.00000000000E+00  0.00000000000E+00 -0.27844759400E+04  0.27844759400E+04  0.25500000920E-02 0.  1.
    10030    2    1    2    0    0  0.00000000000E+00  0.00000000000E+00 -0.26102439047E+04  0.29587079754E+04  0.13930468914E+04 0.  0.
        4    1    3    3  502    0  0.30963531234E+03 -0.49580247225E+03 -0.50069724534E+03  0.76967100928E+03  0.12699999809E+01 0. -1.
       -4    1    3    3    0  502 -0.30963531234E+03  0.49580247225E+03 -0.21095466593E+04  0.21890369661E+04  0.12699999809E+01 0.  1.
</event>
<event>
 5   0  0.3917598E-04  0.1401389E+04  0.7818609E-02  0.8952814E-01
        2   -1    0    0  501    0  0.00000000000E+00  0.00000000000E+00  0.74834722444E+03  0.74834722445E+03  0.25500000920E-02 0.  1.
       -2   -1    0    0    0  501  0.00000000000E+00  0.00000000000E+00 -0.65607612473E+03  0.65607612474E+03  0.25500000920E-02 0. -1.
    10030    2    1    2    0    0  0.00000000000E+00  0.00000000000E+00  0.92271099710E+02  0.14044233492E+04  0.14013889495E+04 0.  0.
        3    1    3    3  502    0  0.45334515759E+03  0.49817730102E+03  0.23960869410E+03  0.71492292707E+03  0.10100000352E+00 0.  1.
       -3    1    3    3    0  502 -0.45334515759E+03 -0.49817730102E+03 -0.14733759439E+03  0.68950042211E+03  0.10100000352E+00 0. -1.
</event>
<event>
 5   0  0.2217251E-04  0.1395324E+04  0.7818609E-02  0.8957210E-01
       -1   -1    0    0    0  501  0.00000000000E+00  0.00000000000E+00  0.40743799922E+03  0.40743799925E+03  0.50400001928E-02 0.  1.
        1   -1    0    0  501    0  0.00000000000E+00  0.00000000000E+00 -0.11946172641E+04  0.11946172641E+04  0.50400001928E-02 0. -1.
    10030    2    1    2    0    0  0.00000000000E+00  0.00000000000E+00 -0.78717926492E+03  0.16020552634E+04  0.13953242891E+04 0.  0.
        5    1    3    3  502    0 -0.66724618507E+03  0.95664828916E+02 -0.60007061017E+03  0.90248327307E+03  0.46999998093E+01 0. -1.
       -5    1    3    3    0  502  0.66724618507E+03 -0.95664828916E+02 -0.18710865474E+03  0.69957199033E+03  0.46999998093E+01 0.  1.
</event>
<event>
 5   0  0.3932568E-04  0.1394783E+04  0.7818609E-02  0.8957603E-01
       -2   -1    0    0    0  501  0.00000000000E+00  0.00000000000E+00  0.24768820310E+03  0.24768820312E+03  0.25500000920E-02 0. -1.
        2   -1    0    0  501    0  0.00000000000E+00  0.00000000000E+00 -0.19635775277E+04  0.19635775277E+04  0.25500000920E-02 0.  1.
    10030    2    1    2    0    0  0.00000000000E+00  0.00000000000E+00 -0.17158893246E+04  0.22112657308E+04  0.13947831222E+04 0.  0.
        2    1    3    3  502    0 -0.41809847319E+03  0.44099153659E+02 -0.17400845865E+04  0.17901523502E+04  0.25500000920E-02 0.  1.
       -2    1    3    3    0  502  0.41809847319E+03 -0.44099153659E+02  0.24195261919E+02  0.42111338063E+03  0.25500000920E-02 0. -1.
</event>
<event>
 5   0  0.1497625E-04  0.1400516E+04  0.7818609E-02  0.8953445E-01
       -3   -1    0    0    0  501  0.00000000000E+00  0.00000000000E+00  0.92886231332E+03  0.92886231881E+03  0.10100000352E+00 0. -1.
        3   -1    0    0  501    0  0.00000000000E+00  0.00000000000E+00 -0.52791561399E+03  0.52791562365E+03  0.10100000352E+00 0.  1.
    10030    2    1    2    0    0  0.00000000000E+00  0.00000000000E+00  0.40094669933E+03  0.14567779425E+04  0.14005155186E+04 0.  0.
        4    1    3    3  502    0 -0.54528043312E+02  0.20756437441E+03  0.89381146204E+03  0.91921532820E+03  0.12699999809E+01 0. -1.
       -4    1    3    3    0  502  0.54528043312E+02 -0.20756437441E+03 -0.49286476271E+03  0.53756261426E+03  0.12699999809E+01 0.  1.
</event>
<event>
 5   0  0.2143942E-04  0.1395818E+04  0.7818609E-02  0.8956851E-01
       -1   -1    0    0    0  501  0.00000000000E+00  0.00000000000E+00  0.11445633665E+04  0.11445633666E+04  0.50400001928E-02 0. -1.
        1   -1    0    0  501    0  0.00000000000E+00  0.00000000000E+00 -0.42555682069E+03  0.42555682072E+03  0.50400001928E-02 0.  1.
    10030    2    1    2    0    0  0.00000000000E+00  0.00000000000E+00  0.71900654586E+03  0.15701201873E+04  0.13958176777E+04 0.  0.
        4    1    3    3  502    0  0.33448134269E+01  0.38749239897E+03  0.10124285262E+04  0.10840547406E+04  0.12699999809E+01 0. -1.
       -4    1    3    3    0  502 -0.33448134269E+01 -0.38749239897E+03 -0.29342198033E+03  0.48606544670E+03  0.12699999809E+01 0.  1.
</event>
<event>
 5   0  0.3932568E-04  0.1399027E+04  0.7818609E-02  0.8954523E-01
       -2   -1    0    0    0  501  0.00000000000E+00  0.00000000000E+00  0.47956000837E+03  0.47956000838E+03  0.25500000920E-02 0.  1.
        2   -1    0    0  501    0  0.00000000000E+00  0.00000000000E+00 -0.10203499326E+04  0.10203499326E+04  0.25500000920E-02 0. -1.
    10030    2    1    2    0    0  0.00000000000E+00  0.00000000000E+00 -0.54078992423E+03  0.14999099410E+04  0.13990268364E+04 0.  0.
        2    1    3    3  502    0 -0.11556262272E+03  0.68981933843E+03 -0.25896893112E+03  0.74583533486E+03  0.25500000920E-02 0. -1.
       -2    1    3    3    0  502  0.11556262272E+03 -0.68981933843E+03 -0.28182099311E+03  0.75407460613E+03  0.25500000920E-02 0.  1.
</event>
<event>
 5   0  0.2217251E-04  0.1394469E+04  0.7818609E-02  0.8957832E-01
       -1   -1    0    0    0  501  0.00000000000E+00  0.00000000000E+00  0.56468705735E+03  0.56468705737E+03  0.50400001928E-02 0.  1.
        1   -1    0    0  501    0  0.00000000000E+00  0.00000000000E+00 -0.86089432251E+03  0.86089432252E+03  0.50400001928E-02 0. -1.
    10030    2    1    2    0    0  0.00000000000E+00  0.00000000000E+00 -0.29620726516E+03  0.14255813799E+04  0.13944689049E+04 0.  0.
        5    1    3    3  502    0  0.21925307339E+03  0.51802492598E+03  0.27302419271E+03  0.62528876044E+03  0.46999998093E+01 0.  1.
       -5    1    3    3    0  502 -0.21925307339E+03 -0.51802492598E+03 -0.56923145787E+03  0.80029261946E+03  0.46999998093E+01 0. -1.
</event>
<event>
 5   0  0.2217251E-04  0.1402589E+04  0.7818609E-02  0.8951946E-01
        1   -1    0    0  501    0  0.00000000000E+00  0.00000000000E+00  0.12018717845E+04  0.12018717845E+04  0.50400001928E-02 0.  1.
       -1   -1    0    0    0  501  0.00000000000E+00  0.00000000000E+00 -0.40920686114E+03  0.40920686118E+03  0.50400001928E-02 0. -1.
    10030    2    1    2    0    0  0.00000000000E+00  0.00000000000E+00  0.79266492336E+03  0.16110786457E+04  0.14025892919E+04 0.  0.
        5    1    3    3  502    0  0.66870923816E+03  0.53969114731E+02  0.16175154644E+03  0.69012344064E+03  0.46999998093E+01 0.  1.
       -5    1    3    3    0  502 -0.66870923816E+03 -0.53969114731E+02  0.63091337692E+03  0.92095520505E+03  0.46999998093E+01 0. -1.
</event>
<event>
 5   0  0.2215876E-04  0.1399291E+04  0.7818609E-02  0.8954332E-01
       -1   -1    0    0    0  501  0.00000000000E+00  0.00000000000E+00  0.87982697966E+03  0.87982697967E+03  0.50400001928E-02 0.  1.
        1   -1    0    0  501    0  0.00000000000E+00  0.00000000000E+00 -0.55636359353E+03  0.55636359355E+03  0.50400001928E-02 0. -1.
    10030    2    1    2    0    0  0.00000000000E+00  0.00000000000E+00  0.32346338613E+03  0.14361905732E+04  0.13992908205E+04 0.  0.
        3    1    3    3  502    0  0.45645361426E+03 -0.49970548825E+03  0.34374455248E+03  0.75908879884E+03  0.10100000352E+00 0. -1.
       -3    1    3    3    0  502 -0.45645361426E+03  0.49970548825E+03 -0.20281166352E+02  0.67710177438E+03  0.10100000352E+00 0.  1.
</event>
<event>
 5   0  0.2155352E-04  0.1396791E+04  0.7818609E-02  0.8956145E-01
       -1   -1    0    0    0  501  0.00000000000E+00  0.00000000000E+00  0.12421472276E+04  0.12421472276E+04  0.50400001928E-02 0.  1.
        1   -1    0    0  501    0  0.00000000000E+00  0.00000000000E+00 -0.39267182899E+03  0.39267182902E+03  0.50400001928E-02 0. -1.
    10030    2    1    2    0    0  0.00000000000E+00  0.00000000000E+00  0.84947539858E+03  0.16348190566E+04  0.13967909275E+04 0.  0.
        2    1    3    3  502    0 -0.41947697590E+02  0.61491124529E+03  0.80916154103E+03  0.10171616629E+04  0.25500000920E-02 0. -1.
       -2    1    3    3    0  502  0.41947697590E+02 -0.61491124529E+03  0.40313857548E+02  0.61765739373E+03  0.25500000920E-02 0.  1.
</event>
<event>
 5   0  0.3975164E-04  0.1402314E+04  0.7818609E-02  0.8952145E-01
       -2   -1    0    0    0  501  0.00000000000E+00  0.00000000000E+00  0.18714213092E+03  0.18714213094E+03  0.25500000920E-02 0. -1.
        2   -1    0    0  501    0  0.00000000000E+00  0.00000000000E+00 -0.26269925746E+04  0.26269925746E+04  0.25500000920E-02 0.  1.
    10030    2    1    2    0    0  0.00000000000E+00  0.00000000000E+00 -0.24398504437E+04  0.28141347055E+04  0.14023137856E+04 0.  0.
        5    1    3    3  502    0 -0.21802545012E+03 -0.74491900703E+02  0.10897320034E+03  0.25491447303E+03  0.46999998093E+01 0. -1.
       -5    1    3    3    0  502  0.21802545012E+03  0.74491900703E+02 -0.25488236440E+04  0.25592202325E+04  0.46999998093E+01 0.  1.
</event>
<event>
 5   0  0.2143942E-04  0.1403372E+04  0.7818609E-02  0.8951381E-01
        1   -1    0    0  501    0  0.00000000000E+00  0.00000000000E+00  0.19527903907E+04  0.19527903907E+04  0.50400001928E-02 0.  1.
       -1   -1    0    0    0  501  0.00000000000E+00  0.00000000000E+00 -0.25213334466E+03  0.25213334471E+03  0.50400001928E-02 0. -1.
    10030    2    1    2    0    0  0.00000000000E+00  0.00000000000E+00  0.17006570460E+04  0.22049237354E+04  0.14033724704E+04 0.  0.
        4    1    3    3  502    0 -0.64612384760E+03 -0.24127510374E+03  0.64745852429E+03  0.94598829575E+03  0.12699999809E+01 0. -1.
       -4    1    3    3    0  502  0.64612384760E+03  0.24127510374E+03  0.10531985217E+04  0.12589354396E+04  0.12699999809E+01 0.  1.
</event>
<event>
 5   0  0.2217251E-04  0.1403152E+04  0.7818609E-02  0.8951540E-01
        1   -1    0    0  501    0  0.00000000000E+00  0.00000000000E+00  0.14358595846E+04  0.14358595847E+04  0.50400001928E-02 0.  1.
       -1   -1    0    0    0  501  0.00000000000E+00  0.00000000000E+00 -0.34279750181E+03  0.34279750185E+03  0.50400001928E-02 0. -1.
    10030    2    1    2    0    0  0.00000000000E+00  0.00000000000E+00  0.10930620828E+04  0.17786570865E+04  0.14031522777E+04 0.  0.
        5    1    3    3  502    0  0.25725960802E+03  0.33728303100E+03  0.12548598692E+04  0.13246273930E+04  0.46999998093E+01 0.  1.
       -5    1    3    3    0  502 -0.25725960802E+03 -0.33728303100E+03 -0.16179778637E+03  0.45402969351E+03  0.46999998093E+01 0. -1.
</event>
<event>
 5   0  0.3932568E-04  0.1399682E+04  0.7818609E-02  0.8954049E-01
       -2   -1    0    0    0  501  0.00000000000E+00  0.00000000000E+00  0.24544065356E+03  0.24544065358E+03  0.25500000920E-02 0. -1.
        2   -1    0    0  501    0  0.00000000000E+00  0.00000000000E+00 -0.19955033022E+04  0.19955033022E+04  0.25500000920E-02 0.  1.
    10030    2    1    2    0    0  0.00000000000E+00  0.00000000000E+00 -0.17500626486E+04  0.22409439558E+04  0.13996822992E+04 0.  0.
        2    1    3    3  502    0 -0.69982677643E+03 -0.43950277296E+01 -0.87359805983E+03  0.11193526716E+04  0.25500000920E-02 0. -1.
       -2    1    3    3    0  502  0.69982677643E+03  0.43950277296E+01 -0.87646458878E+03  0.11215912842E+04  0.25500000920E-02 0.  1.
</event>
<event>
 5   0  0.2155352E-04  0.1399996E+04  0.7818609E-02  0.8953822E-01
        1   -1    0    0  501    0  0.00000000000E+00  0.00000000000E+00  0.11077849032E+04  0.11077849033E+04  0.50400001928E-02 0.  1.
       -1   -1    0    0    0  501  0.00000000000E+00  0.00000000000E+00 -0.44232147552E+03  0.44232147555E+03  0.50400001928E-02 0. -1.
    10030    2    1    2    0    0  0.00000000000E+00  0.00000000000E+00  0.66546342772E+03  0.15501063788E+04  0.13999957900E+04 0.  0.
        2    1    3    3  502    0  0.17327308395E+03 -0.66373985730E+03  0.17842254406E+03  0.70880798812E+03  0.25500000920E-02 0. -1.
       -2    1    3    3    0  502 -0.17327308395E+03  0.66373985730E+03  0.48704088366E+03  0.84129839068E+03  0.25500000920E-02 0.  1.
</event>
<event>
 5   0  0.3975164E-04  0.1390279E+04  0.7818609E-02  0.8960885E-01
        2   -1    0    0  501    0  0.00000000000E+00  0.00000000000E+00  0.55106719041E+03  0.55106719042E+03  0.25500000920E-02 0.  1.
       -2   -1    0    0    0  501  0.00000000000E+00  0.00000000000E+00 -0.87687888787E+03  0.87687888787E+03  0.25500000920E-02 0. -1.
    10030    2    1    2    0    0  0.00000000000E+00  0.00000000000E+00 -0.32581169746E+03  0.14279460783E+04  0.13902793749E+04 0.  0.
        5    1    3    3  502    0 -0.59833595781E+03 -0.19163432223E+03  0.14258732839E+03  0.64426925123E+03  0.46999998093E+01 0. -1.
       -5    1    3    3    0  502  0.59833595781E+03  0.19163432223E+03 -0.46839902585E+03  0.78367682706E+03  0.46999998093E+01 0.  1.
</event>
<event>
 5   0  0.2223112E-04  0.1398165E+04  0.7818609E-02  0.8955148E-01
       -1   -1    0    0    0  501  0.00000000000E+00  0.00000000000E+00  0.37210753118E+03  0.37210753122E+03  0.50400001928E-02 0. -1.
        1   -1    0    0  501    0  0.00000000000E+00  0.00000000000E+00 -0.13133746132E+04  0.13133746133E+04  0.50400001928E-02 0.  1.
    10030    2    1    2    0    0  0.00000000000E+00  0.00000000000E+00 -0.94126708206E+03  0.16854821445E+04  0.13981653477E+04 0.  0.
        1    1    3    3  502    0 -0.73599778131E+02  0.18418795605E+03  0.33747521407E+03  0.39144814552E+03  0.50400001928E-02 0. -1.
       -1    1    3    3    0  502  0.73599778131E+02 -0.18418795605E+03 -0.12787422961E+04  0.12940339989E+04  0.50400001928E-02 0.  1.
</event>
<event>
 5   0  0.3917598E-04  0.1400970E+04  0.7818609E-02  0.8953117E-01
       -2   -1    0    0    0  501  0.00000000000E+00  0.00000000000E+00  0.49427587053E+03  0.49427587054E+03  0.25500000920E-02 0. -1.
        2   -1    0    0  501    0  0.00000000000E+00  0.00000000000E+00 -0.99272320741E+03  0.99272320741E+03  0.25500000920E-02 0.  1.
    10030    2    1    2    0    0  0.00000000000E+00  0.00000000000E+00 -0.49844733688E+03  0.14869990779E+04  0.14009698463E+04 0.  0.
        3    1    3    3  502    0  0.12410150588E+03 -0.62261365203E+03  0.64978189014E+02  0.63817796789E+03  0.10100000352E+00 0.  1.
       -3    1    3    3    0  502 -0.12410150588E+03  0.62261365203E+03 -0.56342552589E+03  0.84882111006E+03  0.10100000352E+00 0. -1.
</event>
<event>
 5   0  0.3975164E-04  0.1396918E+04  0.7818609E-02  0.8956052E-01
        2   -1    0    0  501    0  0.00000000000E+00  0.00000000000E+00  0.11009627984E+04  0.11009627984E+04  0.25500000920E-02 0. -1.
       -2   -1    0    0    0  501  0.00000000000E+00  0.00000000000E+00 -0.44310764052E+03  0.44310764053E+03  0.25500000920E-02 0.  1.
    10030    2    1    2    0    0  0.00000000000E+00  0.00000000000E+00  0.65785515785E+03  0.15440704389E+04  0.13969180762E+04 0.  0.
        5    1    3    3  502    0 -0.58492491982E+03  0.28590249618E+03  0.60844011887E+03  0.89112225166E+03  0.46999998093E+01 0.  1.
       -5    1    3    3    0  502  0.58492491982E+03 -0.28590249618E+03  0.49415038979E+02  0.65294818725E+03  0.46999998093E+01 0. -1.
</event>
<event>
 5   0  0.2223112E-04  0.1399262E+04  0.7818609E-02  0.8954353E-01
       -1   -1    0    0    0  501  0.00000000000E+00  0.00000000000E+00  0.10266030384E+04  0.10266030384E+04  0.50400001928E-02 0.  1.
        1   -1    0    0  501    0  0.00000000000E+00  0.00000000000E+00 -0.47679944617E+03  0.47679944620E+03  0.50400001928E-02 0. -1.
    10030    2    1    2    0    0  0.00000000000E+00  0.00000000000E+00  0.54980359225E+03  0.15034024846E+04  0.13992623202E+04 0.  0.
        1    1    3    3  502    0  0.61165227838E+02 -0.14570072592E+03 -0.45737533083E+03  0.48390296538E+03  0.50400001928E-02 0. -1.
       -1    1    3    3    0  502 -0.61165227838E+02  0.14570072592E+03  0.10071789231E+04  0.10194995192E+04  0.50400001928E-02 0.  1.
</event>
<event>
 5   0  0.3932568E-04  0.1399456E+04  0.7818609E-02  0.8954212E-01
       -2   -1    0    0    0  501  0.00000000000E+00  0.00000000000E+00  0.76698867543E+03  0.76698867543E+03  0.25500000920E-02 0. -1.
        2   -1    0    0  501    0  0.00000000000E+00  0.00000000000E+00 -0.63836606469E+03  0.63836606470E+03  0.25500000920E-02 0.  1.
    10030    2    1    2    0    0  0.00000000000E+00  0.00000000000E+00  0.12862261073E+03  0.14053547401E+04  0.13994563836E+04 0.  0.
        2    1    3    3  502    0  0.23029288620E+03  0.65270244815E+03 -0.38904401118E+02  0.69323073481E+03  0.25500000920E-02 0.  1.
       -2    1    3    3    0  502 -0.23029288620E+03 -0.65270244815E+03  0.16752701185E+03  0.71212400532E+03  0.25500000920E-02 0. -1.
</event>
<event>
 5   0  0.3975164E-04  0.1395577E+04  0.7818609E-02  0.8957027E-01
        2   -1    0    0  501    0  0.00000000000E+00  0.00000000000E+00  0.49749241952E+03  0.49749241952E+03  0.25500000920E-02 0. -1.
       -2   -1    0    0    0  501  0.00000000000E+00  0.00000000000E+00 -0.97872563579E+03  0.97872563579E+03  0.25500000920E-02 0.  1.
    10030    2    1    2    0    0  0.00000000000E+00  0.00000000000E+00 -0.48123321627E+03  0.14762180553E+04  0.13955767046E+04 0.  0.
        5    1    3    3  502    0 -0.67918115307E+03  0.15994188251E+03 -0.24511064953E+03  0.73957404293E+03  0.46999998093E+01 0. -1.
       -5    1    3    3    0  502  0.67918115307E+03 -0.15994188251E+03 -0.23612256674E+03  0.73664401239E+03  0.46999998093E+01 0.  1.
</event>
<event>
 5   0  0.2155352E-04  0.1424488E+04  0.7818609E-02  0.8936281E-01
        1   -1    0    0  501    0  0.00000000000E+00  0.00000000000E+00  0.50280702089E+03  0.50280702091E+03  0.50400001928E-02 0.  1.
       -1   -1    0    0    0  501  0.00000000000E+00  0.00000000000E+00 -0.10089182827E+04  0.10089182827E+04  0.50400001928E-02 0. -1.
    10030    2    1    2    0    0  0.00000000000E+00  0.00000000000E+00 -0.50611126177E+03  0.15117253036E+04  0.14244875514E+04 0.  0.
        2    1    3    3  502    0 -0.52670485766E+03  0.32105560666E+03 -0.63094774900E+03  0.88237734084E+03  0.25500000920E-02 0. -1.
       -2    1    3    3    0  502  0.52670485766E+03 -0.32105560666E+03  0.12483648724E+03  0.62934796274E+03  0.25500000920E-02 0.  1.
</event>
<event>
 5   0  0.3975164E-04  0.1409577E+04  0.7818609E-02  0.8946915E-01
        2   -1    0    0  501    0  0.00000000000E+00  0.00000000000E+00  0.24426858654E+04  0.24426858654E+04  0.25500000920E-02 0. -1.
       -2   -1    0    0    0  501  0.00000000000E+00  0.00000000000E+00 -0.20335270026E+03  0.20335270027E+03  0.25500000920E-02 0.  1.
    10030    2    1    2    0    0  0.00000000000E+00  0.00000000000E+00  0.22393331651E+04  0.26460385656E+04  0.14095769105E+04 0.  0.
        5    1    3    3  502    0  0.83043804397E+02  0.45854729477E+03  0.21121689096E+04  0.21629705240E+04  0.46999998093E+01 0. -1.
       -5    1    3    3    0  502 -0.83043804397E+02 -0.45854729477E+03  0.12716425551E+03  0.48306804165E+03  0.46999998093E+01 0.  1.
</event>
<event>
 5   0  0.2143942E-04  0.1401317E+04  0.7818609E-02  0.8952866E-01
       -1   -1    0    0    0  501  0.00000000000E+00  0.00000000000E+00  0.88153821093E+03  0.88153821094E+03  0.50400001928E-02 0.  1.
        1   -1    0    0  501    0  0.00000000000E+00  0.00000000000E+00 -0.55689298782E+03  0.55689298785E+03  0.50400001928E-02 0. -1.
    10030    2    1    2    0    0  0.00000000000E+00  0.00000000000E+00  0.32464522310E+03  0.14384311988E+04  0.14013171635E+04 0.  0.
        4    1    3    3  502    0 -0.13131833762E+03  0.98000617674E+02  0.86159347560E+03  0.87703680479E+03  0.12699999809E+01 0.  1.
       -4    1    3    3    0  502  0.13131833762E+03 -0.98000617674E+02 -0.53694825249E+03  0.56139439400E+03  0.12699999809E+01 0. -1.
</event>
<event>
 5   0  0.2217251E-04  0.1398939E+04  0.7818609E-02  0.8954587E-01
        1   -1    0    0  501    0  0.00000000000E+00  0.00000000000E+00  0.44270204934E+03  0.44270204937E+03  0.50400001928E-02 0. -1.
       -1   -1    0    0    0  501  0.00000000000E+00  0.00000000000E+00 -0.11051626025E+04  0.11051626025E+04  0.50400001928E-02 0.  1.
    10030    2    1    2    0    0  0.00000000000E+00  0.00000000000E+00 -0.66246055313E+03  0.15478646519E+04  0.13989392396E+04 0.  0.
        5    1    3    3  502    0 -0.21453776819E+03  0.22740260683E+03  0.36107635788E+03  0.47763649965E+03  0.46999998093E+01 0. -1.
       -5    1    3    3    0  502  0.21453776819E+03 -0.22740260683E+03 -0.10235369110E+04  0.10702281522E+04  0.46999998093E+01 0.  1.
</event>
<event>
 5   0  0.2217251E-04  0.1402258E+04  0.7818609E-02  0.8952185E-01
        1   -1    0    0  501    0  0.00000000000E+00  0.00000000000E+00  0.11550493450E+04  0.11550493450E+04  0.50400001928E-02 0. -1.
       -1   -1    0    0    0  501  0.00000000000E+00  0.00000000000E+00 -0.42559408749E+03  0.42559408752E+03  0.50400001928E-02 0.  1.
    10030    2    1    2    0    0  0.00000000000E+00  0.00000000000E+00  0.72945525753E+03  0.15806434325E+04  0.14022584242E+04 0.  0.
        5    1    3    3  502    0 -0.29557185285E+03 -0.30788763583E+03  0.99172801552E+03  0.10796777590E+04  0.46999998093E+01 0. -1.
       -5    1    3    3    0  502  0.29557185285E+03  0.30788763583E+03 -0.26227275799E+03  0.50096567355E+03  0.46999998093E+01 0.  1.
</event>
<event>
 5   0  0.1497625E-04  0.1401664E+04  0.7818609E-02  0.8952615E-01
        3   -1    0    0  501    0  0.00000000000E+00  0.00000000000E+00  0.12363229258E+04  0.12363229300E+04  0.10100000352E+00 0. -1.
       -3   -1    0    0    0  501  0.00000000000E+00  0.00000000000E+00 -0.39727915841E+03  0.39727917125E+03  0.10100000352E+00 0.  1.
    10030    2    1    2    0    0  0.00000000000E+00  0.00000000000E+00  0.83904376743E+03  0.16336021012E+04  0.14016637904E+04 0.  0.
        1    1    3    3  502    0 -0.25766427538E+03 -0.34503820399E+03  0.10639382467E+04  0.11477834438E+04  0.50400001928E-02 0. -1.
       -1    1    3    3    0  502  0.25766427538E+03  0.34503820399E+03 -0.22489447931E+03  0.48581865739E+03  0.50400001928E-02 0.  1.
</event>
<event>
 5   0  0.3975164E-04  0.1397842E+04  0.7818609E-02  0.8955382E-01
        2   -1    0    0  501    0  0.00000000000E+00  0.00000000000E+00  0.33023610107E+03  0.33023610108E+03  0.25500000920E-02 0. -1.
       -2   -1    0    0    0  501  0.00000000000E+00  0.00000000000E+00 -0.14792164558E+04  0.14792164558E+04  0.25500000920E-02 0.  1.
    10030    2    1    2    0    0  0.00000000000E+00  0.00000000000E+00 -0.11489803548E+04  0.18094525569E+04  0.13978421585E+04 0.  0.
        5    1    3    3  502    0 -0.20761509233E+03 -0.52003037304E+03 -0.33081888680E+02  0.56093860342E+03  0.46999998093E+01 0. -1.
       -5    1    3    3    0  502  0.20761509233E+03  0.52003037304E+03 -0.11158984661E+04  0.12485139535E+04  0.46999998093E+01 0.  1.
</event>
<event>
 5   0  0.2217251E-04  0.1476574E+04  0.7818609E-02  0.8900182E-01
        1   -1    0    0  501    0  0.00000000000E+00  0.00000000000E+00  0.53535860269E+03  0.53535860272E+03  0.50400001928E-02 0.  1.
       -1   -1    0    0    0  501  0.00000000000E+00  0.00000000000E+00 -0.10181357611E+04  0.10181357611E+04  0.50400001928E-02 0. -1.
    10030    2    1    2    0    0  0.00000000000E+00  0.00000000000E+00 -0.48277715838E+03  0.15534943638E+04  0.14765740597E+04 0.  0.
        5    1    3    3  502    0  0.33859794702E+03 -0.30126522323E+02  0.44810576545E+03  0.56247403861E+03  0.46999998093E+01 0.  1.
       -5    1    3    3    0  502 -0.33859794702E+03  0.30126522323E+02 -0.93088292383E+03  0.99102032519E+03  0.46999998093E+01 0. -1.
</event>
<event>
 5   0  0.2217251E-04  0.1355920E+04  0.7818609E-02  0.8986359E-01
       -1   -1    0    0    0  501  0.00000000000E+00  0.00000000000E+00  0.45985326095E+03  0.45985326097E+03  0.50400001928E-02 0.  1.
        1   -1    0    0  501    0  0.00000000000E+00  0.00000000000E+00 -0.99951370927E+03  0.99951370928E+03  0.50400001928E-02 0. -1.
    10030    2    1    2    0    0  0.00000000000E+00  0.00000000000E+00 -0.53966044832E+03  0.14593669703E+04  0.13559198186E+04 0.  0.
        5    1    3    3  502    0 -0.55446699605E+03  0.38946591948E+03 -0.29365976016E+03  0.73849542780E+03  0.46999998093E+01 0.  1.
       -5    1    3    3    0  502  0.55446699605E+03 -0.38946591948E+03 -0.24600068816E+03  0.72087154245E+03  0.46999998093E+01 0. -1.
</event>
<event>
 5   0  0.3917598E-04  0.1388908E+04  0.7818609E-02  0.8961887E-01
        2   -1    0    0  501    0  0.00000000000E+00  0.00000000000E+00  0.16443484419E+04  0.16443484419E+04  0.25500000920E-02 0. -1.
       -2   -1    0    0    0  501  0.00000000000E+00  0.00000000000E+00 -0.29328720943E+03  0.29328720944E+03  0.25500000920E-02 0.  1.
    10030    2    1    2    0    0  0.00000000000E+00  0.00000000000E+00  0.13510612325E+04  0.19376356514E+04  0.13889080112E+04 0.  0.
        3    1    3    3  502    0 -0.70239351533E+02 -0.39161625304E+03  0.14695858201E+04  0.15224911654E+04  0.10100000352E+00 0. -1.
       -3    1    3    3    0  502  0.70239351533E+02  0.39161625304E+03 -0.11852458755E+03  0.41514448593E+03  0.10100000352E+00 0.  1.
</event>
<event>
 5   0  0.4310348E-04  0.1397889E+04  0.7818609E-02  0.8955348E-01
       -2   -1    0    0    0  501  0.00000000000E+00  0.00000000000E+00  0.11486227437E+04  0.11486227437E+04  0.25500000920E-02 0.  1.
        2   -1    0    0  501    0  0.00000000000E+00  0.00000000000E+00 -0.42531248573E+03  0.42531248573E+03  0.25500000920E-02 0. -1.
    10030    2    1    2    0    0  0.00000000000E+00  0.00000000000E+00  0.72331025798E+03  0.15739352294E+04  0.13978892578E+04 0.  0.
        1    1    3    3  502    0 -0.65975078098E+03  0.23071088157E+03  0.35602652599E+03  0.78438096044E+03  0.50400001928E-02 0.  1.
       -1    1    3    3    0  502  0.65975078098E+03 -0.23071088157E+03  0.36728373199E+03  0.78955426899E+03  0.50400001928E-02 0. -1.
</event>
<event>
 5   0  0.4208622E-04  0.1393763E+04  0.7818609E-02  0.8958346E-01
       -2   -1    0    0    0  501  0.00000000000E+00  0.00000000000E+00  0.38972385480E+03  0.38972385481E+03  0.25500000920E-02 0. -1.
        2   -1    0    0  501    0  0.00000000000E+00  0.00000000000E+00 -0.12461231708E+04  0.12461231708E+04  0.25500000920E-02 0.  1.
    10030    2    1    2    0    0  0.00000000000E+00  0.00000000000E+00 -0.85639931598E+03  0.16358470256E+04  0.13937631444E+04 0.  0.
        4    1    3    3  502    0 -0.34044848625E+03 -0.53638899912E+03 -0.76434270976E+03  0.99390126322E+03  0.12699999809E+01 0.  1.
       -4    1    3    3    0  502  0.34044848625E+03  0.53638899912E+03 -0.92056606218E+02  0.64194576236E+03  0.12699999809E+01 0. -1.
</event>
<event>
 5   0  0.2155352E-04  0.1400444E+04  0.7818609E-02  0.8953497E-01
       -1   -1    0    0    0  501  0.00000000000E+00  0.00000000000E+00  0.70235263731E+03  0.70235263732E+03  0.50400001928E-02 0. -1.
        1   -1    0    0  501    0  0.00000000000E+00  0.00000000000E+00 -0.69809826671E+03  0.69809826673E+03  0.50400001928E-02 0.  1.
    10030    2    1    2    0    0  0.00000000000E+00  0.00000000000E+00  0.42543705920E+01  0.14004509041E+04  0.14004444420E+04 0.  0.
        2    1    3    3  502    0  0.16370768731E+03  0.10617750485E+03 -0.67036182046E+03  0.69818252611E+03  0.25500000920E-02 0.  1.
       -2    1    3    3    0  502 -0.16370768731E+03 -0.10617750485E+03  0.67461619106E+03  0.70226837795E+03  0.25500000920E-02 0. -1.
</event>
<event>
 5   0  0.1497625E-04  0.1405187E+04  0.7818609E-02  0.8950072E-01
        4   -1    0    0  501    0  0.00000000000E+00  0.00000000000E+00  0.89723176024E+03  0.89723265906E+03  0.12699999809E+01 0.  1.
       -4   -1    0    0    0  501  0.00000000000E+00  0.00000000000E+00 -0.55017693597E+03  0.55017840177E+03  0.12699999809E+01 0. -1.
    10030    2    1    2    0    0  0.00000000000E+00  0.00000000000E+00  0.34705482426E+03  0.14474110608E+04  0.14051874352E+04 0.  0.
        4    1    3    3  502    0  0.23611694130E+03 -0.63618311839E+03  0.36108717311E+03  0.76867791017E+03  0.12699999809E+01 0.  1.
       -4    1    3    3    0  502 -0.23611694130E+03  0.63618311839E+03 -0.14032348845E+02  0.67873315066E+03  0.12699999809E+01 0. -1.
</event>
<event>
 5   0  0.2143942E-04  0.1400402E+04  0.7818609E-02  0.8953528E-01
       -1   -1    0    0    0  501  0.00000000000E+00  0.00000000000E+00  0.33217261068E+03  0.33217261072E+03  0.50400001928E-02 0.  1.
        1   -1    0    0  501    0  0.00000000000E+00  0.00000000000E+00 -0.14759829643E+04  0.14759829643E+04  0.50400001928E-02 0. -1.
    10030    2    1    2    0    0  0.00000000000E+00  0.00000000000E+00 -0.11438103536E+04  0.18081555751E+04  0.14004015347E+04 0.  0.
        4    1    3    3  502    0 -0.40264534931E+03 -0.57075944269E+03 -0.50878451618E+03  0.86414866519E+03  0.12699999809E+01 0. -1.
       -4    1    3    3    0  502  0.40264534931E+03  0.57075944269E+03 -0.63502583746E+03  0.94400690987E+03  0.12699999809E+01 0.  1.
</event>
<event>
 5   0  0.4310348E-04  0.1400209E+04  0.7818609E-02  0.8953667E-01
       -2   -1    0    0    0  501  0.00000000000E+00  0.00000000000E+00  0.32420860108E+03  0.32420860109E+03  0.25500000920E-02 0. -1.
        2   -1    0    0  501    0  0.00000000000E+00  0.00000000000E+00 -0.15118241056E+04  0.15118241056E+04  0.25500000920E-02 0.  1.
    10030    2    1    2    0    0  0.00000000000E+00  0.00000000000E+00 -0.11876155045E+04  0.18360327066E+04  0.14002090963E+04 0.  0.
        1    1    3    3  502    0 -0.61731286189E+03 -0.32941225245E+03 -0.56281167718E+03  0.89796691783E+03  0.50400001928E-02 0. -1.
       -1    1    3    3    0  502  0.61731286189E+03  0.32941225245E+03 -0.62480382729E+03  0.93806578881E+03  0.50400001928E-02 0.  1.
</event>
<event>
 5   0  0.1497625E-04  0.1403684E+04  0.7818609E-02  0.8951156E-01
       -4   -1    0    0    0  501  0.00000000000E+00  0.00000000000E+00  0.69960005602E+03  0.69960120875E+03  0.12699999809E+01 0. -1.
        4   -1    0    0  501    0  0.00000000000E+00  0.00000000000E+00 -0.70408858195E+03  0.70408972733E+03  0.12699999809E+01 0.  1.
    10030    2    1    2    0    0  0.00000000000E+00  0.00000000000E+00 -0.44885259339E+01  0.14036909361E+04  0.14036837597E+04 0.  0.
        4    1    3    3  502    0  0.31313858593E+03 -0.36092539467E+03  0.51181818358E+03  0.70020167127E+03  0.12699999809E+01 0. -1.
       -4    1    3    3    0  502 -0.31313858593E+03  0.36092539467E+03 -0.51630670951E+03  0.70348926481E+03  0.12699999809E+01 0.  1.
</event>
<event>
 5   0  0.3932568E-04  0.1400273E+04  0.7818609E-02  0.8953621E-01
       -2   -1    0    0    0  501  0.00000000000E+00  0.00000000000E+00  0.47062618612E+03  0.47062618612E+03  0.25500000920E-02 0.  1.
        2   -1    0    0  501    0  0.00000000000E+00  0.00000000000E+00 -0.10415714424E+04  0.10415714424E+04  0.25500000920E-02 0. -1.
    10030    2    1    2    0    0  0.00000000000E+00  0.00000000000E+00 -0.57094525630E+03  0.15121976285E+04  0.14002725385E+04 0.  0.
        2    1    3    3  502    0  0.30755490800E+02 -0.66350367550E+03 -0.52454447817E+03  0.84636276927E+03  0.25500000920E-02 0.  1.
       -2    1    3    3    0  502 -0.30755490800E+02  0.66350367550E+03 -0.46400778130E+02  0.66583485928E+03  0.25500000920E-02 0. -1.
</event>
<event>
 5   0  0.2223112E-04  0.1400210E+04  0.7818609E-02  0.8953666E-01
       -1   -1    0    0    0  501  0.00000000000E+00  0.00000000000E+00  0.64367317570E+03  0.64367317572E+03  0.50400001928E-02 0.  1.
        1   -1    0    0  501    0  0.00000000000E+00  0.00000000000E+00 -0.76148448081E+03  0.76148448083E+03  0.50400001928E-02 0. -1.
    10030    2    1    2    0    0  0.00000000000E+00  0.00000000000E+00 -0.11781130511E+03  0.14051576566E+04  0.14002101757E+04 0.  0.
        1    1    3    3  502    0  0.36432316045E+03  0.28381366510E+03  0.46913371520E+03  0.65830692272E+03  0.50400001928E-02 0.  1.
       -1    1    3    3    0  502 -0.36432316045E+03 -0.28381366510E+03 -0.58694502031E+03  0.74685073383E+03  0.50400001928E-02 0. -1.
</event>
<event>
 5   0  0.2143942E-04  0.1413502E+04  0.7818609E-02  0.8944103E-01
        1   -1    0    0  501    0  0.00000000000E+00  0.00000000000E+00  0.40658891154E+03  0.40658891157E+03  0.50400001928E-02 0.  1.
       -1   -1    0    0    0  501  0.00000000000E+00  0.00000000000E+00 -0.12285053176E+04  0.12285053176E+04  0.50400001928E-02 0. -1.
    10030    2    1    2    0    0  0.00000000000E+00  0.00000000000E+00 -0.82191640604E+03  0.16350942292E+04  0.14135015245E+04 0.  0.
        4    1    3    3  502    0  0.31808066860E+03 -0.55126083908E+03 -0.76642927576E+03  0.99623253915E+03  0.12699999809E+01 0. -1.
       -4    1    3    3    0  502 -0.31808066860E+03  0.55126083908E+03 -0.55487130284E+02  0.63886169001E+03  0.12699999809E+01 0.  1.
</event>
<event>
 5   0  0.3932568E-04  0.1394017E+04  0.7818609E-02  0.8958161E-01
        2   -1    0    0  501    0  0.00000000000E+00  0.00000000000E+00  0.10102796343E+04  0.10102796343E+04  0.25500000920E-02 0.  1.
       -2   -1    0    0    0  501  0.00000000000E+00  0.00000000000E+00 -0.48087777095E+03  0.48087777096E+03  0.25500000920E-02 0. -1.
    10030    2    1    2    0    0  0.00000000000E+00  0.00000000000E+00  0.52940186339E+03  0.14911574053E+04  0.13940172432E+04 0.  0.
        2    1    3    3  502    0 -0.18493143021E+03  0.61114657848E+03 -0.34277541640E+02  0.63943312718E+03  0.25500000920E-02 0. -1.
       -2    1    3    3    0  502  0.18493143021E+03 -0.61114657848E+03  0.56367940503E+03  0.85172427812E+03  0.25500000920E-02 0.  1.
</event>
<event>
 5   0  0.3975164E-04  0.1404505E+04  0.7818609E-02  0.8950564E-01
        2   -1    0    0  501    0  0.00000000000E+00  0.00000000000E+00  0.56605305865E+03  0.56605305865E+03  0.25500000920E-02 0.  1.
       -2   -1    0    0    0  501  0.00000000000E+00  0.00000000000E+00 -0.87122277893E+03  0.87122277893E+03  0.25500000920E-02 0. -1.
    10030    2    1    2    0    0  0.00000000000E+00  0.00000000000E+00 -0.30516972028E+03  0.14372758376E+04  0.14045046369E+04 0.  0.
        5    1    3    3  502    0 -0.25883620515E+03 -0.29110155823E+03  0.44534282351E+03  0.59168287009E+03  0.46999998093E+01 0.  1.
       -5    1    3    3    0  502  0.25883620515E+03  0.29110155823E+03 -0.75051254379E+03  0.84559296750E+03  0.46999998093E+01 0. -1.
</event>
<event>
 5   0  0.2143942E-04  0.1357347E+04  0.7818609E-02  0.8985285E-01
        1   -1    0    0  501    0  0.00000000000E+00  0.00000000000E+00  0.11355511348E+04  0.11355511348E+04  0.50400001928E-02 0.  1.
       -1   -1    0    0    0  501  0.00000000000E+00  0.00000000000E+00 -0.40561606726E+03  0.40561606729E+03  0.50400001928E-02 0. -1.
    10030    2    1    2    0    0  0.00000000000E+00  0.00000000000E+00  0.72993506756E+03  0.15411672021E+04  0.13573470971E+04 0.  0.
        4    1    3    3  502    0 -0.62933224788E+03  0.11313646784E+02  0.76808366258E+02  0.63410426181E+03  0.12699999809E+01 0. -1.
       -4    1    3    3    0  502  0.62933224788E+03 -0.11313646784E+02  0.65312670130E+03  0.90706294031E+03  0.12699999809E+01 0.  1.
</event>
<event>
 5   0  0.2155352E-04  0.1401050E+04  0.7818609E-02  0.8953059E-01
       -1   -1    0    0    0  501  0.00000000000E+00  0.00000000000E+00  0.19616428208E+03  0.19616428214E+03  0.50400001928E-02 0. -1.
        1   -1    0    0  501    0  0.00000000000E+00  0.00000000000E+00 -0.25016563305E+04  0.25016563305E+04  0.50400001928E-02 0.  1.
    10030    2    1    2    0    0  0.00000000000E+00  0.00000000000E+00 -0.23054920484E+04  0.26978206126E+04  0.14010504890E+04 0.  0.
        2    1    3    3  502    0  0.66509373109E+03  0.21983146137E+03 -0.11378212273E+04  0.13361559370E+04  0.25500000920E-02 0. -1.
       -2    1    3    3    0  502 -0.66509373109E+03 -0.21983146137E+03 -0.11676708211E+04  0.13616646757E+04  0.25500000920E-02 0.  1.
</event>
<event>
 5   0  0.4208622E-04  0.1397007E+04  0.7818609E-02  0.8955988E-01
        2   -1    0    0  501    0  0.00000000000E+00  0.00000000000E+00  0.14337907569E+04  0.14337907569E+04  0.25500000920E-02 0. -1.
       -2   -1    0    0    0  501  0.00000000000E+00  0.00000000000E+00 -0.34029155071E+03  0.34029155072E+03  0.25500000920E-02 0.  1.
    10030    2    1    2    0    0  0.00000000000E+00  0.00000000000E+00  0.10934992062E+04  0.17740823076E+04  0.13970066286E+04 0.  0.
        4    1    3    3  502    0 -0.55472379024E+03 -0.28485617870E+03  0.14709132185E+03  0.64070195557E+03  0.12699999809E+01 0.  1.
       -4    1    3    3    0  502  0.55472379024E+03  0.28485617870E+03  0.94640788436E+03  0.11333803521E+04  0.12699999809E+01 0. -1.
</event>
<event>
 5   0  0.1497625E-04  0.1388914E+04  0.7818609E-02  0.8961882E-01
       -3   -1    0    0    0  501  0.00000000000E+00  0.00000000000E+00  0.56321186130E+03  0.56321187036E+03  0.10100000352E+00 0. -1.
        3   -1    0    0  501    0  0.00000000000E+00  0.00000000000E+00 -0.85628645096E+03  0.85628645691E+03  0.10100000352E+00 0.  1.
    10030    2    1    2    0    0  0.00000000000E+00  0.00000000000E+00 -0.29307458965E+03  0.14194983273E+04  0.13889142472E+04 0.  0.
        2    1    3    3  502    0 -0.16554990160E+03  0.91938166558E+02 -0.82939001219E+03  0.85073332409E+03  0.25500000920E-02 0.  1.
       -2    1    3    3    0  502  0.16554990160E+03 -0.91938166558E+02  0.53631542254E+03  0.56876500318E+03  0.25500000920E-02 0. -1.
</event>
<event>
 5   0  0.4208622E-04  0.1400341E+04  0.7818609E-02  0.8953572E-01
       -2   -1    0    0    0  501  0.00000000000E+00  0.00000000000E+00  0.44881804519E+03  0.44881804520E+03  0.25500000920E-02 0.  1.
        2   -1    0    0  501    0  0.00000000000E+00  0.00000000000E+00 -0.10922876623E+04  0.10922876623E+04  0.25500000920E-02 0. -1.
    10030    2    1    2    0    0  0.00000000000E+00  0.00000000000E+00 -0.64346961714E+03  0.15411057075E+04  0.14003405491E+04 0.  0.
        4    1    3    3  502    0 -0.64252354730E+03  0.26404472506E+03 -0.41818396951E+03  0.81082400736E+03  0.12699999809E+01 0. -1.
       -4    1    3    3    0  502  0.64252354730E+03 -0.26404472506E+03 -0.22528564764E+03  0.73028170016E+03  0.12699999809E+01 0.  1.
</event>
<event>
 5   0  0.4208622E-04  0.1420639E+04  0.7818609E-02  0.8939013E-01
        2   -1    0    0  501    0  0.00000000000E+00  0.00000000000E+00  0.61072952102E+03  0.61072952102E+03  0.25500000920E-02 0. -1.
       -2   -1    0    0    0  501  0.00000000000E+00  0.00000000000E+00 -0.82614933310E+03  0.82614933310E+03  0.25500000920E-02 0.  1.
    10030    2    1    2    0    0  0.00000000000E+00  0.00000000000E+00 -0.21541981208E+03  0.14368788541E+04  0.14206389921E+04 0.  0.
        4    1    3    3  502    0 -0.62339943887E+03  0.33945885386E+03 -0.13433572441E+03  0.72243122413E+03  0.12699999809E+01 0. -1.
       -4    1    3    3    0  502  0.62339943887E+03 -0.33945885386E+03 -0.81084087669E+02  0.71444763000E+03  0.12699999809E+01 0.  1.
</event>
<event>
 5   0  0.3975164E-04  0.1399425E+04  0.7818609E-02  0.8954235E-01
       -2   -1    0    0    0  501  0.00000000000E+00  0.00000000000E+00  0.31956682189E+03  0.31956682190E+03  0.25500000920E-02 0.  1.
        2   -1    0    0  501    0  0.00000000000E+00  0.00000000000E+00 -0.15320664471E+04  0.15320664471E+04  0.25500000920E-02 0. -1.
    10030    2    1    2    0    0  0.00000000000E+00  0.00000000000E+00 -0.12124996252E+04  0.18516332690E+04  0.13994250325E+04 0.  0.
        5    1    3    3  502    0  0.34872228040E+03  0.55721828704E+03 -0.28903835983E+03  0.71809798198E+03  0.46999998093E+01 0. -1.
       -5    1    3    3    0  502 -0.34872228040E+03 -0.55721828704E+03 -0.92346126535E+03  0.11335352870E+04  0.46999998093E+01 0.  1.
</event>
<event>
 5   0  0.2155352E-04  0.1403071E+04  0.7818609E-02  0.8951598E-01
       -1   -1    0    0    0  501  0.00000000000E+00  0.00000000000E+00  0.45312711459E+03  0.45312711462E+03  0.50400001928E-02 0. -1.
        1   -1    0    0  501    0  0.00000000000E+00  0.00000000000E+00 -0.10861241956E+04  0.10861241956E+04  0.50400001928E-02 0.  1.
    10030    2    1    2    0    0  0.00000000000E+00  0.00000000000E+00 -0.63299708104E+03  0.15392513103E+04  0.14030713779E+04 0.  0.
        2    1    3    3  502    0  0.59960274531E+03 -0.93625401441E+01  0.82898863709E+02  0.60537866741E+03  0.25500000920E-02 0.  1.
       -2    1    3    3    0  502 -0.59960274531E+03  0.93625401441E+01 -0.71589594475E+03  0.93387264285E+03  0.25500000920E-02 0. -1.
</event>
<event>
 5   0  0.2223112E-04  0.1412662E+04  0.7818609E-02  0.8944704E-01
        1   -1    0    0  501    0  0.00000000000E+00  0.00000000000E+00  0.11650091332E+04  0.11650091332E+04  0.50400001928E-02 0.  1.
       -1   -1    0    0    0  501  0.00000000000E+00  0.00000000000E+00 -0.42823979349E+03  0.42823979352E+03  0.50400001928E-02 0. -1.
    10030    2    1    2    0    0  0.00000000000E+00  0.00000000000E+00  0.73676933969E+03  0.15932489267E+04  0.14126617014E+04 0.  0.
        1    1    3    3  502    0  0.58951195402E+02 -0.27899429218E+03 -0.36043589550E+03  0.45959448789E+03  0.50400001928E-02 0. -1.
       -1    1    3    3    0  502 -0.58951195402E+02  0.27899429218E+03  0.10972052352E+04  0.11336544388E+04  0.50400001928E-02 0.  1.
</event>
<event>
 5   0  0.2217251E-04  0.1402988E+04  0.7818609E-02  0.8951658E-01
       -1   -1    0    0    0  501  0.00000000000E+00  0.00000000000E+00  0.64121243861E+03  0.64121243863E+03  0.50400001928E-02 0.  1.
        1   -1    0    0  501    0  0.00000000000E+00  0.00000000000E+00 -0.76744302045E+03  0.76744302046E+03  0.50400001928E-02 0. -1.
    10030    2    1    2    0    0  0.00000000000E+00  0.00000000000E+00 -0.12623058184E+03  0.14086554591E+04  0.14029882546E+04 0.  0.
        5    1    3    3  502    0 -0.46873666636E+02  0.62171066415E+03  0.25966522528E+03  0.67540314610E+03  0.46999998093E+01 0.  1.
       -5    1    3    3    0  502  0.46873666636E+02 -0.62171066415E+03 -0.38589580712E+03  0.73325231299E+03  0.46999998093E+01 0. -1.
</event>
<event>
 5   0  0.4310348E-04  0.1409817E+04  0.7818609E-02  0.8946743E-01
       -2   -1    0    0    0  501  0.00000000000E+00  0.00000000000E+00  0.28765472328E+03  0.28765472329E+03  0.25500000920E-02 0.  1.
        2   -1    0    0  501    0  0.00000000000E+00  0.00000000000E+00 -0.17274043911E+04  0.17274043911E+04  0.25500000920E-02 0. -1.
    10030    2    1    2    0    0  0.00000000000E+00  0.00000000000E+00 -0.14397496678E+04  0.20150591144E+04  0.14098170550E+04 0.  0.
        1    1    3    3  502    0 -0.24335632994E+03  0.69627298324E+02  0.22045796674E+03  0.33566647005E+03  0.50400001928E-02 0.  1.
       -1    1    3    3    0  502  0.24335632994E+03 -0.69627298324E+02 -0.16602076345E+04  0.16793926443E+04  0.50400001928E-02 0. -1.
</event>
<event>
 5   0  0.1497625E-04  0.1403719E+04  0.7818609E-02  0.8951131E-01
        4   -1    0    0  501    0  0.00000000000E+00  0.00000000000E+00  0.84039838951E+03  0.84039934912E+03  0.12699999809E+01 0.  1.
       -4   -1    0    0    0  501  0.00000000000E+00  0.00000000000E+00 -0.58615635434E+03  0.58615773016E+03  0.12699999809E+01 0. -1.
    10030    2    1    2    0    0  0.00000000000E+00  0.00000000000E+00  0.25424203517E+03  0.14265570793E+04  0.14037186641E+04 0.  0.
        4    1    3    3  502    0  0.59056074880E+03  0.23618944225E+03  0.42869380636E+03  0.76702506033E+03  0.12699999809E+01 0. -1.
       -4    1    3    3    0  502 -0.59056074880E+03 -0.23618944225E+03 -0.17445177118E+03  0.65953201896E+03  0.12699999809E+01 0.  1.
</event>
<event>
 5   0  0.4208622E-04  0.1404646E+04  0.7818609E-02  0.8950462E-01
        2   -1    0    0  501    0  0.00000000000E+00  0.00000000000E+00  0.18240292646E+04  0.18240292646E+04  0.25500000920E-02 0.  1.
       -2   -1    0    0    0  501  0.00000000000E+00  0.00000000000E+00 -0.27042197278E+03  0.27042197279E+03  0.25500000920E-02 0. -1.
    10030    2    1    2    0    0  0.00000000000E+00  0.00000000000E+00  0.15536072918E+04  0.20944512374E+04  0.14046459940E+04 0.  0.
        4    1    3    3  502    0  0.40856815948E+03 -0.49156090617E+03  0.12107485551E+04  0.13691142180E+04  0.12699999809E+01 0.  1.
       -4    1    3    3    0  502 -0.40856815948E+03  0.49156090617E+03  0.34285873670E+03  0.72533701935E+03  0.12699999809E+01 0. -1.
</event>
<event>
 5   0  0.2217251E-04  0.1395570E+04  0.7818609E-02  0.8957031E-01
        1   -1    0    0  501    0  0.00000000000E+00  0.00000000000E+00  0.82584798155E+03  0.82584798157E+03  0.50400001928E-02 0. -1.
       -1   -1    0    0    0  501  0.00000000000E+00  0.00000000000E+00 -0.58958077077E+03  0.58958077080E+03  0.50400001928E-02 0.  1.
    10030    2    1    2    0    0  0.00000000000E+00  0.00000000000E+00  0.23626721078E+03  0.14154287524E+04  0.13955702627E+04 0.  0.
        5    1    3    3  502    0  0.34643313377E+03  0.85345826552E+02 -0.49005094422E+03  0.60619455970E+03  0.46999998093E+01 0.  1.
       -5    1    3    3    0  502 -0.34643313377E+03 -0.85345826552E+02  0.72631815500E+03  0.80923419266E+03  0.46999998093E+01 0. -1.
</event>
<event>
 5   0  0.2223112E-04  0.1399861E+04  0.7818609E-02  0.8953919E-01
        1   -1    0    0  501    0  0.00000000000E+00  0.00000000000E+00  0.20773868480E+04  0.20773868480E+04  0.50400001928E-02 0.  1.
       -1   -1    0    0    0  501  0.00000000000E+00  0.00000000000E+00 -0.23582653650E+03  0.23582653656E+03  0.50400001928E-02 0. -1.
    10030    2    1    2    0    0  0.00000000000E+00  0.00000000000E+00  0.18415603114E+04  0.23132133845E+04  0.13998613437E+04 0.  0.
        1    1    3    3  502    0 -0.10127716711E+03  0.42910006010E+03  0.22476030734E+02  0.44146245383E+03  0.50400001928E-02 0. -1.
       -1    1    3    3    0  502  0.10127716711E+03 -0.42910006010E+03  0.18190842807E+04  0.18717509307E+04  0.50400001928E-02 0.  1.
</event>
<event>
 5   0  0.2155352E-04  0.1398947E+04  0.7818609E-02  0.8954581E-01
       -1   -1    0    0    0  501  0.00000000000E+00  0.00000000000E+00  0.99902110545E+03  0.99902110546E+03  0.50400001928E-02 0. -1.
        1   -1    0    0  501    0  0.00000000000E+00  0.00000000000E+00 -0.48974225250E+03  0.48974225252E+03  0.50400001928E-02 0.  1.
    10030    2    1    2    0    0  0.00000000000E+00  0.00000000000E+00  0.50927885296E+03  0.14887633580E+04  0.13989465272E+04 0.  0.
        2    1    3    3  502    0 -0.41920739898E+03 -0.45253025955E+02 -0.33929671878E+03  0.54120693187E+03  0.25500000920E-02 0.  1.
       -2    1    3    3    0  502  0.41920739898E+03  0.45253025955E+02  0.84857557174E+03  0.94755642612E+03  0.25500000920E-02 0. -1.
</event>
<event>
 5   0  0.2155352E-04  0.1398288E+04  0.7818609E-02  0.8955059E-01
       -1   -1    0    0    0  501  0.00000000000E+00  0.00000000000E+00  0.68740446780E+03  0.68740446782E+03  0.50400001928E-02 0. -1.
        1   -1    0    0  501    0  0.00000000000E+00  0.00000000000E+00 -0.71108419990E+03  0.71108419992E+03  0.50400001928E-02 0.  1.
    10030    2    1    2    0    0  0.00000000000E+00  0.00000000000E+00 -0.23679732097E+02  0.13984886677E+04  0.13982881763E+04 0.  0.
        2    1    3    3  502    0 -0.46265447123E+03 -0.37021539133E+03  0.35928457287E+03  0.69296031635E+03  0.25500000920E-02 0. -1.
       -2    1    3    3    0  502  0.46265447123E+03  0.37021539133E+03 -0.38296430497E+03  0.70552835139E+03  0.25500000920E-02 0.  1.
</event>
<event>
 5   0  0.2217251E-04  0.1399532E+04  0.7818609E-02  0.8954157E-01
       -1   -1    0    0    0  501  0.00000000000E+00  0.00000000000E+00  0.68027874343E+03  0.68027874345E+03  0.50400001928E-02 0.  1.
        1   -1    0    0  501    0  0.00000000000E+00  0.00000000000E+00 -0.71981166572E+03  0.71981166574E+03  0.50400001928E-02 0. -1.
    10030    2    1    2    0    0  0.00000000000E+00  0.00000000000E+00 -0.39532922289E+02  0.14000904092E+04  0.13995321725E+04 0.  0.
        5    1    3    3  502    0  0.20437719148E+03 -0.59810300544E+03 -0.32014152311E+03  0.70852658830E+03  0.46999998093E+01 0. -1.
       -5    1    3    3    0  502 -0.20437719148E+03  0.59810300544E+03  0.28060860082E+03  0.69156382089E+03  0.46999998093E+01 0.  1.
</event>
<event>
 5   0  0.4310348E-04  0.1405685E+04  0.7818609E-02  0.8949714E-01
       -2   -1    0    0    0  501  0.00000000000E+00  0.00000000000E+00  0.32781260626E+03  0.32781260627E+03  0.25500000920E-02 0. -1.
        2   -1    0    0  501    0  0.00000000000E+00  0.00000000000E+00 -0.15069208493E+04  0.15069208493E+04  0.25500000920E-02 0.  1.
    10030    2    1    2    0    0  0.00000000000E+00  0.00000000000E+00 -0.11791082431E+04  0.18347334556E+04  0.14056851014E+04 0.  0.
        1    1    3    3  502    0  0.41049293227E+02 -0.10124126447E+01  0.32624569855E+03  0.32881959385E+03  0.50400001928E-02 0. -1.
       -1    1    3    3    0  502 -0.41049293227E+02  0.10124126447E+01 -0.15053539416E+04  0.15059138617E+04  0.50400001928E-02 0.  1.
</event>
<event>
 5   0  0.2143942E-04  0.1401240E+04  0.7818609E-02  0.8952922E-01
       -1   -1    0    0    0  501  0.00000000000E+00  0.00000000000E+00  0.26589758852E+03  0.26589758857E+03  0.50400001928E-02 0.  1.
        1   -1    0    0  501    0  0.00000000000E+00  0.00000000000E+00 -0.18460803879E+04  0.18460803879E+04  0.50400001928E-02 0. -1.
    10030    2    1    2    0    0  0.00000000000E+00  0.00000000000E+00 -0.15801827994E+04  0.21119779765E+04  0.14012399130E+04 0.  0.
        4    1    3    3  502    0  0.10759429115E+03  0.54502557176E+03 -0.14335128394E+04  0.15373971768E+04  0.12699999809E+01 0. -1.
       -4    1    3    3    0  502 -0.10759429115E+03 -0.54502557176E+03 -0.14666995995E+03  0.57458079973E+03  0.12699999809E+01 0.  1.
</event>
<event>
 5   0  0.2223112E-04  0.1406882E+04  0.7818609E-02  0.8948852E-01
       -1   -1    0    0    0  501  0.00000000000E+00  0.00000000000E+00  0.37062986906E+03  0.37062986910E+03  0.50400001928E-02 0. -1.
        1   -1    0    0  501    0  0.00000000000E+00  0.00000000000E+00 -0.13351026072E+04  0.13351026072E+04  0.50400001928E-02 0.  1.
    10030    2    1    2    0    0  0.00000000000E+00  0.00000000000E+00 -0.96447273813E+03  0.17057324763E+04  0.14068815224E+04 0.  0.
        1    1    3    3  502    0 -0.50776038669E+03  0.37264367443E+02 -0.10707535636E+04  0.11856316618E+04  0.50400001928E-02 0.  1.
       -1    1    3    3    0  502  0.50776038669E+03 -0.37264367443E+02  0.10628082550E+03  0.52010081452E+03  0.50400001928E-02 0. -1.
</event>
<event>
 5   0  0.4208622E-04  0.1390782E+04  0.7818609E-02  0.8960518E-01
       -2   -1    0    0    0  501  0.00000000000E+00  0.00000000000E+00  0.54249374196E+03  0.54249374196E+03  0.25500000920E-02 0. -1.
        2   -1    0    0  501    0  0.00000000000E+00  0.00000000000E+00 -0.89138070752E+03  0.89138070752E+03  0.25500000920E-02 0.  1.
    10030    2    1    2    0    0  0.00000000000E+00  0.00000000000E+00 -0.34888696556E+03  0.14338744495E+04  0.13907817306E+04 0.  0.
        4    1    3    3  502    0  0.99723586504E+02  0.53143614031E+03 -0.62525339379E+03  0.82662723418E+03  0.12699999809E+01 0.  1.
       -4    1    3    3    0  502 -0.99723586504E+02 -0.53143614031E+03  0.27636642824E+03  0.60724721530E+03  0.12699999809E+01 0. -1.
</event>
<event>
 5   0  0.2217251E-04  0.1400099E+04  0.7818609E-02  0.8953747E-01
       -1   -1    0    0    0  501  0.00000000000E+00  0.00000000000E+00  0.48920441605E+03  0.48920441608E+03  0.50400001928E-02 0.  1.
        1   -1    0    0  501    0  0.00000000000E+00  0.00000000000E+00 -0.10017679165E+04  0.10017679165E+04  0.50400001928E-02 0. -1.
    10030    2    1    2    0    0  0.00000000000E+00  0.00000000000E+00 -0.51256350047E+03  0.14909723326E+04  0.14000989803E+04 0.  0.
        5    1    3    3  502    0 -0.46956632758E+03 -0.49441529473E+03 -0.42502190894E+03  0.80349532216E+03  0.46999998093E+01 0.  1.
       -5    1    3    3    0  502  0.46956632758E+03  0.49441529473E+03 -0.87541591531E+02  0.68747701046E+03  0.46999998093E+01 0. -1.
</event>
<event>
 5   0  0.2217251E-04  0.1392228E+04  0.7818609E-02  0.8959464E-01
        1   -1    0    0  501    0  0.00000000000E+00  0.00000000000E+00  0.10197322918E+04  0.10197322918E+04  0.50400001928E-02 0. -1.
       -1   -1    0    0    0  501  0.00000000000E+00  0.00000000000E+00 -0.47519783302E+03  0.47519783304E+03  0.50400001928E-02 0.  1.
    10030    2    1    2    0    0  0.00000000000E+00  0.00000000000E+00  0.54453445878E+03  0.14949301248E+04  0.13922278195E+04 0.  0.
        5    1    3    3  502    0  0.10012881768E+03  0.64237747377E+03  0.51645027221E+01  0.65017179347E+03  0.46999998093E+01 0.  1.
       -5    1    3    3    0  502 -0.10012881768E+03 -0.64237747377E+03  0.53936995605E+03  0.84475833138E+03  0.46999998093E+01 0. -1.
</event>
<event>
 5   0  0.2155352E-04  0.1396585E+04  0.7818609E-02  0.8956294E-01
        1   -1    0    0  501    0  0.00000000000E+00  0.00000000000E+00  0.19149116938E+04  0.19149116938E+04  0.50400001928E-02 0.  1.
       -1   -1    0    0    0  501  0.00000000000E+00  0.00000000000E+00 -0.25463969491E+03  0.25463969496E+03  0.50400001928E-02 0. -1.
    10030    2    1    2    0    0  0.00000000000E+00  0.00000000000E+00  0.16602719989E+04  0.21695513888E+04  0.13965851633E+04 0.  0.
        2    1    3    3  502    0  0.61665127207E+03 -0.23613733080E+03  0.47728001774E+03  0.81474894642E+03  0.25500000920E-02 0. -1.
       -2    1    3    3    0  502 -0.61665127207E+03  0.23613733080E+03  0.11829919811E+04  0.13548024423E+04  0.25500000920E-02 0.  1.
</event>
<event>
 5   0  0.4310348E-04  0.1399556E+04  0.7818609E-02  0.8954140E-01
       -2   -1    0    0    0  501  0.00000000000E+00  0.00000000000E+00  0.29515942350E+03  0.29515942351E+03  0.25500000920E-02 0.  1.
        2   -1    0    0  501    0  0.00000000000E+00  0.00000000000E+00 -0.16590677308E+04  0.16590677308E+04  0.25500000920E-02 0. -1.
    10030    2    1    2    0    0  0.00000000000E+00  0.00000000000E+00 -0.13639083073E+04  0.19542271543E+04  0.13995563225E+04 0.  0.
        1    1    3    3  502    0  0.65235552389E+03  0.23253608332E+03 -0.54198255089E+03  0.87942358684E+03  0.50400001928E-02 0.  1.
       -1    1    3    3    0  502 -0.65235552389E+03 -0.23253608332E+03 -0.82192575644E+03  0.10748035675E+04  0.50400001928E-02 0. -1.
</event>
<event>
 5   0  0.2143942E-04  0.1393613E+04  0.7818609E-02  0.8958455E-01
       -1   -1    0    0    0  501  0.00000000000E+00  0.00000000000E+00  0.38641977715E+03  0.38641977718E+03  0.50400001928E-02 0. -1.
        1   -1    0    0  501    0  0.00000000000E+00  0.00000000000E+00 -0.12565071604E+04  0.12565071605E+04  0.50400001928E-02 0.  1.
    10030    2    1    2    0    0  0.00000000000E+00  0.00000000000E+00 -0.87008738329E+03  0.16429269376E+04  0.13936128831E+04 0.  0.
        4    1    3    3  502    0  0.22366230000E+03 -0.36730345475E+02  0.34174489073E+03  0.41007941422E+03  0.12699999809E+01 0. -1.
       -4    1    3    3    0  502 -0.22366230000E+03  0.36730345475E+02 -0.12118322740E+04  0.12328475234E+04  0.12699999809E+01 0.  1.
</event>
<event>
 5   0  0.4310348E-04  0.1394725E+04  0.7818609E-02  0.8957646E-01
        2   -1    0    0  501    0  0.00000000000E+00  0.00000000000E+00  0.74043686127E+03  0.74043686128E+03  0.25500000920E-02 0.  1.
       -2   -1    0    0    0  501  0.00000000000E+00  0.00000000000E+00 -0.65679371225E+03  0.65679371225E+03  0.25500000920E-02 0. -1.
    10030    2    1    2    0    0  0.00000000000E+00  0.00000000000E+00  0.83643149029E+02  0.13972305735E+04  0.13947247396E+04 0.  0.
        1    1    3    3  502    0  0.49192973713E+03 -0.19440879380E+03  0.49708787188E+03  0.72586913268E+03  0.50400001928E-02 0.  1.
       -1    1    3    3    0  502 -0.49192973713E+03  0.19440879380E+03 -0.41344472285E+03  0.67136144085E+03  0.50400001928E-02 0. -1.
</event>
<event>
 5   0  0.3917598E-04  0.1404002E+04  0.7818609E-02  0.8950927E-01
       -2   -1    0    0    0  501  0.00000000000E+00  0.00000000000E+00  0.41725334899E+03  0.41725334900E+03  0.25500000920E-02 0.  1.
        2   -1    0    0  501    0  0.00000000000E+00  0.00000000000E+00 -0.11810696071E+04  0.11810696071E+04  0.25500000920E-02 0. -1.
    10030    2    1    2    0    0  0.00000000000E+00  0.00000000000E+00 -0.76381625810E+03  0.15983229561E+04  0.14040017791E+04 0.  0.
        3    1    3    3  502    0 -0.48421011237E+03  0.30245891396E+03 -0.84693573928E+03  0.10213916899E+04  0.10100000352E+00 0. -1.
       -3    1    3    3    0  502  0.48421011237E+03 -0.30245891396E+03  0.83119481180E+02  0.57693126619E+03  0.10100000352E+00 0.  1.
</event>
<event>
 5   0  0.3917598E-04  0.1485740E+04  0.7818609E-02  0.8893991E-01
       -2   -1    0    0    0  501  0.00000000000E+00  0.00000000000E+00  0.43102656698E+03  0.43102656699E+03  0.25500000920E-02 0.  1.
        2   -1    0    0  501    0  0.00000000000E+00  0.00000000000E+00 -0.12803298250E+04  0.12803298250E+04  0.25500000920E-02 0. -1.
    10030    2    1    2    0    0  0.00000000000E+00  0.00000000000E+00 -0.84930325805E+03  0.17113563920E+04  0.14857404472E+04 0.  0.
        3    1    3    3  502    0 -0.49702186527E+03  0.16091276800E+03 -0.10329926168E+04  0.11575825716E+04  0.10100000352E+00 0. -1.
       -3    1    3    3    0  502  0.49702186527E+03 -0.16091276800E+03  0.18368935877E+03  0.55377382043E+03  0.10100000352E+00 0.  1.
</event>
<event>
 5   0  0.2223112E-04  0.1396915E+04  0.7818609E-02  0.8956054E-01
        1   -1    0    0  501    0  0.00000000000E+00  0.00000000000E+00  0.16835562513E+04  0.16835562513E+04  0.50400001928E-02 0.  1.
       -1   -1    0    0    0  501  0.00000000000E+00  0.00000000000E+00 -0.28976941111E+03  0.28976941115E+03  0.50400001928E-02 0. -1.
    10030    2    1    2    0    0  0.00000000000E+00  0.00000000000E+00  0.13937868402E+04  0.19733256625E+04  0.13969153211E+04 0.  0.
        1    1    3    3  502    0  0.15840603946E+03 -0.10004276862E+03  0.16473977761E+04  0.16580170269E+04  0.50400001928E-02 0.  1.
       -1    1    3    3    0  502 -0.15840603946E+03  0.10004276862E+03 -0.25361093583E+03  0.31530863561E+03  0.50400001928E-02 0. -1.
</event>
<event>
 5   0  0.2217251E-04  0.1399251E+04  0.7818609E-02  0.8954361E-01
       -1   -1    0    0    0  501  0.00000000000E+00  0.00000000000E+00  0.76549902619E+03  0.76549902621E+03  0.50400001928E-02 0.  1.
        1   -1    0    0  501    0  0.00000000000E+00  0.00000000000E+00 -0.63942093972E+03  0.63942093974E+03  0.50400001928E-02 0. -1.
    10030    2    1    2    0    0  0.00000000000E+00  0.00000000000E+00  0.12607808647E+03  0.14049199659E+04  0.13992513809E+04 0.  0.
        5    1    3    3  502    0  0.17486792263E+03 -0.28829923446E+03 -0.55243594344E+03  0.64722700852E+03  0.46999998093E+01 0. -1.
       -5    1    3    3    0  502 -0.17486792263E+03  0.28829923446E+03  0.67851402991E+03  0.75769295743E+03  0.46999998093E+01 0.  1.
</event>
<event>
 5   0  0.3917598E-04  0.1373650E+04  0.7818609E-02  0.8973116E-01
        2   -1    0    0  501    0  0.00000000000E+00  0.00000000000E+00  0.40138593399E+03  0.40138593400E+03  0.25500000920E-02 0. -1.
       -2   -1    0    0    0  501  0.00000000000E+00  0.00000000000E+00 -0.11752500743E+04  0.11752500743E+04  0.25500000920E-02 0.  1.
    10030    2    1    2    0    0  0.00000000000E+00  0.00000000000E+00 -0.77386414029E+03  0.15766360083E+04  0.13736503904E+04 0.  0.
        3    1    3    3  502    0  0.48129342172E+03 -0.73731749765E+01  0.17539501233E+03  0.51230961542E+03  0.10100000352E+00 0. -1.
       -3    1    3    3    0  502 -0.48129342172E+03  0.73731749765E+01 -0.94925915261E+03  0.10643263929E+04  0.10100000352E+00 0.  1.
</event>
<event>
 5   0  0.2217251E-04  0.1403901E+04  0.7818609E-02  0.8951000E-01
        1   -1    0    0  501    0  0.00000000000E+00  0.00000000000E+00  0.14205312633E+04  0.14205312633E+04  0.50400001928E-02 0.  1.
       -1   -1    0    0    0  501  0.00000000000E+00  0.00000000000E+00 -0.34686643589E+03  0.34686643593E+03  0.50400001928E-02 0. -1.
    10030    2    1    2    0    0  0.00000000000E+00  0.00000000000E+00  0.10736648274E+04  0.17673976992E+04  0.14039011595E+04 0.  0.
        5    1    3    3  502    0 -0.59738474583E+03 -0.36748367916E+03  0.57243417287E+03  0.90532632860E+03  0.46999998093E+01 0.  1.
       -5    1    3    3    0  502  0.59738474583E+03  0.36748367916E+03  0.50123065450E+03  0.86207137060E+03  0.46999998093E+01 0. -1.
</event>
<event>
 5   0  0.3932568E-04  0.1434420E+04  0.7818609E-02  0.8929274E-01
        2   -1    0    0  501    0  0.00000000000E+00  0.00000000000E+00  0.18024730407E+04  0.18024730407E+04  0.25500000920E-02 0.  1.
       -2   -1    0    0    0  501  0.00000000000E+00  0.00000000000E+00 -0.28538015623E+03  0.28538015624E+03  0.25500000920E-02 0. -1.
    10030    2    1    2    0    0  0.00000000000E+00  0.00000000000E+00  0.15170928844E+04  0.20878531969E+04  0.14344197962E+04 0.  0.
        2    1    3    3  502    0 -0.71425346332E+02 -0.64935377597E+03  0.11894156560E+04  0.13570082937E+04  0.25500000920E-02 0.  1.
       -2    1    3    3    0  502  0.71425346332E+02  0.64935377597E+03  0.32767722842E+03  0.73084490318E+03  0.25500000920E-02 0. -1.
</event>
<event>
 5   0  0.2215876E-04  0.1399019E+04  0.7818609E-02  0.8954529E-01
       -1   -1    0    0    0  501  0.00000000000E+00  0.00000000000E+00  0.95877393464E+03  0.95877393466E+03  0.50400001928E-02 0. -1.
        1   -1    0    0  501    0  0.00000000000E+00  0.00000000000E+00 -0.51035336263E+03  0.51035336266E+03  0.50400001928E-02 0.  1.
    10030    2    1    2    0    0  0.00000000000E+00  0.00000000000E+00  0.44842057201E+03  0.14691272973E+04  0.13990189442E+04 0.  0.
        3    1    3    3  502    0  0.13382678270E+03  0.17075284621E+03 -0.47413217993E+03  0.52140912583E+03  0.10100000352E+00 0.  1.
       -3    1    3    3    0  502 -0.13382678270E+03 -0.17075284621E+03  0.92255275194E+03  0.94771817149E+03  0.10100000352E+00 0. -1.
</event>
<event>
 5   0  0.2223112E-04  0.1401122E+04  0.7818609E-02  0.8953007E-01
        1   -1    0    0  501    0  0.00000000000E+00  0.00000000000E+00  0.11468296382E+04  0.11468296382E+04  0.50400001928E-02 0. -1.
       -1   -1    0    0    0  501  0.00000000000E+00  0.00000000000E+00 -0.42795008851E+03  0.42795008854E+03  0.50400001928E-02 0.  1.
    10030    2    1    2    0    0  0.00000000000E+00  0.00000000000E+00  0.71887954968E+03  0.15747797267E+04  0.14011221863E+04 0.  0.
        1    1    3    3  502    0  0.33020145172E+03 -0.22276581656E+03 -0.28829424225E+03  0.49170232650E+03  0.50400001928E-02 0.  1.
       -1    1    3    3    0  502 -0.33020145172E+03  0.22276581656E+03  0.10071737919E+04  0.10830774002E+04  0.50400001928E-02 0. -1.
</event>
<event>
 5   0  0.2143942E-04  0.1409352E+04  0.7818609E-02  0.8947076E-01
        1   -1    0    0  501    0  0.00000000000E+00  0.00000000000E+00  0.10287730667E+04  0.10287730667E+04  0.50400001928E-02 0. -1.
       -1   -1    0    0    0  501  0.00000000000E+00  0.00000000000E+00 -0.48268037796E+03  0.48268037799E+03  0.50400001928E-02 0.  1.
    10030    2    1    2    0    0  0.00000000000E+00  0.00000000000E+00  0.54609268871E+03  0.15114534447E+04  0.14093524367E+04 0.  0.
        4    1    3    3  502    0 -0.15735482383E+02 -0.21236851310E+03  0.99343827331E+03  0.10160064993E+04  0.12699999809E+01 0. -1.
       -4    1    3    3    0  502  0.15735482383E+02  0.21236851310E+03 -0.44734558460E+03  0.49544694542E+03  0.12699999809E+01 0.  1.
</event>
<event>
 5   0  0.4208622E-04  0.1376215E+04  0.7818609E-02  0.8971218E-01
        2   -1    0    0  501    0  0.00000000000E+00  0.00000000000E+00  0.45738104854E+03  0.45738104854E+03  0.25500000920E-02 0.  1.
       -2   -1    0    0    0  501  0.00000000000E+00  0.00000000000E+00 -0.10352236275E+04  0.10352236275E+04  0.25500000920E-02 0. -1.
    10030    2    1    2    0    0  0.00000000000E+00  0.00000000000E+00 -0.57784257901E+03  0.14926046761E+04  0.13762146173E+04 0.  0.
        4    1    3    3  502    0 -0.61981244764E+03  0.16599234155E+03 -0.55847441101E+03  0.85065633975E+03  0.12699999809E+01 0. -1.
       -4    1    3    3    0  502  0.61981244764E+03 -0.16599234155E+03 -0.19368167996E+02  0.64194833634E+03  0.12699999809E+01 0.  1.
</event>
<event>
 5   0  0.2215876E-04  0.1398884E+04  0.7818609E-02  0.8954626E-01
        1   -1    0    0  501    0  0.00000000000E+00  0.00000000000E+00  0.76148904936E+03  0.76148904937E+03  0.50400001928E-02 0. -1.
       -1   -1    0    0    0  501  0.00000000000E+00  0.00000000000E+00 -0.64245104964E+03  0.64245104966E+03  0.50400001928E-02 0.  1.
    10030    2    1    2    0    0  0.00000000000E+00  0.00000000000E+00  0.11903799971E+03  0.14039400990E+04  0.13988844685E+04 0.  0.
        3    1    3    3  502    0 -0.35983531021E+03 -0.34621383634E+03  0.55105833831E+03  0.74364694134E+03  0.10100000352E+00 0. -1.
       -3    1    3    3    0  502  0.35983531021E+03  0.34621383634E+03 -0.43202033860E+03  0.66029315770E+03  0.10100000352E+00 0.  1.
</event>
<event>
 5   0  0.2217251E-04  0.1397186E+04  0.7818609E-02  0.8955858E-01
       -1   -1    0    0    0  501  0.00000000000E+00  0.00000000000E+00  0.77019822680E+03  0.77019822682E+03  0.50400001928E-02 0. -1.
        1   -1    0    0  501    0  0.00000000000E+00  0.00000000000E+00 -0.63364496958E+03  0.63364496960E+03  0.50400001928E-02 0.  1.
    10030    2    1    2    0    0  0.00000000000E+00  0.00000000000E+00  0.13655325722E+03  0.14038431964E+04  0.13971860750E+04 0.  0.
        5    1    3    3  502    0  0.37242515271E+03  0.39858165854E+03 -0.37019961885E+03  0.65927056713E+03  0.46999998093E+01 0.  1.
       -5    1    3    3    0  502 -0.37242515271E+03 -0.39858165854E+03  0.50675287606E+03  0.74457262929E+03  0.46999998093E+01 0. -1.
</event>
<event>
 5   0  0.2143942E-04  0.1402720E+04  0.7818609E-02  0.8951852E-01
       -1   -1    0    0    0  501  0.00000000000E+00  0.00000000000E+00  0.90068560301E+03  0.90068560302E+03  0.50400001928E-02 0.  1.
        1   -1    0    0  501    0  0.00000000000E+00  0.00000000000E+00 -0.54614617127E+03  0.54614617129E+03  0.50400001928E-02 0. -1.
    10030    2    1    2    0    0  0.00000000000E+00  0.00000000000E+00  0.35453943174E+03  0.14468317743E+04  0.14027202054E+04 0.  0.
        4    1    3    3  502    0 -0.42140500198E+03  0.41196752179E+03 -0.21495828008E+03  0.62730223161E+03  0.12699999809E+01 0. -1.
       -4    1    3    3    0  502  0.42140500198E+03 -0.41196752179E+03  0.56949771182E+03  0.81952954271E+03  0.12699999809E+01 0.  1.
</event>
<event>
 5   0  0.3932568E-04  0.1405154E+04  0.7818609E-02  0.8950096E-01
       -2   -1    0    0    0  501  0.00000000000E+00  0.00000000000E+00  0.39701992641E+03  0.39701992642E+03  0.25500000920E-02 0.  1.
        2   -1    0    0  501    0  0.00000000000E+00  0.00000000000E+00 -0.12432990364E+04  0.12432990364E+04  0.25500000920E-02 0. -1.
    10030    2    1    2    0    0  0.00000000000E+00  0.00000000000E+00 -0.84627911001E+03  0.16403189628E+04  0.14051540726E+04 0.  0.
        2    1    3    3  502    0 -0.53458958244E+02  0.20868643836E+03  0.35751421672E+03  0.41740185066E+03  0.25500000920E-02 0.  1.
       -2    1    3    3    0  502  0.53458958244E+02 -0.20868643836E+03 -0.12037933267E+04  0.12229171122E+04  0.25500000920E-02 0. -1.
</event>
<event>
 5   0  0.4208622E-04  0.1398332E+04  0.7818609E-02  0.8955027E-01
        2   -1    0    0  501    0  0.00000000000E+00  0.00000000000E+00  0.96321476971E+03  0.96321476971E+03  0.25500000920E-02 0.  1.
       -2   -1    0    0    0  501  0.00000000000E+00  0.00000000000E+00 -0.50750136478E+03  0.50750136479E+03  0.25500000920E-02 0. -1.
    10030    2    1    2    0    0  0.00000000000E+00  0.00000000000E+00  0.45571340492E+03  0.14707161345E+04  0.13983315919E+04 0.  0.
        4    1    3    3  502    0  0.29373956511E+03  0.33253179183E+03 -0.34045742384E+03  0.55926129406E+03  0.12699999809E+01 0. -1.
       -4    1    3    3    0  502 -0.29373956511E+03 -0.33253179183E+03  0.79617082876E+03  0.91145484044E+03  0.12699999809E+01 0.  1.
</event>
<event>
 5   0  0.4208622E-04  0.1401812E+04  0.7818609E-02  0.8952508E-01
       -2   -1    0    0    0  501  0.00000000000E+00  0.00000000000E+00  0.20729518607E+03  0.20729518609E+03  0.25500000920E-02 0.  1.
        2   -1    0    0  501    0  0.00000000000E+00  0.00000000000E+00 -0.23699026050E+04  0.23699026050E+04  0.25500000920E-02 0. -1.
    10030    2    1    2    0    0  0.00000000000E+00  0.00000000000E+00 -0.21626074189E+04  0.25771977910E+04  0.14018122577E+04 0.  0.
        4    1    3    3  502    0 -0.10189243127E+03 -0.67492379512E+03 -0.78850896640E+03  0.10429056524E+04  0.12699999809E+01 0. -1.
       -4    1    3    3    0  502  0.10189243127E+03  0.67492379512E+03 -0.13740984525E+04  0.15342921387E+04  0.12699999809E+01 0.  1.
</event>
<event>
 5   0  0.2143942E-04  0.1395705E+04  0.7818609E-02  0.8956933E-01
       -1   -1    0    0    0  501  0.00000000000E+00  0.00000000000E+00  0.38108348032E+03  0.38108348036E+03  0.50400001928E-02 0. -1.
        1   -1    0    0  501    0  0.00000000000E+00  0.00000000000E+00 -0.12779306580E+04  0.12779306580E+04  0.50400001928E-02 0.  1.
    10030    2    1    2    0    0  0.00000000000E+00  0.00000000000E+00 -0.89684717769E+03  0.16590141384E+04  0.13957052164E+04 0.  0.
        4    1    3    3  502    0  0.18057256944E+03  0.34039504379E+02  0.35180936714E+03  0.39690878599E+03  0.12699999809E+01 0. -1.
       -4    1    3    3    0  502 -0.18057256944E+03 -0.34039504379E+02 -0.12486565448E+04  0.12621053524E+04  0.12699999809E+01 0.  1.
</event>
<event>
 5   0  0.3932568E-04  0.1387616E+04  0.7818609E-02  0.8962832E-01
       -2   -1    0    0    0  501  0.00000000000E+00  0.00000000000E+00  0.51249549954E+03  0.51249549955E+03  0.25500000920E-02 0.  1.
        2   -1    0    0  501    0  0.00000000000E+00  0.00000000000E+00 -0.93926598092E+03  0.93926598092E+03  0.25500000920E-02 0. -1.
    10030    2    1    2    0    0  0.00000000000E+00  0.00000000000E+00 -0.42677048138E+03  0.14517614805E+04  0.13876160681E+04 0.  0.
        2    1    3    3  502    0  0.98654140554E+02 -0.49015029797E+02 -0.93005801347E+03  0.93655913909E+03  0.25500000920E-02 0. -1.
       -2    1    3    3    0  502 -0.98654140554E+02  0.49015029797E+02  0.50328753209E+03  0.51520234138E+03  0.25500000920E-02 0.  1.
</event>
<event>
 5   0  0.4208622E-04  0.1403059E+04  0.7818609E-02  0.8951607E-01
        2   -1    0    0  501    0  0.00000000000E+00  0.00000000000E+00  0.65903449341E+03  0.65903449341E+03  0.25500000920E-02 0.  1.
       -2   -1    0    0    0  501  0.00000000000E+00  0.00000000000E+00 -0.74676489639E+03  0.74676489639E+03  0.25500000920E-02 0. -1.
    10030    2    1    2    0    0  0.00000000000E+00  0.00000000000E+00 -0.87730402982E+02  0.14057993898E+04  0.14030592649E+04 0.  0.
        4    1    3    3  502    0 -0.56489735334E+03  0.31042339723E+03  0.23356996014E+03  0.68558605918E+03  0.12699999809E+01 0.  1.
       -4    1    3    3    0  502  0.56489735334E+03 -0.31042339723E+03 -0.32130036312E+03  0.72021333062E+03  0.12699999809E+01 0. -1.
</event>
<event>
 5   0  0.3975164E-04  0.1401676E+04  0.7818609E-02  0.8952607E-01
        2   -1    0    0  501    0  0.00000000000E+00  0.00000000000E+00  0.65062185099E+03  0.65062185100E+03  0.25500000920E-02 0.  1.
       -2   -1    0    0    0  501  0.00000000000E+00  0.00000000000E+00 -0.75492947143E+03  0.75492947144E+03  0.25500000920E-02 0. -1.
    10030    2    1    2    0    0  0.00000000000E+00  0.00000000000E+00 -0.10430762044E+03  0.14055513224E+04  0.14016755831E+04 0.  0.
        5    1    3    3  502    0  0.57601292591E+03 -0.21878208737E+03 -0.38698580448E+03  0.72762393820E+03  0.46999998093E+01 0. -1.
       -5    1    3    3    0  502 -0.57601292591E+03  0.21878208737E+03  0.28267818404E+03  0.67792738424E+03  0.46999998093E+01 0.  1.
</event>
<event>
 5   0  0.2155352E-04  0.1402597E+04  0.7818609E-02  0.8951941E-01
       -1   -1    0    0    0  501  0.00000000000E+00  0.00000000000E+00  0.31509613501E+03  0.31509613505E+03  0.50400001928E-02 0.  1.
        1   -1    0    0  501    0  0.00000000000E+00  0.00000000000E+00 -0.15608549362E+04  0.15608549362E+04  0.50400001928E-02 0. -1.
    10030    2    1    2    0    0  0.00000000000E+00  0.00000000000E+00 -0.12457588012E+04  0.18759510712E+04  0.14025966744E+04 0.  0.
        2    1    3    3  502    0 -0.63429579041E+03  0.29721489493E+03 -0.57749324905E+03  0.90783605139E+03  0.25500000920E-02 0. -1.
       -2    1    3    3    0  502  0.63429579041E+03 -0.29721489493E+03 -0.66826555211E+03  0.96811501984E+03  0.25500000920E-02 0.  1.
</event>
<event>
 5   0  0.3975164E-04  0.1396920E+04  0.7818609E-02  0.8956051E-01
       -2   -1    0    0    0  501  0.00000000000E+00  0.00000000000E+00  0.56894151799E+03  0.56894151800E+03  0.25500000920E-02 0.  1.
        2   -1    0    0  501    0  0.00000000000E+00  0.00000000000E+00 -0.85746316364E+03  0.85746316364E+03  0.25500000920E-02 0. -1.
    10030    2    1    2    0    0  0.00000000000E+00  0.00000000000E+00 -0.28852164565E+03  0.14264046816E+04  0.13969200320E+04 0.  0.
        5    1    3    3  502    0 -0.17596618586E+03  0.49360553961E+03  0.32723607730E+03  0.61783174698E+03  0.46999998093E+01 0.  1.
       -5    1    3    3    0  502  0.17596618586E+03 -0.49360553961E+03 -0.61575772295E+03  0.80857293466E+03  0.46999998093E+01 0. -1.
</event>
<event>
 5   0  0.1497625E-04  0.1396290E+04  0.7818609E-02  0.8956509E-01
       -3   -1    0    0    0  501  0.00000000000E+00  0.00000000000E+00  0.72002360549E+03  0.72002361257E+03  0.10100000352E+00 0. -1.
        3   -1    0    0  501    0  0.00000000000E+00  0.00000000000E+00 -0.67693074149E+03  0.67693074903E+03  0.10100000352E+00 0.  1.
    10030    2    1    2    0    0  0.00000000000E+00  0.00000000000E+00  0.43092863997E+02  0.13969543616E+04  0.13962895450E+04 0.  0.
        2    1    3    3  502    0 -0.56520795521E+03  0.13879494489E+03  0.40732314454E+03  0.71037751474E+03  0.25500000920E-02 0.  1.
       -2    1    3    3    0  502  0.56520795521E+03 -0.13879494489E+03 -0.36423028055E+03  0.68657684686E+03  0.25500000920E-02 0. -1.
</event>
<event>
 5   0  0.2155352E-04  0.1410221E+04  0.7818609E-02  0.8946453E-01
        1   -1    0    0  501    0  0.00000000000E+00  0.00000000000E+00  0.87125237687E+03  0.87125237688E+03  0.50400001928E-02 0. -1.
       -1   -1    0    0    0  501  0.00000000000E+00  0.00000000000E+00 -0.57065095963E+03  0.57065095965E+03  0.50400001928E-02 0.  1.
    10030    2    1    2    0    0  0.00000000000E+00  0.00000000000E+00  0.30060141724E+03  0.14419033365E+04  0.14102212663E+04 0.  0.
        2    1    3    3  502    0 -0.51580463101E+03 -0.29124914632E+03  0.54138630888E+03  0.80248340671E+03  0.25500000920E-02 0. -1.
       -2    1    3    3    0  502  0.51580463101E+03  0.29124914632E+03 -0.24078489164E+03  0.63941992982E+03  0.25500000920E-02 0.  1.
</event>
<event>
 5   0  0.4310348E-04  0.1399240E+04  0.7818609E-02  0.8954369E-01
        2   -1    0    0  501    0  0.00000000000E+00  0.00000000000E+00  0.94825339472E+03  0.94825339472E+03  0.25500000920E-02 0. -1.
       -2   -1    0    0    0  501  0.00000000000E+00  0.00000000000E+00 -0.51617832460E+03  0.51617832461E+03  0.25500000920E-02 0.  1.
    10030    2    1    2    0    0  0.00000000000E+00  0.00000000000E+00  0.43207507011E+03  0.14644317193E+04  0.13992395772E+04 0.  0.
        1    1    3    3  502    0 -0.21590931946E+01  0.31251090801E+03 -0.43906507298E+03  0.53893029943E+03  0.50400001928E-02 0.  1.
       -1    1    3    3    0  502  0.21590931946E+01 -0.31251090801E+03  0.87114014309E+03  0.92550141990E+03  0.50400001928E-02 0. -1.
</event>
<event>
 5   0  0.2143942E-04  0.1410517E+04  0.7818609E-02  0.8946241E-01
        1   -1    0    0  501    0  0.00000000000E+00  0.00000000000E+00  0.18167168178E+04  0.18167168178E+04  0.50400001928E-02 0.  1.
       -1   -1    0    0    0  501  0.00000000000E+00  0.00000000000E+00 -0.27378483933E+03  0.27378483937E+03  0.50400001928E-02 0. -1.
    10030    2    1    2    0    0  0.00000000000E+00  0.00000000000E+00  0.15429319784E+04  0.20905016571E+04  0.14105169579E+04 0.  0.
        4    1    3    3  502    0 -0.46032752594E+03 -0.46186568243E+03  0.11696100438E+04  0.13391081387E+04  0.12699999809E+01 0.  1.
       -4    1    3    3    0  502  0.46032752594E+03  0.46186568243E+03  0.37332193463E+03  0.75139351842E+03  0.12699999809E+01 0. -1.
</event>
<event>
 5   0  0.3975164E-04  0.1398387E+04  0.7818609E-02  0.8954987E-01
       -2   -1    0    0    0  501  0.00000000000E+00  0.00000000000E+00  0.29925824841E+03  0.29925824842E+03  0.25500000920E-02 0.  1.
        2   -1    0    0  501    0  0.00000000000E+00  0.00000000000E+00 -0.16336099072E+04  0.16336099072E+04  0.25500000920E-02 0. -1.
    10030    2    1    2    0    0  0.00000000000E+00  0.00000000000E+00 -0.13343516588E+04  0.19328681557E+04  0.13983865552E+04 0.  0.
        5    1    3    3  502    0  0.52485069094E+03 -0.44866440363E+03 -0.81910081775E+03  0.10713151892E+04  0.46999998093E+01 0. -1.
       -5    1    3    3    0  502 -0.52485069094E+03  0.44866440363E+03 -0.51525084108E+03  0.86155296650E+03  0.46999998093E+01 0.  1.
</event>
<event>
 5   0  0.2217251E-04  0.1408560E+04  0.7818609E-02  0.8947646E-01
        1   -1    0    0  501    0  0.00000000000E+00  0.00000000000E+00  0.56460539991E+03  0.56460539993E+03  0.50400001928E-02 0.  1.
       -1   -1    0    0    0  501  0.00000000000E+00  0.00000000000E+00 -0.87850764006E+03  0.87850764007E+03  0.50400001928E-02 0. -1.
    10030    2    1    2    0    0  0.00000000000E+00  0.00000000000E+00 -0.31390224015E+03  0.14431130400E+04  0.14085597715E+04 0.  0.
        5    1    3    3  502    0  0.54895532736E+03 -0.90872192876E+02  0.28535486277E+03  0.62534725919E+03  0.46999998093E+01 0.  1.
       -5    1    3    3    0  502 -0.54895532736E+03  0.90872192876E+02 -0.59925710292E+03  0.81776578081E+03  0.46999998093E+01 0. -1.
</event>
<event>
 5   0  0.2215876E-04  0.1404576E+04  0.7818609E-02  0.8950513E-01
        1   -1    0    0  501    0  0.00000000000E+00  0.00000000000E+00  0.49370111964E+03  0.49370111967E+03  0.50400001928E-02 0. -1.
       -1   -1    0    0    0  501  0.00000000000E+00  0.00000000000E+00 -0.99900212590E+03  0.99900212591E+03  0.50400001928E-02 0.  1.
    10030    2    1    2    0    0  0.00000000000E+00  0.00000000000E+00 -0.50530100625E+03  0.14927032456E+04  0.14045760472E+04 0.  0.
        3    1    3    3  502    0  0.54637907770E+03  0.42675934345E+03 -0.37172905269E+03  0.78666138369E+03  0.10100000352E+00 0.  1.
       -3    1    3    3    0  502 -0.54637907770E+03 -0.42675934345E+03 -0.13357195356E+03  0.70604186189E+03  0.10100000352E+00 0. -1.
</event>
<event>
 5   0  0.1497625E-04  0.1399586E+04  0.7818609E-02  0.8954119E-01
       -3   -1    0    0    0  501  0.00000000000E+00  0.00000000000E+00  0.27043196278E+03  0.27043198164E+03  0.10100000352E+00 0.  1.
        3   -1    0    0  501    0  0.00000000000E+00  0.00000000000E+00 -0.18108435592E+04  0.18108435620E+04  0.10100000352E+00 0. -1.
    10030    2    1    2    0    0  0.00000000000E+00  0.00000000000E+00 -0.15404115964E+04  0.20812755436E+04  0.13995856538E+04 0.  0.
        1    1    3    3  502    0  0.19754516233E+01  0.69728749612E+03 -0.85813458523E+03  0.11057163836E+04  0.50400001928E-02 0. -1.
       -1    1    3    3    0  502 -0.19754516233E+01 -0.69728749612E+03 -0.68227701117E+03  0.97555916000E+03  0.50400001928E-02 0.  1.
</event>
<event>
 5   0  0.3932568E-04  0.1396301E+04  0.7818609E-02  0.8956500E-01
        2   -1    0    0  501    0  0.00000000000E+00  0.00000000000E+00  0.74373346020E+03  0.74373346020E+03  0.25500000920E-02 0. -1.
       -2   -1    0    0    0  501  0.00000000000E+00  0.00000000000E+00 -0.65536164903E+03  0.65536164903E+03  0.25500000920E-02 0.  1.
    10030    2    1    2    0    0  0.00000000000E+00  0.00000000000E+00  0.88371811169E+02  0.13990951092E+04  0.13963013814E+04 0.  0.
        2    1    3    3  502    0  0.72993503251E+02  0.23855199905E+03  0.69754827329E+03  0.74081623993E+03  0.25500000920E-02 0. -1.
       -2    1    3    3    0  502 -0.72993503251E+02 -0.23855199905E+03 -0.60917646212E+03  0.65827886931E+03  0.25500000920E-02 0.  1.
</event>
<event>
 5   0  0.3975164E-04  0.1399135E+04  0.7818609E-02  0.8954445E-01
       -2   -1    0    0    0  501  0.00000000000E+00  0.00000000000E+00  0.99677995513E+03  0.99677995513E+03  0.25500000920E-02 0.  1.
        2   -1    0    0  501    0  0.00000000000E+00  0.00000000000E+00 -0.49097540553E+03  0.49097540554E+03  0.25500000920E-02 0. -1.
    10030    2    1    2    0    0  0.00000000000E+00  0.00000000000E+00  0.50580454959E+03  0.14877553607E+04  0.13991346507E+04 0.  0.
        5    1    3    3  502    0 -0.38406482600E+03 -0.57778459006E+01 -0.36879522114E+03  0.53251401785E+03  0.46999998093E+01 0. -1.
       -5    1    3    3    0  502  0.38406482600E+03  0.57778459006E+01  0.87459977073E+03  0.95524134282E+03  0.46999998093E+01 0.  1.
</event>
<event>
 5   0  0.2143942E-04  0.1395061E+04  0.7818609E-02  0.8957401E-01
        1   -1    0    0  501    0  0.00000000000E+00  0.00000000000E+00  0.14524868715E+04  0.14524868715E+04  0.50400001928E-02 0. -1.
       -1   -1    0    0    0  501  0.00000000000E+00  0.00000000000E+00 -0.33497651678E+03  0.33497651682E+03  0.50400001928E-02 0.  1.
    10030    2    1    2    0    0  0.00000000000E+00  0.00000000000E+00  0.11175103547E+04  0.17874633883E+04  0.13950612788E+04 0.  0.
        4    1    3    3  502    0  0.36158679997E+03 -0.16881015663E+03  0.12917831034E+04  0.13520159326E+04  0.12699999809E+01 0. -1.
       -4    1    3    3    0  502 -0.36158679997E+03  0.16881015663E+03 -0.17427274865E+03  0.43544745575E+03  0.12699999809E+01 0.  1.
</event>
<event>
 5   0  0.4208622E-04  0.1399890E+04  0.7818609E-02  0.8953898E-01
        2   -1    0    0  501    0  0.00000000000E+00  0.00000000000E+00  0.10916590753E+04  0.10916590753E+04  0.25500000920E-02 0. -1.
       -2   -1    0    0    0  501  0.00000000000E+00  0.00000000000E+00 -0.44878746846E+03  0.44878746847E+03  0.25500000920E-02 0.  1.
    10030    2    1    2    0    0  0.00000000000E+00  0.00000000000E+00  0.64287160687E+03  0.15404465438E+04  0.13998898712E+04 0.  0.
        4    1    3    3  502    0  0.28591243451E+03  0.87870695542E+02 -0.37491670493E+03  0.47961581279E+03  0.12699999809E+01 0.  1.
       -4    1    3    3    0  502 -0.28591243451E+03 -0.87870695542E+02  0.10177883118E+04  0.10608307310E+04  0.12699999809E+01 0. -1.
</event>
<event>
 5   0  0.2217251E-04  0.1397952E+04  0.7818609E-02  0.8955302E-01
        1   -1    0    0  501    0  0.00000000000E+00  0.00000000000E+00  0.11563851480E+04  0.11563851480E+04  0.50400001928E-02 0.  1.
       -1   -1    0    0    0  501  0.00000000000E+00  0.00000000000E+00 -0.42249553836E+03  0.42249553839E+03  0.50400001928E-02 0. -1.
    10030    2    1    2    0    0  0.00000000000E+00  0.00000000000E+00  0.73388960963E+03  0.15788806864E+04  0.13979521675E+04 0.  0.
        5    1    3    3  502    0  0.59919046750E+03  0.16150132149E+03  0.37097252709E+01  0.62060272739E+03  0.46999998093E+01 0. -1.
       -5    1    3    3    0  502 -0.59919046750E+03 -0.16150132149E+03  0.73017988436E+03  0.95827795900E+03  0.46999998093E+01 0.  1.
</event>
<event>
 5   0  0.3932568E-04  0.1402616E+04  0.7818609E-02  0.8951927E-01
       -2   -1    0    0    0  501  0.00000000000E+00  0.00000000000E+00  0.47134725319E+03  0.47134725320E+03  0.25500000920E-02 0.  1.
        2   -1    0    0  501    0  0.00000000000E+00  0.00000000000E+00 -0.10434616415E+04  0.10434616415E+04  0.25500000920E-02 0. -1.
    10030    2    1    2    0    0  0.00000000000E+00  0.00000000000E+00 -0.57211438828E+03  0.15148088947E+04  0.14026158113E+04 0.  0.
        2    1    3    3  502    0 -0.33848267292E+03  0.35355321308E+03  0.25637488341E+03  0.55253821152E+03  0.25500000920E-02 0.  1.
       -2    1    3    3    0  502  0.33848267292E+03 -0.35355321308E+03 -0.82848927170E+03  0.96227068316E+03  0.25500000920E-02 0. -1.
</event>
<event>
 5   0  0.3917598E-04  0.1399167E+04  0.7818609E-02  0.8954421E-01
        2   -1    0    0  501    0  0.00000000000E+00  0.00000000000E+00  0.14514513001E+04  0.14514513002E+04  0.25500000920E-02 0.  1.
       -2   -1    0    0    0  501  0.00000000000E+00  0.00000000000E+00 -0.33719169388E+03  0.33719169389E+03  0.25500000920E-02 0. -1.
    10030    2    1    2    0    0  0.00000000000E+00  0.00000000000E+00  0.11142596063E+04  0.17886429940E+04  0.13991673560E+04 0.  0.
        3    1    3    3  502    0 -0.16295489625E+03  0.81620324715E+02  0.14205698413E+04  0.14322132732E+04  0.10100000352E+00 0.  1.
       -3    1    3    3    0  502  0.16295489625E+03 -0.81620324715E+02 -0.30631023505E+03  0.35642972086E+03  0.10100000352E+00 0. -1.
</event>
<event>
 5   0  0.2155352E-04  0.1397772E+04  0.7818609E-02  0.8955433E-01
        1   -1    0    0  501    0  0.00000000000E+00  0.00000000000E+00  0.59863242338E+03  0.59863242340E+03  0.50400001928E-02 0. -1.
       -1   -1    0    0    0  501  0.00000000000E+00  0.00000000000E+00 -0.81592934529E+03  0.81592934531E+03  0.50400001928E-02 0.  1.
    10030    2    1    2    0    0  0.00000000000E+00  0.00000000000E+00 -0.21729692191E+03  0.14145617687E+04  0.13977721721E+04 0.  0.
        2    1    3    3  502    0  0.27270404948E+03 -0.62067830896E+03 -0.28049001002E+03  0.73367820435E+03  0.25500000920E-02 0.  1.
       -2    1    3    3    0  502 -0.27270404948E+03  0.62067830896E+03  0.63193088108E+02  0.68088356435E+03  0.25500000920E-02 0. -1.
</event>
<event>
 5   0  0.2217251E-04  0.1394777E+04  0.7818609E-02  0.8957608E-01
        1   -1    0    0  501    0  0.00000000000E+00  0.00000000000E+00  0.15542111973E+04  0.15542111973E+04  0.50400001928E-02 0. -1.
       -1   -1    0    0    0  501  0.00000000000E+00  0.00000000000E+00 -0.31292437557E+03  0.31292437561E+03  0.50400001928E-02 0.  1.
    10030    2    1    2    0    0  0.00000000000E+00  0.00000000000E+00  0.12412868217E+04  0.18671355729E+04  0.13947767828E+04 0.  0.
        5    1    3    3  502    0 -0.51407278986E+03  0.36704037771E+03  0.10162607038E+04  0.11965773607E+04  0.46999998093E+01 0. -1.
       -5    1    3    3    0  502  0.51407278986E+03 -0.36704037771E+03  0.22502611790E+03  0.67055821215E+03  0.46999998093E+01 0.  1.
</event>
<event>
 5   0  0.3917598E-04  0.1392939E+04  0.7818609E-02  0.8958946E-01
       -2   -1    0    0    0  501  0.00000000000E+00  0.00000000000E+00  0.28152326213E+03  0.28152326215E+03  0.25500000920E-02 0. -1.
        2   -1    0    0  501    0  0.00000000000E+00  0.00000000000E+00 -0.17230185683E+04  0.17230185683E+04  0.25500000920E-02 0.  1.
    10030    2    1    2    0    0  0.00000000000E+00  0.00000000000E+00 -0.14414953061E+04  0.20045418304E+04  0.13929390627E+04 0.  0.
        3    1    3    3  502    0 -0.43290692864E+03  0.36019068991E+03 -0.13104589717E+04  0.14263409370E+04  0.10100000352E+00 0.  1.
       -3    1    3    3    0  502  0.43290692864E+03 -0.36019068991E+03 -0.13103633445E+03  0.57820089339E+03  0.10100000352E+00 0. -1.
</event>
<event>
 5   0  0.3917598E-04  0.1392336E+04  0.7818609E-02  0.8959385E-01
        2   -1    0    0  501    0  0.00000000000E+00  0.00000000000E+00  0.92965082802E+03  0.92965082802E+03  0.25500000920E-02 0.  1.
       -2   -1    0    0    0  501  0.00000000000E+00  0.00000000000E+00 -0.52132464849E+03  0.52132464850E+03  0.25500000920E-02 0. -1.
    10030    2    1    2    0    0  0.00000000000E+00  0.00000000000E+00  0.40832617953E+03  0.14509754765E+04  0.13923360099E+04 0.  0.
        3    1    3    3  502    0  0.62426422143E+03 -0.16981325398E+02  0.52478219416E+03  0.81571474492E+03  0.10100000352E+00 0.  1.
       -3    1    3    3    0  502 -0.62426422143E+03  0.16981325398E+02 -0.11645601463E+03  0.63526073160E+03  0.10100000352E+00 0. -1.
</event>
<event>
 5   0  0.3932568E-04  0.1396929E+04  0.7818609E-02  0.8956044E-01
        2   -1    0    0  501    0  0.00000000000E+00  0.00000000000E+00  0.12410991589E+04  0.12410991589E+04  0.25500000920E-02 0. -1.
       -2   -1    0    0    0  501  0.00000000000E+00  0.00000000000E+00 -0.39308113721E+03  0.39308113722E+03  0.25500000920E-02 0.  1.
    10030    2    1    2    0    0  0.00000000000E+00  0.00000000000E+00  0.84801802169E+03  0.16341802961E+04  0.13969290158E+04 0.  0.
        2    1    3    3  502    0  0.13257572652E+03  0.22019181896E+03  0.11837660868E+04  0.12113475590E+04  0.25500000920E-02 0. -1.
       -2    1    3    3    0  502 -0.13257572652E+03 -0.22019181896E+03 -0.33574806509E+03  0.42283273716E+03  0.25500000920E-02 0.  1.
</event>
<event>
 5   0  0.2223112E-04  0.1401860E+04  0.7818609E-02  0.8952473E-01
        1   -1    0    0  501    0  0.00000000000E+00  0.00000000000E+00  0.32867941992E+03  0.32867941996E+03  0.50400001928E-02 0.  1.
       -1   -1    0    0    0  501  0.00000000000E+00  0.00000000000E+00 -0.14947781549E+04  0.14947781549E+04  0.50400001928E-02 0. -1.
    10030    2    1    2    0    0  0.00000000000E+00  0.00000000000E+00 -0.11660987350E+04  0.18234575749E+04  0.14018599315E+04 0.  0.
        1    1    3    3  502    0 -0.38035432655E+03 -0.22444936975E+03  0.12493640880E+03  0.45897280919E+03  0.50400001928E-02 0.  1.
       -1    1    3    3    0  502  0.38035432655E+03  0.22444936975E+03 -0.12910351438E+04  0.13644847657E+04  0.50400001928E-02 0. -1.
</event>
<event>
 5   0  0.4208622E-04  0.1402935E+04  0.7818609E-02  0.8951697E-01
        2   -1    0    0  501    0  0.00000000000E+00  0.00000000000E+00  0.13741369042E+04  0.13741369042E+04  0.25500000920E-02 0.  1.
       -2   -1    0    0    0  501  0.00000000000E+00  0.00000000000E+00 -0.35808431817E+03  0.35808431818E+03  0.25500000920E-02 0. -1.
    10030    2    1    2    0    0  0.00000000000E+00  0.00000000000E+00  0.10160525861E+04  0.17322212224E+04  0.14029353177E+04 0.  0.
        4    1    3    3  502    0  0.10744974196E+03 -0.17543535182E+03 -0.31999732478E+03  0.38042464495E+03  0.12699999809E+01 0. -1.
       -4    1    3    3    0  502 -0.10744974196E+03  0.17543535182E+03  0.13360499108E+04  0.13517965775E+04  0.12699999809E+01 0.  1.
</event>
<event>
 5   0  0.3917598E-04  0.1406804E+04  0.7818609E-02  0.8948908E-01
       -2   -1    0    0    0  501  0.00000000000E+00  0.00000000000E+00  0.47225770248E+03  0.47225770249E+03  0.25500000920E-02 0. -1.
        2   -1    0    0  501    0  0.00000000000E+00  0.00000000000E+00 -0.10476793100E+04  0.10476793100E+04  0.25500000920E-02 0.  1.
    10030    2    1    2    0    0  0.00000000000E+00  0.00000000000E+00 -0.57542160750E+03  0.15199370125E+04  0.14068043558E+04 0.  0.
        3    1    3    3  502    0  0.16286246468E+03 -0.30693869216E+03 -0.94848088576E+03  0.10101245191E+04  0.10100000352E+00 0.  1.
       -3    1    3    3    0  502 -0.16286246468E+03  0.30693869216E+03  0.37305927827E+03  0.50981249342E+03  0.10100000352E+00 0. -1.
</event>
<event>
 5   0  0.2155352E-04  0.1402262E+04  0.7818609E-02  0.8952183E-01
        1   -1    0    0  501    0  0.00000000000E+00  0.00000000000E+00  0.12013294527E+04  0.12013294527E+04  0.50400001928E-02 0. -1.
       -1   -1    0    0    0  501  0.00000000000E+00  0.00000000000E+00 -0.40920062868E+03  0.40920062871E+03  0.50400001928E-02 0.  1.
    10030    2    1    2    0    0  0.00000000000E+00  0.00000000000E+00  0.79212882400E+03  0.16105300814E+04  0.14022621257E+04 0.  0.
        2    1    3    3  502    0 -0.25307770595E+03  0.26129348344E+03 -0.29234274005E+03  0.46667642688E+03  0.25500000920E-02 0.  1.
       -2    1    3    3    0  502  0.25307770595E+03 -0.26129348344E+03  0.10844715640E+04  0.11438536545E+04  0.25500000920E-02 0. -1.
</event>
<event>
 5   0  0.2223112E-04  0.1400020E+04  0.7818609E-02  0.8953804E-01
        1   -1    0    0  501    0  0.00000000000E+00  0.00000000000E+00  0.80974822223E+03  0.80974822225E+03  0.50400001928E-02 0. -1.
       -1   -1    0    0    0  501  0.00000000000E+00  0.00000000000E+00 -0.60514363691E+03  0.60514363693E+03  0.50400001928E-02 0.  1.
    10030    2    1    2    0    0  0.00000000000E+00  0.00000000000E+00  0.20460458532E+03  0.14148918592E+04  0.14000199773E+04 0.  0.
        1    1    3    3  502    0 -0.84084195213E+02  0.32742072767E+03 -0.51718505556E+03  0.61786314546E+03  0.50400001928E-02 0.  1.
       -1    1    3    3    0  502  0.84084195213E+02 -0.32742072767E+03  0.72178964088E+03  0.79702871373E+03  0.50400001928E-02 0. -1.
</event>
<event>
 5   0  0.4310348E-04  0.1393525E+04  0.7818609E-02  0.8958519E-01
        2   -1    0    0  501    0  0.00000000000E+00  0.00000000000E+00  0.12821201287E+04  0.12821201287E+04  0.25500000920E-02 0.  1.
       -2   -1    0    0    0  501  0.00000000000E+00  0.00000000000E+00 -0.37865264734E+03  0.37865264735E+03  0.25500000920E-02 0. -1.
    10030    2    1    2    0    0  0.00000000000E+00  0.00000000000E+00  0.90346748136E+03  0.16607727761E+04  0.13935252864E+04 0.  0.
        1    1    3    3  502    0  0.44693675674E+03 -0.13462575481E+03 -0.16477570461E+03  0.49500261741E+03  0.50400001928E-02 0. -1.
       -1    1    3    3    0  502 -0.44693675674E+03  0.13462575481E+03  0.10682431860E+04  0.11657701586E+04  0.50400001928E-02 0.  1.
</event>
<event>
 5   0  0.2217251E-04  0.1390434E+04  0.7818609E-02  0.8960772E-01
       -1   -1    0    0    0  501  0.00000000000E+00  0.00000000000E+00  0.37315236924E+03  0.37315236928E+03  0.50400001928E-02 0.  1.
        1   -1    0    0  501    0  0.00000000000E+00  0.00000000000E+00 -0.12952534063E+04  0.12952534063E+04  0.50400001928E-02 0. -1.
    10030    2    1    2    0    0  0.00000000000E+00  0.00000000000E+00 -0.92210103703E+03  0.16684057756E+04  0.13904342881E+04 0.  0.
        5    1    3    3  502    0  0.66724249772E+03  0.82683776151E+02 -0.24891404620E+03  0.71695847159E+03  0.46999998093E+01 0.  1.
       -5    1    3    3    0  502 -0.66724249772E+03 -0.82683776151E+02 -0.67318699083E+03  0.95144730397E+03  0.46999998093E+01 0. -1.
</event>
<event>
 5   0  0.2223112E-04  0.1438724E+04  0.7818609E-02  0.8926255E-01
        1   -1    0    0  501    0  0.00000000000E+00  0.00000000000E+00  0.84974712659E+03  0.84974712660E+03  0.50400001928E-02 0. -1.
       -1   -1    0    0    0  501  0.00000000000E+00  0.00000000000E+00 -0.60898324974E+03  0.60898324976E+03  0.50400001928E-02 0.  1.
    10030    2    1    2    0    0  0.00000000000E+00  0.00000000000E+00  0.24076387685E+03  0.14587303764E+04  0.14387241106E+04 0.  0.
        1    1    3    3  502    0 -0.32606130861E+03 -0.55082950083E+03  0.45320352470E+03  0.78429748870E+03  0.50400001928E-02 0. -1.
       -1    1    3    3    0  502  0.32606130861E+03  0.55082950083E+03 -0.21243964785E+03  0.67443288766E+03  0.50400001928E-02 0.  1.
</event>
<event>
 5   0  0.3917598E-04  0.1402015E+04  0.7818609E-02  0.8952361E-01
        2   -1    0    0  501    0  0.00000000000E+00  0.00000000000E+00  0.95382206285E+03  0.95382206286E+03  0.25500000920E-02 0. -1.
       -2   -1    0    0    0  501  0.00000000000E+00  0.00000000000E+00 -0.51520268520E+03  0.51520268521E+03  0.25500000920E-02 0.  1.
    10030    2    1    2    0    0  0.00000000000E+00  0.00000000000E+00  0.43861937765E+03  0.14690247481E+04  0.14020152467E+04 0.  0.
        3    1    3    3  502    0  0.75087509055E+02 -0.41109284000E+03 -0.37041955215E+03  0.55843183284E+03  0.10100000352E+00 0.  1.
       -3    1    3    3    0  502 -0.75087509055E+02  0.41109284000E+03  0.80903892980E+03  0.91059291522E+03  0.10100000352E+00 0. -1.
</event>
<event>
 5   0  0.2223112E-04  0.1393849E+04  0.7818609E-02  0.8958283E-01
       -1   -1    0    0    0  501  0.00000000000E+00  0.00000000000E+00  0.12277509429E+04  0.12277509429E+04  0.50400001928E-02 0. -1.
        1   -1    0    0  501    0  0.00000000000E+00  0.00000000000E+00 -0.39560428994E+03  0.39560428997E+03  0.50400001928E-02 0.  1.
    10030    2    1    2    0    0  0.00000000000E+00  0.00000000000E+00  0.83214665300E+03  0.16233552329E+04  0.13938486862E+04 0.  0.
        1    1    3    3  502    0 -0.61008833253E+02 -0.26120943819E+03  0.11652211318E+04  0.11956975932E+04  0.50400001928E-02 0. -1.
       -1    1    3    3    0  502  0.61008833253E+02  0.26120943819E+03 -0.33307447882E+03  0.42765763971E+03  0.50400001928E-02 0.  1.
</event>
<event>
 5   0  0.2223112E-04  0.1403370E+04  0.7818609E-02  0.8951383E-01
       -1   -1    0    0    0  501  0.00000000000E+00  0.00000000000E+00  0.46680554770E+03  0.46680554772E+03  0.50400001928E-02 0. -1.
        1   -1    0    0  501    0  0.00000000000E+00  0.00000000000E+00 -0.10547466041E+04  0.10547466041E+04  0.50400001928E-02 0.  1.
    10030    2    1    2    0    0  0.00000000000E+00  0.00000000000E+00 -0.58794105636E+03  0.15215521518E+04  0.14033696109E+04 0.  0.
        1    1    3    3  502    0 -0.20677795375E+03 -0.59316285422E+03 -0.63297109048E+03  0.89176885749E+03  0.50400001928E-02 0.  1.
       -1    1    3    3    0  502  0.20677795375E+03  0.59316285422E+03  0.45030034115E+02  0.62978329430E+03  0.50400001928E-02 0. -1.
</event>
<event>
 5   0  0.2155352E-04  0.1394467E+04  0.7818609E-02  0.8957834E-01
        1   -1    0    0  501    0  0.00000000000E+00  0.00000000000E+00  0.11046782000E+04  0.11046782000E+04  0.50400001928E-02 0.  1.
       -1   -1    0    0    0  501  0.00000000000E+00  0.00000000000E+00 -0.44006873687E+03  0.44006873690E+03  0.50400001928E-02 0. -1.
    10030    2    1    2    0    0  0.00000000000E+00  0.00000000000E+00  0.66460946317E+03  0.15447469369E+04  0.13944666940E+04 0.  0.
        2    1    3    3  502    0 -0.22624384056E+02 -0.63936003787E+03  0.63938104698E+03  0.90448949359E+03  0.25500000920E-02 0. -1.
       -2    1    3    3    0  502  0.22624384056E+02  0.63936003787E+03  0.25228416191E+02  0.64025744335E+03  0.25500000920E-02 0.  1.
</event>
<event>
 5   0  0.4310348E-04  0.1402084E+04  0.7818609E-02  0.8952311E-01
        2   -1    0    0  501    0  0.00000000000E+00  0.00000000000E+00  0.15632295464E+04  0.15632295464E+04  0.25500000920E-02 0. -1.
       -2   -1    0    0    0  501  0.00000000000E+00  0.00000000000E+00 -0.31438763885E+03  0.31438763886E+03  0.25500000920E-02 0.  1.
    10030    2    1    2    0    0  0.00000000000E+00  0.00000000000E+00  0.12488419075E+04  0.18776171853E+04  0.14020842287E+04 0.  0.
        1    1    3    3  502    0 -0.29169311343E+03 -0.12434283480E+03  0.14617064686E+04  0.14957044539E+04  0.50400001928E-02 0. -1.
       -1    1    3    3    0  502  0.29169311343E+03  0.12434283480E+03 -0.21286456107E+03  0.38191273136E+03  0.50400001928E-02 0.  1.
</event>
<event>
 5   0  0.1497625E-04  0.1399776E+04  0.7818609E-02  0.8953981E-01
        3   -1    0    0  501    0  0.00000000000E+00  0.00000000000E+00  0.10197809872E+04  0.10197809922E+04  0.10100000352E+00 0.  1.
       -3   -1    0    0    0  501  0.00000000000E+00  0.00000000000E+00 -0.48034169485E+03  0.48034170547E+03  0.10100000352E+00 0. -1.
    10030    2    1    2    0    0  0.00000000000E+00  0.00000000000E+00  0.53943929231E+03  0.15001226976E+04  0.13997761813E+04 0.  0.
        1    1    3    3  502    0 -0.33310670483E+03  0.39624105288E+03  0.77452462688E+03  0.93158759462E+03  0.50400001928E-02 0.  1.
       -1    1    3    3    0  502  0.33310670483E+03 -0.39624105288E+03 -0.23508533457E+03  0.56853510300E+03  0.50400001928E-02 0. -1.
</event>
<event>
 5   0  0.3917598E-04  0.1394996E+04  0.7818609E-02  0.8957449E-01
        2   -1    0    0  501    0  0.00000000000E+00  0.00000000000E+00  0.13677737308E+04  0.13677737308E+04  0.25500000920E-02 0.  1.
       -2   -1    0    0    0  501  0.00000000000E+00  0.00000000000E+00 -0.35569012559E+03  0.35569012559E+03  0.25500000920E-02 0. -1.
    10030    2    1    2    0    0  0.00000000000E+00  0.00000000000E+00  0.10120836052E+04  0.17234638564E+04  0.13949962152E+04 0.  0.
        3    1    3    3  502    0 -0.28903833179E+03  0.31943543837E+03 -0.17168665021E+03  0.46374397311E+03  0.10100000352E+00 0. -1.
       -3    1    3    3    0  502  0.28903833179E+03 -0.31943543837E+03  0.11837702554E+04  0.12597198833E+04  0.10100000352E+00 0.  1.
</event>
<event>
 5   0  0.3932568E-04  0.1401233E+04  0.7818609E-02  0.8952927E-01
       -2   -1    0    0    0  501  0.00000000000E+00  0.00000000000E+00  0.55625348350E+03  0.55625348351E+03  0.25500000920E-02 0. -1.
        2   -1    0    0  501    0  0.00000000000E+00  0.00000000000E+00 -0.88244524755E+03  0.88244524756E+03  0.25500000920E-02 0.  1.
    10030    2    1    2    0    0  0.00000000000E+00  0.00000000000E+00 -0.32619176405E+03  0.14386987311E+04  0.14012326616E+04 0.  0.
        2    1    3    3  502    0  0.11387797262E+03  0.20399971290E+03 -0.84127099217E+03  0.87310993453E+03  0.25500000920E-02 0.  1.
       -2    1    3    3    0  502 -0.11387797262E+03 -0.20399971290E+03  0.51507922812E+03  0.56558879653E+03  0.25500000920E-02 0. -1.
</event>
<event>
 5   0  0.4310348E-04  0.1411679E+04  0.7818609E-02  0.8945408E-01
       -2   -1    0    0    0  501  0.00000000000E+00  0.00000000000E+00  0.29327757600E+03  0.29327757601E+03  0.25500000920E-02 0.  1.
        2   -1    0    0  501    0  0.00000000000E+00  0.00000000000E+00 -0.16987638473E+04  0.16987638473E+04  0.25500000920E-02 0. -1.
    10030    2    1    2    0    0  0.00000000000E+00  0.00000000000E+00 -0.14054862713E+04  0.19920414233E+04  0.14116789201E+04 0.  0.
        1    1    3    3  502    0 -0.54677237621E+03  0.35728300529E+03 -0.10803269632E+04  0.12624252551E+04  0.50400001928E-02 0.  1.
       -1    1    3    3    0  502  0.54677237621E+03 -0.35728300529E+03 -0.32515930810E+03  0.72961616821E+03  0.50400001928E-02 0. -1.
</event>
<event>
 5   0  0.3917598E-04  0.1397346E+04  0.7818609E-02  0.8955742E-01
        2   -1    0    0  501    0  0.00000000000E+00  0.00000000000E+00  0.57947922168E+03  0.57947922169E+03  0.25500000920E-02 0. -1.
       -2   -1    0    0    0  501  0.00000000000E+00  0.00000000000E+00 -0.84238346699E+03  0.84238346700E+03  0.25500000920E-02 0.  1.
    10030    2    1    2    0    0  0.00000000000E+00  0.00000000000E+00 -0.26290424531E+03  0.14218626887E+04  0.13973456492E+04 0.  0.
        3    1    3    3  502    0  0.21152388969E+03 -0.28428101616E+03  0.48126373317E+03  0.59763939221E+03  0.10100000352E+00 0. -1.
       -3    1    3    3    0  502 -0.21152388969E+03  0.28428101616E+03 -0.74416797848E+03  0.82422329648E+03  0.10100000352E+00 0.  1.
</event>
<event>
 5   0  0.2223112E-04  0.1396013E+04  0.7818609E-02  0.8956709E-01
       -1   -1    0    0    0  501  0.00000000000E+00  0.00000000000E+00  0.45445667876E+03  0.45445667879E+03  0.50400001928E-02 0.  1.
        1   -1    0    0  501    0  0.00000000000E+00  0.00000000000E+00 -0.10720787422E+04  0.10720787423E+04  0.50400001928E-02 0. -1.
    10030    2    1    2    0    0  0.00000000000E+00  0.00000000000E+00 -0.61762206349E+03  0.15265354210E+04  0.13960133876E+04 0.  0.
        1    1    3    3  502    0 -0.45527871543E+03 -0.52844948923E+03 -0.33723716451E+03  0.77476866002E+03  0.50400001928E-02 0. -1.
       -1    1    3    3    0  502  0.45527871543E+03  0.52844948923E+03 -0.28038489897E+03  0.75176676103E+03  0.50400001928E-02 0.  1.
</event>
<event>
 5   0  0.1497625E-04  0.1405021E+04  0.7818609E-02  0.8950192E-01
       -3   -1    0    0    0  501  0.00000000000E+00  0.00000000000E+00  0.78511930076E+03  0.78511930726E+03  0.10100000352E+00 0. -1.
        3   -1    0    0  501    0  0.00000000000E+00  0.00000000000E+00 -0.62859394082E+03  0.62859394893E+03  0.10100000352E+00 0.  1.
    10030    2    1    2    0    0  0.00000000000E+00  0.00000000000E+00  0.15652535995E+03  0.14137132562E+04  0.14050213459E+04 0.  0.
        1    1    3    3  502    0  0.45376963832E+03 -0.48934250974E+03  0.29907019106E+03  0.73130428394E+03  0.50400001928E-02 0. -1.
       -1    1    3    3    0  502 -0.45376963832E+03  0.48934250974E+03 -0.14254483111E+03  0.68240897225E+03  0.50400001928E-02 0.  1.
</event>
<event>
 5   0  0.1497625E-04  0.1388036E+04  0.7818609E-02  0.8962525E-01
       -3   -1    0    0    0  501  0.00000000000E+00  0.00000000000E+00  0.12422867300E+04  0.12422867341E+04  0.10100000352E+00 0. -1.
        3   -1    0    0  501    0  0.00000000000E+00  0.00000000000E+00 -0.38772117636E+03  0.38772118952E+03  0.10100000352E+00 0.  1.
    10030    2    1    2    0    0  0.00000000000E+00  0.00000000000E+00  0.85456555363E+03  0.16300079236E+04  0.13880358589E+04 0.  0.
        5    1    3    3  502    0  0.68936239756E+03  0.44015136368E+02  0.50589209519E+03  0.85621653182E+03  0.46999998093E+01 0. -1.
       -5    1    3    3    0  502 -0.68936239756E+03 -0.44015136368E+02  0.34867345843E+03  0.77379139179E+03  0.46999998093E+01 0.  1.
</event>
<event>
 5   0  0.4208622E-04  0.1399803E+04  0.7818609E-02  0.8953961E-01
        2   -1    0    0  501    0  0.00000000000E+00  0.00000000000E+00  0.50929669447E+03  0.50929669448E+03  0.25500000920E-02 0. -1.
       -2   -1    0    0    0  501  0.00000000000E+00  0.00000000000E+00 -0.96184031171E+03  0.96184031172E+03  0.25500000920E-02 0.  1.
    10030    2    1    2    0    0  0.00000000000E+00  0.00000000000E+00 -0.45254361724E+03  0.14711370062E+04  0.13998029738E+04 0.  0.
        4    1    3    3  502    0 -0.26704214564E+03 -0.49553295411E+03 -0.66339547205E+03  0.87003424150E+03  0.12699999809E+01 0.  1.
       -4    1    3    3    0  502  0.26704214564E+03  0.49553295411E+03  0.21085185481E+03  0.60110276470E+03  0.12699999809E+01 0. -1.
</event>
<event>
 5   0  0.3932568E-04  0.1404918E+04  0.7818609E-02  0.8950266E-01
        2   -1    0    0  501    0  0.00000000000E+00  0.00000000000E+00  0.91283140300E+03  0.91283140300E+03  0.25500000920E-02 0. -1.
       -2   -1    0    0    0  501  0.00000000000E+00  0.00000000000E+00 -0.54056951756E+03  0.54056951757E+03  0.25500000920E-02 0.  1.
    10030    2    1    2    0    0  0.00000000000E+00  0.00000000000E+00  0.37226188544E+03  0.14534009206E+04  0.14049182626E+04 0.  0.
        2    1    3    3  502    0  0.42408485711E+03 -0.45547737902E+03  0.52316703849E+03  0.81302605063E+03  0.25500000920E-02 0. -1.
       -2    1    3    3    0  502 -0.42408485711E+03  0.45547737902E+03 -0.15090515305E+03  0.64037486994E+03  0.25500000920E-02 0.  1.
</event>
<event>
 5   0  0.2155352E-04  0.1402752E+04  0.7818609E-02  0.8951829E-01
       -1   -1    0    0    0  501  0.00000000000E+00  0.00000000000E+00  0.40304746311E+03  0.40304746315E+03  0.50400001928E-02 0. -1.
        1   -1    0    0  501    0  0.00000000000E+00  0.00000000000E+00 -0.12205228431E+04  0.12205228431E+04  0.50400001928E-02 0.  1.
    10030    2    1    2    0    0  0.00000000000E+00  0.00000000000E+00 -0.81747537997E+03  0.16235703062E+04  0.14027524879E+04 0.  0.
        2    1    3    3  502    0  0.53114471846E+03  0.43773949309E+03 -0.56487352727E+03  0.89040029064E+03  0.25500000920E-02 0.  1.
       -2    1    3    3    0  502 -0.53114471846E+03 -0.43773949309E+03 -0.25260185270E+03  0.73317001559E+03  0.25500000920E-02 0. -1.
</event>
<event>
 5   0  0.2155352E-04  0.1392582E+04  0.7818609E-02  0.8959206E-01
       -1   -1    0    0    0  501  0.00000000000E+00  0.00000000000E+00  0.34232356725E+03  0.34232356728E+03  0.50400001928E-02 0. -1.
        1   -1    0    0  501    0  0.00000000000E+00  0.00000000000E+00 -0.14162656092E+04  0.14162656092E+04  0.50400001928E-02 0.  1.
    10030    2    1    2    0    0  0.00000000000E+00  0.00000000000E+00 -0.10739420419E+04  0.17585891765E+04  0.13925819122E+04 0.  0.
        2    1    3    3  502    0 -0.66457577844E+03 -0.10168907695E+03 -0.76574644759E+03  0.10190040509E+04  0.25500000920E-02 0. -1.
       -2    1    3    3    0  502  0.66457577844E+03  0.10168907695E+03 -0.30819559435E+03  0.73958512562E+03  0.25500000920E-02 0.  1.
</event>
<event>
 5   0  0.4310348E-04  0.1386147E+04  0.7818609E-02  0.8963907E-01
       -2   -1    0    0    0  501  0.00000000000E+00  0.00000000000E+00  0.26131369329E+03  0.26131369330E+03  0.25500000920E-02 0.  1.
        2   -1    0    0  501    0  0.00000000000E+00  0.00000000000E+00 -0.18382160490E+04  0.18382160490E+04  0.25500000920E-02 0. -1.
    10030    2    1    2    0    0  0.00000000000E+00  0.00000000000E+00 -0.15769023557E+04  0.20995297423E+04  0.13861472142E+04 0.  0.
        1    1    3    3  502    0  0.50500080827E+03 -0.34378215254E+03 -0.12842283777E+04  0.14221302722E+04  0.50400001928E-02 0. -1.
       -1    1    3    3    0  502 -0.50500080827E+03  0.34378215254E+03 -0.29267397798E+03  0.67739947016E+03  0.50400001928E-02 0.  1.
</event>
<event>
 5   0  0.2223112E-04  0.1360320E+04  0.7818609E-02  0.8983052E-01
        1   -1    0    0  501    0  0.00000000000E+00  0.00000000000E+00  0.15651391353E+04  0.15651391353E+04  0.50400001928E-02 0. -1.
       -1   -1    0    0    0  501  0.00000000000E+00  0.00000000000E+00 -0.29557617140E+03  0.29557617144E+03  0.50400001928E-02 0.  1.
    10030    2    1    2    0    0  0.00000000000E+00  0.00000000000E+00  0.12695629639E+04  0.18607153068E+04  0.13603203055E+04 0.  0.
        1    1    3    3  502    0 -0.26732156125E+03  0.39222765787E+03  0.13011291298E+04  0.13850055470E+04  0.50400001928E-02 0. -1.
       -1    1    3    3    0  502  0.26732156125E+03 -0.39222765787E+03 -0.31566165883E+02  0.47570975979E+03  0.50400001928E-02 0.  1.
</event>
<event>
 5   0  0.2217251E-04  0.1406773E+04  0.7818609E-02  0.8948930E-01
       -1   -1    0    0    0  501  0.00000000000E+00  0.00000000000E+00  0.98092147762E+03  0.98092147763E+03  0.50400001928E-02 0.  1.
        1   -1    0    0  501    0  0.00000000000E+00  0.00000000000E+00 -0.50437555794E+03  0.50437555797E+03  0.50400001928E-02 0. -1.
    10030    2    1    2    0    0  0.00000000000E+00  0.00000000000E+00  0.47654591968E+03  0.14852970356E+04  0.14067733543E+04 0.  0.
        5    1    3    3  502    0 -0.41053471560E+03 -0.56910822812E+03  0.18755191100E+03  0.72637506657E+03  0.46999998093E+01 0.  1.
       -5    1    3    3    0  502  0.41053471560E+03  0.56910822812E+03  0.28899400868E+03  0.75892196903E+03  0.46999998093E+01 0. -1.
</event>
<event>
 5   0  0.2223112E-04  0.1389639E+04  0.7818609E-02  0.8961352E-01
        1   -1    0    0  501    0  0.00000000000E+00  0.00000000000E+00  0.89554891092E+03  0.89554891094E+03  0.50400001928E-02 0. -1.
       -1   -1    0    0    0  501  0.00000000000E+00  0.00000000000E+00 -0.53908212312E+03  0.53908212314E+03  0.50400001928E-02 0.  1.
    10030    2    1    2    0    0  0.00000000000E+00  0.00000000000E+00  0.35646678781E+03  0.14346310341E+04  0.13896393896E+04 0.  0.
        1    1    3    3  502    0  0.39983900255E+03  0.52387295203E+03 -0.49030896596E+02  0.66084652279E+03  0.50400001928E-02 0.  1.
       -1    1    3    3    0  502 -0.39983900255E+03 -0.52387295203E+03  0.40549768440E+03  0.77378451129E+03  0.50400001928E-02 0. -1.
</event>
<event>
 5   0  0.2215876E-04  0.1400672E+04  0.7818609E-02  0.8953332E-01
        1   -1    0    0  501    0  0.00000000000E+00  0.00000000000E+00  0.17664303726E+04  0.17664303726E+04  0.50400001928E-02 0. -1.
       -1   -1    0    0    0  501  0.00000000000E+00  0.00000000000E+00 -0.27766198742E+03  0.27766198747E+03  0.50400001928E-02 0.  1.
    10030    2    1    2    0    0  0.00000000000E+00  0.00000000000E+00  0.14887683852E+04  0.20440923601E+04  0.14006720786E+04 0.  0.
        3    1    3    3  502    0  0.41760766649E+03 -0.43945774106E+03  0.12561020653E+04  0.13947443056E+04  0.10100000352E+00 0. -1.
       -3    1    3    3    0  502 -0.41760766649E+03  0.43945774106E+03  0.23266631989E+03  0.64934805451E+03  0.10100000352E+00 0.  1.
</event>
<event>
 5   0  0.3917598E-04  0.1399390E+04  0.7818609E-02  0.8954260E-01
        2   -1    0    0  501    0  0.00000000000E+00  0.00000000000E+00  0.69992475062E+03  0.69992475063E+03  0.25500000920E-02 0. -1.
       -2   -1    0    0    0  501  0.00000000000E+00  0.00000000000E+00 -0.69946508707E+03  0.69946508707E+03  0.25500000920E-02 0.  1.
    10030    2    1    2    0    0  0.00000000000E+00  0.00000000000E+00  0.45966355314E+00  0.13993898377E+04  0.13993897622E+04 0.  0.
        3    1    3    3  502    0 -0.53953950506E+03  0.30733080425E+02  0.44466828421E+03  0.69984090545E+03  0.10100000352E+00 0. -1.
       -3    1    3    3    0  502  0.53953950506E+03 -0.30733080425E+02 -0.44420862066E+03  0.69954893225E+03  0.10100000352E+00 0.  1.
</event>
<event>
 5   0  0.4310348E-04  0.1390791E+04  0.7818609E-02  0.8960512E-01
       -2   -1    0    0    0  501  0.00000000000E+00  0.00000000000E+00  0.10857531176E+04  0.10857531176E+04  0.25500000920E-02 0. -1.
        2   -1    0    0  501    0  0.00000000000E+00  0.00000000000E+00 -0.44538169086E+03  0.44538169086E+03  0.25500000920E-02 0.  1.
    10030    2    1    2    0    0  0.00000000000E+00  0.00000000000E+00  0.64037142673E+03  0.15311348084E+04  0.13907905081E+04 0.  0.
        1    1    3    3  502    0 -0.18669515437E+03 -0.40544503056E+02  0.10562948469E+04  0.10734326904E+04  0.50400001928E-02 0. -1.
       -1    1    3    3    0  502  0.18669515437E+03  0.40544503056E+02 -0.41592342013E+03  0.45770211801E+03  0.50400001928E-02 0.  1.
</event>
<event>
 5   0  0.1497625E-04  0.1401824E+04  0.7818609E-02  0.8952499E-01
       -3   -1    0    0    0  501  0.00000000000E+00  0.00000000000E+00  0.10089751796E+04  0.10089751846E+04  0.10100000352E+00 0. -1.
        3   -1    0    0  501    0  0.00000000000E+00  0.00000000000E+00 -0.48690751279E+03  0.48690752327E+03  0.10100000352E+00 0.  1.
    10030    2    1    2    0    0  0.00000000000E+00  0.00000000000E+00  0.52206766677E+03  0.14958827079E+04  0.14018239644E+04 0.  0.
        3    1    3    3  502    0 -0.54089627632E+03  0.27052097550E+03 -0.11703685792E+03  0.61599351964E+03  0.10100000352E+00 0.  1.
       -3    1    3    3    0  502  0.54089627632E+03 -0.27052097550E+03  0.63910452469E+03  0.87988918825E+03  0.10100000352E+00 0. -1.
</event>
<event>
 5   0  0.4208622E-04  0.1400179E+04  0.7818609E-02  0.8953689E-01
       -2   -1    0    0    0  501  0.00000000000E+00  0.00000000000E+00  0.36524675702E+03  0.36524675703E+03  0.25500000920E-02 0.  1.
        2   -1    0    0  501    0  0.00000000000E+00  0.00000000000E+00 -0.13419012523E+04  0.13419012523E+04  0.25500000920E-02 0. -1.
    10030    2    1    2    0    0  0.00000000000E+00  0.00000000000E+00 -0.97665449531E+03  0.17071480094E+04  0.14001786753E+04 0.  0.
        4    1    3    3  502    0 -0.22173152391E+03 -0.32375132777E+02 -0.12969944997E+04  0.13162102276E+04  0.12699999809E+01 0. -1.
       -4    1    3    3    0  502  0.22173152391E+03  0.32375132777E+02  0.32034000442E+03  0.39093778181E+03  0.12699999809E+01 0.  1.
</event>
<event>
 5   0  0.2155352E-04  0.1378672E+04  0.7818609E-02  0.8969403E-01
       -1   -1    0    0    0  501  0.00000000000E+00  0.00000000000E+00  0.34517345962E+03  0.34517345965E+03  0.50400001928E-02 0. -1.
        1   -1    0    0  501    0  0.00000000000E+00  0.00000000000E+00 -0.13766534027E+04  0.13766534027E+04  0.50400001928E-02 0.  1.
    10030    2    1    2    0    0  0.00000000000E+00  0.00000000000E+00 -0.10314799431E+04  0.17218268623E+04  0.13786721405E+04 0.  0.
        2    1    3    3  502    0 -0.32648383236E+03 -0.39395287354E+03  0.61184862478E+02  0.51530005508E+03  0.25500000920E-02 0. -1.
       -2    1    3    3    0  502  0.32648383236E+03  0.39395287354E+03 -0.10926648055E+04  0.12065268073E+04  0.25500000920E-02 0.  1.
</event>
<event>
 5   0  0.3975164E-04  0.1407137E+04  0.7818609E-02  0.8948669E-01
        2   -1    0    0  501    0  0.00000000000E+00  0.00000000000E+00  0.68505831914E+03  0.68505831914E+03  0.25500000920E-02 0.  1.
       -2   -1    0    0    0  501  0.00000000000E+00  0.00000000000E+00 -0.72257873382E+03  0.72257873383E+03  0.25500000920E-02 0. -1.
    10030    2    1    2    0    0  0.00000000000E+00  0.00000000000E+00 -0.37520414685E+02  0.14076370530E+04  0.14071369128E+04 0.  0.
        5    1    3    3  502    0 -0.96092511306E+02 -0.19115938867E+03  0.65170991424E+03  0.68594721730E+03  0.46999998093E+01 0.  1.
       -5    1    3    3    0  502  0.96092511306E+02  0.19115938867E+03 -0.68923032892E+03  0.72168983567E+03  0.46999998093E+01 0. -1.
</event>
<event>
 5   0  0.3975164E-04  0.1398745E+04  0.7818609E-02  0.8954727E-01
        2   -1    0    0  501    0  0.00000000000E+00  0.00000000000E+00  0.20180604973E+04  0.20180604973E+04  0.25500000920E-02 0. -1.
       -2   -1    0    0    0  501  0.00000000000E+00  0.00000000000E+00 -0.24237238841E+03  0.24237238842E+03  0.25500000920E-02 0.  1.
    10030    2    1    2    0    0  0.00000000000E+00  0.00000000000E+00  0.17756881089E+04  0.22604328857E+04  0.13987453559E+04 0.  0.
        5    1    3    3  502    0  0.50712523589E+03 -0.18156043495E+03  0.16086787608E+04  0.16964697586E+04  0.46999998093E+01 0. -1.
       -5    1    3    3    0  502 -0.50712523589E+03  0.18156043495E+03  0.16700934813E+03  0.56396312715E+03  0.46999998093E+01 0.  1.
</event>
<event>
 5   0  0.3917598E-04  0.1380136E+04  0.7818609E-02  0.8968324E-01
        2   -1    0    0  501    0  0.00000000000E+00  0.00000000000E+00  0.14793202244E+04  0.14793202244E+04  0.25500000920E-02 0. -1.
       -2   -1    0    0    0  501  0.00000000000E+00  0.00000000000E+00 -0.32190029092E+03  0.32190029093E+03  0.25500000920E-02 0.  1.
    10030    2    1    2    0    0  0.00000000000E+00  0.00000000000E+00  0.11574199335E+04  0.18012205153E+04  0.13801356609E+04 0.  0.
        3    1    3    3  502    0  0.35376075947E+03 -0.50723116576E+03  0.17907641509E+03  0.64381558159E+03  0.10100000352E+00 0.  1.
       -3    1    3    3    0  502 -0.35376075947E+03  0.50723116576E+03  0.97834351839E+03  0.11574049337E+04  0.10100000352E+00 0. -1.
</event>
<event>
 5   0  0.3975164E-04  0.1404798E+04  0.7818609E-02  0.8950353E-01
        2   -1    0    0  501    0  0.00000000000E+00  0.00000000000E+00  0.16038087031E+04  0.16038087031E+04  0.25500000920E-02 0. -1.
       -2   -1    0    0    0  501  0.00000000000E+00  0.00000000000E+00 -0.30762041040E+03  0.30762041041E+03  0.25500000920E-02 0.  1.
    10030    2    1    2    0    0  0.00000000000E+00  0.00000000000E+00  0.12961882927E+04  0.19114291135E+04  0.14047979092E+04 0.  0.
        5    1    3    3  502    0  0.45329140585E+03  0.52148354888E+03  0.81979425895E+03  0.10721487338E+04  0.46999998093E+01 0. -1.
       -5    1    3    3    0  502 -0.45329140585E+03 -0.52148354888E+03  0.47639403372E+03  0.83928037969E+03  0.46999998093E+01 0.  1.
</event>
<event>
 5   0  0.3932568E-04  0.1390324E+04  0.7818609E-02  0.8960852E-01
       -2   -1    0    0    0  501  0.00000000000E+00  0.00000000000E+00  0.39320044159E+03  0.39320044160E+03  0.25500000920E-02 0. -1.
        2   -1    0    0  501    0  0.00000000000E+00  0.00000000000E+00 -0.12290176557E+04  0.12290176557E+04  0.25500000920E-02 0.  1.
    10030    2    1    2    0    0  0.00000000000E+00  0.00000000000E+00 -0.83581721413E+03  0.16222180973E+04  0.13903241132E+04 0.  0.
        2    1    3    3  502    0  0.19321056226E+03 -0.21623960669E+03  0.31926013118E+03  0.43129678904E+03  0.25500000920E-02 0. -1.
       -2    1    3    3    0  502 -0.19321056226E+03  0.21623960669E+03 -0.11550773453E+04  0.11909213083E+04  0.25500000920E-02 0.  1.
</event>
<event>
 5   0  0.3975164E-04  0.1397267E+04  0.7818609E-02  0.8955799E-01
        2   -1    0    0  501    0  0.00000000000E+00  0.00000000000E+00  0.12976907500E+04  0.12976907500E+04  0.25500000920E-02 0. -1.
       -2   -1    0    0    0  501  0.00000000000E+00  0.00000000000E+00 -0.37612110001E+03  0.37612110001E+03  0.25500000920E-02 0.  1.
    10030    2    1    2    0    0  0.00000000000E+00  0.00000000000E+00  0.92156964998E+03  0.16738118500E+04  0.13972671504E+04 0.  0.
        5    1    3    3  502    0  0.34856558493E+03 -0.59960075046E+03  0.56135115491E+03  0.89227587442E+03  0.46999998093E+01 0. -1.
       -5    1    3    3    0  502 -0.34856558493E+03  0.59960075046E+03  0.36021849507E+03  0.78153597559E+03  0.46999998093E+01 0.  1.
</event>
<event>
 5   0  0.3932568E-04  0.1399975E+04  0.7818609E-02  0.8953836E-01
       -2   -1    0    0    0  501  0.00000000000E+00  0.00000000000E+00  0.55402389295E+03  0.55402389296E+03  0.25500000920E-02 0.  1.
        2   -1    0    0  501    0  0.00000000000E+00  0.00000000000E+00 -0.88440730126E+03  0.88440730126E+03  0.25500000920E-02 0. -1.
    10030    2    1    2    0    0  0.00000000000E+00  0.00000000000E+00 -0.33038340831E+03  0.14384311942E+04  0.13999753941E+04 0.  0.
        2    1    3    3  502    0  0.45074021102E+03  0.25088339531E+02 -0.71485070975E+03  0.84546300915E+03  0.25500000920E-02 0. -1.
       -2    1    3    3    0  502 -0.45074021102E+03 -0.25088339531E+02  0.38446730145E+03  0.59296818506E+03  0.25500000920E-02 0.  1.
</event>
<event>
 5   0  0.4208622E-04  0.1400715E+04  0.7818609E-02  0.8953301E-01
       -2   -1    0    0    0  501  0.00000000000E+00  0.00000000000E+00  0.29649940590E+03  0.29649940591E+03  0.25500000920E-02 0.  1.
        2   -1    0    0  501    0  0.00000000000E+00  0.00000000000E+00 -0.16543055452E+04  0.16543055452E+04  0.25500000920E-02 0. -1.
    10030    2    1    2    0    0  0.00000000000E+00  0.00000000000E+00 -0.13578061393E+04  0.19508049511E+04  0.14007149765E+04 0.  0.
        4    1    3    3  502    0  0.14718351864E+03  0.68470796592E+03 -0.67428148478E+03  0.97218574376E+03  0.12699999809E+01 0. -1.
       -4    1    3    3    0  502 -0.14718351864E+03 -0.68470796592E+03 -0.68352465449E+03  0.97861920733E+03  0.12699999809E+01 0.  1.
</event>
<event>
 5   0  0.4310348E-04  0.1399094E+04  0.7818609E-02  0.8954475E-01
       -2   -1    0    0    0  501  0.00000000000E+00  0.00000000000E+00  0.58588360349E+03  0.58588360350E+03  0.25500000920E-02 0.  1.
        2   -1    0    0  501    0  0.00000000000E+00  0.00000000000E+00 -0.83526159198E+03  0.83526159198E+03  0.25500000920E-02 0. -1.
    10030    2    1    2    0    0  0.00000000000E+00  0.00000000000E+00 -0.24937798849E+03  0.14211451955E+04  0.13990940946E+04 0.  0.
        1    1    3    3  502    0  0.67934989994E+03  0.66115342948E+02 -0.28033111107E+03  0.73788417586E+03  0.50400001928E-02 0. -1.
       -1    1    3    3    0  502 -0.67934989994E+03 -0.66115342948E+02  0.30953122588E+02  0.68326101963E+03  0.50400001928E-02 0.  1.
</event>
<event>
 5   0  0.2223112E-04  0.1395609E+04  0.7818609E-02  0.8957003E-01
        1   -1    0    0  501    0  0.00000000000E+00  0.00000000000E+00  0.13003312013E+04  0.13003312013E+04  0.50400001928E-02 0.  1.
       -1   -1    0    0    0  501  0.00000000000E+00  0.00000000000E+00 -0.37446682787E+03  0.37446682791E+03  0.50400001928E-02 0. -1.
    10030    2    1    2    0    0  0.00000000000E+00  0.00000000000E+00  0.92586437347E+03  0.16747980293E+04  0.13956086847E+04 0.  0.
        1    1    3    3  502    0 -0.49006075483E+03  0.48626926172E+03  0.58480395614E+03  0.90477235007E+03  0.50400001928E-02 0.  1.
       -1    1    3    3    0  502  0.49006075483E+03 -0.48626926172E+03  0.34106041732E+03  0.77002567919E+03  0.50400001928E-02 0. -1.
</event>
<event>
 5   0  0.2217251E-04  0.1397541E+04  0.7818609E-02  0.8955600E-01
       -1   -1    0    0    0  501  0.00000000000E+00  0.00000000000E+00  0.34156610814E+03  0.34156610818E+03  0.50400001928E-02 0.  1.
        1   -1    0    0  501    0  0.00000000000E+00  0.00000000000E+00 -0.14295342430E+04  0.14295342430E+04  0.50400001928E-02 0. -1.
    10030    2    1    2    0    0  0.00000000000E+00  0.00000000000E+00 -0.10879681349E+04  0.17711003512E+04  0.13975413380E+04 0.  0.
        5    1    3    3  502    0  0.14443543406E+03  0.43309205551E+03 -0.12143688039E+04  0.12973603990E+04  0.46999998093E+01 0. -1.
       -5    1    3    3    0  502 -0.14443543406E+03 -0.43309205551E+03  0.12640066900E+03  0.47373995217E+03  0.46999998093E+01 0.  1.
</event>
<event>
 5   0  0.2155352E-04  0.1401065E+04  0.7818609E-02  0.8953048E-01
        1   -1    0    0  501    0  0.00000000000E+00  0.00000000000E+00  0.23695989452E+04  0.23695989452E+04  0.50400001928E-02 0.  1.
       -1   -1    0    0    0  501  0.00000000000E+00  0.00000000000E+00 -0.20710071456E+03  0.20710071463E+03  0.50400001928E-02 0. -1.
    10030    2    1    2    0    0  0.00000000000E+00  0.00000000000E+00  0.21624982307E+04  0.25766996599E+04  0.14010647878E+04 0.  0.
        2    1    3    3  502    0  0.52869273827E+03  0.13384913566E+03  0.27264253421E+03  0.60972580237E+03  0.25500000920E-02 0. -1.
       -2    1    3    3    0  502 -0.52869273827E+03 -0.13384913566E+03  0.18898556965E+04  0.19669738575E+04  0.25500000920E-02 0.  1.
</event>
<event>
 5   0  0.2217251E-04  0.1386536E+04  0.7818609E-02  0.8963623E-01
       -1   -1    0    0    0  501  0.00000000000E+00  0.00000000000E+00  0.33698728644E+03  0.33698728648E+03  0.50400001928E-02 0.  1.
        1   -1    0    0  501    0  0.00000000000E+00  0.00000000000E+00 -0.14262270492E+04  0.14262270492E+04  0.50400001928E-02 0. -1.
    10030    2    1    2    0    0  0.00000000000E+00  0.00000000000E+00 -0.10892397627E+04  0.17632143357E+04  0.13865358029E+04 0.  0.
        5    1    3    3  502    0 -0.12258485444E+03 -0.29325649491E+03 -0.13280874656E+04  0.13656005362E+04  0.46999998093E+01 0. -1.
       -5    1    3    3    0  502  0.12258485444E+03  0.29325649491E+03  0.23884770284E+03  0.39761379943E+03  0.46999998093E+01 0.  1.
</event>
<event>
 5   0  0.3917598E-04  0.1399001E+04  0.7818609E-02  0.8954542E-01
       -2   -1    0    0    0  501  0.00000000000E+00  0.00000000000E+00  0.69637435951E+03  0.69637435952E+03  0.25500000920E-02 0.  1.
        2   -1    0    0  501    0  0.00000000000E+00  0.00000000000E+00 -0.70264067401E+03  0.70264067401E+03  0.25500000920E-02 0. -1.
    10030    2    1    2    0    0  0.00000000000E+00  0.00000000000E+00 -0.62663144991E+01  0.13990150335E+04  0.13990009998E+04 0.  0.
        3    1    3    3  502    0 -0.61559133283E+03 -0.19657278712E+03 -0.27091819806E+03  0.70070695011E+03  0.10100000352E+00 0. -1.
       -3    1    3    3    0  502  0.61559133283E+03  0.19657278712E+03  0.26465188356E+03  0.69830808342E+03  0.10100000352E+00 0.  1.
</event>
<event>
 5   0  0.4208622E-04  0.1398099E+04  0.7818609E-02  0.8955196E-01
       -2   -1    0    0    0  501  0.00000000000E+00  0.00000000000E+00  0.27877314678E+03  0.27877314679E+03  0.25500000920E-02 0. -1.
        2   -1    0    0  501    0  0.00000000000E+00  0.00000000000E+00 -0.17529314574E+04  0.17529314574E+04  0.25500000920E-02 0.  1.
    10030    2    1    2    0    0  0.00000000000E+00  0.00000000000E+00 -0.14741583106E+04  0.20317046042E+04  0.13980990215E+04 0.  0.
        4    1    3    3  502    0 -0.64835393291E+03  0.15016251629E+03 -0.42622876737E+03  0.79030638278E+03  0.12699999809E+01 0. -1.
       -4    1    3    3    0  502  0.64835393291E+03 -0.15016251629E+03 -0.10479295433E+04  0.12413982214E+04  0.12699999809E+01 0.  1.
</event>
<event>
 5   0  0.2143942E-04  0.1399770E+04  0.7818609E-02  0.8953985E-01
       -1   -1    0    0    0  501  0.00000000000E+00  0.00000000000E+00  0.42109541444E+03  0.42109541447E+03  0.50400001928E-02 0.  1.
        1   -1    0    0  501    0  0.00000000000E+00  0.00000000000E+00 -0.11632494229E+04  0.11632494229E+04  0.50400001928E-02 0. -1.
    10030    2    1    2    0    0  0.00000000000E+00  0.00000000000E+00 -0.74215400848E+03  0.15843448374E+04  0.13997699781E+04 0.  0.
        4    1    3    3  502    0  0.58322102740E+02  0.33325247752E+03 -0.10645472845E+04  0.11170144203E+04  0.12699999809E+01 0. -1.
       -4    1    3    3    0  502 -0.58322102740E+02 -0.33325247752E+03  0.32239327598E+03  0.46733041709E+03  0.12699999809E+01 0.  1.
</event>
<event>
 5   0  0.2155352E-04  0.1397929E+04  0.7818609E-02  0.8955319E-01
        1   -1    0    0  501    0  0.00000000000E+00  0.00000000000E+00  0.75729115853E+03  0.75729115855E+03  0.50400001928E-02 0.  1.
       -1   -1    0    0    0  501  0.00000000000E+00  0.00000000000E+00 -0.64513054282E+03  0.64513054284E+03  0.50400001928E-02 0. -1.
    10030    2    1    2    0    0  0.00000000000E+00  0.00000000000E+00  0.11216061571E+03  0.14024217014E+04  0.13979294062E+04 0.  0.
        2    1    3    3  502    0 -0.67308995673E+03 -0.17979429626E+03  0.11261365936E+03  0.70573218369E+03  0.25500000920E-02 0.  1.
       -2    1    3    3    0  502  0.67308995673E+03  0.17979429626E+03 -0.45304364516E+00  0.69668951770E+03  0.25500000920E-02 0. -1.
</event>
<event>
 5   0  0.2155352E-04  0.1400309E+04  0.7818609E-02  0.8953595E-01
        1   -1    0    0  501    0  0.00000000000E+00  0.00000000000E+00  0.11823386602E+04  0.11823386602E+04  0.50400001928E-02 0. -1.
       -1   -1    0    0    0  501  0.00000000000E+00  0.00000000000E+00 -0.41461600352E+03  0.41461600355E+03  0.50400001928E-02 0.  1.
    10030    2    1    2    0    0  0.00000000000E+00  0.00000000000E+00  0.76772265663E+03  0.15969546637E+04  0.14003092946E+04 0.  0.
        2    1    3    3  502    0  0.29199068566E+03  0.62441242887E+03  0.52384690209E+03  0.86577423078E+03  0.25500000920E-02 0. -1.
       -2    1    3    3    0  502 -0.29199068566E+03 -0.62441242887E+03  0.24387575454E+03  0.73118043293E+03  0.25500000920E-02 0.  1.
</event>
<event>
 5   0  0.3932568E-04  0.1400957E+04  0.7818609E-02  0.8953126E-01
       -2   -1    0    0    0  501  0.00000000000E+00  0.00000000000E+00  0.26079951812E+03  0.26079951813E+03  0.25500000920E-02 0. -1.
        2   -1    0    0  501    0  0.00000000000E+00  0.00000000000E+00 -0.18814068456E+04  0.18814068456E+04  0.25500000920E-02 0.  1.
    10030    2    1    2    0    0  0.00000000000E+00  0.00000000000E+00 -0.16206073274E+04  0.21422063637E+04  0.14009568141E+04 0.  0.
        2    1    3    3  502    0 -0.69338362616E+03  0.32594639063E+02 -0.66664341767E+03  0.96242231367E+03  0.25500000920E-02 0.  1.
       -2    1    3    3    0  502  0.69338362616E+03 -0.32594639063E+02 -0.95396390977E+03  0.11797840500E+04  0.25500000920E-02 0. -1.
</event>
<event>
 5   0  0.2223112E-04  0.1399628E+04  0.7818609E-02  0.8954088E-01
        1   -1    0    0  501    0  0.00000000000E+00  0.00000000000E+00  0.64244184400E+03  0.64244184402E+03  0.50400001928E-02 0.  1.
       -1   -1    0    0    0  501  0.00000000000E+00  0.00000000000E+00 -0.76230927050E+03  0.76230927052E+03  0.50400001928E-02 0. -1.
    10030    2    1    2    0    0  0.00000000000E+00  0.00000000000E+00 -0.11986742650E+03  0.14047511145E+04  0.13996276269E+04 0.  0.
        1    1    3    3  502    0 -0.35170759868E+03 -0.37325805124E+03 -0.53782749484E+03  0.74315423838E+03  0.50400001928E-02 0. -1.
       -1    1    3    3    0  502  0.35170759868E+03  0.37325805124E+03  0.41796006835E+03  0.66159687616E+03  0.50400001928E-02 0.  1.
</event>
<event>
 5   0  0.2143942E-04  0.1391313E+04  0.7818609E-02  0.8960131E-01
       -1   -1    0    0    0  501  0.00000000000E+00  0.00000000000E+00  0.43292397747E+03  0.43292397750E+03  0.50400001928E-02 0.  1.
        1   -1    0    0  501    0  0.00000000000E+00  0.00000000000E+00 -0.11178358321E+04  0.11178358321E+04  0.50400001928E-02 0. -1.
    10030    2    1    2    0    0  0.00000000000E+00  0.00000000000E+00 -0.68491185463E+03  0.15507598096E+04  0.13913129549E+04 0.  0.
        4    1    3    3  502    0 -0.12456171053E+03 -0.52369579411E+03 -0.83359378495E+03  0.99229688889E+03  0.12699999809E+01 0. -1.
       -4    1    3    3    0  502  0.12456171053E+03  0.52369579411E+03  0.14868193032E+03  0.55846292071E+03  0.12699999809E+01 0.  1.
</event>
<event>
 5   0  0.2215876E-04  0.1393493E+04  0.7818609E-02  0.8958542E-01
        1   -1    0    0  501    0  0.00000000000E+00  0.00000000000E+00  0.60114659221E+03  0.60114659223E+03  0.50400001928E-02 0.  1.
       -1   -1    0    0    0  501  0.00000000000E+00  0.00000000000E+00 -0.80754990032E+03  0.80754990033E+03  0.50400001928E-02 0. -1.
    10030    2    1    2    0    0  0.00000000000E+00  0.00000000000E+00 -0.20640330811E+03  0.14086964926E+04  0.13934932661E+04 0.  0.
        3    1    3    3  502    0  0.24532893546E+03 -0.55824520885E+03 -0.44397264561E+03  0.75427827758E+03  0.10100000352E+00 0. -1.
       -3    1    3    3    0  502 -0.24532893546E+03  0.55824520885E+03  0.23756933750E+03  0.65441821498E+03  0.10100000352E+00 0.  1.
</event>
<event>
 5   0  0.2143942E-04  0.1404169E+04  0.7818609E-02  0.8950806E-01
       -1   -1    0    0    0  501  0.00000000000E+00  0.00000000000E+00  0.44020354976E+03  0.44020354979E+03  0.50400001928E-02 0. -1.
        1   -1    0    0  501    0  0.00000000000E+00  0.00000000000E+00 -0.11197609150E+04  0.11197609150E+04  0.50400001928E-02 0.  1.
    10030    2    1    2    0    0  0.00000000000E+00  0.00000000000E+00 -0.67955736523E+03  0.15599644648E+04  0.14041691204E+04 0.  0.
        4    1    3    3  502    0  0.52045307350E+03 -0.47079064855E+03 -0.31739692010E+03  0.77023220802E+03  0.12699999809E+01 0.  1.
       -4    1    3    3    0  502 -0.52045307350E+03  0.47079064855E+03 -0.36216044513E+03  0.78973225678E+03  0.12699999809E+01 0. -1.
</event>
<event>
 5   0  0.4208622E-04  0.1371206E+04  0.7818609E-02  0.8974929E-01
        2   -1    0    0  501    0  0.00000000000E+00  0.00000000000E+00  0.81024029652E+03  0.81024029652E+03  0.25500000920E-02 0. -1.
       -2   -1    0    0    0  501  0.00000000000E+00  0.00000000000E+00 -0.58013816458E+03  0.58013816459E+03  0.25500000920E-02 0.  1.
    10030    2    1    2    0    0  0.00000000000E+00  0.00000000000E+00  0.23010213194E+03  0.13903784611E+04  0.13712057738E+04 0.  0.
        4    1    3    3  502    0 -0.30425077583E+03 -0.54140180017E+03  0.40956932683E+03  0.74393083697E+03  0.12699999809E+01 0. -1.
       -4    1    3    3    0  502  0.30425077583E+03  0.54140180017E+03 -0.17946719489E+03  0.64644762414E+03  0.12699999809E+01 0.  1.
</event>
<event>
 5   0  0.3932568E-04  0.1377710E+04  0.7818609E-02  0.8970113E-01
       -2   -1    0    0    0  501  0.00000000000E+00  0.00000000000E+00  0.60781220745E+03  0.60781220746E+03  0.25500000920E-02 0. -1.
        2   -1    0    0  501    0  0.00000000000E+00  0.00000000000E+00 -0.78070359077E+03  0.78070359077E+03  0.25500000920E-02 0.  1.
    10030    2    1    2    0    0  0.00000000000E+00  0.00000000000E+00 -0.17289138331E+03  0.13885157982E+04  0.13777099446E+04 0.  0.
        2    1    3    3  502    0  0.66527871454E+03 -0.82885311008E+02 -0.24597627861E+03  0.71412188906E+03  0.25500000920E-02 0.  1.
       -2    1    3    3    0  502 -0.66527871454E+03  0.82885311008E+02  0.73084895294E+02  0.67439390917E+03  0.25500000920E-02 0. -1.
</event>
<event>
 5   0  0.3975164E-04  0.1411753E+04  0.7818609E-02  0.8945355E-01
       -2   -1    0    0    0  501  0.00000000000E+00  0.00000000000E+00  0.36991596169E+03  0.36991596169E+03  0.25500000920E-02 0. -1.
        2   -1    0    0  501    0  0.00000000000E+00  0.00000000000E+00 -0.13469580703E+04  0.13469580703E+04  0.25500000920E-02 0.  1.
    10030    2    1    2    0    0  0.00000000000E+00  0.00000000000E+00 -0.97704210859E+03  0.17168740320E+04  0.14117525136E+04 0.  0.
        5    1    3    3  502    0 -0.58627343185E+03  0.24630009077E+03 -0.11594266763E+03  0.64640936239E+03  0.46999998093E+01 0. -1.
       -5    1    3    3    0  502  0.58627343185E+03 -0.24630009077E+03 -0.86109944096E+03  0.10704646696E+04  0.46999998093E+01 0.  1.
</event>
<event>
 5   0  0.3917598E-04  0.1400501E+04  0.7818609E-02  0.8953456E-01
       -2   -1    0    0    0  501  0.00000000000E+00  0.00000000000E+00  0.39267409826E+03  0.39267409827E+03  0.25500000920E-02 0.  1.
        2   -1    0    0  501    0  0.00000000000E+00  0.00000000000E+00 -0.12487466970E+04  0.12487466970E+04  0.25500000920E-02 0. -1.
    10030    2    1    2    0    0  0.00000000000E+00  0.00000000000E+00 -0.85607259872E+03  0.16414207953E+04  0.14005006008E+04 0.  0.
        3    1    3    3  502    0  0.25871700005E+03 -0.54635001710E+03 -0.13799643480E+02  0.60466789865E+03  0.10100000352E+00 0.  1.
       -3    1    3    3    0  502 -0.25871700005E+03  0.54635001710E+03 -0.84227295524E+03  0.10367528966E+04  0.10100000352E+00 0. -1.
</event>
<event>
 5   0  0.4310348E-04  0.1398067E+04  0.7818609E-02  0.8955219E-01
       -2   -1    0    0    0  501  0.00000000000E+00  0.00000000000E+00  0.59185540044E+03  0.59185540045E+03  0.25500000920E-02 0. -1.
        2   -1    0    0  501    0  0.00000000000E+00  0.00000000000E+00 -0.82562080629E+03  0.82562080630E+03  0.25500000920E-02 0.  1.
    10030    2    1    2    0    0  0.00000000000E+00  0.00000000000E+00 -0.23376540585E+03  0.14174762067E+04  0.13980674275E+04 0.  0.
        1    1    3    3  502    0  0.22303460991E+03  0.45897374782E+03 -0.60126694210E+03  0.78862112202E+03  0.50400001928E-02 0.  1.
       -1    1    3    3    0  502 -0.22303460991E+03 -0.45897374782E+03  0.36750153626E+03  0.62885508472E+03  0.50400001928E-02 0. -1.
</event>
<event>
 5   0  0.2215876E-04  0.1399388E+04  0.7818609E-02  0.8954261E-01
       -1   -1    0    0    0  501  0.00000000000E+00  0.00000000000E+00  0.26822071130E+03  0.26822071135E+03  0.50400001928E-02 0.  1.
        1   -1    0    0  501    0  0.00000000000E+00  0.00000000000E+00 -0.18252576976E+04  0.18252576976E+04  0.50400001928E-02 0. -1.
    10030    2    1    2    0    0  0.00000000000E+00  0.00000000000E+00 -0.15570369863E+04  0.20934784090E+04  0.13993883207E+04 0.  0.
        3    1    3    3  502    0  0.44502777042E+03 -0.37932193282E+03 -0.13533332900E+04  0.14742611198E+04  0.10100000352E+00 0. -1.
       -3    1    3    3    0  502 -0.44502777042E+03  0.37932193282E+03 -0.20370369628E+03  0.61921728920E+03  0.10100000352E+00 0.  1.
</event>
<event>
 5   0  0.2215876E-04  0.1404769E+04  0.7818609E-02  0.8950374E-01
       -1   -1    0    0    0  501  0.00000000000E+00  0.00000000000E+00  0.36928825133E+03  0.36928825136E+03  0.50400001928E-02 0. -1.
        1   -1    0    0  501    0  0.00000000000E+00  0.00000000000E+00 -0.13359316466E+04  0.13359316466E+04  0.50400001928E-02 0.  1.
    10030    2    1    2    0    0  0.00000000000E+00  0.00000000000E+00 -0.96664339528E+03  0.17052198980E+04  0.14047688233E+04 0.  0.
        3    1    3    3  502    0 -0.15144513449E+03  0.21018090869E+03 -0.12758205896E+04  0.13018563017E+04  0.10100000352E+00 0.  1.
       -3    1    3    3    0  502  0.15144513449E+03 -0.21018090869E+03  0.30917719432E+03  0.40336359631E+03  0.10100000352E+00 0. -1.
</event>
<event>
 5   0  0.3975164E-04  0.1405519E+04  0.7818609E-02  0.8949833E-01
        2   -1    0    0  501    0  0.00000000000E+00  0.00000000000E+00  0.11709957242E+04  0.11709957242E+04  0.25500000920E-02 0. -1.
       -2   -1    0    0    0  501  0.00000000000E+00  0.00000000000E+00 -0.42175325122E+03  0.42175325123E+03  0.25500000920E-02 0.  1.
    10030    2    1    2    0    0  0.00000000000E+00  0.00000000000E+00  0.74924247301E+03  0.15927489755E+04  0.14055194824E+04 0.  0.
        5    1    3    3  502    0  0.19470668108E+03  0.56749277998E+02 -0.38785153913E+03  0.43770090086E+03  0.46999998093E+01 0.  1.
       -5    1    3    3    0  502 -0.19470668108E+03 -0.56749277998E+02  0.11370940121E+04  0.11550480746E+04  0.46999998093E+01 0. -1.
</event>
<event>
 5   0  0.2143942E-04  0.1400802E+04  0.7818609E-02  0.8953238E-01
        1   -1    0    0  501    0  0.00000000000E+00  0.00000000000E+00  0.52788761480E+03  0.52788761482E+03  0.50400001928E-02 0. -1.
       -1   -1    0    0    0  501  0.00000000000E+00  0.00000000000E+00 -0.92929169205E+03  0.92929169206E+03  0.50400001928E-02 0.  1.
    10030    2    1    2    0    0  0.00000000000E+00  0.00000000000E+00 -0.40140407725E+03  0.14571793069E+04  0.14008020200E+04 0.  0.
        4    1    3    3  502    0  0.57127935148E+02 -0.69341698883E+03 -0.28437071242E+03  0.75163756981E+03  0.12699999809E+01 0.  1.
       -4    1    3    3    0  502 -0.57127935148E+02  0.69341698883E+03 -0.11703336483E+03  0.70554173707E+03  0.12699999809E+01 0. -1.
</event>
<event>
 5   0  0.4310348E-04  0.1404287E+04  0.7818609E-02  0.8950721E-01
       -2   -1    0    0    0  501  0.00000000000E+00  0.00000000000E+00  0.54538049590E+03  0.54538049591E+03  0.25500000920E-02 0.  1.
        2   -1    0    0  501    0  0.00000000000E+00  0.00000000000E+00 -0.90396568052E+03  0.90396568052E+03  0.25500000920E-02 0. -1.
    10030    2    1    2    0    0  0.00000000000E+00  0.00000000000E+00 -0.35858518462E+03  0.14493461764E+04  0.14042866533E+04 0.  0.
        1    1    3    3  502    0  0.47981770205E+03 -0.39939818170E+03  0.15236136940E+03  0.64261802158E+03  0.50400001928E-02 0.  1.
       -1    1    3    3    0  502 -0.47981770205E+03  0.39939818170E+03 -0.51094655402E+03  0.80672815486E+03  0.50400001928E-02 0. -1.
</event>
<event>
 5   0  0.3917598E-04  0.1386452E+04  0.7818609E-02  0.8963684E-01
        2   -1    0    0  501    0  0.00000000000E+00  0.00000000000E+00  0.88026174531E+03  0.88026174531E+03  0.25500000920E-02 0.  1.
       -2   -1    0    0    0  501  0.00000000000E+00  0.00000000000E+00 -0.54593117162E+03  0.54593117163E+03  0.25500000920E-02 0. -1.
    10030    2    1    2    0    0  0.00000000000E+00  0.00000000000E+00  0.33433057368E+03  0.14261929169E+04  0.13864520561E+04 0.  0.
        3    1    3    3  502    0  0.55438282880E+03 -0.36547110406E+03 -0.37672802251E+02  0.66507796460E+03  0.10100000352E+00 0. -1.
       -3    1    3    3    0  502 -0.55438282880E+03  0.36547110406E+03  0.37200337594E+03  0.76111495234E+03  0.10100000352E+00 0.  1.
</event>
<event>
 5   0  0.2215876E-04  0.1411082E+04  0.7818609E-02  0.8945836E-01
        1   -1    0    0  501    0  0.00000000000E+00  0.00000000000E+00  0.11904687123E+04  0.11904687123E+04  0.50400001928E-02 0.  1.
       -1   -1    0    0    0  501  0.00000000000E+00  0.00000000000E+00 -0.41814477358E+03  0.41814477361E+03  0.50400001928E-02 0. -1.
    10030    2    1    2    0    0  0.00000000000E+00  0.00000000000E+00  0.77232393875E+03  0.16086134859E+04  0.14110822374E+04 0.  0.
        3    1    3    3  502    0  0.14220604051E+03 -0.68213509641E+03  0.25995051321E+03  0.74371037859E+03  0.10100000352E+00 0. -1.
       -3    1    3    3    0  502 -0.14220604051E+03  0.68213509641E+03  0.51237342554E+03  0.86490310736E+03  0.10100000352E+00 0.  1.
</event>
<event>
 5   0  0.3917598E-04  0.1397010E+04  0.7818609E-02  0.8955986E-01
        2   -1    0    0  501    0  0.00000000000E+00  0.00000000000E+00  0.61910671456E+03  0.61910671456E+03  0.25500000920E-02 0.  1.
       -2   -1    0    0    0  501  0.00000000000E+00  0.00000000000E+00 -0.78808528856E+03  0.78808528856E+03  0.25500000920E-02 0. -1.
    10030    2    1    2    0    0  0.00000000000E+00  0.00000000000E+00 -0.16897857400E+03  0.14071920031E+04  0.13970095115E+04 0.  0.
        3    1    3    3  502    0 -0.11217598116E+03  0.57725105804E+02  0.60753587717E+03  0.62049616504E+03  0.10100000352E+00 0.  1.
       -3    1    3    3    0  502  0.11217598116E+03 -0.57725105804E+02 -0.77651445116E+03  0.78669583808E+03  0.10100000352E+00 0. -1.
</event>
<event>
 5   0  0.4310348E-04  0.1399820E+04  0.7818609E-02  0.8953949E-01
       -2   -1    0    0    0  501  0.00000000000E+00  0.00000000000E+00  0.10843648425E+04  0.10843648425E+04  0.25500000920E-02 0. -1.
        2   -1    0    0  501    0  0.00000000000E+00  0.00000000000E+00 -0.45176132476E+03  0.45176132477E+03  0.25500000920E-02 0.  1.
    10030    2    1    2    0    0  0.00000000000E+00  0.00000000000E+00  0.63260351772E+03  0.15361261673E+04  0.13998201281E+04 0.  0.
        1    1    3    3  502    0 -0.18857468265E+03 -0.67057527347E+03  0.39107222964E+03  0.79885486613E+03  0.50400001928E-02 0. -1.
       -1    1    3    3    0  502  0.18857468265E+03  0.67057527347E+03  0.24153128808E+03  0.73727130113E+03  0.50400001928E-02 0.  1.
</event>
<event>
 5   0  0.2155352E-04  0.1399457E+04  0.7818609E-02  0.8954212E-01
       -1   -1    0    0    0  501  0.00000000000E+00  0.00000000000E+00  0.36099224924E+03  0.36099224927E+03  0.50400001928E-02 0.  1.
        1   -1    0    0  501    0  0.00000000000E+00  0.00000000000E+00 -0.13563167499E+04  0.13563167499E+04  0.50400001928E-02 0. -1.
    10030    2    1    2    0    0  0.00000000000E+00  0.00000000000E+00 -0.99532450065E+03  0.17173089992E+04  0.13994568007E+04 0.  0.
        2    1    3    3  502    0  0.36704375958E+03  0.59377772397E+03 -0.43847043024E+03  0.82434787870E+03  0.25500000920E-02 0.  1.
       -2    1    3    3    0  502 -0.36704375958E+03 -0.59377772397E+03 -0.55685407041E+03  0.89296112047E+03  0.25500000920E-02 0. -1.
</event>
<event>
 5   0  0.4208622E-04  0.1397503E+04  0.7818609E-02  0.8955628E-01
        2   -1    0    0  501    0  0.00000000000E+00  0.00000000000E+00  0.38326642588E+03  0.38326642588E+03  0.25500000920E-02 0.  1.
       -2   -1    0    0    0  501  0.00000000000E+00  0.00000000000E+00 -0.12739268416E+04  0.12739268416E+04  0.25500000920E-02 0. -1.
    10030    2    1    2    0    0  0.00000000000E+00  0.00000000000E+00 -0.89066041573E+03  0.16571932675E+04  0.13975026117E+04 0.  0.
        4    1    3    3  502    0 -0.56542228284E+03 -0.13395955878E+03  0.14861883200E+02  0.58126586842E+03  0.12699999809E+01 0.  1.
       -4    1    3    3    0  502  0.56542228284E+03  0.13395955878E+03 -0.90552229893E+03  0.10759273991E+04  0.12699999809E+01 0. -1.
</event>
<event>
 5   0  0.3932568E-04  0.1400882E+04  0.7818609E-02  0.8953181E-01
       -2   -1    0    0    0  501  0.00000000000E+00  0.00000000000E+00  0.29445252528E+03  0.29445252529E+03  0.25500000920E-02 0.  1.
        2   -1    0    0  501    0  0.00000000000E+00  0.00000000000E+00 -0.16662021155E+04  0.16662021155E+04  0.25500000920E-02 0. -1.
    10030    2    1    2    0    0  0.00000000000E+00  0.00000000000E+00 -0.13717495902E+04  0.19606546408E+04  0.14008817517E+04 0.  0.
        2    1    3    3  502    0  0.12367130344E+03  0.31700712565E+03 -0.15427476723E+04  0.15798286266E+04  0.25500000920E-02 0. -1.
       -2    1    3    3    0  502 -0.12367130344E+03 -0.31700712565E+03  0.17099808207E+03  0.38082601419E+03  0.25500000920E-02 0.  1.
</event>
<event>
 5   0  0.2215876E-04  0.1408052E+04  0.7818609E-02  0.8948011E-01
        1   -1    0    0  501    0  0.00000000000E+00  0.00000000000E+00  0.51065141341E+03  0.51065141344E+03  0.50400001928E-02 0. -1.
       -1   -1    0    0    0  501  0.00000000000E+00  0.00000000000E+00 -0.97062834487E+03  0.97062834489E+03  0.50400001928E-02 0.  1.
    10030    2    1    2    0    0  0.00000000000E+00  0.00000000000E+00 -0.45997693146E+03  0.14812797583E+04  0.14080521812E+04 0.  0.
        3    1    3    3  502    0  0.18181399317E+03 -0.54976037895E+03 -0.65126402031E+03  0.87145719156E+03  0.10100000352E+00 0.  1.
       -3    1    3    3    0  502 -0.18181399317E+03  0.54976037895E+03  0.19128708885E+03  0.60982256677E+03  0.10100000352E+00 0. -1.
</event>
<event>
 5   0  0.2143942E-04  0.1398299E+04  0.7818609E-02  0.8955051E-01
       -1   -1    0    0    0  501  0.00000000000E+00  0.00000000000E+00  0.46134239140E+03  0.46134239142E+03  0.50400001928E-02 0. -1.
        1   -1    0    0  501    0  0.00000000000E+00  0.00000000000E+00 -0.10595384403E+04  0.10595384403E+04  0.50400001928E-02 0.  1.
    10030    2    1    2    0    0  0.00000000000E+00  0.00000000000E+00 -0.59819604892E+03  0.15208808318E+04  0.13982989635E+04 0.  0.
        4    1    3    3  502    0  0.23276621257E+03 -0.60266442610E+03 -0.58977914369E+03  0.87477172533E+03  0.12699999809E+01 0.  1.
       -4    1    3    3    0  502 -0.23276621257E+03  0.60266442610E+03 -0.84169052323E+01  0.64610910642E+03  0.12699999809E+01 0. -1.
</event>
<event>
 5   0  0.2217251E-04  0.1402816E+04  0.7818609E-02  0.8951783E-01
       -1   -1    0    0    0  501  0.00000000000E+00  0.00000000000E+00  0.38098245645E+03  0.38098245648E+03  0.50400001928E-02 0.  1.
        1   -1    0    0  501    0  0.00000000000E+00  0.00000000000E+00 -0.12913273880E+04  0.12913273880E+04  0.50400001928E-02 0. -1.
    10030    2    1    2    0    0  0.00000000000E+00  0.00000000000E+00 -0.91034493151E+03  0.16723098444E+04  0.14028158545E+04 0.  0.
        5    1    3    3  502    0 -0.18936347158E+03  0.45558542284E+03  0.13913245341E+03  0.51263684169E+03  0.46999998093E+01 0.  1.
       -5    1    3    3    0  502  0.18936347158E+03 -0.45558542284E+03 -0.10494773849E+04  0.11596730028E+04  0.46999998093E+01 0. -1.
</event>
<event>
 5   0  0.2143942E-04  0.1407216E+04  0.7818609E-02  0.8948612E-01
        1   -1    0    0  501    0  0.00000000000E+00  0.00000000000E+00  0.20096362589E+04  0.20096362589E+04  0.50400001928E-02 0. -1.
       -1   -1    0    0    0  501  0.00000000000E+00  0.00000000000E+00 -0.24634528719E+03  0.24634528725E+03  0.50400001928E-02 0.  1.
    10030    2    1    2    0    0  0.00000000000E+00  0.00000000000E+00  0.17632909717E+04  0.22559815461E+04  0.14072162896E+04 0.  0.
        4    1    3    3  502    0 -0.19866562200E+03  0.67208102292E+03  0.98178639266E+03  0.12062616070E+04  0.12699999809E+01 0. -1.
       -4    1    3    3    0  502  0.19866562200E+03 -0.67208102292E+03  0.78150457902E+03  0.10497199392E+04  0.12699999809E+01 0.  1.
</event>
<event>
 5   0  0.2223112E-04  0.1413300E+04  0.7818609E-02  0.8944247E-01
        1   -1    0    0  501    0  0.00000000000E+00  0.00000000000E+00  0.57042028883E+03  0.57042028885E+03  0.50400001928E-02 0. -1.
       -1   -1    0    0    0  501  0.00000000000E+00  0.00000000000E+00 -0.87541413764E+03  0.87541413765E+03  0.50400001928E-02 0.  1.
    10030    2    1    2    0    0  0.00000000000E+00  0.00000000000E+00 -0.30499384882E+03  0.14458344265E+04  0.14132996643E+04 0.  0.
        1    1    3    3  502    0  0.78535011694E+02  0.51050513504E+03  0.34086070315E+03  0.61884510173E+03  0.50400001928E-02 0. -1.
       -1    1    3    3    0  502 -0.78535011694E+02 -0.51050513504E+03 -0.64585455197E+03  0.82698932477E+03  0.50400001928E-02 0.  1.
</event>
<event>
 5   0  0.3975164E-04  0.1396972E+04  0.7818609E-02  0.8956014E-01
        2   -1    0    0  501    0  0.00000000000E+00  0.00000000000E+00  0.72956899537E+03  0.72956899537E+03  0.25500000920E-02 0. -1.
       -2   -1    0    0    0  501  0.00000000000E+00  0.00000000000E+00 -0.66872681535E+03  0.66872681536E+03  0.25500000920E-02 0.  1.
    10030    2    1    2    0    0  0.00000000000E+00  0.00000000000E+00  0.60842180016E+02  0.13982958107E+04  0.13969715113E+04 0.  0.
        5    1    3    3  502    0  0.59888937195E+03 -0.29812688400E+03 -0.17054808276E+03  0.69040340188E+03  0.46999998093E+01 0.  1.
       -5    1    3    3    0  502 -0.59888937195E+03  0.29812688400E+03  0.23139026277E+03  0.70789240885E+03  0.46999998093E+01 0. -1.
</event>
<event>
 5   0  0.2143942E-04  0.1413633E+04  0.7818609E-02  0.8944009E-01
        1   -1    0    0  501    0  0.00000000000E+00  0.00000000000E+00  0.71498831254E+03  0.71498831255E+03  0.50400001928E-02 0. -1.
       -1   -1    0    0    0  501  0.00000000000E+00  0.00000000000E+00 -0.69873778925E+03  0.69873778927E+03  0.50400001928E-02 0.  1.
    10030    2    1    2    0    0  0.00000000000E+00  0.00000000000E+00  0.16250523289E+02  0.14137261018E+04  0.14136327003E+04 0.  0.
        4    1    3    3  502    0  0.49519745937E+03 -0.42095722582E+03 -0.26967399516E+03  0.70366979920E+03  0.12699999809E+01 0.  1.
       -4    1    3    3    0  502 -0.49519745937E+03  0.42095722582E+03  0.28592451845E+03  0.71005630262E+03  0.12699999809E+01 0. -1.
</event>
<event>
 5   0  0.1497625E-04  0.1395935E+04  0.7818609E-02  0.8956767E-01
       -4   -1    0    0    0  501  0.00000000000E+00  0.00000000000E+00  0.50339007714E+03  0.50339167918E+03  0.12699999809E+01 0.  1.
        4   -1    0    0  501    0  0.00000000000E+00  0.00000000000E+00 -0.96775149444E+03  0.96775232776E+03  0.12699999809E+01 0. -1.
    10030    2    1    2    0    0  0.00000000000E+00  0.00000000000E+00 -0.46436141730E+03  0.14711440069E+04  0.13959345125E+04 0.  0.
        5    1    3    3  502    0 -0.39086974753E+03 -0.29181032965E+03  0.29391825791E+03  0.56951072014E+03  0.46999998093E+01 0. -1.
       -5    1    3    3    0  502  0.39086974753E+03  0.29181032965E+03 -0.75827967521E+03  0.90163328680E+03  0.46999998093E+01 0.  1.
</event>
<event>
 5   0  0.3917598E-04  0.1375958E+04  0.7818609E-02  0.8971408E-01
       -2   -1    0    0    0  501  0.00000000000E+00  0.00000000000E+00  0.64527780667E+03  0.64527780667E+03  0.25500000920E-02 0.  1.
        2   -1    0    0  501    0  0.00000000000E+00  0.00000000000E+00 -0.73350592675E+03  0.73350592675E+03  0.25500000920E-02 0. -1.
    10030    2    1    2    0    0  0.00000000000E+00  0.00000000000E+00 -0.88228120076E+02  0.13787837334E+04  0.13759579871E+04 0.  0.
        3    1    3    3  502    0 -0.14047669836E+03 -0.34303246562E+03 -0.62488184100E+03  0.72655509128E+03  0.10100000352E+00 0. -1.
       -3    1    3    3    0  502  0.14047669836E+03  0.34303246562E+03  0.53665372092E+03  0.65222864214E+03  0.10100000352E+00 0.  1.
</event>
<event>
 5   0  0.3917598E-04  0.1389342E+04  0.7818609E-02  0.8961569E-01
       -2   -1    0    0    0  501  0.00000000000E+00  0.00000000000E+00  0.40410069666E+03  0.40410069667E+03  0.25500000920E-02 0.  1.
        2   -1    0    0  501    0  0.00000000000E+00  0.00000000000E+00 -0.11941776367E+04  0.11941776367E+04  0.25500000920E-02 0. -1.
    10030    2    1    2    0    0  0.00000000000E+00  0.00000000000E+00 -0.79007694004E+03  0.15982783334E+04  0.13893423119E+04 0.  0.
        3    1    3    3  502    0 -0.51500125326E+02  0.27636381733E+03 -0.11258170169E+04  0.11603849310E+04  0.10100000352E+00 0. -1.
       -3    1    3    3    0  502  0.51500125326E+02 -0.27636381733E+03  0.33574007683E+03  0.43789340236E+03  0.10100000352E+00 0.  1.
</event>
<event>
 5   0  0.2217251E-04  0.1401264E+04  0.7818609E-02  0.8952904E-01
       -1   -1    0    0    0  501  0.00000000000E+00  0.00000000000E+00  0.59024792919E+03  0.59024792921E+03  0.50400001928E-02 0.  1.
        1   -1    0    0  501    0  0.00000000000E+00  0.00000000000E+00 -0.83165902160E+03  0.83165902161E+03  0.50400001928E-02 0. -1.
    10030    2    1    2    0    0  0.00000000000E+00  0.00000000000E+00 -0.24141109241E+03  0.14219069508E+04  0.14012637372E+04 0.  0.
        5    1    3    3  502    0  0.56773736369E+03  0.84751128274E+02 -0.52831268133E+03  0.78015693750E+03  0.46999998093E+01 0. -1.
       -5    1    3    3    0  502 -0.56773736369E+03 -0.84751128274E+02  0.28690158893E+03  0.64175001332E+03  0.46999998093E+01 0.  1.
</event>
<event>
 5   0  0.3975164E-04  0.1395586E+04  0.7818609E-02  0.8957020E-01
        2   -1    0    0  501    0  0.00000000000E+00  0.00000000000E+00  0.10525611658E+04  0.10525611658E+04  0.25500000920E-02 0. -1.
       -2   -1    0    0    0  501  0.00000000000E+00  0.00000000000E+00 -0.46260023140E+03  0.46260023140E+03  0.25500000920E-02 0.  1.
    10030    2    1    2    0    0  0.00000000000E+00  0.00000000000E+00  0.58996093441E+03  0.15151613972E+04  0.13955859542E+04 0.  0.
        5    1    3    3  502    0  0.22379397000E+03 -0.32397558942E+03  0.92040164104E+03  0.10011019900E+04  0.46999998093E+01 0. -1.
       -5    1    3    3    0  502 -0.22379397000E+03  0.32397558942E+03 -0.33044070664E+03  0.51405940721E+03  0.46999998093E+01 0.  1.
</event>
<event>
 5   0  0.3917598E-04  0.1397049E+04  0.7818609E-02  0.8955957E-01
       -2   -1    0    0    0  501  0.00000000000E+00  0.00000000000E+00  0.13716880875E+04  0.13716880875E+04  0.25500000920E-02 0. -1.
        2   -1    0    0  501    0  0.00000000000E+00  0.00000000000E+00 -0.35571965665E+03  0.35571965666E+03  0.25500000920E-02 0.  1.
    10030    2    1    2    0    0  0.00000000000E+00  0.00000000000E+00  0.10159684309E+04  0.17274077442E+04  0.13970489119E+04 0.  0.
        3    1    3    3  502    0 -0.63407702066E+03  0.28938834395E+03  0.56514498537E+03  0.89732276603E+03  0.10100000352E+00 0. -1.
       -3    1    3    3    0  502  0.63407702066E+03 -0.28938834395E+03  0.45082344548E+03  0.83008497814E+03  0.10100000352E+00 0.  1.
</event>
<event>
 5   0  0.2215876E-04  0.1398632E+04  0.7818609E-02  0.8954809E-01
       -1   -1    0    0    0  501  0.00000000000E+00  0.00000000000E+00  0.50769586924E+03  0.50769586926E+03  0.50400001928E-02 0.  1.
        1   -1    0    0  501    0  0.00000000000E+00  0.00000000000E+00 -0.96325934103E+03  0.96325934104E+03  0.50400001928E-02 0. -1.
    10030    2    1    2    0    0  0.00000000000E+00  0.00000000000E+00 -0.45556347180E+03  0.14709552103E+04  0.13986318865E+04 0.  0.
        3    1    3    3  502    0 -0.47098182983E+03  0.51511461651E+03 -0.18223132378E+03  0.72137037487E+03  0.10100000352E+00 0. -1.
       -3    1    3    3    0  502  0.47098182983E+03 -0.51511461651E+03 -0.27333214801E+03  0.74958483543E+03  0.10100000352E+00 0.  1.
</event>
<event>
 5   0  0.2215876E-04  0.1399745E+04  0.7818609E-02  0.8954003E-01
       -1   -1    0    0    0  501  0.00000000000E+00  0.00000000000E+00  0.55735121757E+03  0.55735121760E+03  0.50400001928E-02 0.  1.
        1   -1    0    0  501    0  0.00000000000E+00  0.00000000000E+00 -0.87883772159E+03  0.87883772160E+03  0.50400001928E-02 0. -1.
    10030    2    1    2    0    0  0.00000000000E+00  0.00000000000E+00 -0.32148650402E+03  0.14361889392E+04  0.13997446541E+04 0.  0.
        3    1    3    3  502    0  0.40968669200E+03  0.15366282179E+02 -0.74273470787E+03  0.84837147801E+03  0.10100000352E+00 0. -1.
       -3    1    3    3    0  502 -0.40968669200E+03 -0.15366282179E+02  0.42124820385E+03  0.58781746119E+03  0.10100000352E+00 0.  1.
</event>
<event>
 5   0  0.2143942E-04  0.1402240E+04  0.7818609E-02  0.8952198E-01
       -1   -1    0    0    0  501  0.00000000000E+00  0.00000000000E+00  0.57375083315E+03  0.57375083317E+03  0.50400001928E-02 0.  1.
        1   -1    0    0  501    0  0.00000000000E+00  0.00000000000E+00 -0.85676493531E+03  0.85676493533E+03  0.50400001928E-02 0. -1.
    10030    2    1    2    0    0  0.00000000000E+00  0.00000000000E+00 -0.28301410216E+03  0.14305157685E+04  0.14022404865E+04 0.  0.
        4    1    3    3  502    0  0.42152055985E+03 -0.41484494156E+03  0.24263878113E+03  0.63925824119E+03  0.12699999809E+01 0. -1.
       -4    1    3    3    0  502 -0.42152055985E+03  0.41484494156E+03 -0.52565288329E+03  0.79125752732E+03  0.12699999809E+01 0.  1.
</event>
<event>
 5   0  0.3917598E-04  0.1397672E+04  0.7818609E-02  0.8955506E-01
       -2   -1    0    0    0  501  0.00000000000E+00  0.00000000000E+00  0.76483600350E+03  0.76483600350E+03  0.25500000920E-02 0.  1.
        2   -1    0    0  501    0  0.00000000000E+00  0.00000000000E+00 -0.63853104573E+03  0.63853104573E+03  0.25500000920E-02 0. -1.
    10030    2    1    2    0    0  0.00000000000E+00  0.00000000000E+00  0.12630495777E+03  0.14033670492E+04  0.13976716827E+04 0.  0.
        3    1    3    3  502    0  0.30754400740E+03  0.42399190873E+03 -0.40135460647E+03  0.65987725032E+03  0.10100000352E+00 0.  1.
       -3    1    3    3    0  502 -0.30754400740E+03 -0.42399190873E+03  0.52765956424E+03  0.74348979891E+03  0.10100000352E+00 0. -1.
</event>
<event>
 5   0  0.1497625E-04  0.1404257E+04  0.7818609E-02  0.8950743E-01
       -4   -1    0    0    0  501  0.00000000000E+00  0.00000000000E+00  0.72323066909E+03  0.72323178416E+03  0.12699999809E+01 0.  1.
        4   -1    0    0  501    0  0.00000000000E+00  0.00000000000E+00 -0.68163979825E+03  0.68164098135E+03  0.12699999809E+01 0. -1.
    10030    2    1    2    0    0  0.00000000000E+00  0.00000000000E+00  0.41590870841E+02  0.14048727655E+04  0.14042569874E+04 0.  0.
        3    1    3    3  502    0 -0.17699533419E+03 -0.90792532079E+02 -0.65285990502E+03  0.68249300216E+03  0.10100000352E+00 0. -1.
       -3    1    3    3    0  502  0.17699533419E+03  0.90792532079E+02  0.69445077586E+03  0.72237976335E+03  0.10100000352E+00 0.  1.
</event>
<event>
 5   0  0.3932568E-04  0.1402826E+04  0.7818609E-02  0.8951776E-01
       -2   -1    0    0    0  501  0.00000000000E+00  0.00000000000E+00  0.38460638088E+03  0.38460638089E+03  0.25500000920E-02 0.  1.
        2   -1    0    0  501    0  0.00000000000E+00  0.00000000000E+00 -0.12791776132E+04  0.12791776132E+04  0.25500000920E-02 0. -1.
    10030    2    1    2    0    0  0.00000000000E+00  0.00000000000E+00 -0.89457123236E+03  0.16637839941E+04  0.14028255377E+04 0.  0.
        2    1    3    3  502    0  0.43483648286E+03  0.39909456428E+03  0.21854072289E+01  0.59022369833E+03  0.25500000920E-02 0.  1.
       -2    1    3    3    0  502 -0.43483648286E+03 -0.39909456428E+03 -0.89675663959E+03  0.10735602958E+04  0.25500000920E-02 0. -1.
</event>
<event>
 5   0  0.3917598E-04  0.1402937E+04  0.7818609E-02  0.8951695E-01
        2   -1    0    0  501    0  0.00000000000E+00  0.00000000000E+00  0.15634854452E+04  0.15634854452E+04  0.25500000920E-02 0. -1.
       -2   -1    0    0    0  501  0.00000000000E+00  0.00000000000E+00 -0.31471859520E+03  0.31471859521E+03  0.25500000920E-02 0.  1.
    10030    2    1    2    0    0  0.00000000000E+00  0.00000000000E+00  0.12487668500E+04  0.18782040404E+04  0.14029368381E+04 0.  0.
        3    1    3    3  502    0 -0.11532162207E+03 -0.13839379318E+03 -0.28322287747E+03  0.33565924243E+03  0.10100000352E+00 0.  1.
       -3    1    3    3    0  502  0.11532162207E+03  0.13839379318E+03  0.15319897275E+04  0.15425447980E+04  0.10100000352E+00 0. -1.
</event>
<event>
 5   0  0.2155352E-04  0.1404574E+04  0.7818609E-02  0.8950514E-01
       -1   -1    0    0    0  501  0.00000000000E+00  0.00000000000E+00  0.10652539829E+04  0.10652539829E+04  0.50400001928E-02 0.  1.
        1   -1    0    0  501    0  0.00000000000E+00  0.00000000000E+00 -0.46299496200E+03  0.46299496203E+03  0.50400001928E-02 0. -1.
    10030    2    1    2    0    0  0.00000000000E+00  0.00000000000E+00  0.60225902092E+03  0.15282489450E+04  0.14045742805E+04 0.  0.
        2    1    3    3  502    0 -0.56957466443E+03  0.35561118910E+03  0.52499488283E+03  0.85234631646E+03  0.25500000920E-02 0.  1.
       -2    1    3    3    0  502  0.56957466443E+03 -0.35561118910E+03  0.77264138091E+02  0.67590262851E+03  0.25500000920E-02 0. -1.
</event>
<event>
 5   0  0.2223112E-04  0.1411724E+04  0.7818609E-02  0.8945375E-01
       -1   -1    0    0    0  501  0.00000000000E+00  0.00000000000E+00  0.73402799016E+03  0.73402799018E+03  0.50400001928E-02 0.  1.
        1   -1    0    0  501    0  0.00000000000E+00  0.00000000000E+00 -0.67877723490E+03  0.67877723491E+03  0.50400001928E-02 0. -1.
    10030    2    1    2    0    0  0.00000000000E+00  0.00000000000E+00  0.55250755267E+02  0.14128052251E+04  0.14117244625E+04 0.  0.
        1    1    3    3  502    0 -0.42839846848E+03 -0.53068890202E+03 -0.15440815887E+03  0.69928380367E+03  0.50400001928E-02 0. -1.
       -1    1    3    3    0  502  0.42839846848E+03  0.53068890202E+03  0.20965891414E+03  0.71352142142E+03  0.50400001928E-02 0.  1.
</event>
<event>
 5   0  0.3917598E-04  0.1397529E+04  0.7818609E-02  0.8955609E-01
        2   -1    0    0  501    0  0.00000000000E+00  0.00000000000E+00  0.79436990590E+03  0.79436990590E+03  0.25500000920E-02 0. -1.
       -2   -1    0    0    0  501  0.00000000000E+00  0.00000000000E+00 -0.61466572935E+03  0.61466572936E+03  0.25500000920E-02 0.  1.
    10030    2    1    2    0    0  0.00000000000E+00  0.00000000000E+00  0.17970417655E+03  0.14090356353E+04  0.13975291877E+04 0.  0.
        3    1    3    3  502    0  0.69715829101E+02  0.86403087094E+02 -0.60571656562E+03  0.61580707884E+03  0.10100000352E+00 0.  1.
       -3    1    3    3    0  502 -0.69715829101E+02 -0.86403087094E+02  0.78542074217E+03  0.79322855641E+03  0.10100000352E+00 0. -1.
</event>
<event>
 5   0  0.3975164E-04  0.1398941E+04  0.7818609E-02  0.8954586E-01
        2   -1    0    0  501    0  0.00000000000E+00  0.00000000000E+00  0.10432303817E+04  0.10432303817E+04  0.25500000920E-02 0.  1.
       -2   -1    0    0    0  501  0.00000000000E+00  0.00000000000E+00 -0.46898434747E+03  0.46898434748E+03  0.25500000920E-02 0. -1.
    10030    2    1    2    0    0  0.00000000000E+00  0.00000000000E+00  0.57424603422E+03  0.15122147292E+04  0.13989406275E+04 0.  0.
        5    1    3    3  502    0 -0.17891278574E+02  0.68532924050E+03  0.13718187174E+03  0.69916895073E+03  0.46999998093E+01 0.  1.
       -5    1    3    3    0  502  0.17891278574E+02 -0.68532924050E+03  0.43706416248E+03  0.81304577845E+03  0.46999998093E+01 0. -1.
</event>
<event>
 5   0  0.2215876E-04  0.1395784E+04  0.7818609E-02  0.8956876E-01
       -1   -1    0    0    0  501  0.00000000000E+00  0.00000000000E+00  0.91179480811E+03  0.91179480812E+03  0.50400001928E-02 0.  1.
        1   -1    0    0  501    0  0.00000000000E+00  0.00000000000E+00 -0.53416999756E+03  0.53416999758E+03  0.50400001928E-02 0. -1.
    10030    2    1    2    0    0  0.00000000000E+00  0.00000000000E+00  0.37762481055E+03  0.14459648057E+04  0.13957842676E+04 0.  0.
        3    1    3    3  502    0 -0.31799832276E+03 -0.12275887164E+03 -0.44206483158E+03  0.55822396882E+03  0.10100000352E+00 0. -1.
       -3    1    3    3    0  502  0.31799832276E+03  0.12275887164E+03  0.81968964214E+03  0.88774083688E+03  0.10100000352E+00 0.  1.
</event>
<event>
 5   0  0.2143942E-04  0.1435898E+04  0.7818609E-02  0.8928236E-01
       -1   -1    0    0    0  501  0.00000000000E+00  0.00000000000E+00  0.91970477109E+03  0.91970477111E+03  0.50400001928E-02 0. -1.
        1   -1    0    0  501    0  0.00000000000E+00  0.00000000000E+00 -0.56045271991E+03  0.56045271994E+03  0.50400001928E-02 0.  1.
    10030    2    1    2    0    0  0.00000000000E+00  0.00000000000E+00  0.35925205118E+03  0.14801574910E+04  0.14358983815E+04 0.  0.
        4    1    3    3  502    0  0.50462561797E+03  0.48807282937E+03  0.24702762252E+02  0.70247700350E+03  0.12699999809E+01 0. -1.
       -4    1    3    3    0  502 -0.50462561797E+03 -0.48807282937E+03  0.33454928893E+03  0.77768048754E+03  0.12699999809E+01 0.  1.
</event>
<event>
 5   0  0.2155352E-04  0.1408600E+04  0.7818609E-02  0.8947617E-01
        1   -1    0    0  501    0  0.00000000000E+00  0.00000000000E+00  0.78007422039E+03  0.78007422041E+03  0.50400001928E-02 0. -1.
       -1   -1    0    0    0  501  0.00000000000E+00  0.00000000000E+00 -0.63588607399E+03  0.63588607401E+03  0.50400001928E-02 0.  1.
    10030    2    1    2    0    0  0.00000000000E+00  0.00000000000E+00  0.14418814640E+03  0.14159602944E+04  0.14085997777E+04 0.  0.
        2    1    3    3  502    0 -0.25225677717E+03  0.60722573546E+03 -0.18157702076E+03  0.68214865675E+03  0.25500000920E-02 0.  1.
       -2    1    3    3    0  502  0.25225677717E+03 -0.60722573546E+03  0.32576516716E+03  0.73381163767E+03  0.25500000920E-02 0. -1.
</event>
<event>
 5   0  0.4208622E-04  0.1413489E+04  0.7818609E-02  0.8944112E-01
        2   -1    0    0  501    0  0.00000000000E+00  0.00000000000E+00  0.19353369432E+04  0.19353369432E+04  0.25500000920E-02 0.  1.
       -2   -1    0    0    0  501  0.00000000000E+00  0.00000000000E+00 -0.25808828942E+03  0.25808828943E+03  0.25500000920E-02 0. -1.
    10030    2    1    2    0    0  0.00000000000E+00  0.00000000000E+00  0.16772486537E+04  0.21934252326E+04  0.14134890182E+04 0.  0.
        4    1    3    3  502    0 -0.64050122250E+03  0.11524390226E+03  0.12663172514E+04  0.14237569902E+04  0.12699999809E+01 0.  1.
       -4    1    3    3    0  502  0.64050122250E+03 -0.11524390226E+03  0.41093140231E+03  0.76966824238E+03  0.12699999809E+01 0. -1.
</event>
<event>
 5   0  0.2217251E-04  0.1397755E+04  0.7818609E-02  0.8955445E-01
        1   -1    0    0  501    0  0.00000000000E+00  0.00000000000E+00  0.49912185273E+03  0.49912185276E+03  0.50400001928E-02 0.  1.
       -1   -1    0    0    0  501  0.00000000000E+00  0.00000000000E+00 -0.97857872997E+03  0.97857872998E+03  0.50400001928E-02 0. -1.
    10030    2    1    2    0    0  0.00000000000E+00  0.00000000000E+00 -0.47945687724E+03  0.14777005827E+04  0.13977553846E+04 0.  0.
        5    1    3    3  502    0 -0.23656708819E+03  0.50620127232E+03 -0.68350404650E+03  0.88283836963E+03  0.46999998093E+01 0. -1.
       -5    1    3    3    0  502  0.23656708819E+03 -0.50620127232E+03  0.20404716926E+03  0.59486221312E+03  0.46999998093E+01 0.  1.
</event>
<event>
 5   0  0.3975164E-04  0.1394846E+04  0.7818609E-02  0.8957557E-01
       -2   -1    0    0    0  501  0.00000000000E+00  0.00000000000E+00  0.40399727506E+03  0.40399727507E+03  0.25500000920E-02 0.  1.
        2   -1    0    0  501    0  0.00000000000E+00  0.00000000000E+00 -0.12039664597E+04  0.12039664597E+04  0.25500000920E-02 0. -1.
    10030    2    1    2    0    0  0.00000000000E+00  0.00000000000E+00 -0.79996918467E+03  0.16079637348E+04  0.13948464704E+04 0.  0.
        5    1    3    3  502    0  0.41931870079E+03  0.51805361222E+03 -0.16325728834E+03  0.68620896975E+03  0.46999998093E+01 0.  1.
       -5    1    3    3    0  502 -0.41931870079E+03 -0.51805361222E+03 -0.63671189633E+03  0.92175476505E+03  0.46999998093E+01 0. -1.
</event>
<event>
 5   0  0.2155352E-04  0.1402859E+04  0.7818609E-02  0.8951752E-01
        1   -1    0    0  501    0  0.00000000000E+00  0.00000000000E+00  0.10390900979E+04  0.10390900980E+04  0.50400001928E-02 0.  1.
       -1   -1    0    0    0  501  0.00000000000E+00  0.00000000000E+00 -0.47349428667E+03  0.47349428670E+03  0.50400001928E-02 0. -1.
    10030    2    1    2    0    0  0.00000000000E+00  0.00000000000E+00  0.56559581127E+03  0.15125843847E+04  0.14028588307E+04 0.  0.
        2    1    3    3  502    0  0.44949221112E+03  0.30277410506E+03  0.76292217509E+03  0.93582351530E+03  0.25500000920E-02 0.  1.
       -2    1    3    3    0  502 -0.44949221112E+03 -0.30277410506E+03 -0.19732636382E+03  0.57676086935E+03  0.25500000920E-02 0. -1.
</event>
<event>
 5   0  0.4310348E-04  0.1387468E+04  0.7818609E-02  0.8962940E-01
       -2   -1    0    0    0  501  0.00000000000E+00  0.00000000000E+00  0.23075082356E+03  0.23075082357E+03  0.25500000920E-02 0.  1.
        2   -1    0    0  501    0  0.00000000000E+00  0.00000000000E+00 -0.20856563078E+04  0.20856563079E+04  0.25500000920E-02 0. -1.
    10030    2    1    2    0    0  0.00000000000E+00  0.00000000000E+00 -0.18549054843E+04  0.23164071314E+04  0.13874680691E+04 0.  0.
        1    1    3    3  502    0  0.32061596847E+03  0.40606892291E+03 -0.16990177696E+04  0.17760484089E+04  0.50400001928E-02 0. -1.
       -1    1    3    3    0  502 -0.32061596847E+03 -0.40606892291E+03 -0.15588771471E+03  0.54035872253E+03  0.50400001928E-02 0.  1.
</event>
<event>
 5   0  0.2217251E-04  0.1418365E+04  0.7818609E-02  0.8940631E-01
       -1   -1    0    0    0  501  0.00000000000E+00  0.00000000000E+00  0.29775441551E+03  0.29775441555E+03  0.50400001928E-02 0.  1.
        1   -1    0    0  501    0  0.00000000000E+00  0.00000000000E+00 -0.16891105286E+04  0.16891105286E+04  0.50400001928E-02 0. -1.
    10030    2    1    2    0    0  0.00000000000E+00  0.00000000000E+00 -0.13913561131E+04  0.19868649441E+04  0.14183654229E+04 0.  0.
        5    1    3    3  502    0  0.96533032936E+02  0.56663875196E+03 -0.11384305440E+03  0.58598671718E+03  0.46999998093E+01 0.  1.
       -5    1    3    3    0  502 -0.96533032936E+02 -0.56663875196E+03 -0.12775130587E+04  0.14008782269E+04  0.46999998093E+01 0. -1.
</event>
<event>
 5   0  0.2155352E-04  0.1393964E+04  0.7818609E-02  0.8958199E-01
       -1   -1    0    0    0  501  0.00000000000E+00  0.00000000000E+00  0.66240117644E+03  0.66240117646E+03  0.50400001928E-02 0. -1.
        1   -1    0    0  501    0  0.00000000000E+00  0.00000000000E+00 -0.73336826653E+03  0.73336826654E+03  0.50400001928E-02 0.  1.
    10030    2    1    2    0    0  0.00000000000E+00  0.00000000000E+00 -0.70967090086E+02  0.13957694430E+04  0.13939641352E+04 0.  0.
        2    1    3    3  502    0 -0.30915444753E+03 -0.62331820656E+03  0.55810726281E+01  0.69579681477E+03  0.25500000920E-02 0. -1.
       -2    1    3    3    0  502  0.30915444753E+03  0.62331820656E+03 -0.76548162714E+02  0.69997262824E+03  0.25500000920E-02 0.  1.
</event>
<event>
 5   0  0.3932568E-04  0.1400841E+04  0.7818609E-02  0.8953210E-01
       -2   -1    0    0    0  501  0.00000000000E+00  0.00000000000E+00  0.44946101124E+03  0.44946101125E+03  0.25500000920E-02 0. -1.
        2   -1    0    0  501    0  0.00000000000E+00  0.00000000000E+00 -0.10915046412E+04  0.10915046412E+04  0.25500000920E-02 0.  1.
    10030    2    1    2    0    0  0.00000000000E+00  0.00000000000E+00 -0.64204362994E+03  0.15409656524E+04  0.14008408615E+04 0.  0.
        2    1    3    3  502    0 -0.26532332194E+03  0.18713669357E+03  0.36168086683E+03  0.48603462498E+03  0.25500000920E-02 0. -1.
       -2    1    3    3    0  502  0.26532332194E+03 -0.18713669357E+03 -0.10037244968E+04  0.10549310274E+04  0.25500000920E-02 0.  1.
</event>
<event>
 5   0  0.3932568E-04  0.1404711E+04  0.7818609E-02  0.8950416E-01
        2   -1    0    0  501    0  0.00000000000E+00  0.00000000000E+00  0.17504133886E+04  0.17504133886E+04  0.25500000920E-02 0. -1.
       -2   -1    0    0    0  501  0.00000000000E+00  0.00000000000E+00 -0.28182100423E+03  0.28182100424E+03  0.25500000920E-02 0.  1.
    10030    2    1    2    0    0  0.00000000000E+00  0.00000000000E+00  0.14685923844E+04  0.20322343928E+04  0.14047110151E+04 0.  0.
        2    1    3    3  502    0  0.32077149593E+03 -0.61346944497E+03  0.90586704086E+03  0.11401027183E+04  0.25500000920E-02 0. -1.
       -2    1    3    3    0  502 -0.32077149593E+03  0.61346944497E+03  0.56272534349E+03  0.89213167455E+03  0.25500000920E-02 0.  1.
</event>
<event>
 5   0  0.4208622E-04  0.1397048E+04  0.7818609E-02  0.8955958E-01
       -2   -1    0    0    0  501  0.00000000000E+00  0.00000000000E+00  0.51234011702E+03  0.51234011702E+03  0.25500000920E-02 0. -1.
        2   -1    0    0  501    0  0.00000000000E+00  0.00000000000E+00 -0.95236754501E+03  0.95236754501E+03  0.25500000920E-02 0.  1.
    10030    2    1    2    0    0  0.00000000000E+00  0.00000000000E+00 -0.44002742799E+03  0.14647076620E+04  0.13970484594E+04 0.  0.
        4    1    3    3  502    0  0.56916061849E+03  0.25311428757E+03 -0.55143013883E+03  0.83191794254E+03  0.12699999809E+01 0.  1.
       -4    1    3    3    0  502 -0.56916061849E+03 -0.25311428757E+03  0.11140271084E+03  0.63278971949E+03  0.12699999809E+01 0. -1.
</event>
<event>
 5   0  0.3932568E-04  0.1391033E+04  0.7818609E-02  0.8960335E-01
        2   -1    0    0  501    0  0.00000000000E+00  0.00000000000E+00  0.10645400756E+04  0.10645400756E+04  0.25500000920E-02 0. -1.
       -2   -1    0    0    0  501  0.00000000000E+00  0.00000000000E+00 -0.45441533520E+03  0.45441533520E+03  0.25500000920E-02 0.  1.
    10030    2    1    2    0    0  0.00000000000E+00  0.00000000000E+00  0.61012474036E+03  0.15189554108E+04  0.13910331919E+04 0.  0.
        2    1    3    3  502    0  0.47743757753E+02 -0.69232867164E+03  0.25449050632E+03  0.73916430771E+03  0.25500000920E-02 0.  1.
       -2    1    3    3    0  502 -0.47743757753E+02  0.69232867164E+03  0.35563423403E+03  0.77979110305E+03  0.25500000920E-02 0. -1.
</event>
<event>
 5   0  0.3932568E-04  0.1400294E+04  0.7818609E-02  0.8953605E-01
       -2   -1    0    0    0  501  0.00000000000E+00  0.00000000000E+00  0.33287245487E+03  0.33287245488E+03  0.25500000920E-02 0. -1.
        2   -1    0    0  501    0  0.00000000000E+00  0.00000000000E+00 -0.14726546535E+04  0.14726546535E+04  0.25500000920E-02 0.  1.
    10030    2    1    2    0    0  0.00000000000E+00  0.00000000000E+00 -0.11397821986E+04  0.18055271084E+04  0.14002944972E+04 0.  0.
        2    1    3    3  502    0 -0.94078407648E+02  0.68440549215E+03 -0.42319180329E+03  0.81015611264E+03  0.25500000920E-02 0. -1.
       -2    1    3    3    0  502  0.94078407648E+02 -0.68440549215E+03 -0.71659039530E+03  0.99537099572E+03  0.25500000920E-02 0.  1.
</event>
<event>
 5   0  0.3917598E-04  0.1401360E+04  0.7818609E-02  0.8952835E-01
       -2   -1    0    0    0  501  0.00000000000E+00  0.00000000000E+00  0.46277402186E+03  0.46277402187E+03  0.25500000920E-02 0. -1.
        2   -1    0    0  501    0  0.00000000000E+00  0.00000000000E+00 -0.10608900909E+04  0.10608900909E+04  0.25500000920E-02 0.  1.
    10030    2    1    2    0    0  0.00000000000E+00  0.00000000000E+00 -0.59811606902E+03  0.15236641128E+04  0.14013598740E+04 0.  0.
        3    1    3    3  502    0  0.13995706526E+03  0.48335400284E+03  0.23107462778E+03  0.55372788081E+03  0.10100000352E+00 0. -1.
       -3    1    3    3    0  502 -0.13995706526E+03 -0.48335400284E+03 -0.82919069680E+03  0.96993623194E+03  0.10100000352E+00 0.  1.
</event>
<event>
 5   0  0.2143942E-04  0.1399528E+04  0.7818609E-02  0.8954160E-01
        1   -1    0    0  501    0  0.00000000000E+00  0.00000000000E+00  0.12081821121E+04  0.12081821121E+04  0.50400001928E-02 0. -1.
       -1   -1    0    0    0  501  0.00000000000E+00  0.00000000000E+00 -0.40529456866E+03  0.40529456870E+03  0.50400001928E-02 0.  1.
    10030    2    1    2    0    0  0.00000000000E+00  0.00000000000E+00  0.80288754347E+03  0.16134766808E+04  0.13995279891E+04 0.  0.
        4    1    3    3  502    0  0.43908417232E+03  0.16420777302E+03 -0.19750507514E+03  0.50869339559E+03  0.12699999809E+01 0.  1.
       -4    1    3    3    0  502 -0.43908417232E+03 -0.16420777302E+03  0.10003926186E+04  0.11047832853E+04  0.12699999809E+01 0. -1.
</event>
<event>
 5   0  0.2223112E-04  0.1405690E+04  0.7818609E-02  0.8949710E-01
       -1   -1    0    0    0  501  0.00000000000E+00  0.00000000000E+00  0.72841796633E+03  0.72841796635E+03  0.50400001928E-02 0.  1.
        1   -1    0    0  501    0  0.00000000000E+00  0.00000000000E+00 -0.67816968116E+03  0.67816968118E+03  0.50400001928E-02 0. -1.
    10030    2    1    2    0    0  0.00000000000E+00  0.00000000000E+00  0.50248285167E+02  0.14065876475E+04  0.14056898378E+04 0.  0.
        1    1    3    3  502    0  0.35134408711E+03 -0.51106815899E+03 -0.30577975087E+03  0.69147276645E+03  0.50400001928E-02 0. -1.
       -1    1    3    3    0  502 -0.35134408711E+03  0.51106815899E+03  0.35602803603E+03  0.71511488108E+03  0.50400001928E-02 0.  1.
</event>
<event>
 5   0  0.2215876E-04  0.1397054E+04  0.7818609E-02  0.8955954E-01
       -1   -1    0    0    0  501  0.00000000000E+00  0.00000000000E+00  0.10666976379E+04  0.10666976379E+04  0.50400001928E-02 0. -1.
        1   -1    0    0  501    0  0.00000000000E+00  0.00000000000E+00 -0.45743026139E+03  0.45743026142E+03  0.50400001928E-02 0.  1.
    10030    2    1    2    0    0  0.00000000000E+00  0.00000000000E+00  0.60926737649E+03  0.15241278993E+04  0.13970537275E+04 0.  0.
        3    1    3    3  502    0 -0.12306085862E+03  0.68435316808E+03  0.23180424450E+03  0.73295051099E+03  0.10100000352E+00 0. -1.
       -3    1    3    3    0  502  0.12306085862E+03 -0.68435316808E+03  0.37746313199E+03  0.79117738833E+03  0.10100000352E+00 0.  1.
</event>
<event>
 5   0  0.2155352E-04  0.1402184E+04  0.7818609E-02  0.8952239E-01
       -1   -1    0    0    0  501  0.00000000000E+00  0.00000000000E+00  0.64769628021E+03  0.64769628023E+03  0.50400001928E-02 0.  1.
        1   -1    0    0  501    0  0.00000000000E+00  0.00000000000E+00 -0.75888930614E+03  0.75888930616E+03  0.50400001928E-02 0. -1.
    10030    2    1    2    0    0  0.00000000000E+00  0.00000000000E+00 -0.11119302593E+03  0.14065855864E+04  0.14021836980E+04 0.  0.
        2    1    3    3  502    0 -0.53555889586E+03 -0.39519017549E+03  0.16539299357E+03  0.68582319009E+03  0.25500000920E-02 0. -1.
       -2    1    3    3    0  502  0.53555889586E+03  0.39519017549E+03 -0.27658601950E+03  0.72076239630E+03  0.25500000920E-02 0.  1.
</event>
<event>
 5   0  0.2215876E-04  0.1400744E+04  0.7818609E-02  0.8953280E-01
       -1   -1    0    0    0  501  0.00000000000E+00  0.00000000000E+00  0.83783138748E+03  0.83783138749E+03  0.50400001928E-02 0.  1.
        1   -1    0    0  501    0  0.00000000000E+00  0.00000000000E+00 -0.58546471997E+03  0.58546471999E+03  0.50400001928E-02 0. -1.
    10030    2    1    2    0    0  0.00000000000E+00  0.00000000000E+00  0.25236666751E+03  0.14232961075E+04  0.14007436863E+04 0.  0.
        3    1    3    3  502    0  0.33505467156E+03  0.61249587212E+03  0.69537384225E+02  0.70160407945E+03  0.10100000352E+00 0.  1.
       -3    1    3    3    0  502 -0.33505467156E+03 -0.61249587212E+03  0.18282928328E+03  0.72169202803E+03  0.10100000352E+00 0. -1.
</event>
<event>
 5   0  0.4208622E-04  0.1399828E+04  0.7818609E-02  0.8953943E-01
       -2   -1    0    0    0  501  0.00000000000E+00  0.00000000000E+00  0.23487069805E+03  0.23487069806E+03  0.25500000920E-02 0.  1.
        2   -1    0    0  501    0  0.00000000000E+00  0.00000000000E+00 -0.20857416197E+04  0.20857416197E+04  0.25500000920E-02 0. -1.
    10030    2    1    2    0    0  0.00000000000E+00  0.00000000000E+00 -0.18508709217E+04  0.23206123178E+04  0.13998279754E+04 0.  0.
        4    1    3    3  502    0  0.44030783522E+03  0.47200713389E+03 -0.47686396374E+03  0.80253509394E+03  0.12699999809E+01 0.  1.
       -4    1    3    3    0  502 -0.44030783522E+03 -0.47200713389E+03 -0.13740069579E+04  0.15180772238E+04  0.12699999809E+01 0. -1.
</event>
<event>
 5   0  0.4208622E-04  0.1406776E+04  0.7818609E-02  0.8948928E-01
        2   -1    0    0  501    0  0.00000000000E+00  0.00000000000E+00  0.71462435817E+03  0.71462435818E+03  0.25500000920E-02 0. -1.
       -2   -1    0    0    0  501  0.00000000000E+00  0.00000000000E+00 -0.69232830947E+03  0.69232830947E+03  0.25500000920E-02 0.  1.
    10030    2    1    2    0    0  0.00000000000E+00  0.00000000000E+00  0.22296048706E+02  0.14069526676E+04  0.14067759933E+04 0.  0.
        4    1    3    3  502    0  0.22448159450E+03 -0.35682436598E+03 -0.55198347341E+03  0.69455236105E+03  0.12699999809E+01 0.  1.
       -4    1    3    3    0  502 -0.22448159450E+03  0.35682436598E+03  0.57427952211E+03  0.71240030660E+03  0.12699999809E+01 0. -1.
</event>
<event>
 5   0  0.3932568E-04  0.1400145E+04  0.7818609E-02  0.8953713E-01
       -2   -1    0    0    0  501  0.00000000000E+00  0.00000000000E+00  0.54496464319E+03  0.54496464320E+03  0.25500000920E-02 0.  1.
        2   -1    0    0  501    0  0.00000000000E+00  0.00000000000E+00 -0.89932762796E+03  0.89932762797E+03  0.25500000920E-02 0. -1.
    10030    2    1    2    0    0  0.00000000000E+00  0.00000000000E+00 -0.35436298477E+03  0.14442922712E+04  0.14001453637E+04 0.  0.
        2    1    3    3  502    0 -0.45930386477E+03  0.35360797853E+03 -0.58211868947E+03  0.82149912436E+03  0.25500000920E-02 0. -1.
       -2    1    3    3    0  502  0.45930386477E+03 -0.35360797853E+03  0.22775570470E+03  0.62279314681E+03  0.25500000920E-02 0.  1.
</event>
<event>
 5   0  0.1497625E-04  0.1360161E+04  0.7818609E-02  0.8983172E-01
        3   -1    0    0  501    0  0.00000000000E+00  0.00000000000E+00  0.67338741547E+03  0.67338742304E+03  0.10100000352E+00 0. -1.
       -3   -1    0    0    0  501  0.00000000000E+00  0.00000000000E+00 -0.68684019600E+03  0.68684020343E+03  0.10100000352E+00 0.  1.
    10030    2    1    2    0    0  0.00000000000E+00  0.00000000000E+00 -0.13452780533E+02  0.13602276265E+04  0.13601611002E+04 0.  0.
        4    1    3    3  502    0 -0.33063586389E+03  0.38739728780E+03  0.44397426173E+03  0.67565634094E+03  0.12699999809E+01 0. -1.
       -4    1    3    3    0  502  0.33063586389E+03 -0.38739728780E+03 -0.45742704226E+03  0.68457128553E+03  0.12699999809E+01 0.  1.
</event>
<event>
 5   0  0.2143942E-04  0.1400612E+04  0.7818609E-02  0.8953376E-01
       -1   -1    0    0    0  501  0.00000000000E+00  0.00000000000E+00  0.21816482144E+03  0.21816482149E+03  0.50400001928E-02 0. -1.
        1   -1    0    0  501    0  0.00000000000E+00  0.00000000000E+00 -0.22479719982E+04  0.22479719982E+04  0.50400001928E-02 0.  1.
    10030    2    1    2    0    0  0.00000000000E+00  0.00000000000E+00 -0.20298071768E+04  0.24661368197E+04  0.14006118801E+04 0.  0.
        4    1    3    3  502    0 -0.25434746753E+03 -0.31716674913E+03 -0.10902526646E+02  0.40670365007E+03  0.12699999809E+01 0. -1.
       -4    1    3    3    0  502  0.25434746753E+03  0.31716674913E+03 -0.20189046501E+04  0.20594331696E+04  0.12699999809E+01 0.  1.
</event>
<event>
 5   0  0.2215876E-04  0.1399789E+04  0.7818609E-02  0.8953971E-01
        1   -1    0    0  501    0  0.00000000000E+00  0.00000000000E+00  0.27380646254E+03  0.27380646258E+03  0.50400001928E-02 0. -1.
       -1   -1    0    0    0  501  0.00000000000E+00  0.00000000000E+00 -0.17890469954E+04  0.17890469954E+04  0.50400001928E-02 0.  1.
    10030    2    1    2    0    0  0.00000000000E+00  0.00000000000E+00 -0.15152405328E+04  0.20628534580E+04  0.13997894544E+04 0.  0.
        3    1    3    3  502    0 -0.45181291447E+03  0.51005478388E+03 -0.52200598916E+03  0.85835951394E+03  0.10100000352E+00 0. -1.
       -3    1    3    3    0  502  0.45181291447E+03 -0.51005478388E+03 -0.99323454367E+03  0.12044939440E+04  0.10100000352E+00 0.  1.
</event>
<event>
 5   0  0.2143942E-04  0.1398751E+04  0.7818609E-02  0.8954723E-01
        1   -1    0    0  501    0  0.00000000000E+00  0.00000000000E+00  0.59074723272E+03  0.59074723274E+03  0.50400001928E-02 0.  1.
       -1   -1    0    0    0  501  0.00000000000E+00  0.00000000000E+00 -0.82797916228E+03  0.82797916229E+03  0.50400001928E-02 0. -1.
    10030    2    1    2    0    0  0.00000000000E+00  0.00000000000E+00 -0.23723192955E+03  0.14187263950E+04  0.13987514417E+04 0.  0.
        4    1    3    3  502    0  0.59315532561E+03 -0.31263640423E+03  0.83095916421E+02  0.67563400283E+03  0.12699999809E+01 0.  1.
       -4    1    3    3    0  502 -0.59315532561E+03  0.31263640423E+03 -0.32032784597E+03  0.74309239221E+03  0.12699999809E+01 0. -1.
</event>
<event>
 5   0  0.2143942E-04  0.1401641E+04  0.7818609E-02  0.8952631E-01
       -1   -1    0    0    0  501  0.00000000000E+00  0.00000000000E+00  0.11187655092E+04  0.11187655092E+04  0.50400001928E-02 0. -1.
        1   -1    0    0  501    0  0.00000000000E+00  0.00000000000E+00 -0.43901025025E+03  0.43901025028E+03  0.50400001928E-02 0.  1.
    10030    2    1    2    0    0  0.00000000000E+00  0.00000000000E+00  0.67975525891E+03  0.15577757595E+04  0.14016412183E+04 0.  0.
        4    1    3    3  502    0 -0.26219856789E+03 -0.63240942215E+03  0.50643161965E+03  0.85156583099E+03  0.12699999809E+01 0. -1.
       -4    1    3    3    0  502  0.26219856789E+03  0.63240942215E+03  0.17332363926E+03  0.70620992846E+03  0.12699999809E+01 0.  1.
</event>
<event>
 5   0  0.3917598E-04  0.1372621E+04  0.7818609E-02  0.8973879E-01
        2   -1    0    0  501    0  0.00000000000E+00  0.00000000000E+00  0.11712468703E+04  0.11712468703E+04  0.25500000920E-02 0. -1.
       -2   -1    0    0    0  501  0.00000000000E+00  0.00000000000E+00 -0.40215436577E+03  0.40215436578E+03  0.25500000920E-02 0.  1.
    10030    2    1    2    0    0  0.00000000000E+00  0.00000000000E+00  0.76909250452E+03  0.15734012361E+04  0.13726209124E+04 0.  0.
        3    1    3    3  502    0  0.35776515659E+03 -0.13381285267E+03 -0.26905200078E+03  0.46721598446E+03  0.10100000352E+00 0.  1.
       -3    1    3    3    0  502 -0.35776515659E+03  0.13381285267E+03  0.10381445053E+04  0.11061852516E+04  0.10100000352E+00 0. -1.
</event>
<event>
 5   0  0.3932568E-04  0.1466850E+04  0.7818609E-02  0.8906802E-01
       -2   -1    0    0    0  501  0.00000000000E+00  0.00000000000E+00  0.55796998108E+03  0.55796998108E+03  0.25500000920E-02 0. -1.
        2   -1    0    0  501    0  0.00000000000E+00  0.00000000000E+00 -0.96405162170E+03  0.96405162171E+03  0.25500000920E-02 0.  1.
    10030    2    1    2    0    0  0.00000000000E+00  0.00000000000E+00 -0.40608164062E+03  0.15220216028E+04  0.14668495017E+04 0.  0.
        2    1    3    3  502    0  0.37494079222E+03  0.40326301821E+03  0.29965033720E+03  0.62689072741E+03  0.25500000920E-02 0. -1.
       -2    1    3    3    0  502 -0.37494079222E+03 -0.40326301821E+03 -0.70573197782E+03  0.89513087538E+03  0.25500000920E-02 0.  1.
</event>
<event>
 5   0  0.3917598E-04  0.1433812E+04  0.7818609E-02  0.8929701E-01
        2   -1    0    0  501    0  0.00000000000E+00  0.00000000000E+00  0.12547145677E+04  0.12547145677E+04  0.25500000920E-02 0. -1.
       -2   -1    0    0    0  501  0.00000000000E+00  0.00000000000E+00 -0.40961836854E+03  0.40961836854E+03  0.25500000920E-02 0.  1.
    10030    2    1    2    0    0  0.00000000000E+00  0.00000000000E+00  0.84509619921E+03  0.16643329363E+04  0.14338118904E+04 0.  0.
        3    1    3    3  502    0  0.15738562396E+03  0.61803210321E+03  0.80263802153E+03  0.10251642400E+04  0.10100000352E+00 0. -1.
       -3    1    3    3    0  502 -0.15738562396E+03 -0.61803210321E+03  0.42458177679E+02  0.63916869626E+03  0.10100000352E+00 0.  1.
</event>
<event>
 5   0  0.3975164E-04  0.1398251E+04  0.7818609E-02  0.8955085E-01
       -2   -1    0    0    0  501  0.00000000000E+00  0.00000000000E+00  0.37767722565E+03  0.37767722566E+03  0.25500000920E-02 0.  1.
        2   -1    0    0  501    0  0.00000000000E+00  0.00000000000E+00 -0.12941650678E+04  0.12941650678E+04  0.25500000920E-02 0. -1.
    10030    2    1    2    0    0  0.00000000000E+00  0.00000000000E+00 -0.91648784212E+03  0.16718422934E+04  0.13982512969E+04 0.  0.
        5    1    3    3  502    0  0.50878015614E+03 -0.39774835024E+03 -0.13809633956E+03  0.66041932619E+03  0.46999998093E+01 0.  1.
       -5    1    3    3    0  502 -0.50878015614E+03  0.39774835024E+03 -0.77839150256E+03  0.10114229672E+04  0.46999998093E+01 0. -1.
</event>
<event>
 5   0  0.2217251E-04  0.1384609E+04  0.7818609E-02  0.8965035E-01
       -1   -1    0    0    0  501  0.00000000000E+00  0.00000000000E+00  0.32339335081E+03  0.32339335085E+03  0.50400001928E-02 0.  1.
        1   -1    0    0  501    0  0.00000000000E+00  0.00000000000E+00 -0.14820523065E+04  0.14820523066E+04  0.50400001928E-02 0. -1.
    10030    2    1    2    0    0  0.00000000000E+00  0.00000000000E+00 -0.11586589557E+04  0.18054456574E+04  0.13846094923E+04 0.  0.
        5    1    3    3  502    0 -0.51328329269E+03  0.19957835776E+03 -0.11263196625E+04  0.12537580834E+04  0.46999998093E+01 0. -1.
       -5    1    3    3    0  502  0.51328329269E+03 -0.19957835776E+03 -0.32339293185E+02  0.55168757401E+03  0.46999998093E+01 0.  1.
</event>
<event>
 5   0  0.2155352E-04  0.1398957E+04  0.7818609E-02  0.8954574E-01
       -1   -1    0    0    0  501  0.00000000000E+00  0.00000000000E+00  0.83466347333E+03  0.83466347334E+03  0.50400001928E-02 0. -1.
        1   -1    0    0  501    0  0.00000000000E+00  0.00000000000E+00 -0.58618868583E+03  0.58618868585E+03  0.50400001928E-02 0.  1.
    10030    2    1    2    0    0  0.00000000000E+00  0.00000000000E+00  0.24847478750E+03  0.14208521592E+04  0.13989571610E+04 0.  0.
        2    1    3    3  502    0  0.13558021254E+02  0.68938140677E+03  0.24372103558E+03  0.73132105613E+03  0.25500000920E-02 0. -1.
       -2    1    3    3    0  502 -0.13558021254E+02 -0.68938140677E+03  0.47537519163E+01  0.68953110307E+03  0.25500000920E-02 0.  1.
</event>
<event>
 5   0  0.2217251E-04  0.1398356E+04  0.7818609E-02  0.8955009E-01
       -1   -1    0    0    0  501  0.00000000000E+00  0.00000000000E+00  0.29779974754E+03  0.29779974758E+03  0.50400001928E-02 0. -1.
        1   -1    0    0  501    0  0.00000000000E+00  0.00000000000E+00 -0.16415386791E+04  0.16415386791E+04  0.50400001928E-02 0.  1.
    10030    2    1    2    0    0  0.00000000000E+00  0.00000000000E+00 -0.13437389316E+04  0.19393384267E+04  0.13983558979E+04 0.  0.
        5    1    3    3  502    0 -0.31397090381E+03 -0.62462732439E+03 -0.68507691843E+03  0.97882046208E+03  0.46999998093E+01 0. -1.
       -5    1    3    3    0  502  0.31397090381E+03  0.62462732439E+03 -0.65866201315E+03  0.96051796463E+03  0.46999998093E+01 0.  1.
</event>
<event>
 5   0  0.3932568E-04  0.1400486E+04  0.7818609E-02  0.8953467E-01
       -2   -1    0    0    0  501  0.00000000000E+00  0.00000000000E+00  0.86060896131E+03  0.86060896131E+03  0.25500000920E-02 0.  1.
        2   -1    0    0  501    0  0.00000000000E+00  0.00000000000E+00 -0.56975956628E+03  0.56975956629E+03  0.25500000920E-02 0. -1.
    10030    2    1    2    0    0  0.00000000000E+00  0.00000000000E+00  0.29084939503E+03  0.14303685276E+04  0.14004858993E+04 0.  0.
        2    1    3    3  502    0  0.31851995689E+03  0.61481384276E+03  0.25200243135E+03  0.73685565045E+03  0.25500000920E-02 0.  1.
       -2    1    3    3    0  502 -0.31851995689E+03 -0.61481384276E+03  0.38846963675E+02  0.69351287715E+03  0.25500000920E-02 0. -1.
</event>
<event>
 5   0  0.4310348E-04  0.1421649E+04  0.7818609E-02  0.8938295E-01
        2   -1    0    0  501    0  0.00000000000E+00  0.00000000000E+00  0.41599312695E+03  0.41599312695E+03  0.25500000920E-02 0. -1.
       -2   -1    0    0    0  501  0.00000000000E+00  0.00000000000E+00 -0.12146152632E+04  0.12146152633E+04  0.25500000920E-02 0.  1.
    10030    2    1    2    0    0  0.00000000000E+00  0.00000000000E+00 -0.79862213630E+03  0.16306083902E+04  0.14216491851E+04 0.  0.
        1    1    3    3  502    0 -0.58292822906E+03 -0.40050153121E+03 -0.48093896016E+03  0.85528304097E+03  0.50400001928E-02 0. -1.
       -1    1    3    3    0  502  0.58292822906E+03  0.40050153121E+03 -0.31768317614E+03  0.77532534924E+03  0.50400001928E-02 0.  1.
</event>
<event>
 5   0  0.4310348E-04  0.1409919E+04  0.7818609E-02  0.8946670E-01
       -2   -1    0    0    0  501  0.00000000000E+00  0.00000000000E+00  0.44299427576E+03  0.44299427576E+03  0.25500000920E-02 0.  1.
        2   -1    0    0  501    0  0.00000000000E+00  0.00000000000E+00 -0.11218375180E+04  0.11218375181E+04  0.25500000920E-02 0. -1.
    10030    2    1    2    0    0  0.00000000000E+00  0.00000000000E+00 -0.67884324229E+03  0.15648317938E+04  0.14099185776E+04 0.  0.
        1    1    3    3  502    0 -0.43700119353E+03  0.10991729691E+03  0.26228536400E+03  0.52138802010E+03  0.50400001928E-02 0.  1.
       -1    1    3    3    0  502  0.43700119353E+03 -0.10991729691E+03 -0.94112860629E+03  0.10434437737E+04  0.50400001928E-02 0. -1.
</event>
<event>
 5   0  0.3917598E-04  0.1392595E+04  0.7818609E-02  0.8959196E-01
       -2   -1    0    0    0  501  0.00000000000E+00  0.00000000000E+00  0.49110437413E+03  0.49110437413E+03  0.25500000920E-02 0.  1.
        2   -1    0    0  501    0  0.00000000000E+00  0.00000000000E+00 -0.98722454654E+03  0.98722454654E+03  0.25500000920E-02 0. -1.
    10030    2    1    2    0    0  0.00000000000E+00  0.00000000000E+00 -0.49612017241E+03  0.14783289207E+04  0.13925951214E+04 0.  0.
        3    1    3    3  502    0  0.41694922209E+03  0.43371751096E+03 -0.62017235770E+03  0.86404357331E+03  0.10100000352E+00 0. -1.
       -3    1    3    3    0  502 -0.41694922209E+03 -0.43371751096E+03  0.12405218529E+03  0.61428534737E+03  0.10100000352E+00 0.  1.
</event>
<event>
 5   0  0.2143942E-04  0.1307204E+04  0.7818609E-02  0.9023872E-01
        1   -1    0    0  501    0  0.00000000000E+00  0.00000000000E+00  0.10179609904E+04  0.10179609904E+04  0.50400001928E-02 0.  1.
       -1   -1    0    0    0  501  0.00000000000E+00  0.00000000000E+00 -0.41965779724E+03  0.41965779727E+03  0.50400001928E-02 0. -1.
    10030    2    1    2    0    0  0.00000000000E+00  0.00000000000E+00  0.59830319319E+03  0.14376187877E+04  0.13072035296E+04 0.  0.
        4    1    3    3  502    0  0.31695460708E+03 -0.41236485599E+03 -0.13617911480E+03  0.53763497060E+03  0.12699999809E+01 0. -1.
       -4    1    3    3    0  502 -0.31695460708E+03  0.41236485599E+03  0.73448230798E+03  0.89998381710E+03  0.12699999809E+01 0.  1.
</event>
<event>
 5   0  0.3917598E-04  0.1399813E+04  0.7818609E-02  0.8953954E-01
        2   -1    0    0  501    0  0.00000000000E+00  0.00000000000E+00  0.11935382432E+04  0.11935382432E+04  0.25500000920E-02 0.  1.
       -2   -1    0    0    0  501  0.00000000000E+00  0.00000000000E+00 -0.41043410967E+03  0.41043410968E+03  0.25500000920E-02 0. -1.
    10030    2    1    2    0    0  0.00000000000E+00  0.00000000000E+00  0.78310413350E+03  0.16039723529E+04  0.13998125677E+04 0.  0.
        3    1    3    3  502    0 -0.12643331652E+03  0.30276513951E+03 -0.31685324564E+03  0.45612290307E+03  0.10100000352E+00 0. -1.
       -3    1    3    3    0  502  0.12643331652E+03 -0.30276513951E+03  0.10999573791E+04  0.11478494498E+04  0.10100000352E+00 0.  1.
</event>
<event>
 5   0  0.2155352E-04  0.1399430E+04  0.7818609E-02  0.8954231E-01
       -1   -1    0    0    0  501  0.00000000000E+00  0.00000000000E+00  0.55515702871E+03  0.55515702873E+03  0.50400001928E-02 0. -1.
        1   -1    0    0  501    0  0.00000000000E+00  0.00000000000E+00 -0.88191514004E+03  0.88191514005E+03  0.50400001928E-02 0.  1.
    10030    2    1    2    0    0  0.00000000000E+00  0.00000000000E+00 -0.32675811133E+03  0.14370721688E+04  0.13994304395E+04 0.  0.
        2    1    3    3  502    0  0.84330922203E+02  0.55310381543E+03  0.26812076716E+03  0.62042266309E+03  0.25500000920E-02 0.  1.
       -2    1    3    3    0  502 -0.84330922203E+02 -0.55310381543E+03 -0.59487887849E+03  0.81664950570E+03  0.25500000920E-02 0. -1.
</event>
<event>
 5   0  0.1497625E-04  0.1403346E+04  0.7818609E-02  0.8951400E-01
        4   -1    0    0  501    0  0.00000000000E+00  0.00000000000E+00  0.17463080402E+04  0.17463085020E+04  0.12699999809E+01 0.  1.
       -4   -1    0    0    0  501  0.00000000000E+00  0.00000000000E+00 -0.28193288573E+03  0.28193574615E+03  0.12699999809E+01 0. -1.
    10030    2    1    2    0    0  0.00000000000E+00  0.00000000000E+00  0.14643751545E+04  0.20282442481E+04  0.14033460504E+04 0.  0.
        1    1    3    3  502    0  0.96236602625E+02 -0.25486208504E+03  0.16667548160E+04  0.16888717485E+04  0.50400001928E-02 0.  1.
       -1    1    3    3    0  502 -0.96236602625E+02  0.25486208504E+03 -0.20237966157E+03  0.33937249965E+03  0.50400001928E-02 0. -1.
</event>
<event>
 5   0  0.3917598E-04  0.1401068E+04  0.7818609E-02  0.8953046E-01
        2   -1    0    0  501    0  0.00000000000E+00  0.00000000000E+00  0.67652435058E+03  0.67652435058E+03  0.25500000920E-02 0.  1.
       -2   -1    0    0    0  501  0.00000000000E+00  0.00000000000E+00 -0.72539565132E+03  0.72539565132E+03  0.25500000920E-02 0. -1.
    10030    2    1    2    0    0  0.00000000000E+00  0.00000000000E+00 -0.48871300742E+02  0.14019200019E+04  0.14010679097E+04 0.  0.
        3    1    3    3  502    0  0.18149805644E+03 -0.76911976372E+02  0.64820142724E+03  0.67751169516E+03  0.10100000352E+00 0.  1.
       -3    1    3    3    0  502 -0.18149805644E+03  0.76911976372E+02 -0.69707272798E+03  0.72440830675E+03  0.10100000352E+00 0. -1.
</event>
<event>
 5   0  0.2155352E-04  0.1382731E+04  0.7818609E-02  0.8966414E-01
       -1   -1    0    0    0  501  0.00000000000E+00  0.00000000000E+00  0.45877355087E+03  0.45877355089E+03  0.50400001928E-02 0.  1.
        1   -1    0    0  501    0  0.00000000000E+00  0.00000000000E+00 -0.10418785404E+04  0.10418785404E+04  0.50400001928E-02 0. -1.
    10030    2    1    2    0    0  0.00000000000E+00  0.00000000000E+00 -0.58310498949E+03  0.15006520913E+04  0.13827310911E+04 0.  0.
        2    1    3    3  502    0 -0.14077887068E+03 -0.83339688091E+02 -0.10205692032E+04  0.10335984194E+04  0.25500000920E-02 0. -1.
       -2    1    3    3    0  502  0.14077887068E+03  0.83339688091E+02  0.43746421375E+03  0.46705367182E+03  0.25500000920E-02 0.  1.
</event>
<event>
 5   0  0.2155352E-04  0.1448816E+04  0.7818609E-02  0.8919222E-01
       -1   -1    0    0    0  501  0.00000000000E+00  0.00000000000E+00  0.43397896313E+03  0.43397896316E+03  0.50400001928E-02 0.  1.
        1   -1    0    0  501    0  0.00000000000E+00  0.00000000000E+00 -0.12091989506E+04  0.12091989506E+04  0.50400001928E-02 0. -1.
    10030    2    1    2    0    0  0.00000000000E+00  0.00000000000E+00 -0.77521998747E+03  0.16431779138E+04  0.14488159398E+04 0.  0.
        2    1    3    3  502    0  0.16171187552E+03  0.58655782572E+03 -0.83350076984E+03  0.10319517173E+04  0.25500000920E-02 0. -1.
       -2    1    3    3    0  502 -0.16171187552E+03 -0.58655782572E+03  0.58280782374E+02  0.61122619643E+03  0.25500000920E-02 0.  1.
</event>
<event>
 5   0  0.1497625E-04  0.1407060E+04  0.7818609E-02  0.8948724E-01
        3   -1    0    0  501    0  0.00000000000E+00  0.00000000000E+00  0.46784453249E+03  0.46784454339E+03  0.10100000352E+00 0.  1.
       -3   -1    0    0    0  501  0.00000000000E+00  0.00000000000E+00 -0.10579467820E+04  0.10579467868E+04  0.10100000352E+00 0. -1.
    10030    2    1    2    0    0  0.00000000000E+00  0.00000000000E+00 -0.59010224946E+03  0.15257913302E+04  0.14070602398E+04 0.  0.
        2    1    3    3  502    0 -0.23795395525E+03  0.14407019160E+03 -0.99578059934E+03  0.10339039157E+04  0.25500000920E-02 0. -1.
       -2    1    3    3    0  502  0.23795395525E+03 -0.14407019160E+03  0.40567834987E+03  0.49188741445E+03  0.25500000920E-02 0.  1.
</event>
<event>
 5   0  0.3932568E-04  0.1400329E+04  0.7818609E-02  0.8953581E-01
        2   -1    0    0  501    0  0.00000000000E+00  0.00000000000E+00  0.79384019509E+03  0.79384019509E+03  0.25500000920E-02 0.  1.
       -2   -1    0    0    0  501  0.00000000000E+00  0.00000000000E+00 -0.61754239867E+03  0.61754239867E+03  0.25500000920E-02 0. -1.
    10030    2    1    2    0    0  0.00000000000E+00  0.00000000000E+00  0.17629779642E+03  0.14113825938E+04  0.14003285018E+04 0.  0.
        2    1    3    3  502    0  0.46784733334E+03 -0.12146263632E+03  0.59870032941E+03  0.76946499841E+03  0.25500000920E-02 0.  1.
       -2    1    3    3    0  502 -0.46784733334E+03  0.12146263632E+03 -0.42240253299E+03  0.64191759535E+03  0.25500000920E-02 0. -1.
</event>
<event>
 5   0  0.3932568E-04  0.1398595E+04  0.7818609E-02  0.8954836E-01
       -2   -1    0    0    0  501  0.00000000000E+00  0.00000000000E+00  0.21423953705E+04  0.21423953705E+04  0.25500000920E-02 0. -1.
        2   -1    0    0  501    0  0.00000000000E+00  0.00000000000E+00 -0.22825707526E+03  0.22825707528E+03  0.25500000920E-02 0.  1.
    10030    2    1    2    0    0  0.00000000000E+00  0.00000000000E+00  0.19141382952E+04  0.23706524458E+04  0.13985948682E+04 0.  0.
        2    1    3    3  502    0 -0.24145786095E+03 -0.64004202380E+03  0.12030592437E+04  0.13839462543E+04  0.25500000920E-02 0. -1.
       -2    1    3    3    0  502  0.24145786095E+03  0.64004202380E+03  0.71107905155E+03  0.98670619153E+03  0.25500000920E-02 0.  1.
</event>
<event>
 5   0  0.2215876E-04  0.1366677E+04  0.7818609E-02  0.8978299E-01
        1   -1    0    0  501    0  0.00000000000E+00  0.00000000000E+00  0.41565074695E+03  0.41565074698E+03  0.50400001928E-02 0.  1.
       -1   -1    0    0    0  501  0.00000000000E+00  0.00000000000E+00 -0.11234234954E+04  0.11234234955E+04  0.50400001928E-02 0. -1.
    10030    2    1    2    0    0  0.00000000000E+00  0.00000000000E+00 -0.70777274849E+03  0.15390742424E+04  0.13666774529E+04 0.  0.
        3    1    3    3  502    0 -0.51671977794E+03 -0.10880998585E+03 -0.84231688700E+03  0.99415124114E+03  0.10100000352E+00 0. -1.
       -3    1    3    3    0  502  0.51671977794E+03  0.10880998585E+03  0.13454413851E+03  0.54492300129E+03  0.10100000352E+00 0.  1.
</event>
<event>
 5   0  0.4208622E-04  0.1396521E+04  0.7818609E-02  0.8956341E-01
       -2   -1    0    0    0  501  0.00000000000E+00  0.00000000000E+00  0.13034688498E+04  0.13034688498E+04  0.25500000920E-02 0. -1.
        2   -1    0    0  501    0  0.00000000000E+00  0.00000000000E+00 -0.37405372929E+03  0.37405372930E+03  0.25500000920E-02 0.  1.
    10030    2    1    2    0    0  0.00000000000E+00  0.00000000000E+00  0.92941512049E+03  0.16775225791E+04  0.13965205108E+04 0.  0.
        4    1    3    3  502    0 -0.48624101806E+02 -0.36802095081E+02 -0.37084757997E+03  0.37583006525E+03  0.12699999809E+01 0.  1.
       -4    1    3    3    0  502  0.48624101806E+02  0.36802095081E+02  0.13002627005E+04  0.13016925138E+04  0.12699999809E+01 0. -1.
</event>
<event>
 5   0  0.2223112E-04  0.1426749E+04  0.7818609E-02  0.8934681E-01
        1   -1    0    0  501    0  0.00000000000E+00  0.00000000000E+00  0.13142520298E+04  0.13142520298E+04  0.50400001928E-02 0.  1.
       -1   -1    0    0    0  501  0.00000000000E+00  0.00000000000E+00 -0.38721880969E+03  0.38721880972E+03  0.50400001928E-02 0. -1.
    10030    2    1    2    0    0  0.00000000000E+00  0.00000000000E+00  0.92703322011E+03  0.17014708395E+04  0.14267489010E+04 0.  0.
        1    1    3    3  502    0 -0.11484318025E+03 -0.63876927557E+03  0.81665664431E+03  0.10431410347E+04  0.50400001928E-02 0.  1.
       -1    1    3    3    0  502  0.11484318025E+03  0.63876927557E+03  0.11037657580E+03  0.65832980486E+03  0.50400001928E-02 0. -1.
</event>
<event>
 5   0  0.3932568E-04  0.1406432E+04  0.7818609E-02  0.8949176E-01
        2   -1    0    0  501    0  0.00000000000E+00  0.00000000000E+00  0.68248367460E+03  0.68248367461E+03  0.25500000920E-02 0.  1.
       -2   -1    0    0    0  501  0.00000000000E+00  0.00000000000E+00 -0.72457838991E+03  0.72457838992E+03  0.25500000920E-02 0. -1.
    10030    2    1    2    0    0  0.00000000000E+00  0.00000000000E+00 -0.42094715313E+02  0.14070620645E+04  0.14064322552E+04 0.  0.
        2    1    3    3  502    0  0.12076007406E+03 -0.12587104449E+02  0.67191820938E+03  0.68279975892E+03  0.25500000920E-02 0.  1.
       -2    1    3    3    0  502 -0.12076007406E+03  0.12587104449E+02 -0.71401292469E+03  0.72426230560E+03  0.25500000920E-02 0. -1.
</event>
<event>
 5   0  0.2217251E-04  0.1397748E+04  0.7818609E-02  0.8955451E-01
       -1   -1    0    0    0  501  0.00000000000E+00  0.00000000000E+00  0.28347094564E+03  0.28347094568E+03  0.50400001928E-02 0.  1.
        1   -1    0    0  501    0  0.00000000000E+00  0.00000000000E+00 -0.17230146620E+04  0.17230146620E+04  0.50400001928E-02 0. -1.
    10030    2    1    2    0    0  0.00000000000E+00  0.00000000000E+00 -0.14395437163E+04  0.20064856077E+04  0.13977476105E+04 0.  0.
        5    1    3    3  502    0  0.65642451942E+03 -0.17965565699E+03 -0.49174108343E+03  0.83964319083E+03  0.46999998093E+01 0.  1.
       -5    1    3    3    0  502 -0.65642451942E+03  0.17965565699E+03 -0.94780263291E+03  0.11668424168E+04  0.46999998093E+01 0. -1.
</event>
<event>
 5   0  0.4310348E-04  0.1396225E+04  0.7818609E-02  0.8956555E-01
       -2   -1    0    0    0  501  0.00000000000E+00  0.00000000000E+00  0.31153596284E+03  0.31153596285E+03  0.25500000920E-02 0. -1.
        2   -1    0    0  501    0  0.00000000000E+00  0.00000000000E+00 -0.15643821429E+04  0.15643821429E+04  0.25500000920E-02 0.  1.
    10030    2    1    2    0    0  0.00000000000E+00  0.00000000000E+00 -0.12528461801E+04  0.18759181058E+04  0.13962253359E+04 0.  0.
        1    1    3    3  502    0  0.25369937575E+03 -0.34706141981E+03 -0.13654398367E+04  0.14315170100E+04  0.50400001928E-02 0.  1.
       -1    1    3    3    0  502 -0.25369937575E+03  0.34706141981E+03  0.11259365658E+03  0.44440109575E+03  0.50400001928E-02 0. -1.
</event>
<event>
 5   0  0.1497625E-04  0.1388928E+04  0.7818609E-02  0.8961872E-01
       -4   -1    0    0    0  501  0.00000000000E+00  0.00000000000E+00  0.79122082798E+03  0.79122184723E+03  0.12699999809E+01 0. -1.
        4   -1    0    0  501    0  0.00000000000E+00  0.00000000000E+00 -0.60953704500E+03  0.60953836806E+03  0.12699999809E+01 0.  1.
    10030    2    1    2    0    0  0.00000000000E+00  0.00000000000E+00  0.18168378297E+03  0.14007602153E+04  0.13889277100E+04 0.  0.
        3    1    3    3  502    0  0.70570560689E+02 -0.40268292934E+03 -0.47531950699E+03  0.62694687937E+03  0.10100000352E+00 0.  1.
       -3    1    3    3    0  502 -0.70570560689E+02  0.40268292934E+03  0.65700328996E+03  0.77381333592E+03  0.10100000352E+00 0. -1.
</event>
<event>
 5   0  0.2223112E-04  0.1410992E+04  0.7818609E-02  0.8945900E-01
       -1   -1    0    0    0  501  0.00000000000E+00  0.00000000000E+00  0.41287097901E+03  0.41287097904E+03  0.50400001928E-02 0.  1.
        1   -1    0    0  501    0  0.00000000000E+00  0.00000000000E+00 -0.12055207736E+04  0.12055207736E+04  0.50400001928E-02 0. -1.
    10030    2    1    2    0    0  0.00000000000E+00  0.00000000000E+00 -0.79264979455E+03  0.16183917526E+04  0.14109919093E+04 0.  0.
        1    1    3    3  502    0  0.46730077294E+03  0.44550457147E+03 -0.72252211961E+03  0.96895951873E+03  0.50400001928E-02 0. -1.
       -1    1    3    3    0  502 -0.46730077294E+03 -0.44550457147E+03 -0.70127674937E+02  0.64943223388E+03  0.50400001928E-02 0.  1.
</event>
<event>
 5   0  0.2143942E-04  0.1398743E+04  0.7818609E-02  0.8954729E-01
       -1   -1    0    0    0  501  0.00000000000E+00  0.00000000000E+00  0.30551768099E+03  0.30551768103E+03  0.50400001928E-02 0.  1.
        1   -1    0    0  501    0  0.00000000000E+00  0.00000000000E+00 -0.16009562502E+04  0.16009562502E+04  0.50400001928E-02 0. -1.
    10030    2    1    2    0    0  0.00000000000E+00  0.00000000000E+00 -0.12954385692E+04  0.19064739312E+04  0.13987429227E+04 0.  0.
        4    1    3    3  502    0  0.21890112326E+02  0.44101076380E+03 -0.13869445014E+04  0.14555364419E+04  0.12699999809E+01 0. -1.
       -4    1    3    3    0  502 -0.21890112326E+02 -0.44101076380E+03  0.91505932162E+02  0.45093748938E+03  0.12699999809E+01 0.  1.
</event>
<event>
 5   0  0.2143942E-04  0.1402853E+04  0.7818609E-02  0.8951756E-01
        1   -1    0    0  501    0  0.00000000000E+00  0.00000000000E+00  0.20862660577E+04  0.20862660577E+04  0.50400001928E-02 0.  1.
       -1   -1    0    0    0  501  0.00000000000E+00  0.00000000000E+00 -0.23582764070E+03  0.23582764075E+03  0.50400001928E-02 0. -1.
    10030    2    1    2    0    0  0.00000000000E+00  0.00000000000E+00  0.18504384170E+04  0.23220936985E+04  0.14028530961E+04 0.  0.
        4    1    3    3  502    0  0.38092842403E+03 -0.37385570646E+03  0.17189530778E+03  0.56073537718E+03  0.12699999809E+01 0. -1.
       -4    1    3    3    0  502 -0.38092842403E+03  0.37385570646E+03  0.16785431092E+04  0.17613583213E+04  0.12699999809E+01 0.  1.
</event>
<event>
 5   0  0.3932568E-04  0.1393138E+04  0.7818609E-02  0.8958801E-01
        2   -1    0    0  501    0  0.00000000000E+00  0.00000000000E+00  0.12580843088E+04  0.12580843088E+04  0.25500000920E-02 0. -1.
       -2   -1    0    0    0  501  0.00000000000E+00  0.00000000000E+00 -0.38567245784E+03  0.38567245784E+03  0.25500000920E-02 0.  1.
    10030    2    1    2    0    0  0.00000000000E+00  0.00000000000E+00  0.87241185094E+03  0.16437567666E+04  0.13931381375E+04 0.  0.
        2    1    3    3  502    0 -0.74732865064E+02 -0.30024511565E+03  0.11725552804E+04  0.12126904041E+04  0.25500000920E-02 0. -1.
       -2    1    3    3    0  502  0.74732865064E+02  0.30024511565E+03 -0.30014342950E+03  0.43106636249E+03  0.25500000920E-02 0.  1.
</event>
<event>
 5   0  0.3932568E-04  0.1399564E+04  0.7818609E-02  0.8954134E-01
        2   -1    0    0  501    0  0.00000000000E+00  0.00000000000E+00  0.70009381247E+03  0.70009381248E+03  0.25500000920E-02 0. -1.
       -2   -1    0    0    0  501  0.00000000000E+00  0.00000000000E+00 -0.69947045737E+03  0.69947045737E+03  0.25500000920E-02 0.  1.
    10030    2    1    2    0    0  0.00000000000E+00  0.00000000000E+00  0.62335510800E+00  0.13995642698E+04  0.13995641310E+04 0.  0.
        2    1    3    3  502    0 -0.62623388277E+03 -0.30300648091E+03  0.75896973351E+02  0.69981580003E+03  0.25500000920E-02 0. -1.
       -2    1    3    3    0  502  0.62623388277E+03  0.30300648091E+03 -0.75273618243E+02  0.69974846982E+03  0.25500000920E-02 0.  1.
</event>
<event>
 5   0  0.4208622E-04  0.1400355E+04  0.7818609E-02  0.8953562E-01
       -2   -1    0    0    0  501  0.00000000000E+00  0.00000000000E+00  0.91143335998E+03  0.91143335998E+03  0.25500000920E-02 0.  1.
        2   -1    0    0  501    0  0.00000000000E+00  0.00000000000E+00 -0.53788725275E+03  0.53788725276E+03  0.25500000920E-02 0. -1.
    10030    2    1    2    0    0  0.00000000000E+00  0.00000000000E+00  0.37354610723E+03  0.14493206127E+04  0.14003547923E+04 0.  0.
        4    1    3    3  502    0  0.54707123124E+03 -0.42987822292E+03  0.26803313223E+03  0.74560417881E+03  0.12699999809E+01 0. -1.
       -4    1    3    3    0  502 -0.54707123124E+03  0.42987822292E+03  0.10551297500E+03  0.70371643393E+03  0.12699999809E+01 0.  1.
</event>
<event>
 5   0  0.3975164E-04  0.1398567E+04  0.7818609E-02  0.8954857E-01
       -2   -1    0    0    0  501  0.00000000000E+00  0.00000000000E+00  0.70698805223E+03  0.70698805223E+03  0.25500000920E-02 0. -1.
        2   -1    0    0  501    0  0.00000000000E+00  0.00000000000E+00 -0.69166256276E+03  0.69166256277E+03  0.25500000920E-02 0.  1.
    10030    2    1    2    0    0  0.00000000000E+00  0.00000000000E+00  0.15325489461E+02  0.13986506150E+04  0.13985666492E+04 0.  0.
        5    1    3    3  502    0 -0.42341320591E+03  0.54709208571E+03 -0.94257969879E+02  0.69820852764E+03  0.46999998093E+01 0.  1.
       -5    1    3    3    0  502  0.42341320591E+03 -0.54709208571E+03  0.10958345934E+03  0.70044208736E+03  0.46999998093E+01 0. -1.
</event>
<event>
 5   0  0.3932568E-04  0.1414937E+04  0.7818609E-02  0.8943077E-01
        2   -1    0    0  501    0  0.00000000000E+00  0.00000000000E+00  0.16854268773E+04  0.16854268773E+04  0.25500000920E-02 0. -1.
       -2   -1    0    0    0  501  0.00000000000E+00  0.00000000000E+00 -0.29696425619E+03  0.29696425621E+03  0.25500000920E-02 0.  1.
    10030    2    1    2    0    0  0.00000000000E+00  0.00000000000E+00  0.13884626211E+04  0.19823911335E+04  0.14149368028E+04 0.  0.
        2    1    3    3  502    0 -0.26898628216E+03 -0.56657109957E+03  0.23560523503E+03  0.66997481866E+03  0.25500000920E-02 0.  1.
       -2    1    3    3    0  502  0.26898628216E+03  0.56657109957E+03  0.11528573861E+04  0.13124163149E+04  0.25500000920E-02 0. -1.
</event>
<event>
 5   0  0.4310348E-04  0.1399390E+04  0.7818609E-02  0.8954260E-01
       -2   -1    0    0    0  501  0.00000000000E+00  0.00000000000E+00  0.50813769784E+03  0.50813769785E+03  0.25500000920E-02 0. -1.
        2   -1    0    0  501    0  0.00000000000E+00  0.00000000000E+00 -0.96346499747E+03  0.96346499747E+03  0.25500000920E-02 0.  1.
    10030    2    1    2    0    0  0.00000000000E+00  0.00000000000E+00 -0.45532729963E+03  0.14716026953E+04  0.13993897038E+04 0.  0.
        1    1    3    3  502    0  0.16060690820E+03 -0.42104061500E+02 -0.94244876317E+03  0.95696238285E+03  0.50400001928E-02 0.  1.
       -1    1    3    3    0  502 -0.16060690820E+03  0.42104061500E+02  0.48712146354E+03  0.51464031248E+03  0.50400001928E-02 0. -1.
</event>
<event>
 5   0  0.4208622E-04  0.1405257E+04  0.7818609E-02  0.8950022E-01
       -2   -1    0    0    0  501  0.00000000000E+00  0.00000000000E+00  0.20844201046E+03  0.20844201047E+03  0.25500000920E-02 0.  1.
        2   -1    0    0  501    0  0.00000000000E+00  0.00000000000E+00 -0.23684625565E+04  0.23684625565E+04  0.25500000920E-02 0. -1.
    10030    2    1    2    0    0  0.00000000000E+00  0.00000000000E+00 -0.21600205460E+04  0.25769045669E+04  0.14052574098E+04 0.  0.
        4    1    3    3  502    0  0.63168892763E+03 -0.70501060951E+01 -0.16440363949E+04  0.17612319228E+04  0.12699999809E+01 0.  1.
       -4    1    3    3    0  502 -0.63168892763E+03  0.70501060951E+01 -0.51598415112E+03  0.81567264413E+03  0.12699999809E+01 0. -1.
</event>
<event>
 5   0  0.4208622E-04  0.1394094E+04  0.7818609E-02  0.8958105E-01
       -2   -1    0    0    0  501  0.00000000000E+00  0.00000000000E+00  0.38680859231E+03  0.38680859232E+03  0.25500000920E-02 0.  1.
        2   -1    0    0  501    0  0.00000000000E+00  0.00000000000E+00 -0.12561102073E+04  0.12561102073E+04  0.25500000920E-02 0. -1.
    10030    2    1    2    0    0  0.00000000000E+00  0.00000000000E+00 -0.86930161495E+03  0.16429187996E+04  0.13940935708E+04 0.  0.
        4    1    3    3  502    0  0.20568069454E+03  0.45148017210E+03  0.14236635645E+03  0.51614793060E+03  0.12699999809E+01 0.  1.
       -4    1    3    3    0  502 -0.20568069454E+03 -0.45148017210E+03 -0.10116679714E+04  0.11267708690E+04  0.12699999809E+01 0. -1.
</event>
<event>
 5   0  0.3975164E-04  0.1419512E+04  0.7818609E-02  0.8939814E-01
       -2   -1    0    0    0  501  0.00000000000E+00  0.00000000000E+00  0.37425646346E+03  0.37425646347E+03  0.25500000920E-02 0.  1.
        2   -1    0    0  501    0  0.00000000000E+00  0.00000000000E+00 -0.13460122398E+04  0.13460122398E+04  0.25500000920E-02 0. -1.
    10030    2    1    2    0    0  0.00000000000E+00  0.00000000000E+00 -0.97175577637E+03  0.17202687033E+04  0.14195122834E+04 0.  0.
        5    1    3    3  502    0 -0.39922561511E+03 -0.39831413468E+03  0.36348644171E+02  0.56513587355E+03  0.46999998093E+01 0.  1.
       -5    1    3    3    0  502  0.39922561511E+03  0.39831413468E+03 -0.10081044205E+04  0.11551328297E+04  0.46999998093E+01 0. -1.
</event>
<event>
 5   0  0.2143942E-04  0.1403272E+04  0.7818609E-02  0.8951454E-01
       -1   -1    0    0    0  501  0.00000000000E+00  0.00000000000E+00  0.37718252282E+03  0.37718252286E+03  0.50400001928E-02 0.  1.
        1   -1    0    0  501    0  0.00000000000E+00  0.00000000000E+00 -0.13051846629E+04  0.13051846629E+04  0.50400001928E-02 0. -1.
    10030    2    1    2    0    0  0.00000000000E+00  0.00000000000E+00 -0.92800214005E+03  0.16823671857E+04  0.14032716685E+04 0.  0.
        4    1    3    3  502    0  0.21317619369E+03 -0.51728970940E+03  0.43595768435E+02  0.56119064224E+03  0.12699999809E+01 0.  1.
       -4    1    3    3    0  502 -0.21317619369E+03  0.51728970940E+03 -0.97159790848E+03  0.11211765435E+04  0.12699999809E+01 0. -1.
</event>
<event>
 5   0  0.3975164E-04  0.1389995E+04  0.7818609E-02  0.8961093E-01
       -2   -1    0    0    0  501  0.00000000000E+00  0.00000000000E+00  0.27871063627E+03  0.27871063628E+03  0.25500000920E-02 0. -1.
        2   -1    0    0  501    0  0.00000000000E+00  0.00000000000E+00 -0.17330566250E+04  0.17330566250E+04  0.25500000920E-02 0.  1.
    10030    2    1    2    0    0  0.00000000000E+00  0.00000000000E+00 -0.14543459888E+04  0.20117672613E+04  0.13899946974E+04 0.  0.
        5    1    3    3  502    0  0.10243579385E+03  0.34688352373E+03  0.13173308310E+03  0.38496359059E+03  0.46999998093E+01 0. -1.
       -5    1    3    3    0  502 -0.10243579385E+03 -0.34688352373E+03 -0.15860790719E+04  0.16268036707E+04  0.46999998093E+01 0.  1.
</event>
<event>
 5   0  0.3917598E-04  0.1394619E+04  0.7818609E-02  0.8957723E-01
       -2   -1    0    0    0  501  0.00000000000E+00  0.00000000000E+00  0.32110653909E+03  0.32110653910E+03  0.25500000920E-02 0. -1.
        2   -1    0    0  501    0  0.00000000000E+00  0.00000000000E+00 -0.15142644080E+04  0.15142644080E+04  0.25500000920E-02 0.  1.
    10030    2    1    2    0    0  0.00000000000E+00  0.00000000000E+00 -0.11931578689E+04  0.18353709471E+04  0.13946185189E+04 0.  0.
        3    1    3    3  502    0  0.98436527413E+02 -0.68642883206E+03 -0.50017610492E+03  0.85501487563E+03  0.10100000352E+00 0. -1.
       -3    1    3    3    0  502 -0.98436527413E+02  0.68642883206E+03 -0.69298176396E+03  0.98035607144E+03  0.10100000352E+00 0.  1.
</event>
<event>
 5   0  0.1497625E-04  0.1398979E+04  0.7818609E-02  0.8954558E-01
        4   -1    0    0  501    0  0.00000000000E+00  0.00000000000E+00  0.54306576411E+03  0.54306724911E+03  0.12699999809E+01 0. -1.
       -4   -1    0    0    0  501  0.00000000000E+00  0.00000000000E+00 -0.90096592252E+03  0.90096681762E+03  0.12699999809E+01 0.  1.
    10030    2    1    2    0    0  0.00000000000E+00  0.00000000000E+00 -0.35790015841E+03  0.14440340667E+04  0.13989788642E+04 0.  0.
        5    1    3    3  502    0  0.61607853661E+03  0.25907139952E+03 -0.39197650234E+03  0.77481508871E+03  0.46999998093E+01 0. -1.
       -5    1    3    3    0  502 -0.61607853661E+03 -0.25907139952E+03  0.34076343929E+02  0.66921897801E+03  0.46999998093E+01 0.  1.
</event>
<event>
 5   0  0.2223112E-04  0.1396406E+04  0.7818609E-02  0.8956424E-01
       -1   -1    0    0    0  501  0.00000000000E+00  0.00000000000E+00  0.31742010369E+03  0.31742010373E+03  0.50400001928E-02 0.  1.
        1   -1    0    0  501    0  0.00000000000E+00  0.00000000000E+00 -0.15357805048E+04  0.15357805048E+04  0.50400001928E-02 0. -1.
    10030    2    1    2    0    0  0.00000000000E+00  0.00000000000E+00 -0.12183604011E+04  0.18532006085E+04  0.13964062548E+04 0.  0.
        1    1    3    3  502    0 -0.24652006480E+03  0.26269795189E+03 -0.14029111345E+04  0.14484274258E+04  0.50400001928E-02 0. -1.
       -1    1    3    3    0  502  0.24652006480E+03 -0.26269795189E+03  0.18455073341E+03  0.40477318279E+03  0.50400001928E-02 0.  1.
</event>
<event>
 5   0  0.2217251E-04  0.1394921E+04  0.7818609E-02  0.8957503E-01
        1   -1    0    0  501    0  0.00000000000E+00  0.00000000000E+00  0.79530096987E+03  0.79530096988E+03  0.50400001928E-02 0.  1.
       -1   -1    0    0    0  501  0.00000000000E+00  0.00000000000E+00 -0.61165667716E+03  0.61165667718E+03  0.50400001928E-02 0. -1.
    10030    2    1    2    0    0  0.00000000000E+00  0.00000000000E+00  0.18364429271E+03  0.14069576471E+04  0.13949209993E+04 0.  0.
        5    1    3    3  502    0  0.11822296258E+03 -0.37672285718E+03 -0.48805814814E+03  0.62778947584E+03  0.46999998093E+01 0. -1.
       -5    1    3    3    0  502 -0.11822296258E+03  0.37672285718E+03  0.67170244085E+03  0.77916817122E+03  0.46999998093E+01 0.  1.
</event>
<event>
 5   0  0.2217251E-04  0.1398063E+04  0.7818609E-02  0.8955222E-01
       -1   -1    0    0    0  501  0.00000000000E+00  0.00000000000E+00  0.47115641563E+03  0.47115641565E+03  0.50400001928E-02 0. -1.
        1   -1    0    0  501    0  0.00000000000E+00  0.00000000000E+00 -0.10371180839E+04  0.10371180839E+04  0.50400001928E-02 0.  1.
    10030    2    1    2    0    0  0.00000000000E+00  0.00000000000E+00 -0.56596166825E+03  0.15082744995E+04  0.13980627153E+04 0.  0.
        5    1    3    3  502    0  0.41040328340E+03 -0.56160251334E+03 -0.35768174439E+03  0.78216785813E+03  0.46999998093E+01 0.  1.
       -5    1    3    3    0  502 -0.41040328340E+03  0.56160251334E+03 -0.20827992386E+03  0.72610664141E+03  0.46999998093E+01 0. -1.
</event>
<event>
 5   0  0.4310348E-04  0.1399272E+04  0.7818609E-02  0.8954346E-01
       -2   -1    0    0    0  501  0.00000000000E+00  0.00000000000E+00  0.34320115459E+03  0.34320115460E+03  0.25500000920E-02 0.  1.
        2   -1    0    0  501    0  0.00000000000E+00  0.00000000000E+00 -0.14262495933E+04  0.14262495933E+04  0.25500000920E-02 0. -1.
    10030    2    1    2    0    0  0.00000000000E+00  0.00000000000E+00 -0.10830484387E+04  0.17694507479E+04  0.13992719638E+04 0.  0.
        1    1    3    3  502    0  0.11104242237E+03  0.53305290720E+03  0.14036489160E+02  0.54467682573E+03  0.50400001928E-02 0.  1.
       -1    1    3    3    0  502 -0.11104242237E+03 -0.53305290720E+03 -0.10970849279E+04  0.12247739222E+04  0.50400001928E-02 0. -1.
</event>
<event>
 5   0  0.4310348E-04  0.1391124E+04  0.7818609E-02  0.8960269E-01
       -2   -1    0    0    0  501  0.00000000000E+00  0.00000000000E+00  0.37458466337E+03  0.37458466338E+03  0.25500000920E-02 0.  1.
        2   -1    0    0  501    0  0.00000000000E+00  0.00000000000E+00 -0.12915809174E+04  0.12915809174E+04  0.25500000920E-02 0. -1.
    10030    2    1    2    0    0  0.00000000000E+00  0.00000000000E+00 -0.91699625403E+03  0.16661655808E+04  0.13911238668E+04 0.  0.
        1    1    3    3  502    0  0.65531535502E+03  0.62853468926E+02 -0.72743080141E+03  0.98109344302E+03  0.50400001928E-02 0. -1.
       -1    1    3    3    0  502 -0.65531535502E+03 -0.62853468926E+02 -0.18956545263E+03  0.68507213776E+03  0.50400001928E-02 0.  1.
</event>
<event>
 5   0  0.2143942E-04  0.1400478E+04  0.7818609E-02  0.8953473E-01
       -1   -1    0    0    0  501  0.00000000000E+00  0.00000000000E+00  0.30569302646E+03  0.30569302650E+03  0.50400001928E-02 0.  1.
        1   -1    0    0  501    0  0.00000000000E+00  0.00000000000E+00 -0.16040100739E+04  0.16040100739E+04  0.50400001928E-02 0. -1.
    10030    2    1    2    0    0  0.00000000000E+00  0.00000000000E+00 -0.12983170474E+04  0.19097031004E+04  0.14004780527E+04 0.  0.
        4    1    3    3  502    0 -0.38675638095E+03 -0.46359583823E+03 -0.11328675606E+04  0.12837025053E+04  0.12699999809E+01 0.  1.
       -4    1    3    3    0  502  0.38675638095E+03  0.46359583823E+03 -0.16544948682E+03  0.62600059506E+03  0.12699999809E+01 0. -1.
</event>
<event>
 5   0  0.3932568E-04  0.1405720E+04  0.7818609E-02  0.8949688E-01
       -2   -1    0    0    0  501  0.00000000000E+00  0.00000000000E+00  0.38256854310E+03  0.38256854311E+03  0.25500000920E-02 0.  1.
        2   -1    0    0  501    0  0.00000000000E+00  0.00000000000E+00 -0.12913039756E+04  0.12913039756E+04  0.25500000920E-02 0. -1.
    10030    2    1    2    0    0  0.00000000000E+00  0.00000000000E+00 -0.90873543250E+03  0.16738725187E+04  0.14057201438E+04 0.  0.
        2    1    3    3  502    0 -0.49606863946E+03  0.37534342915E+02 -0.10455875918E+04  0.11579060126E+04  0.25500000920E-02 0. -1.
       -2    1    3    3    0  502  0.49606863946E+03 -0.37534342915E+02  0.13685215925E+03  0.51596650613E+03  0.25500000920E-02 0.  1.
</event>
<event>
 5   0  0.1497625E-04  0.1397507E+04  0.7818609E-02  0.8955625E-01
       -3   -1    0    0    0  501  0.00000000000E+00  0.00000000000E+00  0.74813287540E+03  0.74813288222E+03  0.10100000352E+00 0.  1.
        3   -1    0    0  501    0  0.00000000000E+00  0.00000000000E+00 -0.65263307374E+03  0.65263308156E+03  0.10100000352E+00 0. -1.
    10030    2    1    2    0    0  0.00000000000E+00  0.00000000000E+00  0.95499801660E+02  0.14007659638E+04  0.13975067346E+04 0.  0.
        3    1    3    3  502    0  0.36907375235E+03 -0.54408656592E+03 -0.18946769961E+03  0.68421023471E+03  0.10100000352E+00 0. -1.
       -3    1    3    3    0  502 -0.36907375235E+03  0.54408656592E+03  0.28496750127E+03  0.71655572907E+03  0.10100000352E+00 0.  1.
</event>
<event>
 5   0  0.3975164E-04  0.1410966E+04  0.7818609E-02  0.8945919E-01
        2   -1    0    0  501    0  0.00000000000E+00  0.00000000000E+00  0.12585770726E+04  0.12585770726E+04  0.25500000920E-02 0.  1.
       -2   -1    0    0    0  501  0.00000000000E+00  0.00000000000E+00 -0.39545158021E+03  0.39545158022E+03  0.25500000920E-02 0. -1.
    10030    2    1    2    0    0  0.00000000000E+00  0.00000000000E+00  0.86312549239E+03  0.16540286528E+04  0.14109660410E+04 0.  0.
        5    1    3    3  502    0  0.48863560895E+03  0.11593631762E+03  0.10123712212E+04  0.11300989193E+04  0.46999998093E+01 0.  1.
       -5    1    3    3    0  502 -0.48863560895E+03 -0.11593631762E+03 -0.14924572877E+03  0.52392973348E+03  0.46999998093E+01 0. -1.
</event>
<event>
 5   0  0.3975164E-04  0.1398905E+04  0.7818609E-02  0.8954612E-01
       -2   -1    0    0    0  501  0.00000000000E+00  0.00000000000E+00  0.42836093069E+03  0.42836093070E+03  0.25500000920E-02 0. -1.
        2   -1    0    0  501    0  0.00000000000E+00  0.00000000000E+00 -0.11421058516E+04  0.11421058516E+04  0.25500000920E-02 0.  1.
    10030    2    1    2    0    0  0.00000000000E+00  0.00000000000E+00 -0.71374492093E+03  0.15704667823E+04  0.13989046080E+04 0.  0.
        5    1    3    3  502    0 -0.48124508914E+03  0.28989554849E+03 -0.82459085970E+03  0.99780180435E+03  0.46999998093E+01 0.  1.
       -5    1    3    3    0  502  0.48124508914E+03 -0.28989554849E+03  0.11084593877E+03  0.57266497797E+03  0.46999998093E+01 0. -1.
</event>
<event>
 5   0  0.2223112E-04  0.1404712E+04  0.7818609E-02  0.8950415E-01
       -1   -1    0    0    0  501  0.00000000000E+00  0.00000000000E+00  0.49789110673E+03  0.49789110676E+03  0.50400001928E-02 0. -1.
        1   -1    0    0  501    0  0.00000000000E+00  0.00000000000E+00 -0.99078690426E+03  0.99078690427E+03  0.50400001928E-02 0.  1.
    10030    2    1    2    0    0  0.00000000000E+00  0.00000000000E+00 -0.49289579753E+03  0.14886780110E+04  0.14047120535E+04 0.  0.
        1    1    3    3  502    0  0.52968952739E+03  0.11437517063E+03  0.22708433819E+03  0.58755422878E+03  0.50400001928E-02 0. -1.
       -1    1    3    3    0  502 -0.52968952739E+03 -0.11437517063E+03 -0.71998013571E+03  0.90112378225E+03  0.50400001928E-02 0.  1.
</event>
<event>
 5   0  0.2143942E-04  0.1383159E+04  0.7818609E-02  0.8966100E-01
       -1   -1    0    0    0  501  0.00000000000E+00  0.00000000000E+00  0.28186817539E+03  0.28186817544E+03  0.50400001928E-02 0.  1.
        1   -1    0    0  501    0  0.00000000000E+00  0.00000000000E+00 -0.16968299167E+04  0.16968299167E+04  0.50400001928E-02 0. -1.
    10030    2    1    2    0    0  0.00000000000E+00  0.00000000000E+00 -0.14149617413E+04  0.19786980921E+04  0.13831592137E+04 0.  0.
        4    1    3    3  502    0 -0.47901448954E+03 -0.25966143383E+03 -0.13167766293E+04  0.14250548220E+04  0.12699999809E+01 0. -1.
       -4    1    3    3    0  502  0.47901448954E+03  0.25966143383E+03 -0.98185111984E+02  0.55364327010E+03  0.12699999809E+01 0.  1.
</event>
<event>
 5   0  0.3917598E-04  0.1398201E+04  0.7818609E-02  0.8955122E-01
        2   -1    0    0  501    0  0.00000000000E+00  0.00000000000E+00  0.15571503498E+04  0.15571503498E+04  0.25500000920E-02 0. -1.
       -2   -1    0    0    0  501  0.00000000000E+00  0.00000000000E+00 -0.31386912844E+03  0.31386912845E+03  0.25500000920E-02 0.  1.
    10030    2    1    2    0    0  0.00000000000E+00  0.00000000000E+00  0.12432812214E+04  0.18710194783E+04  0.13982008771E+04 0.  0.
        3    1    3    3  502    0  0.37755867828E+03 -0.44362340243E+01  0.14089658812E+04  0.14586826592E+04  0.10100000352E+00 0. -1.
       -3    1    3    3    0  502 -0.37755867828E+03  0.44362340243E+01 -0.16568465976E+03  0.41233681911E+03  0.10100000352E+00 0.  1.
</event>
<event>
 5   0  0.4310348E-04  0.1399484E+04  0.7818609E-02  0.8954192E-01
       -2   -1    0    0    0  501  0.00000000000E+00  0.00000000000E+00  0.46939308231E+03  0.46939308232E+03  0.25500000920E-02 0.  1.
        2   -1    0    0  501    0  0.00000000000E+00  0.00000000000E+00 -0.10431314201E+04  0.10431314201E+04  0.25500000920E-02 0. -1.
    10030    2    1    2    0    0  0.00000000000E+00  0.00000000000E+00 -0.57373833779E+03  0.15125245024E+04  0.13994837227E+04 0.  0.
        1    1    3    3  502    0 -0.55201025391E+03  0.25814450172E+03  0.84836324054E+02  0.61526506979E+03  0.50400001928E-02 0.  1.
       -1    1    3    3    0  502  0.55201025391E+03 -0.25814450172E+03 -0.65857466184E+03  0.89725943263E+03  0.50400001928E-02 0. -1.
</event>
<event>
 5   0  0.3975164E-04  0.1396715E+04  0.7818609E-02  0.8956200E-01
       -2   -1    0    0    0  501  0.00000000000E+00  0.00000000000E+00  0.21700823750E+03  0.21700823752E+03  0.25500000920E-02 0. -1.
        2   -1    0    0  501    0  0.00000000000E+00  0.00000000000E+00 -0.22473952789E+04  0.22473952789E+04  0.25500000920E-02 0.  1.
    10030    2    1    2    0    0  0.00000000000E+00  0.00000000000E+00 -0.20303870414E+04  0.24644035165E+04  0.13967151298E+04 0.  0.
        5    1    3    3  502    0 -0.72914584365E+02 -0.27784739145E+03  0.10791107715E+03  0.30689183782E+03  0.46999998093E+01 0. -1.
       -5    1    3    3    0  502  0.72914584365E+02  0.27784739145E+03 -0.21382981186E+04  0.21575116786E+04  0.46999998093E+01 0.  1.
</event>
<event>
 5   0  0.2155352E-04  0.1400081E+04  0.7818609E-02  0.8953760E-01
       -1   -1    0    0    0  501  0.00000000000E+00  0.00000000000E+00  0.12154233251E+04  0.12154233251E+04  0.50400001928E-02 0. -1.
        1   -1    0    0  501    0  0.00000000000E+00  0.00000000000E+00 -0.40319819672E+03  0.40319819676E+03  0.50400001928E-02 0.  1.
    10030    2    1    2    0    0  0.00000000000E+00  0.00000000000E+00  0.81222512840E+03  0.16186215219E+04  0.14000807019E+04 0.  0.
        2    1    3    3  502    0  0.49691877080E+00 -0.67053926710E+03  0.17364517637E+03  0.69265850384E+03  0.25500000920E-02 0.  1.
       -2    1    3    3    0  502 -0.49691877080E+00  0.67053926710E+03  0.63857995203E+03  0.92596301805E+03  0.25500000920E-02 0. -1.
</event>
<event>
 5   0  0.3917598E-04  0.1301138E+04  0.7818609E-02  0.9028663E-01
        2   -1    0    0  501    0  0.00000000000E+00  0.00000000000E+00  0.92474072794E+03  0.92474072794E+03  0.25500000920E-02 0. -1.
       -2   -1    0    0    0  501  0.00000000000E+00  0.00000000000E+00 -0.45768482774E+03  0.45768482775E+03  0.25500000920E-02 0.  1.
    10030    2    1    2    0    0  0.00000000000E+00  0.00000000000E+00  0.46705590020E+03  0.13824255557E+04  0.13011376573E+04 0.  0.
        3    1    3    3  502    0  0.48830298605E+03  0.70611767264E+02  0.68406469125E+03  0.84342773246E+03  0.10100000352E+00 0. -1.
       -3    1    3    3    0  502 -0.48830298605E+03 -0.70611767264E+02 -0.21700879105E+03  0.53899782324E+03  0.10100000352E+00 0.  1.
</event>
<event>
 5   0  0.4208622E-04  0.1408596E+04  0.7818609E-02  0.8947620E-01
        2   -1    0    0  501    0  0.00000000000E+00  0.00000000000E+00  0.11102159974E+04  0.11102159974E+04  0.25500000920E-02 0.  1.
       -2   -1    0    0    0  501  0.00000000000E+00  0.00000000000E+00 -0.44679213585E+03  0.44679213585E+03  0.25500000920E-02 0. -1.
    10030    2    1    2    0    0  0.00000000000E+00  0.00000000000E+00  0.66342386160E+03  0.15570081333E+04  0.14085961476E+04 0.  0.
        4    1    3    3  502    0 -0.48584262473E+03 -0.38788587174E+03 -0.34120452471E+02  0.62262695386E+03  0.12699999809E+01 0. -1.
       -4    1    3    3    0  502  0.48584262473E+03  0.38788587174E+03  0.69754431407E+03  0.93438117944E+03  0.12699999809E+01 0.  1.
</event>
<event>
 5   0  0.1497625E-04  0.1404803E+04  0.7818609E-02  0.8950349E-01
       -3   -1    0    0    0  501  0.00000000000E+00  0.00000000000E+00  0.64603656158E+03  0.64603656947E+03  0.10100000352E+00 0. -1.
        3   -1    0    0  501    0  0.00000000000E+00  0.00000000000E+00 -0.76368386623E+03  0.76368387291E+03  0.10100000352E+00 0.  1.
    10030    2    1    2    0    0  0.00000000000E+00  0.00000000000E+00 -0.11764730465E+03  0.14097204424E+04  0.14048027753E+04 0.  0.
        4    1    3    3  502    0  0.14466096484E+03  0.33451888676E+03  0.54372512513E+03  0.65457490400E+03  0.12699999809E+01 0. -1.
       -4    1    3    3    0  502 -0.14466096484E+03 -0.33451888676E+03 -0.66137242978E+03  0.75514553838E+03  0.12699999809E+01 0.  1.
</event>
<event>
 5   0  0.3917598E-04  0.1401768E+04  0.7818609E-02  0.8952540E-01
       -2   -1    0    0    0  501  0.00000000000E+00  0.00000000000E+00  0.17484709206E+04  0.17484709206E+04  0.25500000920E-02 0.  1.
        2   -1    0    0  501    0  0.00000000000E+00  0.00000000000E+00 -0.28095327611E+03  0.28095327613E+03  0.25500000920E-02 0. -1.
    10030    2    1    2    0    0  0.00000000000E+00  0.00000000000E+00  0.14675176445E+04  0.20294241967E+04  0.14017683594E+04 0.  0.
        3    1    3    3  502    0 -0.16819932722E+03  0.67204864152E+03  0.88764579016E+03  0.11259908744E+04  0.10100000352E+00 0.  1.
       -3    1    3    3    0  502  0.16819932722E+03 -0.67204864152E+03  0.57987185431E+03  0.90343332232E+03  0.10100000352E+00 0. -1.
</event>
<event>
 5   0  0.4208622E-04  0.1403009E+04  0.7818609E-02  0.8951644E-01
        2   -1    0    0  501    0  0.00000000000E+00  0.00000000000E+00  0.11043428993E+04  0.11043428993E+04  0.25500000920E-02 0. -1.
       -2   -1    0    0    0  501  0.00000000000E+00  0.00000000000E+00 -0.44561195068E+03  0.44561195069E+03  0.25500000920E-02 0.  1.
    10030    2    1    2    0    0  0.00000000000E+00  0.00000000000E+00  0.65873094861E+03  0.15499548500E+04  0.14030087577E+04 0.  0.
        4    1    3    3  502    0 -0.43767687856E+03  0.54023072219E+03  0.22634326650E+03  0.73119297754E+03  0.12699999809E+01 0.  1.
       -4    1    3    3    0  502  0.43767687856E+03 -0.54023072219E+03  0.43238768211E+03  0.81876187244E+03  0.12699999809E+01 0. -1.
</event>
<event>
 5   0  0.4310348E-04  0.1403003E+04  0.7818609E-02  0.8951648E-01
        2   -1    0    0  501    0  0.00000000000E+00  0.00000000000E+00  0.61518713040E+03  0.61518713041E+03  0.25500000920E-02 0.  1.
       -2   -1    0    0    0  501  0.00000000000E+00  0.00000000000E+00 -0.79992634308E+03  0.79992634309E+03  0.25500000920E-02 0. -1.
    10030    2    1    2    0    0  0.00000000000E+00  0.00000000000E+00 -0.18473921268E+03  0.14151134735E+04  0.14030030528E+04 0.  0.
        1    1    3    3  502    0  0.21358868638E+03  0.23463273196E+03 -0.72341510365E+03  0.78993800901E+03  0.50400001928E-02 0. -1.
       -1    1    3    3    0  502 -0.21358868638E+03 -0.23463273196E+03  0.53867589097E+03  0.62517546449E+03  0.50400001928E-02 0.  1.
</event>
<event>
 5   0  0.2143942E-04  0.1403215E+04  0.7818609E-02  0.8951495E-01
        1   -1    0    0  501    0  0.00000000000E+00  0.00000000000E+00  0.32555996102E+03  0.32555996106E+03  0.50400001928E-02 0. -1.
       -1   -1    0    0    0  501  0.00000000000E+00  0.00000000000E+00 -0.15120198784E+04  0.15120198784E+04  0.50400001928E-02 0.  1.
    10030    2    1    2    0    0  0.00000000000E+00  0.00000000000E+00 -0.11864599173E+04  0.18375798394E+04  0.14032150694E+04 0.  0.
        4    1    3    3  502    0  0.18387407056E+03 -0.47374193948E+03  0.40259767844E+02  0.50976814421E+03  0.12699999809E+01 0. -1.
       -4    1    3    3    0  502 -0.18387407056E+03  0.47374193948E+03 -0.12267196852E+04  0.13278116952E+04  0.12699999809E+01 0.  1.
</event>
<event>
 5   0  0.3917598E-04  0.1369228E+04  0.7818609E-02  0.8976399E-01
       -2   -1    0    0    0  501  0.00000000000E+00  0.00000000000E+00  0.20978049000E+03  0.20978049001E+03  0.25500000920E-02 0. -1.
        2   -1    0    0  501    0  0.00000000000E+00  0.00000000000E+00 -0.22342235575E+04  0.22342235575E+04  0.25500000920E-02 0.  1.
    10030    2    1    2    0    0  0.00000000000E+00  0.00000000000E+00 -0.20244430676E+04  0.24440040476E+04  0.13692282683E+04 0.  0.
        3    1    3    3  502    0  0.25527107657E+03  0.53141839125E+03 -0.39099821163E+03  0.70742380564E+03  0.10100000352E+00 0. -1.
       -3    1    3    3    0  502 -0.25527107657E+03 -0.53141839125E+03 -0.16334448559E+04  0.17365802419E+04  0.10100000352E+00 0.  1.
</event>
<event>
 5   0  0.3975164E-04  0.1418022E+04  0.7818609E-02  0.8940875E-01
       -2   -1    0    0    0  501  0.00000000000E+00  0.00000000000E+00  0.19282417161E+03  0.19282417163E+03  0.25500000920E-02 0. -1.
        2   -1    0    0  501    0  0.00000000000E+00  0.00000000000E+00 -0.26070224777E+04  0.26070224777E+04  0.25500000920E-02 0.  1.
    10030    2    1    2    0    0  0.00000000000E+00  0.00000000000E+00 -0.24141983061E+04  0.27998466493E+04  0.14180224958E+04 0.  0.
        5    1    3    3  502    0 -0.11246280272E+03 -0.64978828725E+03 -0.69296922249E+03  0.95660918538E+03  0.46999998093E+01 0. -1.
       -5    1    3    3    0  502  0.11246280272E+03  0.64978828725E+03 -0.17212290836E+04  0.18432374640E+04  0.46999998093E+01 0.  1.
</event>
<event>
 5   0  0.2215876E-04  0.1373795E+04  0.7818609E-02  0.8973009E-01
       -1   -1    0    0    0  501  0.00000000000E+00  0.00000000000E+00  0.36243578425E+03  0.36243578428E+03  0.50400001928E-02 0. -1.
        1   -1    0    0  501    0  0.00000000000E+00  0.00000000000E+00 -0.13018246423E+04  0.13018246423E+04  0.50400001928E-02 0.  1.
    10030    2    1    2    0    0  0.00000000000E+00  0.00000000000E+00 -0.93938885808E+03  0.16642604266E+04  0.13737945046E+04 0.  0.
        3    1    3    3  502    0 -0.26666241684E+03 -0.13743816897E+03 -0.12182678140E+04  0.12546611382E+04  0.10100000352E+00 0.  1.
       -3    1    3    3    0  502  0.26666241684E+03  0.13743816897E+03  0.27887895591E+03  0.40959928844E+03  0.10100000352E+00 0. -1.
</event>
<event>
 5   0  0.2143942E-04  0.1399192E+04  0.7818609E-02  0.8954404E-01
        1   -1    0    0  501    0  0.00000000000E+00  0.00000000000E+00  0.51272238531E+03  0.51272238533E+03  0.50400001928E-02 0.  1.
       -1   -1    0    0    0  501  0.00000000000E+00  0.00000000000E+00 -0.95457971229E+03  0.95457971230E+03  0.50400001928E-02 0. -1.
    10030    2    1    2    0    0  0.00000000000E+00  0.00000000000E+00 -0.44185732698E+03  0.14673020976E+04  0.13991917482E+04 0.  0.
        4    1    3    3  502    0  0.20572754944E+03 -0.20841189489E+03  0.44535227148E+03  0.53300994470E+03  0.12699999809E+01 0.  1.
       -4    1    3    3    0  502 -0.20572754944E+03  0.20841189489E+03 -0.88720959847E+03  0.93429215294E+03  0.12699999809E+01 0. -1.
</event>
<event>
 5   0  0.4208622E-04  0.1399438E+04  0.7818609E-02  0.8954225E-01
        2   -1    0    0  501    0  0.00000000000E+00  0.00000000000E+00  0.10048864447E+04  0.10048864447E+04  0.25500000920E-02 0. -1.
       -2   -1    0    0    0  501  0.00000000000E+00  0.00000000000E+00 -0.48722583577E+03  0.48722583578E+03  0.25500000920E-02 0.  1.
    10030    2    1    2    0    0  0.00000000000E+00  0.00000000000E+00  0.51766060892E+03  0.14921122805E+04  0.13994379413E+04 0.  0.
        4    1    3    3  502    0  0.66827975982E+03 -0.59920736335E+02  0.47146343847E+02  0.67261632650E+03  0.12699999809E+01 0.  1.
       -4    1    3    3    0  502 -0.66827975982E+03  0.59920736335E+02  0.47051426507E+03  0.81949595397E+03  0.12699999809E+01 0. -1.
</event>
<event>
 5   0  0.2215876E-04  0.1402939E+04  0.7818609E-02  0.8951694E-01
       -1   -1    0    0    0  501  0.00000000000E+00  0.00000000000E+00  0.58294932535E+03  0.58294932537E+03  0.50400001928E-02 0. -1.
        1   -1    0    0  501    0  0.00000000000E+00  0.00000000000E+00 -0.84408657402E+03  0.84408657404E+03  0.50400001928E-02 0.  1.
    10030    2    1    2    0    0  0.00000000000E+00  0.00000000000E+00 -0.26113724868E+03  0.14270358994E+04  0.14029393414E+04 0.  0.
        3    1    3    3  502    0 -0.40186883174E+02  0.55811383492E+03 -0.56086361041E+03  0.79225882008E+03  0.10100000352E+00 0.  1.
       -3    1    3    3    0  502  0.40186883174E+02 -0.55811383492E+03  0.29972636174E+03  0.63477707932E+03  0.10100000352E+00 0. -1.
</event>
<event>
 5   0  0.3975164E-04  0.1401514E+04  0.7818609E-02  0.8952724E-01
       -2   -1    0    0    0  501  0.00000000000E+00  0.00000000000E+00  0.31497942398E+03  0.31497942399E+03  0.25500000920E-02 0.  1.
        2   -1    0    0  501    0  0.00000000000E+00  0.00000000000E+00 -0.15590226213E+04  0.15590226213E+04  0.25500000920E-02 0. -1.
    10030    2    1    2    0    0  0.00000000000E+00  0.00000000000E+00 -0.12440431973E+04  0.18740020453E+04  0.14015135350E+04 0.  0.
        5    1    3    3  502    0  0.30986111325E+03  0.36056000068E+03  0.66333488463E+02  0.48004129540E+03  0.46999998093E+01 0.  1.
       -5    1    3    3    0  502 -0.30986111325E+03 -0.36056000068E+03 -0.13103766858E+04  0.13939607499E+04  0.46999998093E+01 0. -1.
</event>
<event>
 5   0  0.3932568E-04  0.1392028E+04  0.7818609E-02  0.8959609E-01
       -2   -1    0    0    0  501  0.00000000000E+00  0.00000000000E+00  0.84504981827E+03  0.84504981827E+03  0.25500000920E-02 0. -1.
        2   -1    0    0  501    0  0.00000000000E+00  0.00000000000E+00 -0.57326270277E+03  0.57326270278E+03  0.25500000920E-02 0.  1.
    10030    2    1    2    0    0  0.00000000000E+00  0.00000000000E+00  0.27178711550E+03  0.14183125211E+04  0.13920280785E+04 0.  0.
        2    1    3    3  502    0  0.46392771351E+03 -0.38219408303E+03 -0.22163724867E+03  0.64064366888E+03  0.25500000920E-02 0.  1.
       -2    1    3    3    0  502 -0.46392771351E+03  0.38219408303E+03  0.49342436417E+03  0.77766885217E+03  0.25500000920E-02 0. -1.
</event>
<event>
 5   0  0.3975164E-04  0.1391948E+04  0.7818609E-02  0.8959668E-01
       -2   -1    0    0    0  501  0.00000000000E+00  0.00000000000E+00  0.42581928483E+03  0.42581928484E+03  0.25500000920E-02 0. -1.
        2   -1    0    0  501    0  0.00000000000E+00  0.00000000000E+00 -0.11375244672E+04  0.11375244672E+04  0.25500000920E-02 0.  1.
    10030    2    1    2    0    0  0.00000000000E+00  0.00000000000E+00 -0.71170518241E+03  0.15633437521E+04  0.13919480667E+04 0.  0.
        5    1    3    3  502    0 -0.17051408542E+03  0.57022108148E+03 -0.76100760382E+03  0.96611686568E+03  0.46999998093E+01 0.  1.
       -5    1    3    3    0  502  0.17051408542E+03 -0.57022108148E+03  0.49302421401E+02  0.59722688640E+03  0.46999998093E+01 0. -1.
</event>
<event>
 5   0  0.2217251E-04  0.1395954E+04  0.7818609E-02  0.8956753E-01
        1   -1    0    0  501    0  0.00000000000E+00  0.00000000000E+00  0.69697206306E+03  0.69697206307E+03  0.50400001928E-02 0.  1.
       -1   -1    0    0    0  501  0.00000000000E+00  0.00000000000E+00 -0.69898317256E+03  0.69898317258E+03  0.50400001928E-02 0. -1.
    10030    2    1    2    0    0  0.00000000000E+00  0.00000000000E+00 -0.20111095024E+01  0.13959552357E+04  0.13959537870E+04 0.  0.
        5    1    3    3  502    0  0.36197500752E+03 -0.11845187030E+03  0.58388213722E+03  0.69713498823E+03  0.46999998093E+01 0. -1.
       -5    1    3    3    0  502 -0.36197500752E+03  0.11845187030E+03 -0.58589324672E+03  0.69882024742E+03  0.46999998093E+01 0.  1.
</event>
<event>
 5   0  0.2143942E-04  0.1448576E+04  0.7818609E-02  0.8919388E-01
        1   -1    0    0  501    0  0.00000000000E+00  0.00000000000E+00  0.71413950839E+03  0.71413950841E+03  0.50400001928E-02 0. -1.
       -1   -1    0    0    0  501  0.00000000000E+00  0.00000000000E+00 -0.73458058201E+03  0.73458058203E+03  0.50400001928E-02 0.  1.
    10030    2    1    2    0    0  0.00000000000E+00  0.00000000000E+00 -0.20441073622E+02  0.14487200904E+04  0.14485758741E+04 0.  0.
        4    1    3    3  502    0 -0.41679984429E+03  0.41329755255E+03 -0.43459098696E+03  0.73034780481E+03  0.12699999809E+01 0.  1.
       -4    1    3    3    0  502  0.41679984429E+03 -0.41329755255E+03  0.41414991334E+03  0.71837228563E+03  0.12699999809E+01 0. -1.
</event>
<event>
 5   0  0.3917598E-04  0.1395779E+04  0.7818609E-02  0.8956880E-01
        2   -1    0    0  501    0  0.00000000000E+00  0.00000000000E+00  0.81077071723E+03  0.81077071724E+03  0.25500000920E-02 0. -1.
       -2   -1    0    0    0  501  0.00000000000E+00  0.00000000000E+00 -0.60072407935E+03  0.60072407935E+03  0.25500000920E-02 0.  1.
    10030    2    1    2    0    0  0.00000000000E+00  0.00000000000E+00  0.21004663789E+03  0.14114947966E+04  0.13957786253E+04 0.  0.
        3    1    3    3  502    0 -0.27158986786E+03  0.61480350385E+03  0.29503544820E+03  0.73402338557E+03  0.10100000352E+00 0. -1.
       -3    1    3    3    0  502  0.27158986786E+03 -0.61480350385E+03 -0.84988810317E+02  0.67747141102E+03  0.10100000352E+00 0.  1.
</event>
<event>
 5   0  0.2155352E-04  0.1399254E+04  0.7818609E-02  0.8954359E-01
        1   -1    0    0  501    0  0.00000000000E+00  0.00000000000E+00  0.53772775633E+03  0.53772775636E+03  0.50400001928E-02 0. -1.
       -1   -1    0    0    0  501  0.00000000000E+00  0.00000000000E+00 -0.91027103872E+03  0.91027103873E+03  0.50400001928E-02 0.  1.
    10030    2    1    2    0    0  0.00000000000E+00  0.00000000000E+00 -0.37254328239E+03  0.14479987951E+04  0.13992540918E+04 0.  0.
        2    1    3    3  502    0  0.41759841542E+03 -0.48829142682E+03  0.10025103207E+03  0.65028241826E+03  0.25500000920E-02 0.  1.
       -2    1    3    3    0  502 -0.41759841542E+03  0.48829142682E+03 -0.47279431446E+03  0.79771637683E+03  0.25500000920E-02 0. -1.
</event>
<event>
 5   0  0.4208622E-04  0.1398681E+04  0.7818609E-02  0.8954774E-01
        2   -1    0    0  501    0  0.00000000000E+00  0.00000000000E+00  0.12145503371E+04  0.12145503371E+04  0.25500000920E-02 0. -1.
       -2   -1    0    0    0  501  0.00000000000E+00  0.00000000000E+00 -0.40268172557E+03  0.40268172558E+03  0.25500000920E-02 0.  1.
    10030    2    1    2    0    0  0.00000000000E+00  0.00000000000E+00  0.81186861152E+03  0.16172320627E+04  0.13986811295E+04 0.  0.
        4    1    3    3  502    0 -0.10028656901E+03 -0.66697415093E+03  0.61964982928E+03  0.91590361816E+03  0.12699999809E+01 0. -1.
       -4    1    3    3    0  502  0.10028656901E+03  0.66697415093E+03  0.19221878224E+03  0.70132844451E+03  0.12699999809E+01 0.  1.
</event>
<event>
 5   0  0.2143942E-04  0.1400199E+04  0.7818609E-02  0.8953675E-01
       -1   -1    0    0    0  501  0.00000000000E+00  0.00000000000E+00  0.45112606552E+03  0.45112606555E+03  0.50400001928E-02 0.  1.
        1   -1    0    0  501    0  0.00000000000E+00  0.00000000000E+00 -0.10864793252E+04  0.10864793252E+04  0.50400001928E-02 0. -1.
    10030    2    1    2    0    0  0.00000000000E+00  0.00000000000E+00 -0.63535325969E+03  0.15376053908E+04  0.14001987620E+04 0.  0.
        4    1    3    3  502    0 -0.32915225509E+03  0.26662349177E+03 -0.92978960710E+03  0.10217336344E+04  0.12699999809E+01 0. -1.
       -4    1    3    3    0  502  0.32915225509E+03 -0.26662349177E+03  0.29443634740E+03  0.51587175632E+03  0.12699999809E+01 0.  1.
</event>
<event>
 5   0  0.2223112E-04  0.1402852E+04  0.7818609E-02  0.8951756E-01
       -1   -1    0    0    0  501  0.00000000000E+00  0.00000000000E+00  0.31692451427E+03  0.31692451431E+03  0.50400001928E-02 0.  1.
        1   -1    0    0  501    0  0.00000000000E+00  0.00000000000E+00 -0.15524158742E+04  0.15524158742E+04  0.50400001928E-02 0. -1.
    10030    2    1    2    0    0  0.00000000000E+00  0.00000000000E+00 -0.12354913600E+04  0.18693403886E+04  0.14028523043E+04 0.  0.
        1    1    3    3  502    0 -0.10145926061E+03  0.43283232467E+03  0.10521796566E+03  0.45684638902E+03  0.50400001928E-02 0.  1.
       -1    1    3    3    0  502  0.10145926061E+03 -0.43283232467E+03 -0.13407093256E+04  0.14124939995E+04  0.50400001928E-02 0. -1.
</event>
<event>
 5   0  0.2217251E-04  0.1397761E+04  0.7818609E-02  0.8955441E-01
        1   -1    0    0  501    0  0.00000000000E+00  0.00000000000E+00  0.13401461595E+04  0.13401461595E+04  0.50400001928E-02 0. -1.
       -1   -1    0    0    0  501  0.00000000000E+00  0.00000000000E+00 -0.36446335000E+03  0.36446335003E+03  0.50400001928E-02 0.  1.
    10030    2    1    2    0    0  0.00000000000E+00  0.00000000000E+00  0.97568280950E+03  0.17046095095E+04  0.13977612941E+04 0.  0.
        5    1    3    3  502    0  0.28061304995E+03  0.56157223447E+03  0.86234783652E+03  0.10666643987E+04  0.46999998093E+01 0. -1.
       -5    1    3    3    0  502 -0.28061304995E+03 -0.56157223447E+03  0.11333497298E+03  0.63794511083E+03  0.46999998093E+01 0.  1.
</event>
<event>
 5   0  0.2215876E-04  0.1423065E+04  0.7818609E-02  0.8937290E-01
       -1   -1    0    0    0  501  0.00000000000E+00  0.00000000000E+00  0.95359841596E+03  0.95359841597E+03  0.50400001928E-02 0.  1.
        1   -1    0    0  501    0  0.00000000000E+00  0.00000000000E+00 -0.53091407400E+03  0.53091407403E+03  0.50400001928E-02 0. -1.
    10030    2    1    2    0    0  0.00000000000E+00  0.00000000000E+00  0.42268434196E+03  0.14845124900E+04  0.14230654518E+04 0.  0.
        3    1    3    3  502    0 -0.25161931491E+03 -0.51258981732E+03  0.65419387055E+03  0.86834914114E+03  0.10100000352E+00 0.  1.
       -3    1    3    3    0  502  0.25161931491E+03  0.51258981732E+03 -0.23150952859E+03  0.61616334886E+03  0.10100000352E+00 0. -1.
</event>
<event>
 5   0  0.3932568E-04  0.1393422E+04  0.7818609E-02  0.8958593E-01
        2   -1    0    0  501    0  0.00000000000E+00  0.00000000000E+00  0.73424754387E+03  0.73424754388E+03  0.25500000920E-02 0. -1.
       -2   -1    0    0    0  501  0.00000000000E+00  0.00000000000E+00 -0.66109386582E+03  0.66109386583E+03  0.25500000920E-02 0.  1.
    10030    2    1    2    0    0  0.00000000000E+00  0.00000000000E+00  0.73153678051E+02  0.13953414097E+04  0.13934224733E+04 0.  0.
        2    1    3    3  502    0 -0.27410877947E+03  0.16506936654E+03 -0.58316399940E+03  0.66517950130E+03  0.25500000920E-02 0.  1.
       -2    1    3    3    0  502  0.27410877947E+03 -0.16506936654E+03  0.65631767745E+03  0.73016190841E+03  0.25500000920E-02 0. -1.
</event>
<event>
 5   0  0.2143942E-04  0.1421359E+04  0.7818609E-02  0.8938502E-01
       -1   -1    0    0    0  501  0.00000000000E+00  0.00000000000E+00  0.12207444306E+04  0.12207444306E+04  0.50400001928E-02 0. -1.
        1   -1    0    0  501    0  0.00000000000E+00  0.00000000000E+00 -0.41373528203E+03  0.41373528206E+03  0.50400001928E-02 0.  1.
    10030    2    1    2    0    0  0.00000000000E+00  0.00000000000E+00  0.80700914852E+03  0.16344797126E+04  0.14213585632E+04 0.  0.
        4    1    3    3  502    0  0.82954238685E+02 -0.31202753936E+02 -0.40735400742E+03  0.41688597701E+03  0.12699999809E+01 0.  1.
       -4    1    3    3    0  502 -0.82954238685E+02  0.31202753936E+02  0.12143631559E+04  0.12175937356E+04  0.12699999809E+01 0. -1.
</event>
<event>
 5   0  0.3975164E-04  0.1402184E+04  0.7818609E-02  0.8952239E-01
        2   -1    0    0  501    0  0.00000000000E+00  0.00000000000E+00  0.12757799474E+04  0.12757799474E+04  0.25500000920E-02 0.  1.
       -2   -1    0    0    0  501  0.00000000000E+00  0.00000000000E+00 -0.38527800305E+03  0.38527800306E+03  0.25500000920E-02 0. -1.
    10030    2    1    2    0    0  0.00000000000E+00  0.00000000000E+00  0.89050194433E+03  0.16610579504E+04  0.14021839401E+04 0.  0.
        5    1    3    3  502    0 -0.66768897433E+03  0.57932169102E+02  0.68901601022E+03  0.96121270018E+03  0.46999998093E+01 0.  1.
       -5    1    3    3    0  502  0.66768897433E+03 -0.57932169102E+02  0.20148593412E+03  0.69984525026E+03  0.46999998093E+01 0. -1.
</event>
<event>
 5   0  0.4208622E-04  0.1359511E+04  0.7818609E-02  0.8983660E-01
       -2   -1    0    0    0  501  0.00000000000E+00  0.00000000000E+00  0.49302120384E+03  0.49302120385E+03  0.25500000920E-02 0. -1.
        2   -1    0    0  501    0  0.00000000000E+00  0.00000000000E+00 -0.93721590351E+03  0.93721590351E+03  0.25500000920E-02 0.  1.
    10030    2    1    2    0    0  0.00000000000E+00  0.00000000000E+00 -0.44419469966E+03  0.14302371074E+04  0.13595106664E+04 0.  0.
        4    1    3    3  502    0  0.45686734171E+03 -0.47526433804E+03 -0.47760394451E+02  0.66097399881E+03  0.12699999809E+01 0. -1.
       -4    1    3    3    0  502 -0.45686734171E+03  0.47526433804E+03 -0.39643430521E+03  0.76926310855E+03  0.12699999809E+01 0.  1.
</event>
<event>
 5   0  0.2223112E-04  0.1402678E+04  0.7818609E-02  0.8951883E-01
       -1   -1    0    0    0  501  0.00000000000E+00  0.00000000000E+00  0.96547694777E+03  0.96547694779E+03  0.50400001928E-02 0.  1.
        1   -1    0    0  501    0  0.00000000000E+00  0.00000000000E+00 -0.50946437834E+03  0.50946437836E+03  0.50400001928E-02 0. -1.
    10030    2    1    2    0    0  0.00000000000E+00  0.00000000000E+00  0.45601256943E+03  0.14749413262E+04  0.14026776009E+04 0.  0.
        1    1    3    3  502    0  0.47846264155E+02  0.36299366828E+03 -0.40099375327E+03  0.54300060626E+03  0.50400001928E-02 0. -1.
       -1    1    3    3    0  502 -0.47846264155E+02 -0.36299366828E+03  0.85700632271E+03  0.93194071989E+03  0.50400001928E-02 0.  1.
</event>
<event>
 5   0  0.3975164E-04  0.1400010E+04  0.7818609E-02  0.8953811E-01
        2   -1    0    0  501    0  0.00000000000E+00  0.00000000000E+00  0.17881440294E+04  0.17881440294E+04  0.25500000920E-02 0. -1.
       -2   -1    0    0    0  501  0.00000000000E+00  0.00000000000E+00 -0.27403119011E+03  0.27403119012E+03  0.25500000920E-02 0.  1.
    10030    2    1    2    0    0  0.00000000000E+00  0.00000000000E+00  0.15141128393E+04  0.20621752196E+04  0.14000103378E+04 0.  0.
        5    1    3    3  502    0  0.83499377627E+02  0.35688790651E+03  0.16354761422E+04  0.16760505439E+04  0.46999998093E+01 0. -1.
       -5    1    3    3    0  502 -0.83499377627E+02 -0.35688790651E+03 -0.12136330290E+03  0.38612467567E+03  0.46999998093E+01 0.  1.
</event>
<event>
 5   0  0.4310348E-04  0.1405093E+04  0.7818609E-02  0.8950140E-01
        2   -1    0    0  501    0  0.00000000000E+00  0.00000000000E+00  0.15617516614E+04  0.15617516614E+04  0.25500000920E-02 0. -1.
       -2   -1    0    0    0  501  0.00000000000E+00  0.00000000000E+00 -0.31603719863E+03  0.31603719864E+03  0.25500000920E-02 0.  1.
    10030    2    1    2    0    0  0.00000000000E+00  0.00000000000E+00  0.12457144627E+04  0.18777888600E+04  0.14050930503E+04 0.  0.
        1    1    3    3  502    0  0.67016834969E+03 -0.13095646415E+02  0.34165514399E+03  0.75234656264E+03  0.50400001928E-02 0. -1.
       -1    1    3    3    0  502 -0.67016834969E+03  0.13095646415E+02  0.90405931874E+03  0.11254422974E+04  0.50400001928E-02 0.  1.
</event>
<event>
 5   0  0.3917598E-04  0.1396423E+04  0.7818609E-02  0.8956412E-01
       -2   -1    0    0    0  501  0.00000000000E+00  0.00000000000E+00  0.60611919779E+03  0.60611919780E+03  0.25500000920E-02 0. -1.
        2   -1    0    0  501    0  0.00000000000E+00  0.00000000000E+00 -0.80429552231E+03  0.80429552231E+03  0.25500000920E-02 0.  1.
    10030    2    1    2    0    0  0.00000000000E+00  0.00000000000E+00 -0.19817632452E+03  0.14104147201E+04  0.13964225102E+04 0.  0.
        3    1    3    3  502    0 -0.18915384279E+03 -0.36353528247E+03 -0.67005050668E+03  0.78543285490E+03  0.10100000352E+00 0.  1.
       -3    1    3    3    0  502  0.18915384279E+03  0.36353528247E+03  0.47187418217E+03  0.62498186521E+03  0.10100000352E+00 0. -1.
</event>
<event>
 5   0  0.2223112E-04  0.1428039E+04  0.7818609E-02  0.8933769E-01
       -1   -1    0    0    0  501  0.00000000000E+00  0.00000000000E+00  0.56056837558E+03  0.56056837560E+03  0.50400001928E-02 0.  1.
        1   -1    0    0  501    0  0.00000000000E+00  0.00000000000E+00 -0.90947695636E+03  0.90947695637E+03  0.50400001928E-02 0. -1.
    10030    2    1    2    0    0  0.00000000000E+00  0.00000000000E+00 -0.34890858078E+03  0.14700453320E+04  0.14280392433E+04 0.  0.
        1    1    3    3  502    0 -0.99595744444E+02 -0.56397849750E+03  0.26450767519E+03  0.63083703776E+03  0.50400001928E-02 0.  1.
       -1    1    3    3    0  502  0.99595744444E+02  0.56397849750E+03 -0.61341625597E+03  0.83920829421E+03  0.50400001928E-02 0. -1.
</event>
<event>
 5   0  0.2155352E-04  0.1403401E+04  0.7818609E-02  0.8951360E-01
        1   -1    0    0  501    0  0.00000000000E+00  0.00000000000E+00  0.69129760579E+03  0.69129760581E+03  0.50400001928E-02 0.  1.
       -1   -1    0    0    0  501  0.00000000000E+00  0.00000000000E+00 -0.71225999184E+03  0.71225999186E+03  0.50400001928E-02 0. -1.
    10030    2    1    2    0    0  0.00000000000E+00  0.00000000000E+00 -0.20962386052E+02  0.14035575977E+04  0.14034010504E+04 0.  0.
        2    1    3    3  502    0 -0.73818864372E+02 -0.35614107062E+02 -0.70745636789E+03  0.71218824887E+03  0.25500000920E-02 0. -1.
       -2    1    3    3    0  502  0.73818864372E+02  0.35614107062E+02  0.68649398184E+03  0.69136934880E+03  0.25500000920E-02 0.  1.
</event>
<event>
 5   0  0.4310348E-04  0.1400591E+04  0.7818609E-02  0.8953391E-01
       -2   -1    0    0    0  501  0.00000000000E+00  0.00000000000E+00  0.17418889439E+03  0.17418889441E+03  0.25500000920E-02 0. -1.
        2   -1    0    0  501    0  0.00000000000E+00  0.00000000000E+00 -0.28154140812E+04  0.28154140812E+04  0.25500000920E-02 0.  1.
    10030    2    1    2    0    0  0.00000000000E+00  0.00000000000E+00 -0.26412251868E+04  0.29896029756E+04  0.14005911125E+04 0.  0.
        1    1    3    3  502    0 -0.49420698027E+03  0.43095181989E+03 -0.18454371569E+04  0.19584683583E+04  0.50400001928E-02 0.  1.
       -1    1    3    3    0  502  0.49420698027E+03 -0.43095181989E+03 -0.79578802992E+03  0.10311346173E+04  0.50400001928E-02 0. -1.
</event>
<event>
 5   0  0.3917598E-04  0.1362384E+04  0.7818609E-02  0.8981507E-01
       -2   -1    0    0    0  501  0.00000000000E+00  0.00000000000E+00  0.52297780574E+03  0.52297780575E+03  0.25500000920E-02 0. -1.
        2   -1    0    0  501    0  0.00000000000E+00  0.00000000000E+00 -0.88726946013E+03  0.88726946014E+03  0.25500000920E-02 0.  1.
    10030    2    1    2    0    0  0.00000000000E+00  0.00000000000E+00 -0.36429165439E+03  0.14102472659E+04  0.13623835515E+04 0.  0.
        3    1    3    3  502    0 -0.49866848065E+03  0.18643860527E+03 -0.62203763266E+03  0.81875541755E+03  0.10100000352E+00 0.  1.
       -3    1    3    3    0  502  0.49866848065E+03 -0.18643860527E+03  0.25774597827E+03  0.59149184833E+03  0.10100000352E+00 0. -1.
</event>
<event>
 5   0  0.2217251E-04  0.1388154E+04  0.7818609E-02  0.8962438E-01
       -1   -1    0    0    0  501  0.00000000000E+00  0.00000000000E+00  0.84063635528E+03  0.84063635529E+03  0.50400001928E-02 0. -1.
        1   -1    0    0  501    0  0.00000000000E+00  0.00000000000E+00 -0.57306914240E+03  0.57306914242E+03  0.50400001928E-02 0.  1.
    10030    2    1    2    0    0  0.00000000000E+00  0.00000000000E+00  0.26756721288E+03  0.14137054977E+04  0.13881538174E+04 0.  0.
        5    1    3    3  502    0  0.61353803324E+03  0.27312311605E+03 -0.44642658866E+02  0.67308261881E+03  0.46999998093E+01 0.  1.
       -5    1    3    3    0  502 -0.61353803324E+03 -0.27312311605E+03  0.31220987174E+03  0.74062287891E+03  0.46999998093E+01 0. -1.
</event>
<event>
 5   0  0.3917598E-04  0.1396098E+04  0.7818609E-02  0.8956648E-01
       -2   -1    0    0    0  501  0.00000000000E+00  0.00000000000E+00  0.98511003952E+03  0.98511003952E+03  0.25500000920E-02 0.  1.
        2   -1    0    0  501    0  0.00000000000E+00  0.00000000000E+00 -0.49463780077E+03  0.49463780077E+03  0.25500000920E-02 0. -1.
    10030    2    1    2    0    0  0.00000000000E+00  0.00000000000E+00  0.49047223875E+03  0.14797478403E+04  0.13960983683E+04 0.  0.
        3    1    3    3  502    0  0.61541691543E+03 -0.32919142739E+03  0.23151121843E+03  0.73532471067E+03  0.10100000352E+00 0. -1.
       -3    1    3    3    0  502 -0.61541691543E+03  0.32919142739E+03  0.25896102032E+03  0.74442312962E+03  0.10100000352E+00 0.  1.
</event>
<event>
 5   0  0.2143942E-04  0.1395411E+04  0.7818609E-02  0.8957147E-01
       -1   -1    0    0    0  501  0.00000000000E+00  0.00000000000E+00  0.45842322137E+03  0.45842322140E+03  0.50400001928E-02 0. -1.
        1   -1    0    0  501    0  0.00000000000E+00  0.00000000000E+00 -0.10618860252E+04  0.10618860252E+04  0.50400001928E-02 0.  1.
    10030    2    1    2    0    0  0.00000000000E+00  0.00000000000E+00 -0.60346280380E+03  0.15203092466E+04  0.13954113550E+04 0.  0.
        4    1    3    3  502    0 -0.50375260336E+03  0.47038958803E+02 -0.82516200657E+03  0.96792215546E+03  0.12699999809E+01 0.  1.
       -4    1    3    3    0  502  0.50375260336E+03 -0.47038958803E+02  0.22169920277E+03  0.55238709113E+03  0.12699999809E+01 0. -1.
</event>
<event>
 5   0  0.2143942E-04  0.1402285E+04  0.7818609E-02  0.8952166E-01
       -1   -1    0    0    0  501  0.00000000000E+00  0.00000000000E+00  0.21228836730E+03  0.21228836736E+03  0.50400001928E-02 0. -1.
        1   -1    0    0  501    0  0.00000000000E+00  0.00000000000E+00 -0.23157226092E+04  0.23157226092E+04  0.50400001928E-02 0.  1.
    10030    2    1    2    0    0  0.00000000000E+00  0.00000000000E+00 -0.21034342419E+04  0.25280109766E+04  0.14022852376E+04 0.  0.
        4    1    3    3  502    0  0.39276842945E+03 -0.34565048222E+03 -0.21026499275E+03  0.56387434336E+03  0.12699999809E+01 0. -1.
       -4    1    3    3    0  502 -0.39276842945E+03  0.34565048222E+03 -0.18931692492E+04  0.19641366332E+04  0.12699999809E+01 0.  1.
</event>
<event>
 5   0  0.3917598E-04  0.1398912E+04  0.7818609E-02  0.8954606E-01
        2   -1    0    0  501    0  0.00000000000E+00  0.00000000000E+00  0.66619802747E+03  0.66619802747E+03  0.25500000920E-02 0. -1.
       -2   -1    0    0    0  501  0.00000000000E+00  0.00000000000E+00 -0.73437455611E+03  0.73437455611E+03  0.25500000920E-02 0.  1.
    10030    2    1    2    0    0  0.00000000000E+00  0.00000000000E+00 -0.68176528643E+02  0.14005725836E+04  0.13989122642E+04 0.  0.
        3    1    3    3  502    0  0.36159765578E+03 -0.56970205402E+03 -0.21849583847E+03  0.70926281212E+03  0.10100000352E+00 0. -1.
       -3    1    3    3    0  502 -0.36159765578E+03  0.56970205402E+03  0.15031930982E+03  0.69130977147E+03  0.10100000352E+00 0.  1.
</event>
<event>
 5   0  0.2217251E-04  0.1400415E+04  0.7818609E-02  0.8953518E-01
        1   -1    0    0  501    0  0.00000000000E+00  0.00000000000E+00  0.11259872058E+04  0.11259872058E+04  0.50400001928E-02 0. -1.
       -1   -1    0    0    0  501  0.00000000000E+00  0.00000000000E+00 -0.43543150465E+03  0.43543150468E+03  0.50400001928E-02 0.  1.
    10030    2    1    2    0    0  0.00000000000E+00  0.00000000000E+00  0.69055570111E+03  0.15614187104E+04  0.14004146575E+04 0.  0.
        5    1    3    3  502    0 -0.45744063425E+03  0.51752558860E+03  0.21725755463E+03  0.72409088087E+03  0.46999998093E+01 0.  1.
       -5    1    3    3    0  502  0.45744063425E+03 -0.51752558860E+03  0.47329814648E+03  0.83732782957E+03  0.46999998093E+01 0. -1.
</event>
<event>
 5   0  0.2223112E-04  0.1400346E+04  0.7818609E-02  0.8953568E-01
       -1   -1    0    0    0  501  0.00000000000E+00  0.00000000000E+00  0.73852812869E+03  0.73852812870E+03  0.50400001928E-02 0.  1.
        1   -1    0    0  501    0  0.00000000000E+00  0.00000000000E+00 -0.66380992712E+03  0.66380992714E+03  0.50400001928E-02 0. -1.
    10030    2    1    2    0    0  0.00000000000E+00  0.00000000000E+00  0.74718201562E+02  0.14023380558E+04  0.14003461048E+04 0.  0.
        1    1    3    3  502    0 -0.22106134733E+02  0.65777407355E+03 -0.20190939820E+03  0.68842052419E+03  0.50400001928E-02 0. -1.
       -1    1    3    3    0  502  0.22106134733E+02 -0.65777407355E+03  0.27662759976E+03  0.71391753165E+03  0.50400001928E-02 0.  1.
</event>
<event>
 5   0  0.2143942E-04  0.1392022E+04  0.7818609E-02  0.8959614E-01
        1   -1    0    0  501    0  0.00000000000E+00  0.00000000000E+00  0.10382171361E+04  0.10382171361E+04  0.50400001928E-02 0.  1.
       -1   -1    0    0    0  501  0.00000000000E+00  0.00000000000E+00 -0.46659926023E+03  0.46659926026E+03  0.50400001928E-02 0. -1.
    10030    2    1    2    0    0  0.00000000000E+00  0.00000000000E+00  0.57161787583E+03  0.15048163963E+04  0.13920220511E+04 0.  0.
        4    1    3    3  502    0  0.18387836245E+03  0.47981809730E+03 -0.22169144336E+03  0.55962967008E+03  0.12699999809E+01 0. -1.
       -4    1    3    3    0  502 -0.18387836245E+03 -0.47981809730E+03  0.79330931919E+03  0.94518672626E+03  0.12699999809E+01 0.  1.
</event>
<event>
 5   0  0.3932568E-04  0.1402953E+04  0.7818609E-02  0.8951684E-01
       -2   -1    0    0    0  501  0.00000000000E+00  0.00000000000E+00  0.90621796886E+03  0.90621796886E+03  0.25500000920E-02 0. -1.
        2   -1    0    0  501    0  0.00000000000E+00  0.00000000000E+00 -0.54299249315E+03  0.54299249316E+03  0.25500000920E-02 0.  1.
    10030    2    1    2    0    0  0.00000000000E+00  0.00000000000E+00  0.36322547571E+03  0.14492104620E+04  0.14029533909E+04 0.  0.
        2    1    3    3  502    0  0.27673834314E+03 -0.21809854549E+03 -0.44494920390E+03  0.56756574964E+03  0.25500000920E-02 0.  1.
       -2    1    3    3    0  502 -0.27673834314E+03  0.21809854549E+03  0.80817467960E+03  0.88164471238E+03  0.25500000920E-02 0. -1.
</event>
<event>
 5   0  0.3932568E-04  0.1410012E+04  0.7818609E-02  0.8946603E-01
        2   -1    0    0  501    0  0.00000000000E+00  0.00000000000E+00  0.69683288754E+03  0.69683288755E+03  0.25500000920E-02 0.  1.
       -2   -1    0    0    0  501  0.00000000000E+00  0.00000000000E+00 -0.71327502403E+03  0.71327502404E+03  0.25500000920E-02 0. -1.
    10030    2    1    2    0    0  0.00000000000E+00  0.00000000000E+00 -0.16442136491E+02  0.14101079116E+04  0.14100120490E+04 0.  0.
        2    1    3    3  502    0 -0.61175416583E+02 -0.57978425555E+03 -0.40465851338E+03  0.70967649463E+03  0.25500000920E-02 0. -1.
       -2    1    3    3    0  502  0.61175416583E+02  0.57978425555E+03  0.38821637689E+03  0.70043141696E+03  0.25500000920E-02 0.  1.
</event>
<event>
 5   0  0.3932568E-04  0.1414174E+04  0.7818609E-02  0.8943622E-01
        2   -1    0    0  501    0  0.00000000000E+00  0.00000000000E+00  0.84691173384E+03  0.84691173384E+03  0.25500000920E-02 0.  1.
       -2   -1    0    0    0  501  0.00000000000E+00  0.00000000000E+00 -0.59034751561E+03  0.59034751561E+03  0.25500000920E-02 0. -1.
    10030    2    1    2    0    0  0.00000000000E+00  0.00000000000E+00  0.25656421823E+03  0.14372592495E+04  0.14141743005E+04 0.  0.
        2    1    3    3  502    0  0.45191072881E+03  0.36405181296E+03  0.53887600055E+03  0.79192447449E+03  0.25500000920E-02 0.  1.
       -2    1    3    3    0  502 -0.45191072881E+03 -0.36405181296E+03 -0.28231178232E+03  0.64533477496E+03  0.25500000920E-02 0. -1.
</event>
<event>
 5   0  0.2155352E-04  0.1404906E+04  0.7818609E-02  0.8950275E-01
        1   -1    0    0  501    0  0.00000000000E+00  0.00000000000E+00  0.77613759457E+03  0.77613759459E+03  0.50400001928E-02 0. -1.
       -1   -1    0    0    0  501  0.00000000000E+00  0.00000000000E+00 -0.63576383431E+03  0.63576383433E+03  0.50400001928E-02 0.  1.
    10030    2    1    2    0    0  0.00000000000E+00  0.00000000000E+00  0.14037376026E+03  0.14119014289E+04  0.14049059942E+04 0.  0.
        2    1    3    3  502    0 -0.54262841813E+03 -0.18552282870E+03 -0.33751266075E+03  0.66541649837E+03  0.25500000920E-02 0.  1.
       -2    1    3    3    0  502  0.54262841813E+03  0.18552282870E+03  0.47788642101E+03  0.74648493054E+03  0.25500000920E-02 0. -1.
</event>
<event>
 5   0  0.2143942E-04  0.1354790E+04  0.7818609E-02  0.8987210E-01
       -1   -1    0    0    0  501  0.00000000000E+00  0.00000000000E+00  0.99081743066E+03  0.99081743067E+03  0.50400001928E-02 0. -1.
        1   -1    0    0  501    0  0.00000000000E+00  0.00000000000E+00 -0.46311676279E+03  0.46311676282E+03  0.50400001928E-02 0.  1.
    10030    2    1    2    0    0  0.00000000000E+00  0.00000000000E+00  0.52770066787E+03  0.14539341935E+04  0.13547902584E+04 0.  0.
        4    1    3    3  502    0 -0.40711325554E+03  0.37860159024E+03 -0.15148871155E+03  0.57622114643E+03  0.12699999809E+01 0.  1.
       -4    1    3    3    0  502  0.40711325554E+03 -0.37860159024E+03  0.67918937942E+03  0.87771304706E+03  0.12699999809E+01 0. -1.
</event>
<event>
 5   0  0.2215876E-04  0.1397932E+04  0.7818609E-02  0.8955317E-01
        1   -1    0    0  501    0  0.00000000000E+00  0.00000000000E+00  0.55279634644E+03  0.55279634646E+03  0.50400001928E-02 0.  1.
       -1   -1    0    0    0  501  0.00000000000E+00  0.00000000000E+00 -0.88378608470E+03  0.88378608471E+03  0.50400001928E-02 0. -1.
    10030    2    1    2    0    0  0.00000000000E+00  0.00000000000E+00 -0.33098973826E+03  0.14365824312E+04  0.13979323570E+04 0.  0.
        3    1    3    3  502    0  0.50320118828E+02  0.18549399586E+03 -0.85609695519E+03  0.87740648718E+03  0.10100000352E+00 0. -1.
       -3    1    3    3    0  502 -0.50320118828E+02 -0.18549399586E+03  0.52510721693E+03  0.55917594399E+03  0.10100000352E+00 0.  1.
</event>
<event>
 5   0  0.3975164E-04  0.1399707E+04  0.7818609E-02  0.8954031E-01
       -2   -1    0    0    0  501  0.00000000000E+00  0.00000000000E+00  0.34411393769E+03  0.34411393770E+03  0.25500000920E-02 0.  1.
        2   -1    0    0  501    0  0.00000000000E+00  0.00000000000E+00 -0.14233511411E+04  0.14233511411E+04  0.25500000920E-02 0. -1.
    10030    2    1    2    0    0  0.00000000000E+00  0.00000000000E+00 -0.10792372034E+04  0.17674650788E+04  0.13997070635E+04 0.  0.
        5    1    3    3  502    0  0.32413711409E+03 -0.32664191800E+03 -0.12054224333E+04  0.12902810329E+04  0.46999998093E+01 0. -1.
       -5    1    3    3    0  502 -0.32413711409E+03  0.32664191800E+03  0.12618522991E+03  0.47718404581E+03  0.46999998093E+01 0.  1.
</event>
<event>
 5   0  0.2143942E-04  0.1401393E+04  0.7818609E-02  0.8952811E-01
        1   -1    0    0  501    0  0.00000000000E+00  0.00000000000E+00  0.13283600212E+04  0.13283600212E+04  0.50400001928E-02 0.  1.
       -1   -1    0    0    0  501  0.00000000000E+00  0.00000000000E+00 -0.36961022250E+03  0.36961022254E+03  0.50400001928E-02 0. -1.
    10030    2    1    2    0    0  0.00000000000E+00  0.00000000000E+00  0.95874979865E+03  0.16979702437E+04  0.14013927972E+04 0.  0.
        4    1    3    3  502    0  0.11051909375E+03  0.14166703617E+03  0.12999715512E+04  0.13123306237E+04  0.12699999809E+01 0.  1.
       -4    1    3    3    0  502 -0.11051909375E+03 -0.14166703617E+03 -0.34122175251E+03  0.38563961999E+03  0.12699999809E+01 0. -1.
</event>
<event>
 5   0  0.3975164E-04  0.1390053E+04  0.7818609E-02  0.8961051E-01
        2   -1    0    0  501    0  0.00000000000E+00  0.00000000000E+00  0.51060727298E+03  0.51060727299E+03  0.25500000920E-02 0.  1.
       -2   -1    0    0    0  501  0.00000000000E+00  0.00000000000E+00 -0.94605294507E+03  0.94605294507E+03  0.25500000920E-02 0. -1.
    10030    2    1    2    0    0  0.00000000000E+00  0.00000000000E+00 -0.43544567208E+03  0.14566602181E+04  0.13900525377E+04 0.  0.
        5    1    3    3  502    0 -0.38055616879E+03 -0.23463863194E+03  0.33990426185E+03  0.56163625455E+03  0.46999998093E+01 0.  1.
       -5    1    3    3    0  502  0.38055616879E+03  0.23463863194E+03 -0.77534993393E+03  0.89502396351E+03  0.46999998093E+01 0. -1.
</event>
<event>
 5   0  0.2143942E-04  0.1395507E+04  0.7818609E-02  0.8957077E-01
        1   -1    0    0  501    0  0.00000000000E+00  0.00000000000E+00  0.18385619658E+04  0.18385619658E+04  0.50400001928E-02 0.  1.
       -1   -1    0    0    0  501  0.00000000000E+00  0.00000000000E+00 -0.26480482734E+03  0.26480482739E+03  0.50400001928E-02 0. -1.
    10030    2    1    2    0    0  0.00000000000E+00  0.00000000000E+00  0.15737571385E+04  0.21033667932E+04  0.13955071966E+04 0.  0.
        4    1    3    3  502    0  0.12049845292E+03 -0.24369671193E+03 -0.18169348482E+03  0.32698944920E+03  0.12699999809E+01 0. -1.
       -4    1    3    3    0  502 -0.12049845292E+03  0.24369671193E+03  0.17554506233E+04  0.17763773440E+04  0.12699999809E+01 0.  1.
</event>
<event>
 5   0  0.1497625E-04  0.1407060E+04  0.7818609E-02  0.8948724E-01
       -3   -1    0    0    0  501  0.00000000000E+00  0.00000000000E+00  0.11060853629E+04  0.11060853675E+04  0.10100000352E+00 0. -1.
        3   -1    0    0  501    0  0.00000000000E+00  0.00000000000E+00 -0.44748296056E+03  0.44748297196E+03  0.10100000352E+00 0.  1.
    10030    2    1    2    0    0  0.00000000000E+00  0.00000000000E+00  0.65860240231E+03  0.15535683394E+04  0.14070598640E+04 0.  0.
        2    1    3    3  502    0  0.31484408350E+03 -0.48704798989E+03  0.76903066525E+03  0.96319816521E+03  0.25500000920E-02 0. -1.
       -2    1    3    3    0  502 -0.31484408350E+03  0.48704798989E+03 -0.11042826293E+03  0.59037017424E+03  0.25500000920E-02 0.  1.
</event>
<event>
 5   0  0.2215876E-04  0.1401556E+04  0.7818609E-02  0.8952693E-01
       -1   -1    0    0    0  501  0.00000000000E+00  0.00000000000E+00  0.35061128296E+03  0.35061128299E+03  0.50400001928E-02 0.  1.
        1   -1    0    0  501    0  0.00000000000E+00  0.00000000000E+00 -0.14006681991E+04  0.14006681991E+04  0.50400001928E-02 0. -1.
    10030    2    1    2    0    0  0.00000000000E+00  0.00000000000E+00 -0.10500569161E+04  0.17512794821E+04  0.14015563839E+04 0.  0.
        3    1    3    3  502    0 -0.65406716485E+01 -0.13784854775E+03 -0.13835211745E+04  0.13903869436E+04  0.10100000352E+00 0. -1.
       -3    1    3    3    0  502  0.65406716485E+01  0.13784854775E+03  0.33346425838E+03  0.36089253846E+03  0.10100000352E+00 0.  1.
</event>
<event>
 5   0  0.2215876E-04  0.1402512E+04  0.7818609E-02  0.8952002E-01
        1   -1    0    0  501    0  0.00000000000E+00  0.00000000000E+00  0.85167505225E+03  0.85167505226E+03  0.50400001928E-02 0.  1.
       -1   -1    0    0    0  501  0.00000000000E+00  0.00000000000E+00 -0.57740315454E+03  0.57740315457E+03  0.50400001928E-02 0. -1.
    10030    2    1    2    0    0  0.00000000000E+00  0.00000000000E+00  0.27427189771E+03  0.14290782068E+04  0.14025118350E+04 0.  0.
        3    1    3    3  502    0 -0.61252252162E+03 -0.33850852518E+03  0.91704496908E+02  0.70581979716E+03  0.10100000352E+00 0.  1.
       -3    1    3    3    0  502  0.61252252162E+03  0.33850852518E+03  0.18256740080E+03  0.72325840966E+03  0.10100000352E+00 0. -1.
</event>
<event>
 5   0  0.4208622E-04  0.1401473E+04  0.7818609E-02  0.8952753E-01
        2   -1    0    0  501    0  0.00000000000E+00  0.00000000000E+00  0.10434271859E+04  0.10434271859E+04  0.25500000920E-02 0.  1.
       -2   -1    0    0    0  501  0.00000000000E+00  0.00000000000E+00 -0.47059523655E+03  0.47059523656E+03  0.25500000920E-02 0. -1.
    10030    2    1    2    0    0  0.00000000000E+00  0.00000000000E+00  0.57283194933E+03  0.15140224224E+04  0.14014733153E+04 0.  0.
        4    1    3    3  502    0  0.18390101026E+01  0.56182588077E+03 -0.16599768532E+03  0.58584003508E+03  0.12699999809E+01 0. -1.
       -4    1    3    3    0  502 -0.18390101026E+01 -0.56182588077E+03  0.73882963466E+03  0.92818238736E+03  0.12699999809E+01 0.  1.
</event>
<event>
 5   0  0.3932568E-04  0.1403713E+04  0.7818609E-02  0.8951135E-01
        2   -1    0    0  501    0  0.00000000000E+00  0.00000000000E+00  0.64649725965E+03  0.64649725966E+03  0.25500000920E-02 0.  1.
       -2   -1    0    0    0  501  0.00000000000E+00  0.00000000000E+00 -0.76195646307E+03  0.76195646308E+03  0.25500000920E-02 0. -1.
    10030    2    1    2    0    0  0.00000000000E+00  0.00000000000E+00 -0.11545920342E+03  0.14084537227E+04  0.14037133117E+04 0.  0.
        2    1    3    3  502    0  0.50915860893E+03 -0.17787815217E+02 -0.54210603550E+03  0.74393403548E+03  0.25500000920E-02 0. -1.
       -2    1    3    3    0  502 -0.50915860893E+03  0.17787815217E+02  0.42664683208E+03  0.66451968725E+03  0.25500000920E-02 0.  1.
</event>
<event>
 5   0  0.2215876E-04  0.1401084E+04  0.7818609E-02  0.8953035E-01
       -1   -1    0    0    0  501  0.00000000000E+00  0.00000000000E+00  0.38634438096E+03  0.38634438099E+03  0.50400001928E-02 0.  1.
        1   -1    0    0  501    0  0.00000000000E+00  0.00000000000E+00 -0.12702625690E+04  0.12702625690E+04  0.50400001928E-02 0. -1.
    10030    2    1    2    0    0  0.00000000000E+00  0.00000000000E+00 -0.88391818803E+03  0.16566069500E+04  0.14010835891E+04 0.  0.
        3    1    3    3  502    0 -0.50612820131E+03 -0.53101883453E+02  0.12726997331E+03  0.52457909079E+03  0.10100000352E+00 0.  1.
       -3    1    3    3    0  502  0.50612820131E+03  0.53101883453E+02 -0.10111881613E+04  0.11320278592E+04  0.10100000352E+00 0. -1.
</event>
<event>
 5   0  0.3917598E-04  0.1401733E+04  0.7818609E-02  0.8952565E-01
        2   -1    0    0  501    0  0.00000000000E+00  0.00000000000E+00  0.72259558816E+03  0.72259558816E+03  0.25500000920E-02 0.  1.
       -2   -1    0    0    0  501  0.00000000000E+00  0.00000000000E+00 -0.67979071020E+03  0.67979071021E+03  0.25500000920E-02 0. -1.
    10030    2    1    2    0    0  0.00000000000E+00  0.00000000000E+00  0.42804877957E+02  0.14023862984E+04  0.14017328819E+04 0.  0.
        3    1    3    3  502    0 -0.23965432207E+03  0.33945087880E+03 -0.54326535710E+03  0.68395785808E+03  0.10100000352E+00 0. -1.
       -3    1    3    3    0  502  0.23965432207E+03 -0.33945087880E+03  0.58607023505E+03  0.71842844029E+03  0.10100000352E+00 0.  1.
</event>
<event>
 5   0  0.2223112E-04  0.1381426E+04  0.7818609E-02  0.8967374E-01
       -1   -1    0    0    0  501  0.00000000000E+00  0.00000000000E+00  0.37396245127E+03  0.37396245130E+03  0.50400001928E-02 0.  1.
        1   -1    0    0  501    0  0.00000000000E+00  0.00000000000E+00 -0.12757558165E+04  0.12757558166E+04  0.50400001928E-02 0. -1.
    10030    2    1    2    0    0  0.00000000000E+00  0.00000000000E+00 -0.90179336528E+03  0.16497182679E+04  0.13814264691E+04 0.  0.
        1    1    3    3  502    0 -0.20247879152E+03 -0.12414490716E+03 -0.12254573531E+04  0.12482609276E+04  0.50400001928E-02 0. -1.
       -1    1    3    3    0  502  0.20247879152E+03  0.12414490716E+03  0.32366398785E+03  0.40145734026E+03  0.50400001928E-02 0.  1.
</event>
<event>
 5   0  0.2143942E-04  0.1408053E+04  0.7818609E-02  0.8948010E-01
        1   -1    0    0  501    0  0.00000000000E+00  0.00000000000E+00  0.83234089051E+03  0.83234089053E+03  0.50400001928E-02 0. -1.
       -1   -1    0    0    0  501  0.00000000000E+00  0.00000000000E+00 -0.59549337569E+03  0.59549337571E+03  0.50400001928E-02 0.  1.
    10030    2    1    2    0    0  0.00000000000E+00  0.00000000000E+00  0.23684751482E+03  0.14278342662E+04  0.14080532471E+04 0.  0.
        4    1    3    3  502    0 -0.31957903080E+03  0.54277272393E+03 -0.20050841594E+03  0.66101302902E+03  0.12699999809E+01 0. -1.
       -4    1    3    3    0  502  0.31957903080E+03 -0.54277272393E+03  0.43735593077E+03  0.76682123722E+03  0.12699999809E+01 0.  1.
</event>
<event>
 5   0  0.2217251E-04  0.1401768E+04  0.7818609E-02  0.8952540E-01
       -1   -1    0    0    0  501  0.00000000000E+00  0.00000000000E+00  0.82655744738E+03  0.82655744740E+03  0.50400001928E-02 0. -1.
        1   -1    0    0  501    0  0.00000000000E+00  0.00000000000E+00 -0.59431854703E+03  0.59431854705E+03  0.50400001928E-02 0.  1.
    10030    2    1    2    0    0  0.00000000000E+00  0.00000000000E+00  0.23223890035E+03  0.14208759944E+04  0.14017680567E+04 0.  0.
        5    1    3    3  502    0 -0.66206660995E+03 -0.11005075894E+03  0.32079509554E+03  0.74389175884E+03  0.46999998093E+01 0. -1.
       -5    1    3    3    0  502  0.66206660995E+03  0.11005075894E+03 -0.88556195191E+02  0.67698423561E+03  0.46999998093E+01 0.  1.
</event>
<event>
 5   0  0.3917598E-04  0.1401458E+04  0.7818609E-02  0.8952764E-01
       -2   -1    0    0    0  501  0.00000000000E+00  0.00000000000E+00  0.28049261524E+03  0.28049261525E+03  0.25500000920E-02 0. -1.
        2   -1    0    0  501    0  0.00000000000E+00  0.00000000000E+00 -0.17505681277E+04  0.17505681277E+04  0.25500000920E-02 0.  1.
    10030    2    1    2    0    0  0.00000000000E+00  0.00000000000E+00 -0.14700755124E+04  0.20310607429E+04  0.14014584293E+04 0.  0.
        3    1    3    3  502    0 -0.35433176068E+03  0.43401411030E+03 -0.12514336076E+03  0.57409068579E+03  0.10100000352E+00 0. -1.
       -3    1    3    3    0  502  0.35433176068E+03 -0.43401411030E+03 -0.13449321517E+04  0.14569700571E+04  0.10100000352E+00 0.  1.
</event>
<event>
 5   0  0.2223112E-04  0.1398415E+04  0.7818609E-02  0.8954967E-01
        1   -1    0    0  501    0  0.00000000000E+00  0.00000000000E+00  0.76200607392E+03  0.76200607394E+03  0.50400001928E-02 0.  1.
       -1   -1    0    0    0  501  0.00000000000E+00  0.00000000000E+00 -0.64158407085E+03  0.64158407087E+03  0.50400001928E-02 0. -1.
    10030    2    1    2    0    0  0.00000000000E+00  0.00000000000E+00  0.12042200307E+03  0.14035901448E+04  0.13984147581E+04 0.  0.
        1    1    3    3  502    0 -0.16596703372E+03  0.17757660500E+03  0.71823814443E+03  0.75825097366E+03  0.50400001928E-02 0.  1.
       -1    1    3    3    0  502  0.16596703372E+03 -0.17757660500E+03 -0.59781614135E+03  0.64533917115E+03  0.50400001928E-02 0. -1.
</event>
<event>
 5   0  0.4310348E-04  0.1403309E+04  0.7818609E-02  0.8951427E-01
        2   -1    0    0  501    0  0.00000000000E+00  0.00000000000E+00  0.18316830826E+04  0.18316830826E+04  0.25500000920E-02 0. -1.
       -2   -1    0    0    0  501  0.00000000000E+00  0.00000000000E+00 -0.26877944247E+03  0.26877944249E+03  0.25500000920E-02 0.  1.
    10030    2    1    2    0    0  0.00000000000E+00  0.00000000000E+00  0.15629036401E+04  0.21004625250E+04  0.14033086015E+04 0.  0.
        1    1    3    3  502    0  0.49576390569E+03 -0.33129007664E+03  0.13350301371E+04  0.14621355724E+04  0.50400001928E-02 0. -1.
       -1    1    3    3    0  502 -0.49576390569E+03  0.33129007664E+03  0.22787350294E+03  0.63832695261E+03  0.50400001928E-02 0.  1.
</event>
<event>
 5   0  0.2143942E-04  0.1402049E+04  0.7818609E-02  0.8952337E-01
        1   -1    0    0  501    0  0.00000000000E+00  0.00000000000E+00  0.18401208303E+04  0.18401208304E+04  0.50400001928E-02 0.  1.
       -1   -1    0    0    0  501  0.00000000000E+00  0.00000000000E+00 -0.26706692280E+03  0.26706692285E+03  0.50400001928E-02 0. -1.
    10030    2    1    2    0    0  0.00000000000E+00  0.00000000000E+00  0.15730539075E+04  0.21071877532E+04  0.14020490830E+04 0.  0.
        4    1    3    3  502    0  0.61560002905E+03 -0.27260889001E+03  0.49295500062E+03  0.83443708464E+03  0.12699999809E+01 0. -1.
       -4    1    3    3    0  502 -0.61560002905E+03  0.27260889001E+03  0.10800989069E+04  0.12727506686E+04  0.12699999809E+01 0.  1.
</event>
<event>
 5   0  0.2217251E-04  0.1401817E+04  0.7818609E-02  0.8952504E-01
       -1   -1    0    0    0  501  0.00000000000E+00  0.00000000000E+00  0.37258515968E+03  0.37258515971E+03  0.50400001928E-02 0.  1.
        1   -1    0    0  501    0  0.00000000000E+00  0.00000000000E+00 -0.13185520435E+04  0.13185520435E+04  0.50400001928E-02 0. -1.
    10030    2    1    2    0    0  0.00000000000E+00  0.00000000000E+00 -0.94596688382E+03  0.16911372032E+04  0.14018172830E+04 0.  0.
        5    1    3    3  502    0  0.16606158442E+03  0.62667548505E+03 -0.15163926918E+03  0.66581917315E+03  0.46999998093E+01 0.  1.
       -5    1    3    3    0  502 -0.16606158442E+03 -0.62667548505E+03 -0.79432761465E+03  0.10253180301E+04  0.46999998093E+01 0. -1.
</event>
<event>
 5   0  0.2155352E-04  0.1401466E+04  0.7818609E-02  0.8952758E-01
        1   -1    0    0  501    0  0.00000000000E+00  0.00000000000E+00  0.10362430319E+04  0.10362430319E+04  0.50400001928E-02 0.  1.
       -1   -1    0    0    0  501  0.00000000000E+00  0.00000000000E+00 -0.47385265383E+03  0.47385265385E+03  0.50400001928E-02 0. -1.
    10030    2    1    2    0    0  0.00000000000E+00  0.00000000000E+00  0.56239037811E+03  0.15100956858E+04  0.14014656767E+04 0.  0.
        2    1    3    3  502    0 -0.20843471997E+03  0.60184227804E+03  0.59601923975E+03  0.87229472902E+03  0.25500000920E-02 0.  1.
       -2    1    3    3    0  502  0.20843471997E+03 -0.60184227804E+03 -0.33628861641E+02  0.63780095678E+03  0.25500000920E-02 0. -1.
</event>
<event>
 5   0  0.2143942E-04  0.1406407E+04  0.7818609E-02  0.8949194E-01
        1   -1    0    0  501    0  0.00000000000E+00  0.00000000000E+00  0.10879515415E+04  0.10879515415E+04  0.50400001928E-02 0. -1.
       -1   -1    0    0    0  501  0.00000000000E+00  0.00000000000E+00 -0.45451973198E+03  0.45451973201E+03  0.50400001928E-02 0.  1.
    10030    2    1    2    0    0  0.00000000000E+00  0.00000000000E+00  0.63343180949E+03  0.15424712735E+04  0.14064073991E+04 0.  0.
        4    1    3    3  502    0 -0.16394380443E+03  0.43482126480E+03 -0.26211934634E+03  0.53353094377E+03  0.12699999809E+01 0.  1.
       -4    1    3    3    0  502  0.16394380443E+03 -0.43482126480E+03  0.89555115583E+03  0.10089403297E+04  0.12699999809E+01 0. -1.
</event>
<event>
 5   0  0.2217251E-04  0.1398611E+04  0.7818609E-02  0.8954824E-01
       -1   -1    0    0    0  501  0.00000000000E+00  0.00000000000E+00  0.38186411881E+03  0.38186411884E+03  0.50400001928E-02 0. -1.
        1   -1    0    0  501    0  0.00000000000E+00  0.00000000000E+00 -0.12806346820E+04  0.12806346820E+04  0.50400001928E-02 0.  1.
    10030    2    1    2    0    0  0.00000000000E+00  0.00000000000E+00 -0.89877056315E+03  0.16624988008E+04  0.13986113604E+04 0.  0.
        5    1    3    3  502    0 -0.14031997659E+03 -0.67229492552E+03 -0.29287566995E+03  0.74663807213E+03  0.46999998093E+01 0. -1.
       -5    1    3    3    0  502  0.14031997659E+03  0.67229492552E+03 -0.60589489320E+03  0.91586072867E+03  0.46999998093E+01 0.  1.
</event>
<event>
 5   0  0.3932568E-04  0.1397432E+04  0.7818609E-02  0.8955680E-01
        2   -1    0    0  501    0  0.00000000000E+00  0.00000000000E+00  0.16463918398E+04  0.16463918398E+04  0.25500000920E-02 0.  1.
       -2   -1    0    0    0  501  0.00000000000E+00  0.00000000000E+00 -0.29652966531E+03  0.29652966532E+03  0.25500000920E-02 0. -1.
    10030    2    1    2    0    0  0.00000000000E+00  0.00000000000E+00  0.13498621744E+04  0.19429215051E+04  0.13974319607E+04 0.  0.
        2    1    3    3  502    0 -0.47737376907E+03 -0.13257065758E+03 -0.10080997290E+02  0.49554245142E+03  0.25500000920E-02 0. -1.
       -2    1    3    3    0  502  0.47737376907E+03  0.13257065758E+03  0.13599431717E+04  0.14473790537E+04  0.25500000920E-02 0.  1.
</event>
<event>
 5   0  0.2223112E-04  0.1401315E+04  0.7818609E-02  0.8952867E-01
        1   -1    0    0  501    0  0.00000000000E+00  0.00000000000E+00  0.73893164473E+03  0.73893164475E+03  0.50400001928E-02 0.  1.
       -1   -1    0    0    0  501  0.00000000000E+00  0.00000000000E+00 -0.66436560327E+03  0.66436560329E+03  0.50400001928E-02 0. -1.
    10030    2    1    2    0    0  0.00000000000E+00  0.00000000000E+00  0.74566041465E+02  0.14032972480E+04  0.14013147654E+04 0.  0.
        1    1    3    3  502    0  0.37343768398E+03  0.55325584289E+03 -0.17602780520E+03  0.69031407326E+03  0.50400001928E-02 0. -1.
       -1    1    3    3    0  502 -0.37343768398E+03 -0.55325584289E+03  0.25059384667E+03  0.71298317478E+03  0.50400001928E-02 0.  1.
</event>
<event>
 5   0  0.2223112E-04  0.1409627E+04  0.7818609E-02  0.8946880E-01
       -1   -1    0    0    0  501  0.00000000000E+00  0.00000000000E+00  0.63386469659E+03  0.63386469661E+03  0.50400001928E-02 0. -1.
        1   -1    0    0  501    0  0.00000000000E+00  0.00000000000E+00 -0.78370331929E+03  0.78370331931E+03  0.50400001928E-02 0.  1.
    10030    2    1    2    0    0  0.00000000000E+00  0.00000000000E+00 -0.14983862270E+03  0.14175680159E+04  0.14096267119E+04 0.  0.
        1    1    3    3  502    0  0.70296216566E+03 -0.49153245035E+02 -0.88781701596E+02  0.71024927907E+03  0.50400001928E-02 0.  1.
       -1    1    3    3    0  502 -0.70296216566E+03  0.49153245035E+02 -0.61056921107E+02  0.70731873684E+03  0.50400001928E-02 0. -1.
</event>
<event>
 5   0  0.2223112E-04  0.1400423E+04  0.7818609E-02  0.8953513E-01
       -1   -1    0    0    0  501  0.00000000000E+00  0.00000000000E+00  0.53308275417E+03  0.53308275420E+03  0.50400001928E-02 0. -1.
        1   -1    0    0  501    0  0.00000000000E+00  0.00000000000E+00 -0.91973703811E+03  0.91973703813E+03  0.50400001928E-02 0.  1.
    10030    2    1    2    0    0  0.00000000000E+00  0.00000000000E+00 -0.38665428394E+03  0.14528197923E+04  0.14004227268E+04 0.  0.
        1    1    3    3  502    0 -0.52812691791E+03 -0.41747932495E+03 -0.39311759046E+03  0.77958223949E+03  0.50400001928E-02 0.  1.
       -1    1    3    3    0  502  0.52812691791E+03  0.41747932495E+03  0.64633065146E+01  0.67323755283E+03  0.50400001928E-02 0. -1.
</event>
<event>
 5   0  0.4208622E-04  0.1400407E+04  0.7818609E-02  0.8953524E-01
        2   -1    0    0  501    0  0.00000000000E+00  0.00000000000E+00  0.56769058185E+03  0.56769058186E+03  0.25500000920E-02 0.  1.
       -2   -1    0    0    0  501  0.00000000000E+00  0.00000000000E+00 -0.86364861355E+03  0.86364861355E+03  0.25500000920E-02 0. -1.
    10030    2    1    2    0    0  0.00000000000E+00  0.00000000000E+00 -0.29595803170E+03  0.14313391954E+04  0.14004073464E+04 0.  0.
        4    1    3    3  502    0 -0.46151377847E+03 -0.52177427296E+03 -0.75416461847E+02  0.70066583708E+03  0.12699999809E+01 0.  1.
       -4    1    3    3    0  502  0.46151377847E+03  0.52177427296E+03 -0.22054156985E+03  0.73067335833E+03  0.12699999809E+01 0. -1.
</event>
<event>
 5   0  0.2215876E-04  0.1391264E+04  0.7818609E-02  0.8960166E-01
        1   -1    0    0  501    0  0.00000000000E+00  0.00000000000E+00  0.65469359701E+03  0.65469359703E+03  0.50400001928E-02 0.  1.
       -1   -1    0    0    0  501  0.00000000000E+00  0.00000000000E+00 -0.73913068316E+03  0.73913068318E+03  0.50400001928E-02 0. -1.
    10030    2    1    2    0    0  0.00000000000E+00  0.00000000000E+00 -0.84437086155E+02  0.13938242802E+04  0.13912643540E+04 0.  0.
        3    1    3    3  502    0  0.18128556276E+02  0.58215442959E+03  0.33883863452E+03  0.67382791192E+03  0.10100000352E+00 0. -1.
       -3    1    3    3    0  502 -0.18128556276E+02 -0.58215442959E+03 -0.42327572067E+03  0.71999636829E+03  0.10100000352E+00 0.  1.
</event>
<event>
 5   0  0.4208622E-04  0.1404935E+04  0.7818609E-02  0.8950254E-01
        2   -1    0    0  501    0  0.00000000000E+00  0.00000000000E+00  0.15758970301E+04  0.15758970301E+04  0.25500000920E-02 0. -1.
       -2   -1    0    0    0  501  0.00000000000E+00  0.00000000000E+00 -0.31313011735E+03  0.31313011736E+03  0.25500000920E-02 0.  1.
    10030    2    1    2    0    0  0.00000000000E+00  0.00000000000E+00  0.12627669128E+04  0.18890271475E+04  0.14049353323E+04 0.  0.
        4    1    3    3  502    0 -0.32931210114E+03  0.61825606762E+03  0.56059003697E+03  0.89718996180E+03  0.12699999809E+01 0.  1.
       -4    1    3    3    0  502  0.32931210114E+03 -0.61825606762E+03  0.70217687582E+03  0.99183718570E+03  0.12699999809E+01 0. -1.
</event>
<event>
 5   0  0.3917598E-04  0.1381412E+04  0.7818609E-02  0.8967384E-01
       -2   -1    0    0    0  501  0.00000000000E+00  0.00000000000E+00  0.61026466177E+03  0.61026466178E+03  0.25500000920E-02 0.  1.
        2   -1    0    0  501    0  0.00000000000E+00  0.00000000000E+00 -0.78175080311E+03  0.78175080311E+03  0.25500000920E-02 0. -1.
    10030    2    1    2    0    0  0.00000000000E+00  0.00000000000E+00 -0.17148614134E+03  0.13920154649E+04  0.13814121607E+04 0.  0.
        3    1    3    3  502    0  0.23936191698E+03 -0.24704085646E+03  0.51781309220E+03  0.62165402010E+03  0.10100000352E+00 0.  1.
       -3    1    3    3    0  502 -0.23936191698E+03  0.24704085646E+03 -0.68929923354E+03  0.77036144479E+03  0.10100000352E+00 0. -1.
</event>
<event>
 5   0  0.4310348E-04  0.1375656E+04  0.7818609E-02  0.8971631E-01
       -2   -1    0    0    0  501  0.00000000000E+00  0.00000000000E+00  0.47326664718E+03  0.47326664719E+03  0.25500000920E-02 0.  1.
        2   -1    0    0  501    0  0.00000000000E+00  0.00000000000E+00 -0.99966392863E+03  0.99966392863E+03  0.25500000920E-02 0. -1.
    10030    2    1    2    0    0  0.00000000000E+00  0.00000000000E+00 -0.52639728144E+03  0.14729305758E+04  0.13756563464E+04 0.  0.
        1    1    3    3  502    0 -0.51856097076E+03  0.27168858096E+03 -0.64982386485E+03  0.87463776546E+03  0.50400001928E-02 0. -1.
       -1    1    3    3    0  502  0.51856097076E+03 -0.27168858096E+03  0.12342658340E+03  0.59829281036E+03  0.50400001928E-02 0.  1.
</event>
<event>
 5   0  0.4208622E-04  0.1430177E+04  0.7818609E-02  0.8932260E-01
       -2   -1    0    0    0  501  0.00000000000E+00  0.00000000000E+00  0.93736651543E+03  0.93736651543E+03  0.25500000920E-02 0. -1.
        2   -1    0    0  501    0  0.00000000000E+00  0.00000000000E+00 -0.54551942841E+03  0.54551942842E+03  0.25500000920E-02 0.  1.
    10030    2    1    2    0    0  0.00000000000E+00  0.00000000000E+00  0.39184708702E+03  0.14828859439E+04  0.14301771159E+04 0.  0.
        4    1    3    3  502    0  0.13616544863E+03 -0.60179412712E+03 -0.17885725984E+03  0.64240854067E+03  0.12699999809E+01 0.  1.
       -4    1    3    3    0  502 -0.13616544863E+03  0.60179412712E+03  0.57070434686E+03  0.84047740318E+03  0.12699999809E+01 0. -1.
</event>
<event>
 5   0  0.2215876E-04  0.1390804E+04  0.7818609E-02  0.8960502E-01
        1   -1    0    0  501    0  0.00000000000E+00  0.00000000000E+00  0.13521216971E+04  0.13521216971E+04  0.50400001928E-02 0.  1.
       -1   -1    0    0    0  501  0.00000000000E+00  0.00000000000E+00 -0.35764814605E+03  0.35764814608E+03  0.50400001928E-02 0. -1.
    10030    2    1    2    0    0  0.00000000000E+00  0.00000000000E+00  0.99447355102E+03  0.17097698432E+04  0.13908038226E+04 0.  0.
        3    1    3    3  502    0 -0.60114287111E+03  0.19940302517E+03  0.85022950803E+03  0.10602002379E+04  0.10100000352E+00 0. -1.
       -3    1    3    3    0  502  0.60114287111E+03 -0.19940302517E+03  0.14424404299E+03  0.64956960525E+03  0.10100000352E+00 0.  1.
</event>
<event>
 5   0  0.3917598E-04  0.1419894E+04  0.7818609E-02  0.8939543E-01
        2   -1    0    0  501    0  0.00000000000E+00  0.00000000000E+00  0.62458230267E+03  0.62458230267E+03  0.25500000920E-02 0.  1.
       -2   -1    0    0    0  501  0.00000000000E+00  0.00000000000E+00 -0.80697838864E+03  0.80697838864E+03  0.25500000920E-02 0. -1.
    10030    2    1    2    0    0  0.00000000000E+00  0.00000000000E+00 -0.18239608597E+03  0.14315606913E+04  0.14198935456E+04 0.  0.
        3    1    3    3  502    0 -0.19255641342E+03 -0.56186523783E+03 -0.48330744796E+03  0.76573926194E+03  0.10100000352E+00 0.  1.
       -3    1    3    3    0  502  0.19255641342E+03  0.56186523783E+03  0.30091136199E+03  0.66582142937E+03  0.10100000352E+00 0. -1.
</event>
<event>
 5   0  0.2215876E-04  0.1402327E+04  0.7818609E-02  0.8952136E-01
       -1   -1    0    0    0  501  0.00000000000E+00  0.00000000000E+00  0.85234125968E+03  0.85234125970E+03  0.50400001928E-02 0.  1.
        1   -1    0    0  501    0  0.00000000000E+00  0.00000000000E+00 -0.57679987597E+03  0.57679987599E+03  0.50400001928E-02 0. -1.
    10030    2    1    2    0    0  0.00000000000E+00  0.00000000000E+00  0.27554138371E+03  0.14291411357E+04  0.14023271129E+04 0.  0.
        3    1    3    3  502    0  0.47835921772E+02  0.35139556532E+03 -0.47866127994E+03  0.59572120144E+03  0.10100000352E+00 0. -1.
       -3    1    3    3    0  502 -0.47835921772E+02 -0.35139556532E+03  0.75420266365E+03  0.83341993424E+03  0.10100000352E+00 0.  1.
</event>
<event>
 5   0  0.4208622E-04  0.1399379E+04  0.7818609E-02  0.8954268E-01
        2   -1    0    0  501    0  0.00000000000E+00  0.00000000000E+00  0.20545394339E+04  0.20545394339E+04  0.25500000920E-02 0.  1.
       -2   -1    0    0    0  501  0.00000000000E+00  0.00000000000E+00 -0.23828484692E+03  0.23828484693E+03  0.25500000920E-02 0. -1.
    10030    2    1    2    0    0  0.00000000000E+00  0.00000000000E+00  0.18162545870E+04  0.22928242809E+04  0.13993793117E+04 0.  0.
        4    1    3    3  502    0  0.60475535725E+03 -0.13817557009E+03  0.37785769176E+03  0.72636050169E+03  0.12699999809E+01 0. -1.
       -4    1    3    3    0  502 -0.60475535725E+03  0.13817557009E+03  0.14383968952E+04  0.15664637792E+04  0.12699999809E+01 0.  1.
</event>
<event>
 5   0  0.3932568E-04  0.1397539E+04  0.7818609E-02  0.8955602E-01
        2   -1    0    0  501    0  0.00000000000E+00  0.00000000000E+00  0.50249581193E+03  0.50249581193E+03  0.25500000920E-02 0. -1.
       -2   -1    0    0    0  501  0.00000000000E+00  0.00000000000E+00 -0.97170684077E+03  0.97170684077E+03  0.25500000920E-02 0.  1.
    10030    2    1    2    0    0  0.00000000000E+00  0.00000000000E+00 -0.46921102884E+03  0.14742026527E+04  0.13975387192E+04 0.  0.
        2    1    3    3  502    0 -0.52250234314E+03 -0.35954873142E+03 -0.54394047286E+03  0.83555683642E+03  0.25500000920E-02 0.  1.
       -2    1    3    3    0  502  0.52250234314E+03  0.35954873142E+03  0.74729444018E+02  0.63864581629E+03  0.25500000920E-02 0. -1.
</event>
<event>
 5   0  0.4310348E-04  0.1399966E+04  0.7818609E-02  0.8953843E-01
        2   -1    0    0  501    0  0.00000000000E+00  0.00000000000E+00  0.50220433809E+03  0.50220433810E+03  0.25500000920E-02 0. -1.
       -2   -1    0    0    0  501  0.00000000000E+00  0.00000000000E+00 -0.97565161267E+03  0.97565161268E+03  0.25500000920E-02 0.  1.
    10030    2    1    2    0    0  0.00000000000E+00  0.00000000000E+00 -0.47344727458E+03  0.14778559508E+04  0.13999663887E+04 0.  0.
        1    1    3    3  502    0 -0.54479244522E+03  0.19915523760E+03  0.17688509527E+03  0.60642390618E+03  0.50400001928E-02 0. -1.
       -1    1    3    3    0  502  0.54479244522E+03 -0.19915523760E+03 -0.65033236985E+03  0.87143204459E+03  0.50400001928E-02 0.  1.
</event>
<event>
 5   0  0.3917598E-04  0.1393357E+04  0.7818609E-02  0.8958641E-01
        2   -1    0    0  501    0  0.00000000000E+00  0.00000000000E+00  0.94738527740E+03  0.94738527740E+03  0.25500000920E-02 0.  1.
       -2   -1    0    0    0  501  0.00000000000E+00  0.00000000000E+00 -0.51231666978E+03  0.51231666978E+03  0.25500000920E-02 0. -1.
    10030    2    1    2    0    0  0.00000000000E+00  0.00000000000E+00  0.43506860762E+03  0.14597019472E+04  0.13933574851E+04 0.  0.
        3    1    3    3  502    0  0.17313519640E+03 -0.37303887492E+02 -0.48833879897E+03  0.51946334715E+03  0.10100000352E+00 0. -1.
       -3    1    3    3    0  502 -0.17313519640E+03  0.37303887492E+02  0.92340740658E+03  0.94023860003E+03  0.10100000352E+00 0.  1.
</event>
<event>
 5   0  0.3932568E-04  0.1400773E+04  0.7818609E-02  0.8953259E-01
       -2   -1    0    0    0  501  0.00000000000E+00  0.00000000000E+00  0.25933537362E+03  0.25933537363E+03  0.25500000920E-02 0.  1.
        2   -1    0    0  501    0  0.00000000000E+00  0.00000000000E+00 -0.18915322928E+04  0.18915322928E+04  0.25500000920E-02 0. -1.
    10030    2    1    2    0    0  0.00000000000E+00  0.00000000000E+00 -0.16321969192E+04  0.21508676664E+04  0.14007729779E+04 0.  0.
        2    1    3    3  502    0 -0.19430861261E+03  0.55510701853E+02  0.21359816984E+03  0.29404328443E+03  0.25500000920E-02 0.  1.
       -2    1    3    3    0  502  0.19430861261E+03 -0.55510701853E+02 -0.18457950890E+04  0.18568243820E+04  0.25500000920E-02 0. -1.
</event>
<event>
 5   0  0.2155352E-04  0.1398768E+04  0.7818609E-02  0.8954711E-01
        1   -1    0    0  501    0  0.00000000000E+00  0.00000000000E+00  0.57578157116E+03  0.57578157118E+03  0.50400001928E-02 0.  1.
       -1   -1    0    0    0  501  0.00000000000E+00  0.00000000000E+00 -0.84951965134E+03  0.84951965135E+03  0.50400001928E-02 0. -1.
    10030    2    1    2    0    0  0.00000000000E+00  0.00000000000E+00 -0.27373808018E+03  0.14253012225E+04  0.13987676856E+04 0.  0.
        2    1    3    3  502    0 -0.39986087907E+03 -0.30628448706E+03 -0.63129370838E+03  0.80760798403E+03  0.25500000920E-02 0. -1.
       -2    1    3    3    0  502  0.39986087907E+03  0.30628448706E+03  0.35755562820E+03  0.61769323850E+03  0.25500000920E-02 0.  1.
</event>
<event>
 5   0  0.2155352E-04  0.1408957E+04  0.7818609E-02  0.8947360E-01
       -1   -1    0    0    0  501  0.00000000000E+00  0.00000000000E+00  0.10156207522E+04  0.10156207522E+04  0.50400001928E-02 0. -1.
        1   -1    0    0  501    0  0.00000000000E+00  0.00000000000E+00 -0.48865683824E+03  0.48865683826E+03  0.50400001928E-02 0.  1.
    10030    2    1    2    0    0  0.00000000000E+00  0.00000000000E+00  0.52696391397E+03  0.15042775905E+04  0.14089570975E+04 0.  0.
        2    1    3    3  502    0  0.78980525807E+02 -0.36859643132E+03 -0.37191863062E+03  0.52955143324E+03  0.25500000920E-02 0.  1.
       -2    1    3    3    0  502 -0.78980525807E+02  0.36859643132E+03  0.89888254459E+03  0.97472615724E+03  0.25500000920E-02 0. -1.
</event>
<event>
 5   0  0.2143942E-04  0.1401702E+04  0.7818609E-02  0.8952587E-01
        1   -1    0    0  501    0  0.00000000000E+00  0.00000000000E+00  0.53850911854E+03  0.53850911856E+03  0.50400001928E-02 0.  1.
       -1   -1    0    0    0  501  0.00000000000E+00  0.00000000000E+00 -0.91213369013E+03  0.91213369015E+03  0.50400001928E-02 0. -1.
    10030    2    1    2    0    0  0.00000000000E+00  0.00000000000E+00 -0.37362457159E+03  0.14506428087E+04  0.14017022644E+04 0.  0.
        4    1    3    3  502    0  0.50844362465E+03 -0.31568461026E+03  0.19063956594E+03  0.62810568346E+03  0.12699999809E+01 0.  1.
       -4    1    3    3    0  502 -0.50844362465E+03  0.31568461026E+03 -0.56426413753E+03  0.82253712524E+03  0.12699999809E+01 0. -1.
</event>
<event>
 5   0  0.2217251E-04  0.1307920E+04  0.7818609E-02  0.9023308E-01
       -1   -1    0    0    0  501  0.00000000000E+00  0.00000000000E+00  0.35053900318E+03  0.35053900322E+03  0.50400001928E-02 0. -1.
        1   -1    0    0  501    0  0.00000000000E+00  0.00000000000E+00 -0.12200175528E+04  0.12200175528E+04  0.50400001928E-02 0.  1.
    10030    2    1    2    0    0  0.00000000000E+00  0.00000000000E+00 -0.86947854960E+03  0.15705565560E+04  0.13079200845E+04 0.  0.
        5    1    3    3  502    0 -0.61401848013E+03  0.17758493538E+03 -0.60063531351E+03  0.87712027285E+03  0.46999998093E+01 0.  1.
       -5    1    3    3    0  502  0.61401848013E+03 -0.17758493538E+03 -0.26884323610E+03  0.69343628317E+03  0.46999998093E+01 0. -1.
</event>
<event>
 5   0  0.2217251E-04  0.1399642E+04  0.7818609E-02  0.8954077E-01
        1   -1    0    0  501    0  0.00000000000E+00  0.00000000000E+00  0.12349294360E+04  0.12349294360E+04  0.50400001928E-02 0.  1.
       -1   -1    0    0    0  501  0.00000000000E+00  0.00000000000E+00 -0.39658110454E+03  0.39658110457E+03  0.50400001928E-02 0. -1.
    10030    2    1    2    0    0  0.00000000000E+00  0.00000000000E+00  0.83834833145E+03  0.16315105406E+04  0.13996423540E+04 0.  0.
        5    1    3    3  502    0  0.61605351642E+03 -0.21484751231E+03  0.12417587784E+03  0.66417100755E+03  0.46999998093E+01 0. -1.
       -5    1    3    3    0  502 -0.61605351642E+03  0.21484751231E+03  0.71417245361E+03  0.96733953301E+03  0.46999998093E+01 0.  1.
</event>
<event>
 5   0  0.3917598E-04  0.1399201E+04  0.7818609E-02  0.8954397E-01
       -2   -1    0    0    0  501  0.00000000000E+00  0.00000000000E+00  0.31491982763E+03  0.31491982764E+03  0.25500000920E-02 0.  1.
        2   -1    0    0  501    0  0.00000000000E+00  0.00000000000E+00 -0.15541769659E+04  0.15541769659E+04  0.25500000920E-02 0. -1.
    10030    2    1    2    0    0  0.00000000000E+00  0.00000000000E+00 -0.12392571383E+04  0.18690967936E+04  0.13992014040E+04 0.  0.
        3    1    3    3  502    0  0.19313165845E+03 -0.60717260212E+03 -0.23366183913E+03  0.67864296322E+03  0.10100000352E+00 0.  1.
       -3    1    3    3    0  502 -0.19313165845E+03  0.60717260212E+03 -0.10055952992E+04  0.11904538303E+04  0.10100000352E+00 0. -1.
</event>
<event>
 5   0  0.3917598E-04  0.1411855E+04  0.7818609E-02  0.8945281E-01
        2   -1    0    0  501    0  0.00000000000E+00  0.00000000000E+00  0.16846939075E+04  0.16846939075E+04  0.25500000920E-02 0. -1.
       -2   -1    0    0    0  501  0.00000000000E+00  0.00000000000E+00 -0.29580088344E+03  0.29580088345E+03  0.25500000920E-02 0.  1.
    10030    2    1    2    0    0  0.00000000000E+00  0.00000000000E+00  0.13888930241E+04  0.19804947910E+04  0.14118554404E+04 0.  0.
        3    1    3    3  502    0  0.22858968980E+03  0.17874096893E+03  0.15971664907E+04  0.16233121663E+04  0.10100000352E+00 0. -1.
       -3    1    3    3    0  502 -0.22858968980E+03 -0.17874096893E+03 -0.20827346659E+03  0.35718262463E+03  0.10100000352E+00 0.  1.
</event>
<event>
 5   0  0.1497625E-04  0.1400228E+04  0.7818609E-02  0.8953653E-01
        3   -1    0    0  501    0  0.00000000000E+00  0.00000000000E+00  0.21063102003E+04  0.21063102027E+04  0.10100000352E+00 0.  1.
       -3   -1    0    0    0  501  0.00000000000E+00  0.00000000000E+00 -0.23271014536E+03  0.23271016728E+03  0.10100000352E+00 0. -1.
    10030    2    1    2    0    0  0.00000000000E+00  0.00000000000E+00  0.18736000549E+04  0.23390203700E+04  0.14002282405E+04 0.  0.
        2    1    3    3  502    0 -0.17874884922E+03  0.24875865282E+03  0.19884287021E+04  0.20118848680E+04  0.25500000920E-02 0.  1.
       -2    1    3    3    0  502  0.17874884922E+03 -0.24875865282E+03 -0.11482864722E+03  0.32713550201E+03  0.25500000920E-02 0. -1.
</event>
<event>
 5   0  0.4310348E-04  0.1402982E+04  0.7818609E-02  0.8951663E-01
        2   -1    0    0  501    0  0.00000000000E+00  0.00000000000E+00  0.18308282174E+04  0.18308282174E+04  0.25500000920E-02 0. -1.
       -2   -1    0    0    0  501  0.00000000000E+00  0.00000000000E+00 -0.26877967939E+03  0.26877967940E+03  0.25500000920E-02 0.  1.
    10030    2    1    2    0    0  0.00000000000E+00  0.00000000000E+00  0.15620485381E+04  0.20996078968E+04  0.14029817124E+04 0.  0.
        1    1    3    3  502    0  0.29514080966E+03 -0.62926551176E+03  0.63900151410E+03  0.94414305953E+03  0.50400001928E-02 0.  1.
       -1    1    3    3    0  502 -0.29514080966E+03  0.62926551176E+03  0.92304702395E+03  0.11554648373E+04  0.50400001928E-02 0. -1.
</event>
<event>
 5   0  0.2155352E-04  0.1399654E+04  0.7818609E-02  0.8954069E-01
       -1   -1    0    0    0  501  0.00000000000E+00  0.00000000000E+00  0.46876219699E+03  0.46876219702E+03  0.50400001928E-02 0.  1.
        1   -1    0    0  501    0  0.00000000000E+00  0.00000000000E+00 -0.10447902204E+04  0.10447902204E+04  0.50400001928E-02 0. -1.
    10030    2    1    2    0    0  0.00000000000E+00  0.00000000000E+00 -0.57602802344E+03  0.15135524175E+04  0.13996544704E+04 0.  0.
        2    1    3    3  502    0 -0.46139090794E+03  0.41889019664E+03 -0.63237335140E+03  0.88783254183E+03  0.25500000920E-02 0. -1.
       -2    1    3    3    0  502  0.46139090794E+03 -0.41889019664E+03  0.56345327961E+02  0.62571987563E+03  0.25500000920E-02 0.  1.
</event>
<event>
 5   0  0.3917598E-04  0.1398551E+04  0.7818609E-02  0.8954868E-01
       -2   -1    0    0    0  501  0.00000000000E+00  0.00000000000E+00  0.58322537742E+03  0.58322537743E+03  0.25500000920E-02 0. -1.
        2   -1    0    0  501    0  0.00000000000E+00  0.00000000000E+00 -0.83841753710E+03  0.83841753711E+03  0.25500000920E-02 0.  1.
    10030    2    1    2    0    0  0.00000000000E+00  0.00000000000E+00 -0.25519215968E+03  0.14216429145E+04  0.13985512283E+04 0.  0.
        3    1    3    3  502    0 -0.39810901075E+02  0.61377715396E+03  0.21058156863E+03  0.65011684320E+03  0.10100000352E+00 0. -1.
       -3    1    3    3    0  502  0.39810901075E+02 -0.61377715396E+03 -0.46577372831E+03  0.77152607134E+03  0.10100000352E+00 0.  1.
</event>
<event>
 5   0  0.4208622E-04  0.1404460E+04  0.7818609E-02  0.8950596E-01
        2   -1    0    0  501    0  0.00000000000E+00  0.00000000000E+00  0.60809870549E+03  0.60809870549E+03  0.25500000920E-02 0.  1.
       -2   -1    0    0    0  501  0.00000000000E+00  0.00000000000E+00 -0.81093254587E+03  0.81093254588E+03  0.25500000920E-02 0. -1.
    10030    2    1    2    0    0  0.00000000000E+00  0.00000000000E+00 -0.20283384038E+03  0.14190312514E+04  0.14044600833E+04 0.  0.
        4    1    3    3  502    0  0.62510494624E+03  0.18681633639E+03 -0.36385950932E+03  0.74702870947E+03  0.12699999809E+01 0. -1.
       -4    1    3    3    0  502 -0.62510494624E+03 -0.18681633639E+03  0.16102566894E+03  0.67200254189E+03  0.12699999809E+01 0.  1.
</event>
<event>
 5   0  0.3975164E-04  0.1398894E+04  0.7818609E-02  0.8954620E-01
       -2   -1    0    0    0  501  0.00000000000E+00  0.00000000000E+00  0.34058078137E+03  0.34058078138E+03  0.25500000920E-02 0.  1.
        2   -1    0    0  501    0  0.00000000000E+00  0.00000000000E+00 -0.14364459537E+04  0.14364459537E+04  0.25500000920E-02 0. -1.
    10030    2    1    2    0    0  0.00000000000E+00  0.00000000000E+00 -0.10958651723E+04  0.17770267351E+04  0.13988936848E+04 0.  0.
        5    1    3    3  502    0 -0.55779059875E+03 -0.42060169173E+03 -0.50452481499E+03  0.86174445985E+03  0.46999998093E+01 0. -1.
       -5    1    3    3    0  502  0.55779059875E+03  0.42060169173E+03 -0.59134035735E+03  0.91528227524E+03  0.46999998093E+01 0.  1.
</event>
<event>
 5   0  0.2223112E-04  0.1411669E+04  0.7818609E-02  0.8945415E-01
       -1   -1    0    0    0  501  0.00000000000E+00  0.00000000000E+00  0.62476926958E+03  0.62476926960E+03  0.50400001928E-02 0. -1.
        1   -1    0    0  501    0  0.00000000000E+00  0.00000000000E+00 -0.79741756388E+03  0.79741756389E+03  0.50400001928E-02 0.  1.
    10030    2    1    2    0    0  0.00000000000E+00  0.00000000000E+00 -0.17264829430E+03  0.14221868335E+04  0.14116685007E+04 0.  0.
        1    1    3    3  502    0 -0.60015543346E+03 -0.35787044807E+03 -0.18678770886E+03  0.72328932671E+03  0.50400001928E-02 0.  1.
       -1    1    3    3    0  502  0.60015543346E+03  0.35787044807E+03  0.14139414565E+02  0.69889750678E+03  0.50400001928E-02 0. -1.
</event>
<event>
 5   0  0.2215876E-04  0.1363288E+04  0.7818609E-02  0.8980830E-01
       -1   -1    0    0    0  501  0.00000000000E+00  0.00000000000E+00  0.99469835602E+03  0.99469835603E+03  0.50400001928E-02 0. -1.
        1   -1    0    0  501    0  0.00000000000E+00  0.00000000000E+00 -0.46711517356E+03  0.46711517359E+03  0.50400001928E-02 0.  1.
    10030    2    1    2    0    0  0.00000000000E+00  0.00000000000E+00  0.52758318246E+03  0.14618135296E+04  0.13632882237E+04 0.  0.
        3    1    3    3  502    0 -0.28440548630E+03  0.37113831834E+03 -0.26804644871E+03  0.53896107545E+03  0.10100000352E+00 0.  1.
       -3    1    3    3    0  502  0.28440548630E+03 -0.37113831834E+03  0.79562963117E+03  0.92285245417E+03  0.10100000352E+00 0. -1.
</event>
<event>
 5   0  0.2143942E-04  0.1397423E+04  0.7818609E-02  0.8955686E-01
       -1   -1    0    0    0  501  0.00000000000E+00  0.00000000000E+00  0.47910325968E+03  0.47910325970E+03  0.50400001928E-02 0.  1.
        1   -1    0    0  501    0  0.00000000000E+00  0.00000000000E+00 -0.10189820455E+04  0.10189820455E+04  0.50400001928E-02 0. -1.
    10030    2    1    2    0    0  0.00000000000E+00  0.00000000000E+00 -0.53987878585E+03  0.14980853052E+04  0.13974227987E+04 0.  0.
        4    1    3    3  502    0  0.29853087898E+03  0.37174373814E+03 -0.81749812071E+03  0.94637142963E+03  0.12699999809E+01 0. -1.
       -4    1    3    3    0  502 -0.29853087898E+03 -0.37174373814E+03  0.27761933486E+03  0.55171387561E+03  0.12699999809E+01 0.  1.
</event>
<event>
 5   0  0.2217251E-04  0.1396910E+04  0.7818609E-02  0.8956058E-01
       -1   -1    0    0    0  501  0.00000000000E+00  0.00000000000E+00  0.59812346368E+03  0.59812346370E+03  0.50400001928E-02 0. -1.
        1   -1    0    0  501    0  0.00000000000E+00  0.00000000000E+00 -0.81561711391E+03  0.81561711393E+03  0.50400001928E-02 0.  1.
    10030    2    1    2    0    0  0.00000000000E+00  0.00000000000E+00 -0.21749365023E+03  0.14137405776E+04  0.13969104957E+04 0.  0.
        5    1    3    3  502    0 -0.57482720427E+03 -0.38479477450E+03 -0.11020966600E+02  0.69183588008E+03  0.46999998093E+01 0. -1.
       -5    1    3    3    0  502  0.57482720427E+03  0.38479477450E+03 -0.20647268363E+03  0.72190469755E+03  0.46999998093E+01 0.  1.
</event>
<event>
 5   0  0.3917598E-04  0.1401834E+04  0.7818609E-02  0.8952492E-01
        2   -1    0    0  501    0  0.00000000000E+00  0.00000000000E+00  0.14975384728E+04  0.14975384728E+04  0.25500000920E-02 0.  1.
       -2   -1    0    0    0  501  0.00000000000E+00  0.00000000000E+00 -0.32806147663E+03  0.32806147664E+03  0.25500000920E-02 0. -1.
    10030    2    1    2    0    0  0.00000000000E+00  0.00000000000E+00  0.11694769961E+04  0.18255999494E+04  0.14018340596E+04 0.  0.
        3    1    3    3  502    0  0.85531901992E+02  0.65463322019E+03  0.27814766340E+03  0.71639827756E+03  0.10100000352E+00 0. -1.
       -3    1    3    3    0  502 -0.85531901992E+02 -0.65463322019E+03  0.89132933274E+03  0.11092016719E+04  0.10100000352E+00 0.  1.
</event>
<event>
 5   0  0.2155352E-04  0.1390995E+04  0.7818609E-02  0.8960363E-01
       -1   -1    0    0    0  501  0.00000000000E+00  0.00000000000E+00  0.91282191405E+03  0.91282191406E+03  0.50400001928E-02 0. -1.
        1   -1    0    0  501    0  0.00000000000E+00  0.00000000000E+00 -0.52991365517E+03  0.52991365519E+03  0.50400001928E-02 0.  1.
    10030    2    1    2    0    0  0.00000000000E+00  0.00000000000E+00  0.38290825888E+03  0.14427355693E+04  0.13909950352E+04 0.  0.
        2    1    3    3  502    0  0.43237791439E+03  0.53637860642E+03  0.92707076365E+02  0.69515988973E+03  0.25500000920E-02 0. -1.
       -2    1    3    3    0  502 -0.43237791439E+03 -0.53637860642E+03  0.29020118252E+03  0.74757567952E+03  0.25500000920E-02 0.  1.
</event>
<event>
 5   0  0.2143942E-04  0.1391454E+04  0.7818609E-02  0.8960028E-01
       -1   -1    0    0    0  501  0.00000000000E+00  0.00000000000E+00  0.42606394962E+03  0.42606394965E+03  0.50400001928E-02 0.  1.
        1   -1    0    0  501    0  0.00000000000E+00  0.00000000000E+00 -0.11360645560E+04  0.11360645560E+04  0.50400001928E-02 0. -1.
    10030    2    1    2    0    0  0.00000000000E+00  0.00000000000E+00 -0.71000060637E+03  0.15621285057E+04  0.13914541340E+04 0.  0.
        4    1    3    3  502    0  0.45286014172E+03  0.42097520158E+03  0.30770785991E+01  0.61831505692E+03  0.12699999809E+01 0.  1.
       -4    1    3    3    0  502 -0.45286014172E+03 -0.42097520158E+03 -0.71307768497E+03  0.94381344873E+03  0.12699999809E+01 0. -1.
</event>
<event>
 5   0  0.2215876E-04  0.1400431E+04  0.7818609E-02  0.8953507E-01
       -1   -1    0    0    0  501  0.00000000000E+00  0.00000000000E+00  0.45074383290E+03  0.45074383292E+03  0.50400001928E-02 0.  1.
        1   -1    0    0  501    0  0.00000000000E+00  0.00000000000E+00 -0.10877611231E+04  0.10877611231E+04  0.50400001928E-02 0. -1.
    10030    2    1    2    0    0  0.00000000000E+00  0.00000000000E+00 -0.63701729021E+03  0.15385049560E+04  0.14004308165E+04 0.  0.
        3    1    3    3  502    0 -0.11286837634E+03  0.16275973705E+03  0.41932759995E+03  0.46375171015E+03  0.10100000352E+00 0.  1.
       -3    1    3    3    0  502  0.11286837634E+03 -0.16275973705E+03 -0.10563448902E+04  0.10747532459E+04  0.10100000352E+00 0. -1.
</event>
<event>
 5   0  0.2143942E-04  0.1399793E+04  0.7818609E-02  0.8953968E-01
        1   -1    0    0  501    0  0.00000000000E+00  0.00000000000E+00  0.62095195868E+03  0.62095195870E+03  0.50400001928E-02 0.  1.
       -1   -1    0    0    0  501  0.00000000000E+00  0.00000000000E+00 -0.78887758081E+03  0.78887758082E+03  0.50400001928E-02 0. -1.
    10030    2    1    2    0    0  0.00000000000E+00  0.00000000000E+00 -0.16792562213E+03  0.14098295395E+04  0.13997929547E+04 0.  0.
        4    1    3    3  502    0 -0.68249479258E+03  0.15374904153E+03 -0.63431447306E+02  0.70246926700E+03  0.12699999809E+01 0. -1.
       -4    1    3    3    0  502  0.68249479258E+03 -0.15374904153E+03 -0.10449417482E+03  0.70736027252E+03  0.12699999809E+01 0.  1.
</event>
<event>
 5   0  0.3932568E-04  0.1392926E+04  0.7818609E-02  0.8958955E-01
       -2   -1    0    0    0  501  0.00000000000E+00  0.00000000000E+00  0.26995603797E+03  0.26995603798E+03  0.25500000920E-02 0. -1.
        2   -1    0    0  501    0  0.00000000000E+00  0.00000000000E+00 -0.17968139557E+04  0.17968139557E+04  0.25500000920E-02 0.  1.
    10030    2    1    2    0    0  0.00000000000E+00  0.00000000000E+00 -0.15268579177E+04  0.20667699937E+04  0.13929260949E+04 0.  0.
        2    1    3    3  502    0  0.11831599005E+03 -0.10498539991E+03 -0.17698088496E+04  0.17768635208E+04  0.25500000920E-02 0.  1.
       -2    1    3    3    0  502 -0.11831599005E+03  0.10498539991E+03  0.24295093184E+03  0.28990647282E+03  0.25500000920E-02 0. -1.
</event>
<event>
 5   0  0.3975164E-04  0.1400232E+04  0.7818609E-02  0.8953651E-01
       -2   -1    0    0    0  501  0.00000000000E+00  0.00000000000E+00  0.56318404946E+03  0.56318404947E+03  0.25500000920E-02 0.  1.
        2   -1    0    0  501    0  0.00000000000E+00  0.00000000000E+00 -0.87034124838E+03  0.87034124839E+03  0.25500000920E-02 0. -1.
    10030    2    1    2    0    0  0.00000000000E+00  0.00000000000E+00 -0.30715719892E+03  0.14335252979E+04  0.14002318504E+04 0.  0.
        5    1    3    3  502    0 -0.61740225807E+02  0.64121221816E+03  0.12712169153E+03  0.65661783303E+03  0.46999998093E+01 0. -1.
       -5    1    3    3    0  502  0.61740225807E+02 -0.64121221816E+03 -0.43427889045E+03  0.77690746482E+03  0.46999998093E+01 0.  1.
</event>
<event>
 5   0  0.3917598E-04  0.1401417E+04  0.7818609E-02  0.8952793E-01
        2   -1    0    0  501    0  0.00000000000E+00  0.00000000000E+00  0.72978808511E+03  0.72978808512E+03  0.25500000920E-02 0. -1.
       -2   -1    0    0    0  501  0.00000000000E+00  0.00000000000E+00 -0.67278768588E+03  0.67278768588E+03  0.25500000920E-02 0.  1.
    10030    2    1    2    0    0  0.00000000000E+00  0.00000000000E+00  0.57000399234E+02  0.14025757710E+04  0.14014170499E+04 0.  0.
        3    1    3    3  502    0 -0.55213886456E+03  0.34594237409E+03  0.28650973356E+03  0.71177334143E+03  0.10100000352E+00 0. -1.
       -3    1    3    3    0  502  0.55213886456E+03 -0.34594237409E+03 -0.22950933433E+03  0.69080242957E+03  0.10100000352E+00 0.  1.
</event>
<event>
 5   0  0.3975164E-04  0.1409061E+04  0.7818609E-02  0.8947285E-01
        2   -1    0    0  501    0  0.00000000000E+00  0.00000000000E+00  0.14791335858E+04  0.14791335858E+04  0.25500000920E-02 0.  1.
       -2   -1    0    0    0  501  0.00000000000E+00  0.00000000000E+00 -0.33557716713E+03  0.33557716714E+03  0.25500000920E-02 0. -1.
    10030    2    1    2    0    0  0.00000000000E+00  0.00000000000E+00  0.11435564186E+04  0.18147107529E+04  0.14090613309E+04 0.  0.
        5    1    3    3  502    0 -0.31216465987E+03  0.49524853164E+03  0.66993346264E+02  0.58926062265E+03  0.46999998093E+01 0. -1.
       -5    1    3    3    0  502  0.31216465987E+03 -0.49524853164E+03  0.10765630724E+04  0.12254501303E+04  0.46999998093E+01 0.  1.
</event>
<event>
 5   0  0.2143942E-04  0.1403832E+04  0.7818609E-02  0.8951049E-01
       -1   -1    0    0    0  501  0.00000000000E+00  0.00000000000E+00  0.34409690393E+03  0.34409690397E+03  0.50400001928E-02 0.  1.
        1   -1    0    0  501    0  0.00000000000E+00  0.00000000000E+00 -0.14318244719E+04  0.14318244719E+04  0.50400001928E-02 0. -1.
    10030    2    1    2    0    0  0.00000000000E+00  0.00000000000E+00 -0.10877275679E+04  0.17759213758E+04  0.14038324227E+04 0.  0.
        4    1    3    3  502    0  0.25318121078E+03 -0.24302715258E+03  0.22514007210E+03  0.41695633746E+03  0.12699999809E+01 0.  1.
       -4    1    3    3    0  502 -0.25318121078E+03  0.24302715258E+03 -0.13128676400E+04  0.13589650384E+04  0.12699999809E+01 0. -1.
</event>
<event>
 5   0  0.2217251E-04  0.1416531E+04  0.7818609E-02  0.8941939E-01
       -1   -1    0    0    0  501  0.00000000000E+00  0.00000000000E+00  0.52749644602E+03  0.52749644605E+03  0.50400001928E-02 0. -1.
        1   -1    0    0  501    0  0.00000000000E+00  0.00000000000E+00 -0.95098257832E+03  0.95098257833E+03  0.50400001928E-02 0.  1.
    10030    2    1    2    0    0  0.00000000000E+00  0.00000000000E+00 -0.42348613230E+03  0.14784790244E+04  0.14165308755E+04 0.  0.
        5    1    3    3  502    0  0.38399847134E+02  0.51424359436E+03  0.29497452539E+03  0.59409854673E+03  0.46999998093E+01 0. -1.
       -5    1    3    3    0  502 -0.38399847134E+02 -0.51424359436E+03 -0.71846065769E+03  0.88438047765E+03  0.46999998093E+01 0.  1.
</event>
<event>
 5   0  0.2215876E-04  0.1397743E+04  0.7818609E-02  0.8955454E-01
        1   -1    0    0  501    0  0.00000000000E+00  0.00000000000E+00  0.18366200404E+03  0.18366200411E+03  0.50400001928E-02 0.  1.
       -1   -1    0    0    0  501  0.00000000000E+00  0.00000000000E+00 -0.26593505823E+04  0.26593505823E+04  0.50400001928E-02 0. -1.
    10030    2    1    2    0    0  0.00000000000E+00  0.00000000000E+00 -0.24756885783E+04  0.28430125864E+04  0.13977434063E+04 0.  0.
        3    1    3    3  502    0 -0.32301218046E+03  0.22274335597E+03 -0.61511969267E+02  0.39715891520E+03  0.10100000352E+00 0.  1.
       -3    1    3    3    0  502  0.32301218046E+03 -0.22274335597E+03 -0.24141766090E+04  0.24458536712E+04  0.10100000352E+00 0. -1.
</event>
<event>
 5   0  0.2217251E-04  0.1399005E+04  0.7818609E-02  0.8954539E-01
       -1   -1    0    0    0  501  0.00000000000E+00  0.00000000000E+00  0.40167985723E+03  0.40167985726E+03  0.50400001928E-02 0. -1.
        1   -1    0    0  501    0  0.00000000000E+00  0.00000000000E+00 -0.12181434257E+04  0.12181434257E+04  0.50400001928E-02 0.  1.
    10030    2    1    2    0    0  0.00000000000E+00  0.00000000000E+00 -0.81646356845E+03  0.16198232830E+04  0.13990048997E+04 0.  0.
        5    1    3    3  502    0  0.59997196493E+03  0.31541202150E+03 -0.60820809924E+03  0.91070867130E+03  0.46999998093E+01 0. -1.
       -5    1    3    3    0  502 -0.59997196493E+03 -0.31541202150E+03 -0.20825546921E+03  0.70911461165E+03  0.46999998093E+01 0.  1.
</event>
<event>
 5   0  0.3932568E-04  0.1400635E+04  0.7818609E-02  0.8953359E-01
       -2   -1    0    0    0  501  0.00000000000E+00  0.00000000000E+00  0.66045014649E+03  0.66045014650E+03  0.25500000920E-02 0. -1.
        2   -1    0    0  501    0  0.00000000000E+00  0.00000000000E+00 -0.74259132995E+03  0.74259132995E+03  0.25500000920E-02 0.  1.
    10030    2    1    2    0    0  0.00000000000E+00  0.00000000000E+00 -0.82141183452E+02  0.14030414764E+04  0.14006349312E+04 0.  0.
        2    1    3    3  502    0  0.58417749345E+03  0.53564262073E+02 -0.42423542833E+03  0.72395315641E+03  0.25500000920E-02 0.  1.
       -2    1    3    3    0  502 -0.58417749345E+03 -0.53564262073E+02  0.34209424488E+03  0.67908832004E+03  0.25500000920E-02 0. -1.
</event>
<event>
 5   0  0.3917598E-04  0.1392828E+04  0.7818609E-02  0.8959027E-01
        2   -1    0    0  501    0  0.00000000000E+00  0.00000000000E+00  0.78724739641E+03  0.78724739642E+03  0.25500000920E-02 0. -1.
       -2   -1    0    0    0  501  0.00000000000E+00  0.00000000000E+00 -0.61606092187E+03  0.61606092188E+03  0.25500000920E-02 0.  1.
    10030    2    1    2    0    0  0.00000000000E+00  0.00000000000E+00  0.17118647454E+03  0.14033083183E+04  0.13928278527E+04 0.  0.
        3    1    3    3  502    0 -0.58079883186E+03  0.10912281963E+03  0.45681823276E+03  0.74693907438E+03  0.10100000352E+00 0. -1.
       -3    1    3    3    0  502  0.58079883186E+03 -0.10912281963E+03 -0.28563175822E+03  0.65636924391E+03  0.10100000352E+00 0.  1.
</event>
<event>
 5   0  0.3917598E-04  0.1405912E+04  0.7818609E-02  0.8949550E-01
       -2   -1    0    0    0  501  0.00000000000E+00  0.00000000000E+00  0.51425686011E+03  0.51425686012E+03  0.25500000920E-02 0. -1.
        2   -1    0    0  501    0  0.00000000000E+00  0.00000000000E+00 -0.96089535096E+03  0.96089535096E+03  0.25500000920E-02 0.  1.
    10030    2    1    2    0    0  0.00000000000E+00  0.00000000000E+00 -0.44663849085E+03  0.14751522111E+04  0.14059118409E+04 0.  0.
        3    1    3    3  502    0  0.64028327182E+03  0.10295372078E+03 -0.50794424055E+03  0.82375329954E+03  0.10100000352E+00 0.  1.
       -3    1    3    3    0  502 -0.64028327182E+03 -0.10295372078E+03  0.61305749701E+02  0.65139891153E+03  0.10100000352E+00 0. -1.
</event>
<event>
 5   0  0.2155352E-04  0.1415558E+04  0.7818609E-02  0.8942633E-01
        1   -1    0    0  501    0  0.00000000000E+00  0.00000000000E+00  0.10722165087E+04  0.10722165088E+04  0.50400001928E-02 0.  1.
       -1   -1    0    0    0  501  0.00000000000E+00  0.00000000000E+00 -0.46721084283E+03  0.46721084286E+03  0.50400001928E-02 0. -1.
    10030    2    1    2    0    0  0.00000000000E+00  0.00000000000E+00  0.60500566592E+03  0.15394273516E+04  0.14155580932E+04 0.  0.
        2    1    3    3  502    0 -0.72730902176E+02  0.16484642880E+03 -0.44185248681E+03  0.47717685330E+03  0.25500000920E-02 0. -1.
       -2    1    3    3    0  502  0.72730902176E+02 -0.16484642880E+03  0.10468581527E+04  0.10622504983E+04  0.25500000920E-02 0.  1.
</event>
<event>
 5   0  0.4208622E-04  0.1404218E+04  0.7818609E-02  0.8950771E-01
       -2   -1    0    0    0  501  0.00000000000E+00  0.00000000000E+00  0.56045090511E+03  0.56045090511E+03  0.25500000920E-02 0. -1.
        2   -1    0    0  501    0  0.00000000000E+00  0.00000000000E+00 -0.87957273277E+03  0.87957273278E+03  0.25500000920E-02 0.  1.
    10030    2    1    2    0    0  0.00000000000E+00  0.00000000000E+00 -0.31912182767E+03  0.14400236379E+04  0.14042184078E+04 0.  0.
        4    1    3    3  502    0  0.22827367528E+03 -0.62063326980E+03  0.82381061311E+02  0.66639536206E+03  0.12699999809E+01 0.  1.
       -4    1    3    3    0  502 -0.22827367528E+03  0.62063326980E+03 -0.40150288898E+03  0.77362827583E+03  0.12699999809E+01 0. -1.
</event>
<event>
 5   0  0.3917598E-04  0.1370447E+04  0.7818609E-02  0.8975493E-01
       -2   -1    0    0    0  501  0.00000000000E+00  0.00000000000E+00  0.19157664240E+03  0.19157664241E+03  0.25500000920E-02 0.  1.
        2   -1    0    0  501    0  0.00000000000E+00  0.00000000000E+00 -0.24508796789E+04  0.24508796789E+04  0.25500000920E-02 0. -1.
    10030    2    1    2    0    0  0.00000000000E+00  0.00000000000E+00 -0.22593030365E+04  0.26424563213E+04  0.13704470801E+04 0.  0.
        3    1    3    3  502    0  0.21812930158E+02  0.19087598556E+03 -0.23978866205E+04  0.24055705561E+04  0.10100000352E+00 0. -1.
       -3    1    3    3    0  502 -0.21812930158E+02 -0.19087598556E+03  0.13858358398E+03  0.23688576516E+03  0.10100000352E+00 0.  1.
</event>
<event>
 5   0  0.3917598E-04  0.1419204E+04  0.7818609E-02  0.8940034E-01
       -2   -1    0    0    0  501  0.00000000000E+00  0.00000000000E+00  0.38428770085E+03  0.38428770085E+03  0.25500000920E-02 0. -1.
        2   -1    0    0  501    0  0.00000000000E+00  0.00000000000E+00 -0.13103074592E+04  0.13103074592E+04  0.25500000920E-02 0.  1.
    10030    2    1    2    0    0  0.00000000000E+00  0.00000000000E+00 -0.92601975836E+03  0.16945951601E+04  0.14192040599E+04 0.  0.
        3    1    3    3  502    0  0.37620829506E+03 -0.46467104021E+03 -0.91938421586E+03  0.10966855536E+04  0.10100000352E+00 0.  1.
       -3    1    3    3    0  502 -0.37620829506E+03  0.46467104021E+03 -0.66355425025E+01  0.59790960647E+03  0.10100000352E+00 0. -1.
</event>
<event>
 5   0  0.3917598E-04  0.1395121E+04  0.7818609E-02  0.8957358E-01
        2   -1    0    0  501    0  0.00000000000E+00  0.00000000000E+00  0.74226303022E+03  0.74226303022E+03  0.25500000920E-02 0. -1.
       -2   -1    0    0    0  501  0.00000000000E+00  0.00000000000E+00 -0.65554976397E+03  0.65554976397E+03  0.25500000920E-02 0.  1.
    10030    2    1    2    0    0  0.00000000000E+00  0.00000000000E+00  0.86713266251E+02  0.13978127942E+04  0.13951205744E+04 0.  0.
        3    1    3    3  502    0  0.23642326755E+03 -0.26399195340E+03 -0.55863776706E+03  0.66156169620E+03  0.10100000352E+00 0.  1.
       -3    1    3    3    0  502 -0.23642326755E+03  0.26399195340E+03  0.64535103331E+03  0.73625109799E+03  0.10100000352E+00 0. -1.
</event>
<event>
 5   0  0.3975164E-04  0.1396923E+04  0.7818609E-02  0.8956049E-01
        2   -1    0    0  501    0  0.00000000000E+00  0.00000000000E+00  0.85513904395E+03  0.85513904396E+03  0.25500000920E-02 0.  1.
       -2   -1    0    0    0  501  0.00000000000E+00  0.00000000000E+00 -0.57049015042E+03  0.57049015043E+03  0.25500000920E-02 0. -1.
    10030    2    1    2    0    0  0.00000000000E+00  0.00000000000E+00  0.28464889353E+03  0.14256291944E+04  0.13969229067E+04 0.  0.
        5    1    3    3  502    0  0.27128306203E+03 -0.36089700185E+03 -0.40152910497E+03  0.60422583347E+03  0.46999998093E+01 0. -1.
       -5    1    3    3    0  502 -0.27128306203E+03  0.36089700185E+03  0.68617799850E+03  0.82140336091E+03  0.46999998093E+01 0.  1.
</event>
<event>
 5   0  0.2215876E-04  0.1407372E+04  0.7818609E-02  0.8948500E-01
       -1   -1    0    0    0  501  0.00000000000E+00  0.00000000000E+00  0.94482415707E+03  0.94482415708E+03  0.50400001928E-02 0. -1.
        1   -1    0    0  501    0  0.00000000000E+00  0.00000000000E+00 -0.52409092475E+03  0.52409092477E+03  0.50400001928E-02 0.  1.
    10030    2    1    2    0    0  0.00000000000E+00  0.00000000000E+00  0.42073323232E+03  0.14689150819E+04  0.14073716868E+04 0.  0.
        3    1    3    3  502    0 -0.32238700099E+03 -0.20870739245E+03  0.82579671881E+03  0.91073178547E+03  0.10100000352E+00 0. -1.
       -3    1    3    3    0  502  0.32238700099E+03  0.20870739245E+03 -0.40506348649E+03  0.55818329638E+03  0.10100000352E+00 0.  1.
</event>
<event>
 5   0  0.2155352E-04  0.1400546E+04  0.7818609E-02  0.8953424E-01
        1   -1    0    0  501    0  0.00000000000E+00  0.00000000000E+00  0.81921171093E+03  0.81921171095E+03  0.50400001928E-02 0.  1.
       -1   -1    0    0    0  501  0.00000000000E+00  0.00000000000E+00 -0.59860251282E+03  0.59860251284E+03  0.50400001928E-02 0. -1.
    10030    2    1    2    0    0  0.00000000000E+00  0.00000000000E+00  0.22060919811E+03  0.14178142238E+04  0.14005458775E+04 0.  0.
        2    1    3    3  502    0 -0.24161345821E+03 -0.26261593347E+03  0.72025992904E+03  0.80381500178E+03  0.25500000920E-02 0.  1.
       -2    1    3    3    0  502  0.24161345821E+03  0.26261593347E+03 -0.49965073093E+03  0.61399922201E+03  0.25500000920E-02 0. -1.
</event>
<event>
 5   0  0.2143942E-04  0.1403974E+04  0.7818609E-02  0.8950947E-01
        1   -1    0    0  501    0  0.00000000000E+00  0.00000000000E+00  0.95232904478E+03  0.95232904479E+03  0.50400001928E-02 0.  1.
       -1   -1    0    0    0  501  0.00000000000E+00  0.00000000000E+00 -0.51745298564E+03  0.51745298567E+03  0.50400001928E-02 0. -1.
    10030    2    1    2    0    0  0.00000000000E+00  0.00000000000E+00  0.43487605913E+03  0.14697820305E+04  0.14039736572E+04 0.  0.
        4    1    3    3  502    0 -0.38767207952E+03 -0.56740950372E+03  0.67399885280E+02  0.69049804025E+03  0.12699999809E+01 0. -1.
       -4    1    3    3    0  502  0.38767207952E+03  0.56740950372E+03  0.36747617385E+03  0.77928399021E+03  0.12699999809E+01 0.  1.
</event>
<event>
 5   0  0.3917598E-04  0.1404159E+04  0.7818609E-02  0.8950814E-01
        2   -1    0    0  501    0  0.00000000000E+00  0.00000000000E+00  0.11585241630E+04  0.11585241630E+04  0.25500000920E-02 0.  1.
       -2   -1    0    0    0  501  0.00000000000E+00  0.00000000000E+00 -0.42546851668E+03  0.42546851669E+03  0.25500000920E-02 0. -1.
    10030    2    1    2    0    0  0.00000000000E+00  0.00000000000E+00  0.73305564632E+03  0.15839926797E+04  0.14041589044E+04 0.  0.
        3    1    3    3  502    0  0.10277136882E+03  0.34401570249E+02  0.11490312338E+04  0.11541309323E+04  0.10100000352E+00 0.  1.
       -3    1    3    3    0  502 -0.10277136882E+03 -0.34401570249E+02 -0.41597558752E+03  0.42986174742E+03  0.10100000352E+00 0. -1.
</event>
<event>
 5   0  0.3917598E-04  0.1397571E+04  0.7818609E-02  0.8955579E-01
       -2   -1    0    0    0  501  0.00000000000E+00  0.00000000000E+00  0.98594911105E+03  0.98594911105E+03  0.25500000920E-02 0. -1.
        2   -1    0    0  501    0  0.00000000000E+00  0.00000000000E+00 -0.49525995126E+03  0.49525995126E+03  0.25500000920E-02 0.  1.
    10030    2    1    2    0    0  0.00000000000E+00  0.00000000000E+00  0.49068915979E+03  0.14812090623E+04  0.13975709051E+04 0.  0.
        3    1    3    3  502    0 -0.18248001407E+03 -0.44114216853E+03  0.78617291722E+03  0.91976803291E+03  0.10100000352E+00 0. -1.
       -3    1    3    3    0  502  0.18248001407E+03  0.44114216853E+03 -0.29548375743E+03  0.56144102940E+03  0.10100000352E+00 0.  1.
</event>
<event>
 5   0  0.4310348E-04  0.1472499E+04  0.7818609E-02  0.8902949E-01
       -2   -1    0    0    0  501  0.00000000000E+00  0.00000000000E+00  0.30278224796E+03  0.30278224797E+03  0.25500000920E-02 0.  1.
        2   -1    0    0  501    0  0.00000000000E+00  0.00000000000E+00 -0.17902755088E+04  0.17902755088E+04  0.25500000920E-02 0. -1.
    10030    2    1    2    0    0  0.00000000000E+00  0.00000000000E+00 -0.14874932609E+04  0.20930577568E+04  0.14724994303E+04 0.  0.
        1    1    3    3  502    0 -0.29310006170E+03  0.47534668577E+03 -0.61753224536E+02  0.56185013892E+03  0.50400001928E-02 0.  1.
       -1    1    3    3    0  502  0.29310006170E+03 -0.47534668577E+03 -0.14257400363E+04  0.15312076179E+04  0.50400001928E-02 0. -1.
</event>
<event>
 5   0  0.2223112E-04  0.1381994E+04  0.7818609E-02  0.8966957E-01
       -1   -1    0    0    0  501  0.00000000000E+00  0.00000000000E+00  0.57729969133E+03  0.57729969135E+03  0.50400001928E-02 0.  1.
        1   -1    0    0  501    0  0.00000000000E+00  0.00000000000E+00 -0.82708606266E+03  0.82708606268E+03  0.50400001928E-02 0. -1.
    10030    2    1    2    0    0  0.00000000000E+00  0.00000000000E+00 -0.24978637134E+03  0.14043857540E+04  0.13819935292E+04 0.  0.
        1    1    3    3  502    0  0.44857557235E+03 -0.13320952598E+03  0.39178546090E+03  0.61029555899E+03  0.50400001928E-02 0.  1.
       -1    1    3    3    0  502 -0.44857557235E+03  0.13320952598E+03 -0.64157183224E+03  0.79409019504E+03  0.50400001928E-02 0. -1.
</event>
<event>
 5   0  0.3932568E-04  0.1401035E+04  0.7818609E-02  0.8953069E-01
       -2   -1    0    0    0  501  0.00000000000E+00  0.00000000000E+00  0.42683811462E+03  0.42683811462E+03  0.25500000920E-02 0.  1.
        2   -1    0    0  501    0  0.00000000000E+00  0.00000000000E+00 -0.11496749380E+04  0.11496749380E+04  0.25500000920E-02 0. -1.
    10030    2    1    2    0    0  0.00000000000E+00  0.00000000000E+00 -0.72283682342E+03  0.15765130527E+04  0.14010354499E+04 0.  0.
        2    1    3    3  502    0 -0.12769954392E+03  0.54818099159E+03 -0.83068280675E+03  0.10034159150E+04  0.25500000920E-02 0. -1.
       -2    1    3    3    0  502  0.12769954392E+03 -0.54818099159E+03  0.10784598333E+03  0.57309713765E+03  0.25500000920E-02 0.  1.
</event>
<event>
 5   0  0.3917598E-04  0.1396799E+04  0.7818609E-02  0.8956139E-01
        2   -1    0    0  501    0  0.00000000000E+00  0.00000000000E+00  0.82237532364E+03  0.82237532364E+03  0.25500000920E-02 0. -1.
       -2   -1    0    0    0  501  0.00000000000E+00  0.00000000000E+00 -0.59311351473E+03  0.59311351474E+03  0.25500000920E-02 0.  1.
    10030    2    1    2    0    0  0.00000000000E+00  0.00000000000E+00  0.22926180891E+03  0.14154888384E+04  0.13967990817E+04 0.  0.
        3    1    3    3  502    0  0.42859063091E+03 -0.10235680295E+03 -0.43446332994E+03  0.61880953393E+03  0.10100000352E+00 0.  1.
       -3    1    3    3    0  502 -0.42859063091E+03  0.10235680295E+03  0.66372513884E+03  0.79667930446E+03  0.10100000352E+00 0. -1.
</event>
<event>
 5   0  0.2223112E-04  0.1397400E+04  0.7818609E-02  0.8955703E-01
       -1   -1    0    0    0  501  0.00000000000E+00  0.00000000000E+00  0.28401154285E+03  0.28401154289E+03  0.50400001928E-02 0. -1.
        1   -1    0    0  501    0  0.00000000000E+00  0.00000000000E+00 -0.17188787587E+04  0.17188787587E+04  0.50400001928E-02 0.  1.
    10030    2    1    2    0    0  0.00000000000E+00  0.00000000000E+00 -0.14348672158E+04  0.20028903016E+04  0.13973995968E+04 0.  0.
        1    1    3    3  502    0  0.42203973841E+03 -0.43078314835E+03 -0.21172151209E+03  0.63915386286E+03  0.50400001928E-02 0. -1.
       -1    1    3    3    0  502 -0.42203973841E+03  0.43078314835E+03 -0.12231457038E+04  0.13637364387E+04  0.50400001928E-02 0.  1.
</event>
<event>
 5   0  0.4208622E-04  0.1402878E+04  0.7818609E-02  0.8951738E-01
       -2   -1    0    0    0  501  0.00000000000E+00  0.00000000000E+00  0.77232981634E+03  0.77232981635E+03  0.25500000920E-02 0. -1.
        2   -1    0    0  501    0  0.00000000000E+00  0.00000000000E+00 -0.63705542619E+03  0.63705542619E+03  0.25500000920E-02 0.  1.
    10030    2    1    2    0    0  0.00000000000E+00  0.00000000000E+00  0.13527439015E+03  0.14093852425E+04  0.14028783273E+04 0.  0.
        4    1    3    3  502    0  0.47948383964E+02 -0.69386323457E+03  0.15899882175E+03  0.71346161357E+03  0.12699999809E+01 0. -1.
       -4    1    3    3    0  502 -0.47948383964E+02  0.69386323457E+03 -0.23724431591E+02  0.69592362898E+03  0.12699999809E+01 0.  1.
</event>
<event>
 5   0  0.1497625E-04  0.1400898E+04  0.7818609E-02  0.8953169E-01
       -3   -1    0    0    0  501  0.00000000000E+00  0.00000000000E+00  0.36831186235E+03  0.36831187620E+03  0.10100000352E+00 0. -1.
        3   -1    0    0  501    0  0.00000000000E+00  0.00000000000E+00 -0.13321012970E+04  0.13321013008E+04  0.10100000352E+00 0.  1.
    10030    2    1    2    0    0  0.00000000000E+00  0.00000000000E+00 -0.96378943464E+03  0.17004131770E+04  0.14008978900E+04 0.  0.
        2    1    3    3  502    0 -0.10784630349E+03 -0.15395674263E+03  0.33712531905E+03  0.38598832175E+03  0.25500000920E-02 0. -1.
       -2    1    3    3    0  502  0.10784630349E+03  0.15395674263E+03 -0.13009147537E+04  0.13144248553E+04  0.25500000920E-02 0.  1.
</event>
<event>
 5   0  0.3975164E-04  0.1405017E+04  0.7818609E-02  0.8950195E-01
        2   -1    0    0  501    0  0.00000000000E+00  0.00000000000E+00  0.21989198461E+04  0.21989198461E+04  0.25500000920E-02 0. -1.
       -2   -1    0    0    0  501  0.00000000000E+00  0.00000000000E+00 -0.22443651014E+03  0.22443651016E+03  0.25500000920E-02 0.  1.
    10030    2    1    2    0    0  0.00000000000E+00  0.00000000000E+00  0.19744833360E+04  0.24233563563E+04  0.14050165784E+04 0.  0.
        5    1    3    3  502    0  0.17658556849E+03  0.58184523186E+03  0.15940375129E+04  0.17060785502E+04  0.46999998093E+01 0. -1.
       -5    1    3    3    0  502 -0.17658556849E+03 -0.58184523186E+03  0.38044582307E+03  0.71727780610E+03  0.46999998093E+01 0.  1.
</event>
<event>
 5   0  0.4208622E-04  0.1370723E+04  0.7818609E-02  0.8975288E-01
        2   -1    0    0  501    0  0.00000000000E+00  0.00000000000E+00  0.12953368660E+04  0.12953368660E+04  0.25500000920E-02 0. -1.
       -2   -1    0    0    0  501  0.00000000000E+00  0.00000000000E+00 -0.36262404304E+03  0.36262404305E+03  0.25500000920E-02 0.  1.
    10030    2    1    2    0    0  0.00000000000E+00  0.00000000000E+00  0.93271282301E+03  0.16579609091E+04  0.13707228625E+04 0.  0.
        4    1    3    3  502    0  0.90560822123E+00  0.20473427699E+03 -0.32477003103E+03  0.38391943198E+03  0.12699999809E+01 0.  1.
       -4    1    3    3    0  502 -0.90560822123E+00 -0.20473427699E+03  0.12574828540E+04  0.12740414771E+04  0.12699999809E+01 0. -1.
</event>
<event>
 5   0  0.3917598E-04  0.1440506E+04  0.7818609E-02  0.8925009E-01
        2   -1    0    0  501    0  0.00000000000E+00  0.00000000000E+00  0.14788036506E+04  0.14788036506E+04  0.25500000920E-02 0. -1.
       -2   -1    0    0    0  501  0.00000000000E+00  0.00000000000E+00 -0.35080027242E+03  0.35080027243E+03  0.25500000920E-02 0.  1.
    10030    2    1    2    0    0  0.00000000000E+00  0.00000000000E+00  0.11280033782E+04  0.18296039230E+04  0.14405064714E+04 0.  0.
        3    1    3    3  502    0 -0.34228642117E+03 -0.34596998030E+03  0.12383693235E+04  0.13305689809E+04  0.10100000352E+00 0.  1.
       -3    1    3    3    0  502  0.34228642117E+03  0.34596998030E+03 -0.11036594530E+03  0.49903494213E+03  0.10100000352E+00 0. -1.
</event>
<event>
 5   0  0.3975164E-04  0.1401802E+04  0.7818609E-02  0.8952515E-01
        2   -1    0    0  501    0  0.00000000000E+00  0.00000000000E+00  0.69186578389E+03  0.69186578389E+03  0.25500000920E-02 0. -1.
       -2   -1    0    0    0  501  0.00000000000E+00  0.00000000000E+00 -0.71005460948E+03  0.71005460948E+03  0.25500000920E-02 0.  1.
    10030    2    1    2    0    0  0.00000000000E+00  0.00000000000E+00 -0.18188825587E+02  0.14019203934E+04  0.14018023955E+04 0.  0.
        5    1    3    3  502    0  0.39260605298E+02 -0.52526390595E+03 -0.47151503035E+03  0.70695974417E+03  0.46999998093E+01 0.  1.
       -5    1    3    3    0  502 -0.39260605298E+02  0.52526390595E+03  0.45332620477E+03  0.69496064921E+03  0.46999998093E+01 0. -1.
</event>
<event>
 5   0  0.4208622E-04  0.1396183E+04  0.7818609E-02  0.8956586E-01
        2   -1    0    0  501    0  0.00000000000E+00  0.00000000000E+00  0.84154780587E+03  0.84154780588E+03  0.25500000920E-02 0. -1.
       -2   -1    0    0    0  501  0.00000000000E+00  0.00000000000E+00 -0.57908978244E+03  0.57908978245E+03  0.25500000920E-02 0.  1.
    10030    2    1    2    0    0  0.00000000000E+00  0.00000000000E+00  0.26245802343E+03  0.14206375883E+04  0.13961829906E+04 0.  0.
        4    1    3    3  502    0  0.13065803773E+03 -0.50768163760E+03  0.60030021565E+03  0.79697812378E+03  0.12699999809E+01 0. -1.
       -4    1    3    3    0  502 -0.13065803773E+03  0.50768163760E+03 -0.33784219222E+03  0.62365946455E+03  0.12699999809E+01 0.  1.
</event>
<event>
 5   0  0.3917598E-04  0.1399550E+04  0.7818609E-02  0.8954145E-01
        2   -1    0    0  501    0  0.00000000000E+00  0.00000000000E+00  0.56803882270E+03  0.56803882271E+03  0.25500000920E-02 0. -1.
       -2   -1    0    0    0  501  0.00000000000E+00  0.00000000000E+00 -0.86206232210E+03  0.86206232210E+03  0.25500000920E-02 0.  1.
    10030    2    1    2    0    0  0.00000000000E+00  0.00000000000E+00 -0.29402349940E+03  0.14301011448E+04  0.13995497369E+04 0.  0.
        3    1    3    3  502    0 -0.43228208287E+03  0.44091534443E+03  0.18943359553E+03  0.64587865535E+03  0.10100000352E+00 0. -1.
       -3    1    3    3    0  502  0.43228208287E+03 -0.44091534443E+03 -0.48345709493E+03  0.78422248946E+03  0.10100000352E+00 0.  1.
</event>
<event>
 5   0  0.2217251E-04  0.1414707E+04  0.7818609E-02  0.8943242E-01
        1   -1    0    0  501    0  0.00000000000E+00  0.00000000000E+00  0.84990738768E+03  0.84990738770E+03  0.50400001928E-02 0. -1.
       -1   -1    0    0    0  501  0.00000000000E+00  0.00000000000E+00 -0.58870958441E+03  0.58870958444E+03  0.50400001928E-02 0.  1.
    10030    2    1    2    0    0  0.00000000000E+00  0.00000000000E+00  0.26119780327E+03  0.14386169721E+04  0.14147065067E+04 0.  0.
        5    1    3    3  502    0 -0.60608957519E+03  0.36436700502E+03  0.11556225093E+03  0.71657840557E+03  0.46999998093E+01 0.  1.
       -5    1    3    3    0  502  0.60608957519E+03 -0.36436700502E+03  0.14563555233E+03  0.72203856656E+03  0.46999998093E+01 0. -1.
</event>
<event>
 5   0  0.4310348E-04  0.1405885E+04  0.7818609E-02  0.8949570E-01
        2   -1    0    0  501    0  0.00000000000E+00  0.00000000000E+00  0.13401661920E+04  0.13401661920E+04  0.25500000920E-02 0.  1.
       -2   -1    0    0    0  501  0.00000000000E+00  0.00000000000E+00 -0.36870660115E+03  0.36870660116E+03  0.25500000920E-02 0. -1.
    10030    2    1    2    0    0  0.00000000000E+00  0.00000000000E+00  0.97145959085E+03  0.17088727932E+04  0.14058849478E+04 0.  0.
        1    1    3    3  502    0 -0.39874166529E+03 -0.52439563625E+03  0.78382185899E+03  0.10238957006E+04  0.50400001928E-02 0.  1.
       -1    1    3    3    0  502  0.39874166529E+03  0.52439563625E+03  0.18763773186E+03  0.68497709261E+03  0.50400001928E-02 0. -1.
</event>
<event>
 5   0  0.2215876E-04  0.1408859E+04  0.7818609E-02  0.8947431E-01
       -1   -1    0    0    0  501  0.00000000000E+00  0.00000000000E+00  0.87956604293E+03  0.87956604294E+03  0.50400001928E-02 0. -1.
        1   -1    0    0  501    0  0.00000000000E+00  0.00000000000E+00 -0.56416538077E+03  0.56416538079E+03  0.50400001928E-02 0.  1.
    10030    2    1    2    0    0  0.00000000000E+00  0.00000000000E+00  0.31540066216E+03  0.14437314237E+04  0.14088587034E+04 0.  0.
        3    1    3    3  502    0 -0.27069635154E+03  0.30983211964E+03  0.74364751961E+03  0.84987299093E+03  0.10100000352E+00 0. -1.
       -3    1    3    3    0  502  0.27069635154E+03 -0.30983211964E+03 -0.42824685745E+03  0.59385843281E+03  0.10100000352E+00 0.  1.
</event>
<event>
 5   0  0.4208622E-04  0.1401476E+04  0.7818609E-02  0.8952751E-01
        2   -1    0    0  501    0  0.00000000000E+00  0.00000000000E+00  0.56206496279E+03  0.56206496280E+03  0.25500000920E-02 0. -1.
       -2   -1    0    0    0  501  0.00000000000E+00  0.00000000000E+00 -0.87362434622E+03  0.87362434623E+03  0.25500000920E-02 0.  1.
    10030    2    1    2    0    0  0.00000000000E+00  0.00000000000E+00 -0.31155938343E+03  0.14356893090E+04  0.14014758445E+04 0.  0.
        4    1    3    3  502    0  0.54692290499E+03 -0.10886885325E+03  0.27890801684E+03  0.62351293970E+03  0.12699999809E+01 0. -1.
       -4    1    3    3    0  502 -0.54692290499E+03  0.10886885325E+03 -0.59046740027E+03  0.81217636933E+03  0.12699999809E+01 0.  1.
</event>
<event>
 5   0  0.4310348E-04  0.1400728E+04  0.7818609E-02  0.8953292E-01
        2   -1    0    0  501    0  0.00000000000E+00  0.00000000000E+00  0.70805971324E+03  0.70805971324E+03  0.25500000920E-02 0.  1.
       -2   -1    0    0    0  501  0.00000000000E+00  0.00000000000E+00 -0.69275170746E+03  0.69275170746E+03  0.25500000920E-02 0. -1.
    10030    2    1    2    0    0  0.00000000000E+00  0.00000000000E+00  0.15308005785E+02  0.14008114207E+04  0.14007277756E+04 0.  0.
        1    1    3    3  502    0 -0.31060513518E+03 -0.26404483997E+03 -0.56186604251E+03  0.69418202027E+03  0.50400001928E-02 0. -1.
       -1    1    3    3    0  502  0.31060513518E+03  0.26404483997E+03  0.57717404829E+03  0.70662940044E+03  0.50400001928E-02 0.  1.
</event>
<event>
 5   0  0.1497625E-04  0.1387668E+04  0.7818609E-02  0.8962793E-01
        3   -1    0    0  501    0  0.00000000000E+00  0.00000000000E+00  0.81022556240E+03  0.81022556869E+03  0.10100000352E+00 0. -1.
       -3   -1    0    0    0  501  0.00000000000E+00  0.00000000000E+00 -0.59416275057E+03  0.59416275916E+03  0.10100000352E+00 0.  1.
    10030    2    1    2    0    0  0.00000000000E+00  0.00000000000E+00  0.21606281183E+03  0.14043883279E+04  0.13876683454E+04 0.  0.
        3    1    3    3  502    0 -0.23532037895E+03  0.16422780208E+03 -0.53129155314E+03  0.60383538846E+03  0.10100000352E+00 0.  1.
       -3    1    3    3    0  502  0.23532037895E+03 -0.16422780208E+03  0.74735436497E+03  0.80055293939E+03  0.10100000352E+00 0. -1.
</event>
<event>
 5   0  0.4208622E-04  0.1360951E+04  0.7818609E-02  0.8982580E-01
       -2   -1    0    0    0  501  0.00000000000E+00  0.00000000000E+00  0.31380122385E+03  0.31380122386E+03  0.25500000920E-02 0. -1.
        2   -1    0    0  501    0  0.00000000000E+00  0.00000000000E+00 -0.14756054779E+04  0.14756054779E+04  0.25500000920E-02 0.  1.
    10030    2    1    2    0    0  0.00000000000E+00  0.00000000000E+00 -0.11618042541E+04  0.17894067018E+04  0.13609508513E+04 0.  0.
        4    1    3    3  502    0  0.86638134820E+01  0.60808075143E+03 -0.98231662106E+03  0.11553288791E+04  0.12699999809E+01 0.  1.
       -4    1    3    3    0  502 -0.86638134820E+01 -0.60808075143E+03 -0.17948763300E+03  0.63407782268E+03  0.12699999809E+01 0. -1.
</event>
<event>
 5   0  0.4310348E-04  0.1394234E+04  0.7818609E-02  0.8958003E-01
       -2   -1    0    0    0  501  0.00000000000E+00  0.00000000000E+00  0.23718015971E+03  0.23718015973E+03  0.25500000920E-02 0. -1.
        2   -1    0    0  501    0  0.00000000000E+00  0.00000000000E+00 -0.20489569804E+04  0.20489569804E+04  0.25500000920E-02 0.  1.
    10030    2    1    2    0    0  0.00000000000E+00  0.00000000000E+00 -0.18117768207E+04  0.22861371401E+04  0.13942337593E+04 0.  0.
        1    1    3    3  502    0 -0.22215914321E+03 -0.66034428963E+03 -0.86699314936E+03  0.11122438522E+04  0.50400001928E-02 0. -1.
       -1    1    3    3    0  502  0.22215914321E+03  0.66034428963E+03 -0.94478367133E+03  0.11738932879E+04  0.50400001928E-02 0.  1.
</event>
<event>
 5   0  0.2143942E-04  0.1399435E+04  0.7818609E-02  0.8954228E-01
        1   -1    0    0  501    0  0.00000000000E+00  0.00000000000E+00  0.13575234684E+04  0.13575234684E+04  0.50400001928E-02 0.  1.
       -1   -1    0    0    0  501  0.00000000000E+00  0.00000000000E+00 -0.36066006902E+03  0.36066006906E+03  0.50400001928E-02 0. -1.
    10030    2    1    2    0    0  0.00000000000E+00  0.00000000000E+00  0.99686339937E+03  0.17181835374E+04  0.13994348972E+04 0.  0.
        4    1    3    3  502    0 -0.56394599415E+03 -0.25138385839E+03  0.90261590503E+03  0.10935931664E+04  0.12699999809E+01 0.  1.
       -4    1    3    3    0  502  0.56394599415E+03  0.25138385839E+03  0.94247494338E+02  0.62459037110E+03  0.12699999809E+01 0. -1.
</event>
<event>
 5   0  0.1497625E-04  0.1396934E+04  0.7818609E-02  0.8956041E-01
        3   -1    0    0  501    0  0.00000000000E+00  0.00000000000E+00  0.71742961667E+03  0.71742962378E+03  0.10100000352E+00 0.  1.
       -3   -1    0    0    0  501  0.00000000000E+00  0.00000000000E+00 -0.68000592600E+03  0.68000593350E+03  0.10100000352E+00 0. -1.
    10030    2    1    2    0    0  0.00000000000E+00  0.00000000000E+00  0.37423690670E+02  0.13974355573E+04  0.13969343593E+04 0.  0.
        5    1    3    3  502    0 -0.20286813469E+03 -0.69315805815E+02 -0.64626280219E+03  0.68090958320E+03  0.46999998093E+01 0. -1.
       -5    1    3    3    0  502  0.20286813469E+03  0.69315805815E+02  0.68368649286E+03  0.71652597408E+03  0.46999998093E+01 0.  1.
</event>
<event>
 5   0  0.2217251E-04  0.1402625E+04  0.7818609E-02  0.8951920E-01
       -1   -1    0    0    0  501  0.00000000000E+00  0.00000000000E+00  0.51766603944E+03  0.51766603946E+03  0.50400001928E-02 0.  1.
        1   -1    0    0  501    0  0.00000000000E+00  0.00000000000E+00 -0.95010943881E+03  0.95010943883E+03  0.50400001928E-02 0. -1.
    10030    2    1    2    0    0  0.00000000000E+00  0.00000000000E+00 -0.43244339938E+03  0.14677754783E+04  0.14026252390E+04 0.  0.
        5    1    3    3  502    0 -0.29261855165E+02 -0.64543945938E+03  0.69151903334E+02  0.64980953181E+03  0.46999998093E+01 0. -1.
       -5    1    3    3    0  502  0.29261855165E+02  0.64543945938E+03 -0.50159530271E+03  0.81796594648E+03  0.46999998093E+01 0.  1.
</event>
<event>
 5   0  0.4208622E-04  0.1394052E+04  0.7818609E-02  0.8958135E-01
       -2   -1    0    0    0  501  0.00000000000E+00  0.00000000000E+00  0.91925832115E+03  0.91925832115E+03  0.25500000920E-02 0.  1.
        2   -1    0    0  501    0  0.00000000000E+00  0.00000000000E+00 -0.52851865294E+03  0.52851865294E+03  0.25500000920E-02 0. -1.
    10030    2    1    2    0    0  0.00000000000E+00  0.00000000000E+00  0.39073966821E+03  0.14477769741E+04  0.13940518923E+04 0.  0.
        4    1    3    3  502    0  0.51688048020E+03  0.32908833822E+03 -0.14966737783E+03  0.63076659872E+03  0.12699999809E+01 0. -1.
       -4    1    3    3    0  502 -0.51688048020E+03 -0.32908833822E+03  0.54040704604E+03  0.81701037538E+03  0.12699999809E+01 0.  1.
</event>
<event>
 5   0  0.3917598E-04  0.1396324E+04  0.7818609E-02  0.8956484E-01
       -2   -1    0    0    0  501  0.00000000000E+00  0.00000000000E+00  0.14853758604E+04  0.14853758604E+04  0.25500000920E-02 0. -1.
        2   -1    0    0  501    0  0.00000000000E+00  0.00000000000E+00 -0.32815287555E+03  0.32815287556E+03  0.25500000920E-02 0.  1.
    10030    2    1    2    0    0  0.00000000000E+00  0.00000000000E+00  0.11572229848E+04  0.18135287359E+04  0.13963242601E+04 0.  0.
        3    1    3    3  502    0 -0.56375025514E+03 -0.38112592364E+03  0.78131821477E+03  0.10361126786E+04  0.10100000352E+00 0. -1.
       -3    1    3    3    0  502  0.56375025514E+03  0.38112592364E+03  0.37590477005E+03  0.77741605733E+03  0.10100000352E+00 0.  1.
</event>
<event>
 5   0  0.3932568E-04  0.1391114E+04  0.7818609E-02  0.8960276E-01
        2   -1    0    0  501    0  0.00000000000E+00  0.00000000000E+00  0.48920230007E+03  0.48920230008E+03  0.25500000920E-02 0.  1.
       -2   -1    0    0    0  501  0.00000000000E+00  0.00000000000E+00 -0.98895566765E+03  0.98895566765E+03  0.25500000920E-02 0. -1.
    10030    2    1    2    0    0  0.00000000000E+00  0.00000000000E+00 -0.49975336758E+03  0.14781579677E+04  0.13911137801E+04 0.  0.
        2    1    3    3  502    0 -0.20158462467E+03  0.37171635229E+03 -0.83669137979E+03  0.93747633170E+03  0.25500000920E-02 0. -1.
       -2    1    3    3    0  502  0.20158462467E+03 -0.37171635229E+03  0.33693801222E+03  0.54068163603E+03  0.25500000920E-02 0.  1.
</event>
<event>
 5   0  0.3975164E-04  0.1399322E+04  0.7818609E-02  0.8954310E-01
        2   -1    0    0  501    0  0.00000000000E+00  0.00000000000E+00  0.56550917512E+03  0.56550917512E+03  0.25500000920E-02 0. -1.
       -2   -1    0    0    0  501  0.00000000000E+00  0.00000000000E+00 -0.86563632705E+03  0.86563632705E+03  0.25500000920E-02 0.  1.
    10030    2    1    2    0    0  0.00000000000E+00  0.00000000000E+00 -0.30012715193E+03  0.14311455022E+04  0.13993216718E+04 0.  0.
        5    1    3    3  502    0  0.45046406434E+03  0.36367951526E+03 -0.55183671683E+03  0.79982905368E+03  0.46999998093E+01 0.  1.
       -5    1    3    3    0  502 -0.45046406434E+03 -0.36367951526E+03  0.25170956490E+03  0.63131644849E+03  0.46999998093E+01 0. -1.
</event>
<event>
 5   0  0.3932568E-04  0.1404039E+04  0.7818609E-02  0.8950900E-01
       -2   -1    0    0    0  501  0.00000000000E+00  0.00000000000E+00  0.73169954075E+03  0.73169954076E+03  0.25500000920E-02 0.  1.
        2   -1    0    0  501    0  0.00000000000E+00  0.00000000000E+00 -0.67354340189E+03  0.67354340190E+03  0.25500000920E-02 0. -1.
    10030    2    1    2    0    0  0.00000000000E+00  0.00000000000E+00  0.58156138863E+02  0.14052429427E+04  0.14040390277E+04 0.  0.
        2    1    3    3  502    0  0.38122267049E+03 -0.52786277115E+03 -0.23356182022E+03  0.69175208965E+03  0.25500000920E-02 0. -1.
       -2    1    3    3    0  502 -0.38122267049E+03  0.52786277115E+03  0.29171795908E+03  0.71349085301E+03  0.25500000920E-02 0.  1.
</event>
<event>
 5   0  0.2215876E-04  0.1380260E+04  0.7818609E-02  0.8968233E-01
       -1   -1    0    0    0  501  0.00000000000E+00  0.00000000000E+00  0.85338505940E+03  0.85338505941E+03  0.50400001928E-02 0.  1.
        1   -1    0    0  501    0  0.00000000000E+00  0.00000000000E+00 -0.55810571525E+03  0.55810571527E+03  0.50400001928E-02 0. -1.
    10030    2    1    2    0    0  0.00000000000E+00  0.00000000000E+00  0.29527934415E+03  0.14114907747E+04  0.13802595104E+04 0.  0.
        3    1    3    3  502    0 -0.36121704996E+03 -0.55437316487E+02 -0.45103667342E+03  0.58050421550E+03  0.10100000352E+00 0. -1.
       -3    1    3    3    0  502  0.36121704996E+03  0.55437316487E+02  0.74631601758E+03  0.83098655918E+03  0.10100000352E+00 0.  1.
</event>
<event>
 5   0  0.4310348E-04  0.1408599E+04  0.7818609E-02  0.8947618E-01
       -2   -1    0    0    0  501  0.00000000000E+00  0.00000000000E+00  0.86310018329E+03  0.86310018330E+03  0.25500000920E-02 0.  1.
        2   -1    0    0  501    0  0.00000000000E+00  0.00000000000E+00 -0.57471612914E+03  0.57471612915E+03  0.25500000920E-02 0. -1.
    10030    2    1    2    0    0  0.00000000000E+00  0.00000000000E+00  0.28838405415E+03  0.14378163124E+04  0.14085987312E+04 0.  0.
        1    1    3    3  502    0 -0.30174784789E+03  0.48622609948E+03 -0.27489698425E+03  0.63485111285E+03  0.50400001928E-02 0. -1.
       -1    1    3    3    0  502  0.30174784789E+03 -0.48622609948E+03  0.56328103839E+03  0.80296519959E+03  0.50400001928E-02 0.  1.
</event>
<event>
 5   0  0.2155352E-04  0.1395860E+04  0.7818609E-02  0.8956821E-01
       -1   -1    0    0    0  501  0.00000000000E+00  0.00000000000E+00  0.50878808351E+03  0.50878808354E+03  0.50400001928E-02 0.  1.
        1   -1    0    0  501    0  0.00000000000E+00  0.00000000000E+00 -0.95738477751E+03  0.95738477753E+03  0.50400001928E-02 0. -1.
    10030    2    1    2    0    0  0.00000000000E+00  0.00000000000E+00 -0.44859669400E+03  0.14661728611E+04  0.13958595433E+04 0.  0.
        2    1    3    3  502    0  0.35396825976E+03 -0.56637767116E+03 -0.11539460083E+02  0.66798978618E+03  0.25500000920E-02 0.  1.
       -2    1    3    3    0  502 -0.35396825976E+03  0.56637767116E+03 -0.43705723392E+03  0.79818307488E+03  0.25500000920E-02 0. -1.
</event>
<event>
 5   0  0.2143942E-04  0.1394544E+04  0.7818609E-02  0.8957777E-01
        1   -1    0    0  501    0  0.00000000000E+00  0.00000000000E+00  0.40101421484E+03  0.40101421487E+03  0.50400001928E-02 0.  1.
       -1   -1    0    0    0  501  0.00000000000E+00  0.00000000000E+00 -0.12123966278E+04  0.12123966278E+04  0.50400001928E-02 0. -1.
    10030    2    1    2    0    0  0.00000000000E+00  0.00000000000E+00 -0.81138241298E+03  0.16134108427E+04  0.13945440571E+04 0.  0.
        4    1    3    3  502    0  0.31336439907E+03  0.68864490024E+02  0.31053824126E+03  0.44651447544E+03  0.12699999809E+01 0.  1.
       -4    1    3    3    0  502 -0.31336439907E+03 -0.68864490024E+02 -0.11219206542E+04  0.11668963672E+04  0.12699999809E+01 0. -1.
</event>
<event>
 5   0  0.3917598E-04  0.1402445E+04  0.7818609E-02  0.8952051E-01
       -2   -1    0    0    0  501  0.00000000000E+00  0.00000000000E+00  0.71405176842E+03  0.71405176842E+03  0.25500000920E-02 0.  1.
        2   -1    0    0  501    0  0.00000000000E+00  0.00000000000E+00 -0.68862335275E+03  0.68862335275E+03  0.25500000920E-02 0. -1.
    10030    2    1    2    0    0  0.00000000000E+00  0.00000000000E+00  0.25428415668E+02  0.14026751212E+04  0.14024446125E+04 0.  0.
        3    1    3    3  502    0 -0.32057172654E+03  0.32369448890E+03  0.54587626505E+03  0.71100299644E+03  0.10100000352E+00 0.  1.
       -3    1    3    3    0  502  0.32057172654E+03 -0.32369448890E+03 -0.52044784938E+03  0.69167212473E+03  0.10100000352E+00 0. -1.
</event>
<event>
 5   0  0.3975164E-04  0.1415878E+04  0.7818609E-02  0.8942405E-01
        2   -1    0    0  501    0  0.00000000000E+00  0.00000000000E+00  0.66551923905E+03  0.66551923906E+03  0.25500000920E-02 0.  1.
       -2   -1    0    0    0  501  0.00000000000E+00  0.00000000000E+00 -0.75306241752E+03  0.75306241753E+03  0.25500000920E-02 0. -1.
    10030    2    1    2    0    0  0.00000000000E+00  0.00000000000E+00 -0.87543178470E+02  0.14185816566E+04  0.14158778578E+04 0.  0.
        5    1    3    3  502    0  0.47532518002E+03 -0.35423808590E+03 -0.43146891669E+03  0.73321631483E+03  0.46999998093E+01 0. -1.
       -5    1    3    3    0  502 -0.47532518002E+03  0.35423808590E+03  0.34392573822E+03  0.68536534175E+03  0.46999998093E+01 0.  1.
</event>
<event>
 5   0  0.1497625E-04  0.1376388E+04  0.7818609E-02  0.8971090E-01
        3   -1    0    0  501    0  0.00000000000E+00  0.00000000000E+00  0.57967119135E+03  0.57967120015E+03  0.10100000352E+00 0. -1.
       -3   -1    0    0    0  501  0.00000000000E+00  0.00000000000E+00 -0.81703370099E+03  0.81703370723E+03  0.10100000352E+00 0.  1.
    10030    2    1    2    0    0  0.00000000000E+00  0.00000000000E+00 -0.23736250964E+03  0.13967049074E+04  0.13763878949E+04 0.  0.
        5    1    3    3  502    0  0.32299700786E+03  0.30508482470E+03 -0.65197177054E+03  0.78898231724E+03  0.46999998093E+01 0.  1.
       -5    1    3    3    0  502 -0.32299700786E+03 -0.30508482470E+03  0.41460926089E+03  0.60772259014E+03  0.46999998093E+01 0. -1.
</event>
<event>
 5   0  0.3975164E-04  0.1404153E+04  0.7818609E-02  0.8950818E-01
        2   -1    0    0  501    0  0.00000000000E+00  0.00000000000E+00  0.17187357851E+04  0.17187357851E+04  0.25500000920E-02 0.  1.
       -2   -1    0    0    0  501  0.00000000000E+00  0.00000000000E+00 -0.28678716833E+03  0.28678716834E+03  0.25500000920E-02 0. -1.
    10030    2    1    2    0    0  0.00000000000E+00  0.00000000000E+00  0.14319486167E+04  0.20055229534E+04  0.14041529388E+04 0.  0.
        5    1    3    3  502    0  0.19559511822E+02  0.45146336133E+03 -0.51435316529E+02  0.45482900404E+03  0.46999998093E+01 0. -1.
       -5    1    3    3    0  502 -0.19559511822E+02 -0.45146336133E+03  0.14833839333E+04  0.15506939494E+04  0.46999998093E+01 0.  1.
</event>
<event>
 5   0  0.4310348E-04  0.1399215E+04  0.7818609E-02  0.8954387E-01
        2   -1    0    0  501    0  0.00000000000E+00  0.00000000000E+00  0.63511746129E+03  0.63511746129E+03  0.25500000920E-02 0.  1.
       -2   -1    0    0    0  501  0.00000000000E+00  0.00000000000E+00 -0.77064576371E+03  0.77064576372E+03  0.25500000920E-02 0. -1.
    10030    2    1    2    0    0  0.00000000000E+00  0.00000000000E+00 -0.13552830243E+03  0.14057632250E+04  0.13992148956E+04 0.  0.
        1    1    3    3  502    0 -0.57468606069E+03  0.39152889047E+03 -0.14488039716E+03  0.71031631681E+03  0.50400001928E-02 0.  1.
       -1    1    3    3    0  502  0.57468606069E+03 -0.39152889047E+03  0.93520947372E+01  0.69544690820E+03  0.50400001928E-02 0. -1.
</event>
<event>
 5   0  0.2143942E-04  0.1407145E+04  0.7818609E-02  0.8948663E-01
       -1   -1    0    0    0  501  0.00000000000E+00  0.00000000000E+00  0.32765597256E+03  0.32765597260E+03  0.50400001928E-02 0.  1.
        1   -1    0    0  501    0  0.00000000000E+00  0.00000000000E+00 -0.15107746351E+04  0.15107746351E+04  0.50400001928E-02 0. -1.
    10030    2    1    2    0    0  0.00000000000E+00  0.00000000000E+00 -0.11831186626E+04  0.18384306077E+04  0.14071450990E+04 0.  0.
        4    1    3    3  502    0 -0.48889897334E+03 -0.40086411231E+03 -0.18823786331E+03  0.65965850919E+03  0.12699999809E+01 0.  1.
       -4    1    3    3    0  502  0.48889897334E+03  0.40086411231E+03 -0.99488079926E+03  0.11787720985E+04  0.12699999809E+01 0. -1.
</event>
<event>
 5   0  0.1497625E-04  0.1395195E+04  0.7818609E-02  0.8957304E-01
       -3   -1    0    0    0  501  0.00000000000E+00  0.00000000000E+00  0.12111408549E+04  0.12111408591E+04  0.10100000352E+00 0. -1.
        3   -1    0    0  501    0  0.00000000000E+00  0.00000000000E+00 -0.40180473600E+03  0.40180474870E+03  0.10100000352E+00 0.  1.
    10030    2    1    2    0    0  0.00000000000E+00  0.00000000000E+00  0.80933611893E+03  0.16129456078E+04  0.13951948181E+04 0.  0.
        2    1    3    3  502    0  0.31512479482E+03  0.62233811695E+03  0.39794920440E+03  0.80310144902E+03  0.25500000920E-02 0. -1.
       -2    1    3    3    0  502 -0.31512479482E+03 -0.62233811695E+03  0.41138691452E+03  0.80984415882E+03  0.25500000920E-02 0.  1.
</event>
<event>
 5   0  0.3975164E-04  0.1404631E+04  0.7818609E-02  0.8950473E-01
       -2   -1    0    0    0  501  0.00000000000E+00  0.00000000000E+00  0.69411676268E+03  0.69411676269E+03  0.25500000920E-02 0. -1.
        2   -1    0    0  501    0  0.00000000000E+00  0.00000000000E+00 -0.71061086687E+03  0.71061086688E+03  0.25500000920E-02 0.  1.
    10030    2    1    2    0    0  0.00000000000E+00  0.00000000000E+00 -0.16494104190E+02  0.14047276296E+04  0.14046307906E+04 0.  0.
        5    1    3    3  502    0 -0.22432168963E+03  0.13426342956E+03 -0.66011860536E+03  0.71001799421E+03  0.46999998093E+01 0.  1.
       -5    1    3    3    0  502  0.22432168963E+03 -0.13426342956E+03  0.64362450117E+03  0.69470963536E+03  0.46999998093E+01 0. -1.
</event>
<event>
 5   0  0.3932568E-04  0.1428263E+04  0.7818609E-02  0.8933611E-01
        2   -1    0    0  501    0  0.00000000000E+00  0.00000000000E+00  0.13210262127E+04  0.13210262127E+04  0.25500000920E-02 0. -1.
       -2   -1    0    0    0  501  0.00000000000E+00  0.00000000000E+00 -0.38605128581E+03  0.38605128582E+03  0.25500000920E-02 0.  1.
    10030    2    1    2    0    0  0.00000000000E+00  0.00000000000E+00  0.93497492685E+03  0.17070774985E+04  0.14282630962E+04 0.  0.
        2    1    3    3  502    0  0.27135778374E+03  0.99377790451E+02  0.12480194948E+04  0.12810400663E+04  0.25500000920E-02 0. -1.
       -2    1    3    3    0  502 -0.27135778374E+03 -0.99377790451E+02 -0.31304456800E+03  0.42603743215E+03  0.25500000920E-02 0.  1.
</event>
<event>
 5   0  0.3917598E-04  0.1400575E+04  0.7818609E-02  0.8953402E-01
        2   -1    0    0  501    0  0.00000000000E+00  0.00000000000E+00  0.13773684527E+04  0.13773684527E+04  0.25500000920E-02 0. -1.
       -2   -1    0    0    0  501  0.00000000000E+00  0.00000000000E+00 -0.35604311751E+03  0.35604311752E+03  0.25500000920E-02 0.  1.
    10030    2    1    2    0    0  0.00000000000E+00  0.00000000000E+00  0.10213253352E+04  0.17334115702E+04  0.14005749646E+04 0.  0.
        3    1    3    3  502    0 -0.63948840659E+03 -0.24890115128E+03  0.68351375709E+03  0.96854957106E+03  0.10100000352E+00 0.  1.
       -3    1    3    3    0  502  0.63948840659E+03  0.24890115128E+03  0.33781157812E+03  0.76486199918E+03  0.10100000352E+00 0. -1.
</event>
<event>
 5   0  0.2223112E-04  0.1398351E+04  0.7818609E-02  0.8955013E-01
       -1   -1    0    0    0  501  0.00000000000E+00  0.00000000000E+00  0.33437452119E+03  0.33437452123E+03  0.50400001928E-02 0. -1.
        1   -1    0    0  501    0  0.00000000000E+00  0.00000000000E+00 -0.14619725263E+04  0.14619725263E+04  0.50400001928E-02 0.  1.
    10030    2    1    2    0    0  0.00000000000E+00  0.00000000000E+00 -0.11275980051E+04  0.17963470476E+04  0.13983509767E+04 0.  0.
        1    1    3    3  502    0 -0.42623795200E+03 -0.30940226989E+03 -0.11544968353E+04  0.12689647352E+04  0.50400001928E-02 0.  1.
       -1    1    3    3    0  502  0.42623795200E+03  0.30940226989E+03  0.26898830179E+02  0.52738231239E+03  0.50400001928E-02 0. -1.
</event>
<event>
 5   0  0.3917598E-04  0.1398612E+04  0.7818609E-02  0.8954824E-01
        2   -1    0    0  501    0  0.00000000000E+00  0.00000000000E+00  0.64848389632E+03  0.64848389632E+03  0.25500000920E-02 0.  1.
       -2   -1    0    0    0  501  0.00000000000E+00  0.00000000000E+00 -0.75411132728E+03  0.75411132729E+03  0.25500000920E-02 0. -1.
    10030    2    1    2    0    0  0.00000000000E+00  0.00000000000E+00 -0.10562743096E+03  0.14025952236E+04  0.13986122433E+04 0.  0.
        3    1    3    3  502    0  0.42605954920E+03  0.17979148828E+03  0.47325363702E+03  0.66168023537E+03  0.10100000352E+00 0.  1.
       -3    1    3    3    0  502 -0.42605954920E+03 -0.17979148828E+03 -0.57888106799E+03  0.74091498824E+03  0.10100000352E+00 0. -1.
</event>
<event>
 5   0  0.1497625E-04  0.1395105E+04  0.7818609E-02  0.8957369E-01
        4   -1    0    0  501    0  0.00000000000E+00  0.00000000000E+00  0.34833420233E+03  0.34833651748E+03  0.12699999809E+01 0.  1.
       -4   -1    0    0    0  501  0.00000000000E+00  0.00000000000E+00 -0.13968685996E+04  0.13968691770E+04  0.12699999809E+01 0. -1.
    10030    2    1    2    0    0  0.00000000000E+00  0.00000000000E+00 -0.10485343973E+04  0.17452056944E+04  0.13951052052E+04 0.  0.
        2    1    3    3  502    0 -0.69725644770E+03  0.87705518052E+01 -0.54720283044E+03  0.88638276951E+03  0.25500000920E-02 0.  1.
       -2    1    3    3    0  502  0.69725644770E+03 -0.87705518052E+01 -0.50133156686E+03  0.85882292493E+03  0.25500000920E-02 0. -1.
</event>
<event>
 5   0  0.2223112E-04  0.1398363E+04  0.7818609E-02  0.8955004E-01
       -1   -1    0    0    0  501  0.00000000000E+00  0.00000000000E+00  0.39339346737E+03  0.39339346741E+03  0.50400001928E-02 0. -1.
        1   -1    0    0  501    0  0.00000000000E+00  0.00000000000E+00 -0.12426619951E+04  0.12426619951E+04  0.50400001928E-02 0.  1.
    10030    2    1    2    0    0  0.00000000000E+00  0.00000000000E+00 -0.84926852776E+03  0.16360554626E+04  0.13983634879E+04 0.  0.
        1    1    3    3  502    0  0.45984734970E+03 -0.23520366968E+03  0.12671594951E+03  0.53182448528E+03  0.50400001928E-02 0. -1.
       -1    1    3    3    0  502 -0.45984734970E+03  0.23520366968E+03 -0.97598447727E+03  0.11042309773E+04  0.50400001928E-02 0.  1.
</event>
<event>
 5   0  0.2155352E-04  0.1406853E+04  0.7818609E-02  0.8948873E-01
        1   -1    0    0  501    0  0.00000000000E+00  0.00000000000E+00  0.17372441729E+04  0.17372441729E+04  0.50400001928E-02 0.  1.
       -1   -1    0    0    0  501  0.00000000000E+00  0.00000000000E+00 -0.28482412196E+03  0.28482412200E+03  0.50400001928E-02 0. -1.
    10030    2    1    2    0    0  0.00000000000E+00  0.00000000000E+00  0.14524200510E+04  0.20220682950E+04  0.14068532919E+04 0.  0.
        2    1    3    3  502    0  0.63234663442E+03  0.29371239652E+03  0.59230339698E+03  0.91485110920E+03  0.25500000920E-02 0. -1.
       -2    1    3    3    0  502 -0.63234663442E+03 -0.29371239652E+03  0.86011665400E+03  0.11072171857E+04  0.25500000920E-02 0.  1.
</event>
<event>
 5   0  0.4208622E-04  0.1401769E+04  0.7818609E-02  0.8952539E-01
        2   -1    0    0  501    0  0.00000000000E+00  0.00000000000E+00  0.49907434456E+03  0.49907434457E+03  0.25500000920E-02 0. -1.
       -2   -1    0    0    0  501  0.00000000000E+00  0.00000000000E+00 -0.98430084281E+03  0.98430084281E+03  0.25500000920E-02 0.  1.
    10030    2    1    2    0    0  0.00000000000E+00  0.00000000000E+00 -0.48522649824E+03  0.14833751874E+04  0.14017693077E+04 0.  0.
        4    1    3    3  502    0 -0.30473499619E+03  0.56526520660E+03 -0.53976204332E+03  0.83888786379E+03  0.12699999809E+01 0.  1.
       -4    1    3    3    0  502  0.30473499619E+03 -0.56526520660E+03  0.54535545081E+02  0.64448732359E+03  0.12699999809E+01 0. -1.
</event>
<event>
 5   0  0.4208622E-04  0.1391157E+04  0.7818609E-02  0.8960244E-01
        2   -1    0    0  501    0  0.00000000000E+00  0.00000000000E+00  0.84871525440E+03  0.84871525440E+03  0.25500000920E-02 0. -1.
       -2   -1    0    0    0  501  0.00000000000E+00  0.00000000000E+00 -0.57007311518E+03  0.57007311519E+03  0.25500000920E-02 0.  1.
    10030    2    1    2    0    0  0.00000000000E+00  0.00000000000E+00  0.27864213922E+03  0.14187883696E+04  0.13911574303E+04 0.  0.
        4    1    3    3  502    0 -0.46025861096E+03  0.19514958313E+03  0.63256613832E+03  0.80626477103E+03  0.12699999809E+01 0. -1.
       -4    1    3    3    0  502  0.46025861096E+03 -0.19514958313E+03 -0.35392399910E+03  0.61252359856E+03  0.12699999809E+01 0.  1.
</event>
<event>
 5   0  0.3932568E-04  0.1399075E+04  0.7818609E-02  0.8954488E-01
       -2   -1    0    0    0  501  0.00000000000E+00  0.00000000000E+00  0.78366689702E+03  0.78366689702E+03  0.25500000920E-02 0.  1.
        2   -1    0    0  501    0  0.00000000000E+00  0.00000000000E+00 -0.62443955258E+03  0.62443955258E+03  0.25500000920E-02 0. -1.
    10030    2    1    2    0    0  0.00000000000E+00  0.00000000000E+00  0.15922734444E+03  0.14081064496E+04  0.13990748465E+04 0.  0.
        2    1    3    3  502    0 -0.14174879932E+03  0.68494466496E+03  0.69024805863E+02  0.70285584582E+03  0.25500000920E-02 0.  1.
       -2    1    3    3    0  502  0.14174879932E+03 -0.68494466496E+03  0.90202538576E+02  0.70525060379E+03  0.25500000920E-02 0. -1.
</event>
<event>
 5   0  0.4310348E-04  0.1397648E+04  0.7818609E-02  0.8955523E-01
        2   -1    0    0  501    0  0.00000000000E+00  0.00000000000E+00  0.85334656676E+03  0.85334656676E+03  0.25500000920E-02 0.  1.
       -2   -1    0    0    0  501  0.00000000000E+00  0.00000000000E+00 -0.57228228630E+03  0.57228228630E+03  0.25500000920E-02 0. -1.
    10030    2    1    2    0    0  0.00000000000E+00  0.00000000000E+00  0.28106428046E+03  0.14256288531E+04  0.13976482021E+04 0.  0.
        1    1    3    3  502    0  0.44761820593E+03 -0.16771350510E+03 -0.37944315126E+03  0.61030073172E+03  0.50400001928E-02 0. -1.
       -1    1    3    3    0  502 -0.44761820593E+03  0.16771350510E+03  0.66050743172E+03  0.81532812135E+03  0.50400001928E-02 0.  1.
</event>
<event>
 5   0  0.4208622E-04  0.1370749E+04  0.7818609E-02  0.8975269E-01
       -2   -1    0    0    0  501  0.00000000000E+00  0.00000000000E+00  0.58074895833E+03  0.58074895833E+03  0.25500000920E-02 0. -1.
        2   -1    0    0  501    0  0.00000000000E+00  0.00000000000E+00 -0.80884856540E+03  0.80884856540E+03  0.25500000920E-02 0.  1.
    10030    2    1    2    0    0  0.00000000000E+00  0.00000000000E+00 -0.22809960707E+03  0.13895975237E+04  0.13707486448E+04 0.  0.
        4    1    3    3  502    0 -0.82512950390E+02  0.59766997014E+03  0.21556510275E+03  0.64069314544E+03  0.12699999809E+01 0. -1.
       -4    1    3    3    0  502  0.82512950390E+02 -0.59766997014E+03 -0.44366470982E+03  0.74890437829E+03  0.12699999809E+01 0.  1.
</event>
<event>
 5   0  0.3975164E-04  0.1377091E+04  0.7818609E-02  0.8970570E-01
        2   -1    0    0  501    0  0.00000000000E+00  0.00000000000E+00  0.12142525340E+04  0.12142525340E+04  0.25500000920E-02 0. -1.
       -2   -1    0    0    0  501  0.00000000000E+00  0.00000000000E+00 -0.39044164985E+03  0.39044164986E+03  0.25500000920E-02 0.  1.
    10030    2    1    2    0    0  0.00000000000E+00  0.00000000000E+00  0.82381088420E+03  0.16046941839E+04  0.13770907926E+04 0.  0.
        5    1    3    3  502    0 -0.27474255123E+03  0.36212719169E+03  0.10145392920E+04  0.11117246230E+04  0.46999998093E+01 0. -1.
       -5    1    3    3    0  502  0.27474255123E+03 -0.36212719169E+03 -0.19072840781E+03  0.49296956088E+03  0.46999998093E+01 0.  1.
</event>
<event>
 5   0  0.2215876E-04  0.1401039E+04  0.7818609E-02  0.8953067E-01
        1   -1    0    0  501    0  0.00000000000E+00  0.00000000000E+00  0.17342453813E+04  0.17342453813E+04  0.50400001928E-02 0.  1.
       -1   -1    0    0    0  501  0.00000000000E+00  0.00000000000E+00 -0.28296332077E+03  0.28296332082E+03  0.50400001928E-02 0. -1.
    10030    2    1    2    0    0  0.00000000000E+00  0.00000000000E+00  0.14512820605E+04  0.20172087021E+04  0.14010393744E+04 0.  0.
        3    1    3    3  502    0  0.30605161454E+03  0.32219117727E+03  0.15053307010E+04  0.15695525716E+04  0.10100000352E+00 0.  1.
       -3    1    3    3    0  502 -0.30605161454E+03 -0.32219117727E+03 -0.54048640441E+02  0.44765613054E+03  0.10100000352E+00 0. -1.
</event>
<event>
 5   0  0.2215876E-04  0.1397664E+04  0.7818609E-02  0.8955511E-01
       -1   -1    0    0    0  501  0.00000000000E+00  0.00000000000E+00  0.48125121869E+03  0.48125121871E+03  0.50400001928E-02 0. -1.
        1   -1    0    0  501    0  0.00000000000E+00  0.00000000000E+00 -0.10147842901E+04  0.10147842901E+04  0.50400001928E-02 0.  1.
    10030    2    1    2    0    0  0.00000000000E+00  0.00000000000E+00 -0.53353307137E+03  0.14960355088E+04  0.13976640173E+04 0.  0.
        3    1    3    3  502    0 -0.47101154013E+03  0.23617347579E+03  0.22460373820E+03  0.57277974041E+03  0.10100000352E+00 0. -1.
       -3    1    3    3    0  502  0.47101154013E+03 -0.23617347579E+03 -0.75813680957E+03  0.92325576837E+03  0.10100000352E+00 0.  1.
</event>
<event>
 5   0  0.2143942E-04  0.1399083E+04  0.7818609E-02  0.8954482E-01
       -1   -1    0    0    0  501  0.00000000000E+00  0.00000000000E+00  0.44647040921E+03  0.44647040924E+03  0.50400001928E-02 0.  1.
        1   -1    0    0  501    0  0.00000000000E+00  0.00000000000E+00 -0.10960605110E+04  0.10960605110E+04  0.50400001928E-02 0. -1.
    10030    2    1    2    0    0  0.00000000000E+00  0.00000000000E+00 -0.64959010178E+03  0.15425309202E+04  0.13990833926E+04 0.  0.
        4    1    3    3  502    0 -0.55918158354E+03 -0.23443853699E+03  0.59846401610E+02  0.60928538114E+03  0.12699999809E+01 0.  1.
       -4    1    3    3    0  502  0.55918158354E+03  0.23443853699E+03 -0.70943650339E+03  0.93324553909E+03  0.12699999809E+01 0. -1.
</event>
<event>
 5   0  0.2223112E-04  0.1406992E+04  0.7818609E-02  0.8948773E-01
        1   -1    0    0  501    0  0.00000000000E+00  0.00000000000E+00  0.12000437697E+04  0.12000437697E+04  0.50400001928E-02 0.  1.
       -1   -1    0    0    0  501  0.00000000000E+00  0.00000000000E+00 -0.41240728592E+03  0.41240728595E+03  0.50400001928E-02 0. -1.
    10030    2    1    2    0    0  0.00000000000E+00  0.00000000000E+00  0.78763648377E+03  0.16124510556E+04  0.14069922446E+04 0.  0.
        1    1    3    3  502    0 -0.39212442082E+03  0.31885418970E+03 -0.16700623247E+03  0.53227872153E+03  0.50400001928E-02 0. -1.
       -1    1    3    3    0  502  0.39212442082E+03 -0.31885418970E+03  0.95464271623E+03  0.10801723341E+04  0.50400001928E-02 0.  1.
</event>
<event>
 5   0  0.4310348E-04  0.1399096E+04  0.7818609E-02  0.8954473E-01
       -2   -1    0    0    0  501  0.00000000000E+00  0.00000000000E+00  0.62567070171E+03  0.62567070171E+03  0.25500000920E-02 0. -1.
        2   -1    0    0  501    0  0.00000000000E+00  0.00000000000E+00 -0.78214849747E+03  0.78214849747E+03  0.25500000920E-02 0.  1.
    10030    2    1    2    0    0  0.00000000000E+00  0.00000000000E+00 -0.15647779576E+03  0.14078191992E+04  0.13990959928E+04 0.  0.
        1    1    3    3  502    0  0.47364851254E+03 -0.51350586750E+03 -0.41456782320E+02  0.69982130163E+03  0.50400001928E-02 0.  1.
       -1    1    3    3    0  502 -0.47364851254E+03  0.51350586750E+03 -0.11502101344E+03  0.70799789756E+03  0.50400001928E-02 0. -1.
</event>
<event>
 5   0  0.4208622E-04  0.1389388E+04  0.7818609E-02  0.8961536E-01
       -2   -1    0    0    0  501  0.00000000000E+00  0.00000000000E+00  0.92995080589E+03  0.92995080590E+03  0.25500000920E-02 0. -1.
        2   -1    0    0  501    0  0.00000000000E+00  0.00000000000E+00 -0.51895173921E+03  0.51895173922E+03  0.25500000920E-02 0.  1.
    10030    2    1    2    0    0  0.00000000000E+00  0.00000000000E+00  0.41099906668E+03  0.14489025451E+04  0.13893877617E+04 0.  0.
        4    1    3    3  502    0  0.40467999465E+02  0.17620036875E+03  0.90498764447E+03  0.92286969745E+03  0.12699999809E+01 0. -1.
       -4    1    3    3    0  502 -0.40467999465E+02 -0.17620036875E+03 -0.49398857779E+03  0.52603284766E+03  0.12699999809E+01 0.  1.
</event>
<event>
 5   0  0.3932568E-04  0.1440645E+04  0.7818609E-02  0.8924912E-01
       -2   -1    0    0    0  501  0.00000000000E+00  0.00000000000E+00  0.66691153478E+03  0.66691153479E+03  0.25500000920E-02 0. -1.
        2   -1    0    0  501    0  0.00000000000E+00  0.00000000000E+00 -0.77801138256E+03  0.77801138256E+03  0.25500000920E-02 0.  1.
    10030    2    1    2    0    0  0.00000000000E+00  0.00000000000E+00 -0.11109984777E+03  0.14449229174E+04  0.14406453626E+04 0.  0.
        2    1    3    3  502    0 -0.76063555379E+02  0.13350073704E+03 -0.76138421449E+03  0.77673292278E+03  0.25500000920E-02 0.  1.
       -2    1    3    3    0  502  0.76063555379E+02 -0.13350073704E+03  0.65028436671E+03  0.66818999457E+03  0.25500000920E-02 0. -1.
</event>
<event>
 5   0  0.2217251E-04  0.1400948E+04  0.7818609E-02  0.8953132E-01
        1   -1    0    0  501    0  0.00000000000E+00  0.00000000000E+00  0.32390108274E+03  0.32390108278E+03  0.50400001928E-02 0. -1.
       -1   -1    0    0    0  501  0.00000000000E+00  0.00000000000E+00 -0.15148575540E+04  0.15148575540E+04  0.50400001928E-02 0.  1.
    10030    2    1    2    0    0  0.00000000000E+00  0.00000000000E+00 -0.11909564713E+04  0.18387586368E+04  0.14009482531E+04 0.  0.
        5    1    3    3  502    0 -0.67120970208E+03  0.19744474596E+03 -0.63969677662E+03  0.94801948708E+03  0.46999998093E+01 0.  1.
       -5    1    3    3    0  502  0.67120970208E+03 -0.19744474596E+03 -0.55125969465E+03  0.89073914970E+03  0.46999998093E+01 0. -1.
</event>
<event>
 5   0  0.2215876E-04  0.1405085E+04  0.7818609E-02  0.8950146E-01
        1   -1    0    0  501    0  0.00000000000E+00  0.00000000000E+00  0.11306619045E+04  0.11306619045E+04  0.50400001928E-02 0.  1.
       -1   -1    0    0    0  501  0.00000000000E+00  0.00000000000E+00 -0.43652841713E+03  0.43652841716E+03  0.50400001928E-02 0. -1.
    10030    2    1    2    0    0  0.00000000000E+00  0.00000000000E+00  0.69413348740E+03  0.15671903217E+04  0.14050851242E+04 0.  0.
        3    1    3    3  502    0  0.51975465036E+03  0.37312661097E+03  0.23421551610E+02  0.64024756436E+03  0.10100000352E+00 0. -1.
       -3    1    3    3    0  502 -0.51975465036E+03 -0.37312661097E+03  0.67071193579E+03  0.92694275735E+03  0.10100000352E+00 0.  1.
</event>
<event>
 5   0  0.4310348E-04  0.1398979E+04  0.7818609E-02  0.8954558E-01
        2   -1    0    0  501    0  0.00000000000E+00  0.00000000000E+00  0.15268732409E+04  0.15268732409E+04  0.25500000920E-02 0.  1.
       -2   -1    0    0    0  501  0.00000000000E+00  0.00000000000E+00 -0.32044926624E+03  0.32044926625E+03  0.25500000920E-02 0. -1.
    10030    2    1    2    0    0  0.00000000000E+00  0.00000000000E+00  0.12064239747E+04  0.18473225071E+04  0.13989787842E+04 0.  0.
        1    1    3    3  502    0 -0.29081838236E+02 -0.57485635823E+02  0.15229474309E+04  0.15243094269E+04  0.50400001928E-02 0.  1.
       -1    1    3    3    0  502  0.29081838236E+02  0.57485635823E+02 -0.31652345623E+03  0.32301308025E+03  0.50400001928E-02 0. -1.
</event>
<event>
 5   0  0.2143942E-04  0.1413156E+04  0.7818609E-02  0.8944351E-01
        1   -1    0    0  501    0  0.00000000000E+00  0.00000000000E+00  0.15582486681E+04  0.15582486681E+04  0.50400001928E-02 0.  1.
       -1   -1    0    0    0  501  0.00000000000E+00  0.00000000000E+00 -0.32039315256E+03  0.32039315260E+03  0.50400001928E-02 0. -1.
    10030    2    1    2    0    0  0.00000000000E+00  0.00000000000E+00  0.12378555155E+04  0.18786418207E+04  0.14131556224E+04 0.  0.
        4    1    3    3  502    0  0.21374149637E+03 -0.59307112020E+03  0.10431522375E+04  0.12188465795E+04  0.12699999809E+01 0.  1.
       -4    1    3    3    0  502 -0.21374149637E+03  0.59307112020E+03  0.19470327798E+03  0.65979524114E+03  0.12699999809E+01 0. -1.
</event>
<event>
 5   0  0.2215876E-04  0.1402165E+04  0.7818609E-02  0.8952253E-01
        1   -1    0    0  501    0  0.00000000000E+00  0.00000000000E+00  0.20100176647E+04  0.20100176647E+04  0.50400001928E-02 0. -1.
       -1   -1    0    0    0  501  0.00000000000E+00  0.00000000000E+00 -0.24453360111E+03  0.24453360116E+03  0.50400001928E-02 0.  1.
    10030    2    1    2    0    0  0.00000000000E+00  0.00000000000E+00  0.17654840636E+04  0.22545512658E+04  0.14021652654E+04 0.  0.
        3    1    3    3  502    0 -0.12154850848E+03 -0.19762940056E+03  0.19464978644E+04  0.19602768596E+04  0.10100000352E+00 0. -1.
       -3    1    3    3    0  502  0.12154850848E+03  0.19762940056E+03 -0.18101380084E+03  0.29427440625E+03  0.10100000352E+00 0.  1.
</event>
<event>
 5   0  0.2223112E-04  0.1399188E+04  0.7818609E-02  0.8954407E-01
       -1   -1    0    0    0  501  0.00000000000E+00  0.00000000000E+00  0.57009868400E+03  0.57009868402E+03  0.50400001928E-02 0. -1.
        1   -1    0    0  501    0  0.00000000000E+00  0.00000000000E+00 -0.85850359480E+03  0.85850359482E+03  0.50400001928E-02 0.  1.
    10030    2    1    2    0    0  0.00000000000E+00  0.00000000000E+00 -0.28840491080E+03  0.14286022788E+04  0.13991880069E+04 0.  0.
        1    1    3    3  502    0  0.57049696556E+03  0.39174795589E+03 -0.39586163082E+02  0.69318129879E+03  0.50400001928E-02 0. -1.
       -1    1    3    3    0  502 -0.57049696556E+03 -0.39174795589E+03 -0.24881874772E+03  0.73542098005E+03  0.50400001928E-02 0.  1.
</event>
<event>
 5   0  0.2217251E-04  0.1400992E+04  0.7818609E-02  0.8953100E-01
       -1   -1    0    0    0  501  0.00000000000E+00  0.00000000000E+00  0.31502426103E+03  0.31502426107E+03  0.50400001928E-02 0.  1.
        1   -1    0    0  501    0  0.00000000000E+00  0.00000000000E+00 -0.15576417726E+04  0.15576417726E+04  0.50400001928E-02 0. -1.
    10030    2    1    2    0    0  0.00000000000E+00  0.00000000000E+00 -0.12426175116E+04  0.18726660337E+04  0.14009924317E+04 0.  0.
        5    1    3    3  502    0  0.12514419398E+02  0.19871268521E+02 -0.15570943779E+04  0.15572785459E+04  0.46999998093E+01 0. -1.
       -5    1    3    3    0  502 -0.12514419398E+02 -0.19871268521E+02  0.31447686629E+03  0.31538748776E+03  0.46999998093E+01 0.  1.
</event>
<event>
 5   0  0.2215876E-04  0.1395583E+04  0.7818609E-02  0.8957022E-01
        1   -1    0    0  501    0  0.00000000000E+00  0.00000000000E+00  0.14787991220E+04  0.14787991220E+04  0.50400001928E-02 0.  1.
       -1   -1    0    0    0  501  0.00000000000E+00  0.00000000000E+00 -0.32926251005E+03  0.32926251008E+03  0.50400001928E-02 0. -1.
    10030    2    1    2    0    0  0.00000000000E+00  0.00000000000E+00  0.11495366120E+04  0.18080616321E+04  0.13955831911E+04 0.  0.
        3    1    3    3  502    0 -0.72986623131E+02  0.62115755566E+03  0.17387813803E+03  0.64915127143E+03  0.10100000352E+00 0. -1.
       -3    1    3    3    0  502  0.72986623131E+02 -0.62115755566E+03  0.97565847394E+03  0.11589103607E+04  0.10100000352E+00 0.  1.
</event>
<event>
 5   0  0.4208622E-04  0.1403805E+04  0.7818609E-02  0.8951069E-01
       -2   -1    0    0    0  501  0.00000000000E+00  0.00000000000E+00  0.61291888083E+03  0.61291888083E+03  0.25500000920E-02 0. -1.
        2   -1    0    0  501    0  0.00000000000E+00  0.00000000000E+00 -0.80380439872E+03  0.80380439873E+03  0.25500000920E-02 0.  1.
    10030    2    1    2    0    0  0.00000000000E+00  0.00000000000E+00 -0.19088551790E+03  0.14167232796E+04  0.14038046766E+04 0.  0.
        4    1    3    3  502    0  0.46732807432E+03  0.89492188141E+02  0.42531055486E+03  0.63819672654E+03  0.12699999809E+01 0. -1.
       -4    1    3    3    0  502 -0.46732807432E+03 -0.89492188141E+02 -0.61619607275E+03  0.77852655303E+03  0.12699999809E+01 0.  1.
</event>
<event>
 5   0  0.4310348E-04  0.1435140E+04  0.7818609E-02  0.8928768E-01
        2   -1    0    0  501    0  0.00000000000E+00  0.00000000000E+00  0.78932557954E+03  0.78932557954E+03  0.25500000920E-02 0. -1.
       -2   -1    0    0    0  501  0.00000000000E+00  0.00000000000E+00 -0.65233736954E+03  0.65233736955E+03  0.25500000920E-02 0.  1.
    10030    2    1    2    0    0  0.00000000000E+00  0.00000000000E+00  0.13698820999E+03  0.14416629491E+04  0.14351398152E+04 0.  0.
        1    1    3    3  502    0 -0.37102301257E+03 -0.29810167057E+03 -0.47096064572E+03  0.66957196155E+03  0.50400001928E-02 0.  1.
       -1    1    3    3    0  502  0.37102301257E+03  0.29810167057E+03  0.60794885571E+03  0.77209098754E+03  0.50400001928E-02 0. -1.
</event>
<event>
 5   0  0.2143942E-04  0.1401655E+04  0.7818609E-02  0.8952622E-01
        1   -1    0    0  501    0  0.00000000000E+00  0.00000000000E+00  0.47915090068E+03  0.47915090071E+03  0.50400001928E-02 0. -1.
       -1   -1    0    0    0  501  0.00000000000E+00  0.00000000000E+00 -0.10250609327E+04  0.10250609327E+04  0.50400001928E-02 0.  1.
    10030    2    1    2    0    0  0.00000000000E+00  0.00000000000E+00 -0.54591003202E+03  0.15042118334E+04  0.14016545497E+04 0.  0.
        4    1    3    3  502    0 -0.40960194365E+03  0.52120649640E+03 -0.51703259226E+03  0.84068678977E+03  0.12699999809E+01 0.  1.
       -4    1    3    3    0  502  0.40960194365E+03 -0.52120649640E+03 -0.28877439759E+02  0.66352504366E+03  0.12699999809E+01 0. -1.
</event>
<event>
 5   0  0.3975164E-04  0.1404238E+04  0.7818609E-02  0.8950756E-01
       -2   -1    0    0    0  501  0.00000000000E+00  0.00000000000E+00  0.22164469838E+03  0.22164469840E+03  0.25500000920E-02 0. -1.
        2   -1    0    0  501    0  0.00000000000E+00  0.00000000000E+00 -0.22241506379E+04  0.22241506379E+04  0.25500000920E-02 0.  1.
    10030    2    1    2    0    0  0.00000000000E+00  0.00000000000E+00 -0.20025059395E+04  0.24457953363E+04  0.14042381526E+04 0.  0.
        5    1    3    3  502    0 -0.60087340247E+03  0.31970534998E+03 -0.13013594032E+04  0.14686111613E+04  0.46999998093E+01 0.  1.
       -5    1    3    3    0  502  0.60087340247E+03 -0.31970534998E+03 -0.70114653628E+03  0.97718417504E+03  0.46999998093E+01 0. -1.
</event>
<event>
 5   0  0.2143942E-04  0.1386426E+04  0.7818609E-02  0.8963703E-01
       -1   -1    0    0    0  501  0.00000000000E+00  0.00000000000E+00  0.75659260542E+03  0.75659260543E+03  0.50400001928E-02 0.  1.
        1   -1    0    0  501    0  0.00000000000E+00  0.00000000000E+00 -0.63514261475E+03  0.63514261477E+03  0.50400001928E-02 0. -1.
    10030    2    1    2    0    0  0.00000000000E+00  0.00000000000E+00  0.12144999066E+03  0.13917352202E+04  0.13864259169E+04 0.  0.
        4    1    3    3  502    0 -0.64534287741E+03  0.24503436880E+03 -0.30266460884E+01  0.69030431319E+03  0.12699999809E+01 0. -1.
       -4    1    3    3    0  502  0.64534287741E+03 -0.24503436880E+03  0.12447663675E+03  0.70143090702E+03  0.12699999809E+01 0.  1.
</event>
<event>
 5   0  0.2223112E-04  0.1398710E+04  0.7818609E-02  0.8954753E-01
        1   -1    0    0  501    0  0.00000000000E+00  0.00000000000E+00  0.53951472582E+03  0.53951472584E+03  0.50400001928E-02 0.  1.
       -1   -1    0    0    0  501  0.00000000000E+00  0.00000000000E+00 -0.90655098826E+03  0.90655098827E+03  0.50400001928E-02 0. -1.
    10030    2    1    2    0    0  0.00000000000E+00  0.00000000000E+00 -0.36703626244E+03  0.14460657141E+04  0.13987102744E+04 0.  0.
        1    1    3    3  502    0 -0.20703265884E+03 -0.52067575290E+03  0.24913796497E+03  0.61321732453E+03  0.50400001928E-02 0.  1.
       -1    1    3    3    0  502  0.20703265884E+03  0.52067575290E+03 -0.61617422741E+03  0.83284838958E+03  0.50400001928E-02 0. -1.
</event>
<event>
 5   0  0.2223112E-04  0.1337914E+04  0.7818609E-02  0.9000027E-01
        1   -1    0    0  501    0  0.00000000000E+00  0.00000000000E+00  0.51291648596E+03  0.51291648598E+03  0.50400001928E-02 0. -1.
       -1   -1    0    0    0  501  0.00000000000E+00  0.00000000000E+00 -0.87246900045E+03  0.87246900047E+03  0.50400001928E-02 0.  1.
    10030    2    1    2    0    0  0.00000000000E+00  0.00000000000E+00 -0.35955251450E+03  0.13853854865E+04  0.13379143976E+04 0.  0.
        1    1    3    3  502    0 -0.34050694274E+03 -0.59498843920E+02 -0.77282661237E+03  0.84660856557E+03  0.50400001928E-02 0.  1.
       -1    1    3    3    0  502  0.34050694274E+03  0.59498843920E+02  0.41327409787E+03  0.53877692089E+03  0.50400001928E-02 0. -1.
</event>
<event>
 5   0  0.2215876E-04  0.1388510E+04  0.7818609E-02  0.8962178E-01
        1   -1    0    0  501    0  0.00000000000E+00  0.00000000000E+00  0.59059144180E+03  0.59059144182E+03  0.50400001928E-02 0. -1.
       -1   -1    0    0    0  501  0.00000000000E+00  0.00000000000E+00 -0.81611407523E+03  0.81611407524E+03  0.50400001928E-02 0.  1.
    10030    2    1    2    0    0  0.00000000000E+00  0.00000000000E+00 -0.22552263343E+03  0.14067055171E+04  0.13885099760E+04 0.  0.
        3    1    3    3  502    0 -0.48064104604E+03 -0.20187237959E+03  0.35174643280E+03  0.62888300658E+03  0.10100000352E+00 0. -1.
       -3    1    3    3    0  502  0.48064104604E+03  0.20187237959E+03 -0.57726906623E+03  0.77782251048E+03  0.10100000352E+00 0.  1.
</event>
<event>
 5   0  0.3975164E-04  0.1407759E+04  0.7818609E-02  0.8948221E-01
       -2   -1    0    0    0  501  0.00000000000E+00  0.00000000000E+00  0.42324916629E+03  0.42324916630E+03  0.25500000920E-02 0. -1.
        2   -1    0    0  501    0  0.00000000000E+00  0.00000000000E+00 -0.11705783963E+04  0.11705783963E+04  0.25500000920E-02 0.  1.
    10030    2    1    2    0    0  0.00000000000E+00  0.00000000000E+00 -0.74732922998E+03  0.15938275626E+04  0.14077589713E+04 0.  0.
        5    1    3    3  502    0 -0.46852547184E+03 -0.11650591286E+03  0.20621885563E+03  0.52501243025E+03  0.46999998093E+01 0. -1.
       -5    1    3    3    0  502  0.46852547184E+03  0.11650591286E+03 -0.95354808561E+03  0.10688151323E+04  0.46999998093E+01 0.  1.
</event>
<event>
 5   0  0.4310348E-04  0.1402838E+04  0.7818609E-02  0.8951767E-01
       -2   -1    0    0    0  501  0.00000000000E+00  0.00000000000E+00  0.22410178306E+03  0.22410178307E+03  0.25500000920E-02 0.  1.
        2   -1    0    0  501    0  0.00000000000E+00  0.00000000000E+00 -0.21953790051E+04  0.21953790051E+04  0.25500000920E-02 0. -1.
    10030    2    1    2    0    0  0.00000000000E+00  0.00000000000E+00 -0.19712772220E+04  0.24194807882E+04  0.14028376236E+04 0.  0.
        1    1    3    3  502    0  0.61591326853E+03  0.23655855177E+03 -0.57503117700E+03  0.87519709626E+03  0.50400001928E-02 0.  1.
       -1    1    3    3    0  502 -0.61591326853E+03 -0.23655855177E+03 -0.13962460450E+04  0.15442836919E+04  0.50400001928E-02 0. -1.
</event>
<event>
 5   0  0.2143942E-04  0.1402488E+04  0.7818609E-02  0.8952019E-01
        1   -1    0    0  501    0  0.00000000000E+00  0.00000000000E+00  0.31322806032E+03  0.31322806036E+03  0.50400001928E-02 0.  1.
       -1   -1    0    0    0  501  0.00000000000E+00  0.00000000000E+00 -0.15699215811E+04  0.15699215811E+04  0.50400001928E-02 0. -1.
    10030    2    1    2    0    0  0.00000000000E+00  0.00000000000E+00 -0.12566935208E+04  0.18831496415E+04  0.14024884909E+04 0.  0.
        4    1    3    3  502    0  0.41911031629E+03 -0.51276680802E+03 -0.93792639550E+03  0.11481684514E+04  0.12699999809E+01 0. -1.
       -4    1    3    3    0  502 -0.41911031629E+03  0.51276680802E+03 -0.31876712526E+03  0.73498119001E+03  0.12699999809E+01 0.  1.
</event>
<event>
 5   0  0.2215876E-04  0.1388994E+04  0.7818609E-02  0.8961824E-01
        1   -1    0    0  501    0  0.00000000000E+00  0.00000000000E+00  0.21262896993E+04  0.21262896993E+04  0.50400001928E-02 0. -1.
       -1   -1    0    0    0  501  0.00000000000E+00  0.00000000000E+00 -0.22683917794E+03  0.22683917800E+03  0.50400001928E-02 0.  1.
    10030    2    1    2    0    0  0.00000000000E+00  0.00000000000E+00  0.18994505214E+04  0.23531288773E+04  0.13889936033E+04 0.  0.
        3    1    3    3  502    0 -0.44070829208E+02  0.46149387388E+03  0.18257811715E+04  0.18837185910E+04  0.10100000352E+00 0. -1.
       -3    1    3    3    0  502  0.44070829208E+02 -0.46149387388E+03  0.73669349887E+02  0.46941028634E+03  0.10100000352E+00 0.  1.
</event>
<event>
 5   0  0.3975164E-04  0.1395120E+04  0.7818609E-02  0.8957358E-01
        2   -1    0    0  501    0  0.00000000000E+00  0.00000000000E+00  0.71412239535E+03  0.71412239535E+03  0.25500000920E-02 0. -1.
       -2   -1    0    0    0  501  0.00000000000E+00  0.00000000000E+00 -0.68138188058E+03  0.68138188058E+03  0.25500000920E-02 0.  1.
    10030    2    1    2    0    0  0.00000000000E+00  0.00000000000E+00  0.32740514771E+02  0.13955042759E+04  0.13951201536E+04 0.  0.
        5    1    3    3  502    0 -0.45019383943E+02 -0.16870978402E+03  0.69189184531E+03  0.71360083504E+03  0.46999998093E+01 0. -1.
       -5    1    3    3    0  502  0.45019383943E+02  0.16870978402E+03 -0.65915133054E+03  0.68190344090E+03  0.46999998093E+01 0.  1.
</event>
<event>
 5   0  0.2215876E-04  0.1400242E+04  0.7818609E-02  0.8953643E-01
        1   -1    0    0  501    0  0.00000000000E+00  0.00000000000E+00  0.15659703382E+04  0.15659703382E+04  0.50400001928E-02 0. -1.
       -1   -1    0    0    0  501  0.00000000000E+00  0.00000000000E+00 -0.31301322374E+03  0.31301322378E+03  0.50400001928E-02 0.  1.
    10030    2    1    2    0    0  0.00000000000E+00  0.00000000000E+00  0.12529571145E+04  0.18789835620E+04  0.14002420132E+04 0.  0.
        3    1    3    3  502    0  0.61745710872E+03 -0.12654405627E+02  0.18394471669E+03  0.64439823409E+03  0.10100000352E+00 0.  1.
       -3    1    3    3    0  502 -0.61745710872E+03  0.12654405627E+02  0.10690123978E+04  0.12345853279E+04  0.10100000352E+00 0. -1.
</event>
<event>
 5   0  0.2215876E-04  0.1397881E+04  0.7818609E-02  0.8955354E-01
       -1   -1    0    0    0  501  0.00000000000E+00  0.00000000000E+00  0.39163391512E+03  0.39163391515E+03  0.50400001928E-02 0. -1.
        1   -1    0    0  501    0  0.00000000000E+00  0.00000000000E+00 -0.12473843290E+04  0.12473843290E+04  0.50400001928E-02 0.  1.
    10030    2    1    2    0    0  0.00000000000E+00  0.00000000000E+00 -0.85575041389E+03  0.16390182442E+04  0.13978812660E+04 0.  0.
        3    1    3    3  502    0  0.46073498650E+03  0.15829367810E+03  0.15976272194E+03  0.51269655142E+03  0.10100000352E+00 0. -1.
       -3    1    3    3    0  502 -0.46073498650E+03 -0.15829367810E+03 -0.10155131358E+04  0.11263216928E+04  0.10100000352E+00 0.  1.
</event>
<event>
 5   0  0.4208622E-04  0.1406586E+04  0.7818609E-02  0.8949065E-01
        2   -1    0    0  501    0  0.00000000000E+00  0.00000000000E+00  0.61213470126E+03  0.61213470127E+03  0.25500000920E-02 0. -1.
       -2   -1    0    0    0  501  0.00000000000E+00  0.00000000000E+00 -0.80802623622E+03  0.80802623622E+03  0.25500000920E-02 0.  1.
    10030    2    1    2    0    0  0.00000000000E+00  0.00000000000E+00 -0.19589153495E+03  0.14201609375E+04  0.14065857937E+04 0.  0.
        4    1    3    3  502    0 -0.26325674105E+03  0.26405504415E+03 -0.70001463600E+03  0.79312753171E+03  0.12699999809E+01 0.  1.
       -4    1    3    3    0  502  0.26325674105E+03 -0.26405504415E+03  0.50412310105E+03  0.62703340578E+03  0.12699999809E+01 0. -1.
</event>
<event>
 5   0  0.3932568E-04  0.1344296E+04  0.7818609E-02  0.8995157E-01
       -2   -1    0    0    0  501  0.00000000000E+00  0.00000000000E+00  0.62261535863E+03  0.62261535864E+03  0.25500000920E-02 0.  1.
        2   -1    0    0  501    0  0.00000000000E+00  0.00000000000E+00 -0.72562177501E+03  0.72562177501E+03  0.25500000920E-02 0. -1.
    10030    2    1    2    0    0  0.00000000000E+00  0.00000000000E+00 -0.10300641637E+03  0.13482371336E+04  0.13442964877E+04 0.  0.
        2    1    3    3  502    0  0.16429377068E+03  0.32079892125E+03  0.51750358986E+03  0.63064598348E+03  0.25500000920E-02 0.  1.
       -2    1    3    3    0  502 -0.16429377068E+03 -0.32079892125E+03 -0.62051000623E+03  0.71759115017E+03  0.25500000920E-02 0. -1.
</event>
<event>
 5   0  0.2155352E-04  0.1403837E+04  0.7818609E-02  0.8951046E-01
        1   -1    0    0  501    0  0.00000000000E+00  0.00000000000E+00  0.13214686467E+04  0.13214686467E+04  0.50400001928E-02 0. -1.
       -1   -1    0    0    0  501  0.00000000000E+00  0.00000000000E+00 -0.37283496758E+03  0.37283496761E+03  0.50400001928E-02 0.  1.
    10030    2    1    2    0    0  0.00000000000E+00  0.00000000000E+00  0.94863367912E+03  0.16943036143E+04  0.14038371987E+04 0.  0.
        2    1    3    3  502    0  0.67609683683E+02 -0.48574489981E+03 -0.13175159849E+03  0.50781656209E+03  0.25500000920E-02 0.  1.
       -2    1    3    3    0  502 -0.67609683683E+02  0.48574489981E+03  0.10803852776E+04  0.11864870522E+04  0.25500000920E-02 0. -1.
</event>
<event>
 5   0  0.3932568E-04  0.1386692E+04  0.7818609E-02  0.8963508E-01
       -2   -1    0    0    0  501  0.00000000000E+00  0.00000000000E+00  0.35411891216E+03  0.35411891217E+03  0.25500000920E-02 0. -1.
        2   -1    0    0  501    0  0.00000000000E+00  0.00000000000E+00 -0.13575342553E+04  0.13575342553E+04  0.25500000920E-02 0.  1.
    10030    2    1    2    0    0  0.00000000000E+00  0.00000000000E+00 -0.10034153431E+04  0.17116531674E+04  0.13866918240E+04 0.  0.
        2    1    3    3  502    0 -0.15921553614E+03  0.27853590363E+02  0.33053893064E+03  0.36794210702E+03  0.25500000920E-02 0. -1.
       -2    1    3    3    0  502  0.15921553614E+03 -0.27853590363E+02 -0.13339542737E+04  0.13437110604E+04  0.25500000920E-02 0.  1.
</event>
<event>
 5   0  0.2155352E-04  0.1405984E+04  0.7818609E-02  0.8949499E-01
       -1   -1    0    0    0  501  0.00000000000E+00  0.00000000000E+00  0.11979330489E+04  0.11979330489E+04  0.50400001928E-02 0.  1.
        1   -1    0    0  501    0  0.00000000000E+00  0.00000000000E+00 -0.41254188214E+03  0.41254188217E+03  0.50400001928E-02 0. -1.
    10030    2    1    2    0    0  0.00000000000E+00  0.00000000000E+00  0.78539116672E+03  0.16104749310E+04  0.14059837192E+04 0.  0.
        2    1    3    3  502    0  0.89382068412E+02  0.74630115790E+02 -0.40141880737E+03  0.41796634703E+03  0.25500000920E-02 0. -1.
       -2    1    3    3    0  502 -0.89382068412E+02 -0.74630115790E+02  0.11868099741E+04  0.11925085840E+04  0.25500000920E-02 0.  1.
</event>
<event>
 5   0  0.1497625E-04  0.1353673E+04  0.7818609E-02  0.8988053E-01
        3   -1    0    0  501    0  0.00000000000E+00  0.00000000000E+00  0.44560148105E+03  0.44560149250E+03  0.10100000352E+00 0.  1.
       -3   -1    0    0    0  501  0.00000000000E+00  0.00000000000E+00 -0.10280653214E+04  0.10280653264E+04  0.10100000352E+00 0. -1.
    10030    2    1    2    0    0  0.00000000000E+00  0.00000000000E+00 -0.58246384039E+03  0.14736668189E+04  0.13536726959E+04 0.  0.
        3    1    3    3  502    0 -0.43256086962E+03  0.11718170660E+02 -0.85780905425E+03  0.96077187990E+03  0.10100000352E+00 0. -1.
       -3    1    3    3    0  502  0.43256086962E+03 -0.11718170660E+02  0.27534521386E+03  0.51289493900E+03  0.10100000352E+00 0.  1.
</event>
<event>
 5   0  0.2223112E-04  0.1374951E+04  0.7818609E-02  0.8972152E-01
        1   -1    0    0  501    0  0.00000000000E+00  0.00000000000E+00  0.59784160000E+03  0.59784160002E+03  0.50400001928E-02 0.  1.
       -1   -1    0    0    0  501  0.00000000000E+00  0.00000000000E+00 -0.79054827078E+03  0.79054827080E+03  0.50400001928E-02 0. -1.
    10030    2    1    2    0    0  0.00000000000E+00  0.00000000000E+00 -0.19270667078E+03  0.13883898708E+04  0.13749511164E+04 0.  0.
        1    1    3    3  502    0 -0.20515738686E+03  0.65608710410E+03 -0.87164861973E+02  0.69291958750E+03  0.50400001928E-02 0.  1.
       -1    1    3    3    0  502  0.20515738686E+03 -0.65608710410E+03 -0.10554180881E+03  0.69547028332E+03  0.50400001928E-02 0. -1.
</event>
<event>
 5   0  0.3932568E-04  0.1410231E+04  0.7818609E-02  0.8946446E-01
        2   -1    0    0  501    0  0.00000000000E+00  0.00000000000E+00  0.30302107347E+04  0.30302107347E+04  0.25500000920E-02 0. -1.
       -2   -1    0    0    0  501  0.00000000000E+00  0.00000000000E+00 -0.16407689277E+03  0.16407689279E+03  0.25500000920E-02 0.  1.
    10030    2    1    2    0    0  0.00000000000E+00  0.00000000000E+00  0.28661338419E+04  0.31942876275E+04  0.14102305653E+04 0.  0.
        2    1    3    3  502    0  0.28682854788E+03  0.59277428015E+03  0.86212430655E+03  0.10848549594E+04  0.25500000920E-02 0. -1.
       -2    1    3    3    0  502 -0.28682854788E+03 -0.59277428015E+03  0.20040095354E+04  0.21094326680E+04  0.25500000920E-02 0.  1.
</event>
<event>
 5   0  0.4208622E-04  0.1397982E+04  0.7818609E-02  0.8955281E-01
        2   -1    0    0  501    0  0.00000000000E+00  0.00000000000E+00  0.28858372352E+04  0.28858372352E+04  0.25500000920E-02 0. -1.
       -2   -1    0    0    0  501  0.00000000000E+00  0.00000000000E+00 -0.16930549042E+03  0.16930549044E+03  0.25500000920E-02 0.  1.
    10030    2    1    2    0    0  0.00000000000E+00  0.00000000000E+00  0.27165317448E+04  0.30551427256E+04  0.13979815284E+04 0.  0.
        4    1    3    3  502    0  0.13463410633E+03  0.24372828722E+03  0.27594038754E+04  0.27734168783E+04  0.12699999809E+01 0. -1.
       -4    1    3    3    0  502 -0.13463410633E+03 -0.24372828722E+03 -0.42872130575E+02  0.28172584734E+03  0.12699999809E+01 0.  1.
</event>
<event>
 5   0  0.4310348E-04  0.1400023E+04  0.7818609E-02  0.8953802E-01
        2   -1    0    0  501    0  0.00000000000E+00  0.00000000000E+00  0.29739512770E+03  0.29739512771E+03  0.25500000920E-02 0.  1.
       -2   -1    0    0    0  501  0.00000000000E+00  0.00000000000E+00 -0.16476943872E+04  0.16476943872E+04  0.25500000920E-02 0. -1.
    10030    2    1    2    0    0  0.00000000000E+00  0.00000000000E+00 -0.13502992595E+04  0.19450895149E+04  0.14000232608E+04 0.  0.
        1    1    3    3  502    0  0.30004383841E+03 -0.22438242653E+03 -0.14966664361E+04  0.15428493767E+04  0.50400001928E-02 0. -1.
       -1    1    3    3    0  502 -0.30004383841E+03  0.22438242653E+03  0.14636717665E+03  0.40224013814E+03  0.50400001928E-02 0.  1.
</event>
<event>
 5   0  0.4310348E-04  0.1413277E+04  0.7818609E-02  0.8944264E-01
       -2   -1    0    0    0  501  0.00000000000E+00  0.00000000000E+00  0.36339298236E+03  0.36339298237E+03  0.25500000920E-02 0.  1.
        2   -1    0    0  501    0  0.00000000000E+00  0.00000000000E+00 -0.13740989600E+04  0.13740989600E+04  0.25500000920E-02 0. -1.
    10030    2    1    2    0    0  0.00000000000E+00  0.00000000000E+00 -0.10107059776E+04  0.17374919424E+04  0.14132769285E+04 0.  0.
        1    1    3    3  502    0  0.17770113586E+03  0.59370383139E+03 -0.87940967119E+02  0.62593573697E+03  0.50400001928E-02 0. -1.
       -1    1    3    3    0  502 -0.17770113586E+03 -0.59370383139E+03 -0.92276501051E+03  0.11115562054E+04  0.50400001928E-02 0.  1.
</event>
<event>
 5   0  0.2155352E-04  0.1399228E+04  0.7818609E-02  0.8954378E-01
       -1   -1    0    0    0  501  0.00000000000E+00  0.00000000000E+00  0.48420097925E+03  0.48420097927E+03  0.50400001928E-02 0.  1.
        1   -1    0    0  501    0  0.00000000000E+00  0.00000000000E+00 -0.10108603553E+04  0.10108603553E+04  0.50400001928E-02 0. -1.
    10030    2    1    2    0    0  0.00000000000E+00  0.00000000000E+00 -0.52665937604E+03  0.14950613346E+04  0.13992277498E+04 0.  0.
        2    1    3    3  502    0 -0.81790154685E+02 -0.46058557588E+03 -0.81918181085E+03  0.94333850835E+03  0.25500000920E-02 0. -1.
       -2    1    3    3    0  502  0.81790154685E+02  0.46058557588E+03  0.29252243480E+03  0.55172282622E+03  0.25500000920E-02 0.  1.
</event>
<event>
 5   0  0.2155352E-04  0.1403319E+04  0.7818609E-02  0.8951419E-01
       -1   -1    0    0    0  501  0.00000000000E+00  0.00000000000E+00  0.58545503900E+03  0.58545503902E+03  0.50400001928E-02 0.  1.
        1   -1    0    0  501    0  0.00000000000E+00  0.00000000000E+00 -0.84092922341E+03  0.84092922343E+03  0.50400001928E-02 0. -1.
    10030    2    1    2    0    0  0.00000000000E+00  0.00000000000E+00 -0.25547418441E+03  0.14263842624E+04  0.14033192813E+04 0.  0.
        2    1    3    3  502    0  0.25317378620E+03 -0.63085807083E+03  0.49039161351E+02  0.68153041818E+03  0.25500000920E-02 0.  1.
       -2    1    3    3    0  502 -0.25317378620E+03  0.63085807083E+03 -0.30451334577E+03  0.74485384426E+03  0.25500000920E-02 0. -1.
</event>
<event>
 5   0  0.4310348E-04  0.1401298E+04  0.7818609E-02  0.8952880E-01
       -2   -1    0    0    0  501  0.00000000000E+00  0.00000000000E+00  0.16389002880E+04  0.16389002880E+04  0.25500000920E-02 0.  1.
        2   -1    0    0  501    0  0.00000000000E+00  0.00000000000E+00 -0.29953544414E+03  0.29953544415E+03  0.25500000920E-02 0. -1.
    10030    2    1    2    0    0  0.00000000000E+00  0.00000000000E+00  0.13393648439E+04  0.19384357322E+04  0.14012975782E+04 0.  0.
        1    1    3    3  502    0 -0.57282197111E+03  0.47819930468E+02  0.11549782175E+03  0.58630325190E+03  0.50400001928E-02 0. -1.
       -1    1    3    3    0  502  0.57282197111E+03 -0.47819930468E+02  0.12238670221E+04  0.13521324803E+04  0.50400001928E-02 0.  1.
</event>
<event>
 5   0  0.3975164E-04  0.1401709E+04  0.7818609E-02  0.8952583E-01
       -2   -1    0    0    0  501  0.00000000000E+00  0.00000000000E+00  0.32974975037E+03  0.32974975038E+03  0.25500000920E-02 0. -1.
        2   -1    0    0  501    0  0.00000000000E+00  0.00000000000E+00 -0.14896044928E+04  0.14896044928E+04  0.25500000920E-02 0.  1.
    10030    2    1    2    0    0  0.00000000000E+00  0.00000000000E+00 -0.11598547424E+04  0.18193542432E+04  0.14017085427E+04 0.  0.
        5    1    3    3  502    0  0.53809633796E+03  0.15429716091E+03 -0.32597638569E+02  0.56074947957E+03  0.46999998093E+01 0. -1.
       -5    1    3    3    0  502 -0.53809633796E+03 -0.15429716091E+03 -0.11272571039E+04  0.12586047636E+04  0.46999998093E+01 0.  1.
</event>
<event>
 5   0  0.4208622E-04  0.1395403E+04  0.7818609E-02  0.8957153E-01
        2   -1    0    0  501    0  0.00000000000E+00  0.00000000000E+00  0.56997720773E+03  0.56997720774E+03  0.25500000920E-02 0. -1.
       -2   -1    0    0    0  501  0.00000000000E+00  0.00000000000E+00 -0.85404727004E+03  0.85404727004E+03  0.25500000920E-02 0.  1.
    10030    2    1    2    0    0  0.00000000000E+00  0.00000000000E+00 -0.28407006231E+03  0.14240244778E+04  0.13954031364E+04 0.  0.
        4    1    3    3  502    0  0.52693007741E+03  0.43089066041E+03  0.14285820348E+02  0.68082873417E+03  0.12699999809E+01 0.  1.
       -4    1    3    3    0  502 -0.52693007741E+03 -0.43089066041E+03 -0.29835588266E+03  0.74319574361E+03  0.12699999809E+01 0. -1.
</event>
<event>
 5   0  0.2223112E-04  0.1355369E+04  0.7818609E-02  0.8986774E-01
       -1   -1    0    0    0  501  0.00000000000E+00  0.00000000000E+00  0.29563481283E+03  0.29563481287E+03  0.50400001928E-02 0.  1.
        1   -1    0    0  501    0  0.00000000000E+00  0.00000000000E+00 -0.15534584939E+04  0.15534584939E+04  0.50400001928E-02 0. -1.
    10030    2    1    2    0    0  0.00000000000E+00  0.00000000000E+00 -0.12578236811E+04  0.18490933068E+04  0.13553691912E+04 0.  0.
        1    1    3    3  502    0 -0.33014407200E+03  0.52317549657E+03 -0.10063711442E+04  0.11813088454E+04  0.50400001928E-02 0. -1.
       -1    1    3    3    0  502  0.33014407200E+03 -0.52317549657E+03 -0.25145253693E+03  0.66778446137E+03  0.50400001928E-02 0.  1.
</event>
<event>
 5   0  0.3917598E-04  0.1397607E+04  0.7818609E-02  0.8955552E-01
       -2   -1    0    0    0  501  0.00000000000E+00  0.00000000000E+00  0.32055947865E+03  0.32055947866E+03  0.25500000920E-02 0. -1.
        2   -1    0    0  501    0  0.00000000000E+00  0.00000000000E+00 -0.15233565882E+04  0.15233565882E+04  0.25500000920E-02 0.  1.
    10030    2    1    2    0    0  0.00000000000E+00  0.00000000000E+00 -0.12027971095E+04  0.18439160668E+04  0.13976070889E+04 0.  0.
        3    1    3    3  502    0  0.41497486999E+03 -0.56174949382E+03 -0.63261273474E+03  0.94231922345E+03  0.10100000352E+00 0. -1.
       -3    1    3    3    0  502 -0.41497486999E+03  0.56174949382E+03 -0.57018437477E+03  0.90159684337E+03  0.10100000352E+00 0.  1.
</event>
<event>
 5   0  0.4310348E-04  0.1436918E+04  0.7818609E-02  0.8927521E-01
       -2   -1    0    0    0  501  0.00000000000E+00  0.00000000000E+00  0.27853274744E+03  0.27853274745E+03  0.25500000920E-02 0. -1.
        2   -1    0    0  501    0  0.00000000000E+00  0.00000000000E+00 -0.18532219757E+04  0.18532219757E+04  0.25500000920E-02 0.  1.
    10030    2    1    2    0    0  0.00000000000E+00  0.00000000000E+00 -0.15746892283E+04  0.21317547231E+04  0.14369175460E+04 0.  0.
        1    1    3    3  502    0 -0.15642409056E+03  0.38089050012E+03 -0.16608041824E+04  0.17110863805E+04  0.50400001928E-02 0.  1.
       -1    1    3    3    0  502  0.15642409056E+03 -0.38089050012E+03  0.86114954111E+02  0.42066834268E+03  0.50400001928E-02 0. -1.
</event>
<event>
 5   0  0.2143942E-04  0.1394680E+04  0.7818609E-02  0.8957678E-01
       -1   -1    0    0    0  501  0.00000000000E+00  0.00000000000E+00  0.43077976689E+03  0.43077976692E+03  0.50400001928E-02 0. -1.
        1   -1    0    0  501    0  0.00000000000E+00  0.00000000000E+00 -0.11288443057E+04  0.11288443057E+04  0.50400001928E-02 0.  1.
    10030    2    1    2    0    0  0.00000000000E+00  0.00000000000E+00 -0.69806453884E+03  0.15596240727E+04  0.13946803030E+04 0.  0.
        4    1    3    3  502    0 -0.33975319928E+03 -0.24071564823E+03  0.27650299991E+03  0.49983175328E+03  0.12699999809E+01 0. -1.
       -4    1    3    3    0  502  0.33975319928E+03  0.24071564823E+03 -0.97456753875E+03  0.10597923194E+04  0.12699999809E+01 0.  1.
</event>
<event>
 5   0  0.3917598E-04  0.1398597E+04  0.7818609E-02  0.8954834E-01
       -2   -1    0    0    0  501  0.00000000000E+00  0.00000000000E+00  0.33104254001E+03  0.33104254002E+03  0.25500000920E-02 0.  1.
        2   -1    0    0  501    0  0.00000000000E+00  0.00000000000E+00 -0.14772080197E+04  0.14772080197E+04  0.25500000920E-02 0. -1.
    10030    2    1    2    0    0  0.00000000000E+00  0.00000000000E+00 -0.11461654797E+04  0.18082505597E+04  0.13985974331E+04 0.  0.
        3    1    3    3  502    0  0.68432879602E+03 -0.11165225481E+03 -0.69049196797E+03  0.97854549976E+03  0.10100000352E+00 0.  1.
       -3    1    3    3    0  502 -0.68432879602E+03  0.11165225481E+03 -0.45567351175E+03  0.82970505999E+03  0.10100000352E+00 0. -1.
</event>
<event>
 5   0  0.4310348E-04  0.1384622E+04  0.7818609E-02  0.8965026E-01
        2   -1    0    0  501    0  0.00000000000E+00  0.00000000000E+00  0.19015919261E+04  0.19015919261E+04  0.25500000920E-02 0.  1.
       -2   -1    0    0    0  501  0.00000000000E+00  0.00000000000E+00 -0.25204899521E+03  0.25204899522E+03  0.25500000920E-02 0. -1.
    10030    2    1    2    0    0  0.00000000000E+00  0.00000000000E+00  0.16495429309E+04  0.21536409213E+04  0.13846217307E+04 0.  0.
        1    1    3    3  502    0 -0.68297285908E+03  0.12013259542E+02  0.64949994869E+03  0.94257436206E+03  0.50400001928E-02 0. -1.
       -1    1    3    3    0  502  0.68297285908E+03 -0.12013259542E+02  0.10000429822E+04  0.12110665592E+04  0.50400001928E-02 0.  1.
</event>
<event>
 5   0  0.2155352E-04  0.1401404E+04  0.7818609E-02  0.8952803E-01
       -1   -1    0    0    0  501  0.00000000000E+00  0.00000000000E+00  0.37450805582E+03  0.37450805585E+03  0.50400001928E-02 0. -1.
        1   -1    0    0  501    0  0.00000000000E+00  0.00000000000E+00 -0.13110085492E+04  0.13110085492E+04  0.50400001928E-02 0.  1.
    10030    2    1    2    0    0  0.00000000000E+00  0.00000000000E+00 -0.93650049341E+03  0.16855166051E+04  0.14014039574E+04 0.  0.
        2    1    3    3  502    0 -0.60008120539E+03 -0.14492095509E+03 -0.86694120426E+03  0.10642774957E+04  0.25500000920E-02 0.  1.
       -2    1    3    3    0  502  0.60008120539E+03  0.14492095509E+03 -0.69559289154E+02  0.62123910936E+03  0.25500000920E-02 0. -1.
</event>
<event>
 5   0  0.3975164E-04  0.1405801E+04  0.7818609E-02  0.8949631E-01
        2   -1    0    0  501    0  0.00000000000E+00  0.00000000000E+00  0.75815530378E+03  0.75815530379E+03  0.25500000920E-02 0.  1.
       -2   -1    0    0    0  501  0.00000000000E+00  0.00000000000E+00 -0.65167223932E+03  0.65167223932E+03  0.25500000920E-02 0. -1.
    10030    2    1    2    0    0  0.00000000000E+00  0.00000000000E+00  0.10648306446E+03  0.14098275431E+04  0.14058005044E+04 0.  0.
        5    1    3    3  502    0  0.26642707953E+03  0.64635770769E+03 -0.19664720086E+02  0.69940722488E+03  0.46999998093E+01 0. -1.
       -5    1    3    3    0  502 -0.26642707953E+03 -0.64635770769E+03  0.12614778455E+03  0.71042031823E+03  0.46999998093E+01 0.  1.
</event>
<event>
 5   0  0.2223112E-04  0.1407671E+04  0.7818609E-02  0.8948284E-01
       -1   -1    0    0    0  501  0.00000000000E+00  0.00000000000E+00  0.41945526792E+03  0.41945526795E+03  0.50400001928E-02 0. -1.
        1   -1    0    0  501    0  0.00000000000E+00  0.00000000000E+00 -0.11810187911E+04  0.11810187911E+04  0.50400001928E-02 0.  1.
    10030    2    1    2    0    0  0.00000000000E+00  0.00000000000E+00 -0.76156352317E+03  0.16004740590E+04  0.14076712023E+04 0.  0.
        1    1    3    3  502    0  0.12192136960E+03  0.19783892599E+03  0.37457737867E+03  0.44080979304E+03  0.50400001928E-02 0. -1.
       -1    1    3    3    0  502 -0.12192136960E+03 -0.19783892599E+03 -0.11361409018E+04  0.11596642660E+04  0.50400001928E-02 0.  1.
</event>
<event>
 5   0  0.3917598E-04  0.1408127E+04  0.7818609E-02  0.8947957E-01
       -2   -1    0    0    0  501  0.00000000000E+00  0.00000000000E+00  0.58908682971E+03  0.58908682972E+03  0.25500000920E-02 0.  1.
        2   -1    0    0  501    0  0.00000000000E+00  0.00000000000E+00 -0.84148059665E+03  0.84148059665E+03  0.25500000920E-02 0. -1.
    10030    2    1    2    0    0  0.00000000000E+00  0.00000000000E+00 -0.25239376694E+03  0.14305674264E+04  0.14081266093E+04 0.  0.
        3    1    3    3  502    0 -0.58413329203E+03 -0.25130524200E+03  0.18084313876E+03  0.66111290908E+03  0.10100000352E+00 0.  1.
       -3    1    3    3    0  502  0.58413329203E+03  0.25130524200E+03 -0.43323690570E+03  0.76945451729E+03  0.10100000352E+00 0. -1.
</event>
<event>
 5   0  0.3932568E-04  0.1401385E+04  0.7818609E-02  0.8952817E-01
       -2   -1    0    0    0  501  0.00000000000E+00  0.00000000000E+00  0.70809609998E+03  0.70809609998E+03  0.25500000920E-02 0. -1.
        2   -1    0    0  501    0  0.00000000000E+00  0.00000000000E+00 -0.69336583719E+03  0.69336583720E+03  0.25500000920E-02 0.  1.
    10030    2    1    2    0    0  0.00000000000E+00  0.00000000000E+00  0.14730262788E+02  0.14014619372E+04  0.14013845228E+04 0.  0.
        2    1    3    3  502    0 -0.38038273952E+02 -0.55487121532E+03  0.43358190489E+03  0.70521077993E+03  0.25500000920E-02 0. -1.
       -2    1    3    3    0  502  0.38038273952E+02  0.55487121532E+03 -0.41885164210E+03  0.69625115725E+03  0.25500000920E-02 0.  1.
</event>
<event>
 5   0  0.2217251E-04  0.1388565E+04  0.7818609E-02  0.8962137E-01
        1   -1    0    0  501    0  0.00000000000E+00  0.00000000000E+00  0.87938797379E+03  0.87938797381E+03  0.50400001928E-02 0. -1.
       -1   -1    0    0    0  501  0.00000000000E+00  0.00000000000E+00 -0.54814077293E+03  0.54814077295E+03  0.50400001928E-02 0.  1.
    10030    2    1    2    0    0  0.00000000000E+00  0.00000000000E+00  0.33124720087E+03  0.14275287468E+04  0.13885653081E+04 0.  0.
        5    1    3    3  502    0 -0.28745972233E+03 -0.23717047699E+03 -0.43658050480E+03  0.57402748565E+03  0.46999998093E+01 0.  1.
       -5    1    3    3    0  502  0.28745972233E+03  0.23717047699E+03  0.76782770567E+03  0.85350126110E+03  0.46999998093E+01 0. -1.
</event>
<event>
 5   0  0.2215876E-04  0.1397657E+04  0.7818609E-02  0.8955516E-01
       -1   -1    0    0    0  501  0.00000000000E+00  0.00000000000E+00  0.11205703729E+04  0.11205703729E+04  0.50400001928E-02 0.  1.
        1   -1    0    0  501    0  0.00000000000E+00  0.00000000000E+00 -0.43581521621E+03  0.43581521624E+03  0.50400001928E-02 0. -1.
    10030    2    1    2    0    0  0.00000000000E+00  0.00000000000E+00  0.68475515669E+03  0.15563855891E+04  0.13976574965E+04 0.  0.
        3    1    3    3  502    0  0.83905956215E+02 -0.39736651649E+03  0.97566479152E+03  0.10568169915E+04  0.10100000352E+00 0.  1.
       -3    1    3    3    0  502 -0.83905956215E+02  0.39736651649E+03 -0.29090963483E+03  0.49956859764E+03  0.10100000352E+00 0. -1.
</event>
<event>
 5   0  0.3917598E-04  0.1418351E+04  0.7818609E-02  0.8940641E-01
       -2   -1    0    0    0  501  0.00000000000E+00  0.00000000000E+00  0.27337213945E+03  0.27337213946E+03  0.25500000920E-02 0. -1.
        2   -1    0    0  501    0  0.00000000000E+00  0.00000000000E+00 -0.18397275008E+04  0.18397275008E+04  0.25500000920E-02 0.  1.
    10030    2    1    2    0    0  0.00000000000E+00  0.00000000000E+00 -0.15663553614E+04  0.21130996403E+04  0.14183514979E+04 0.  0.
        3    1    3    3  502    0 -0.23716479475E+03  0.32217996844E+03 -0.16555646761E+04  0.17032150419E+04  0.10100000352E+00 0.  1.
       -3    1    3    3    0  502  0.23716479475E+03 -0.32217996844E+03  0.89209314771E+02  0.40988459836E+03  0.10100000352E+00 0. -1.
</event>
<event>
 5   0  0.3975164E-04  0.1402942E+04  0.7818609E-02  0.8951692E-01
        2   -1    0    0  501    0  0.00000000000E+00  0.00000000000E+00  0.18961781566E+04  0.18961781566E+04  0.25500000920E-02 0.  1.
       -2   -1    0    0    0  501  0.00000000000E+00  0.00000000000E+00 -0.25950169460E+03  0.25950169461E+03  0.25500000920E-02 0. -1.
    10030    2    1    2    0    0  0.00000000000E+00  0.00000000000E+00  0.16366764620E+04  0.21556798513E+04  0.14029418305E+04 0.  0.
        5    1    3    3  502    0 -0.69816062428E+03  0.45861715258E+02  0.89528512739E+03  0.11362610191E+04  0.46999998093E+01 0.  1.
       -5    1    3    3    0  502  0.69816062428E+03 -0.45861715258E+02  0.74139133465E+03  0.10194188321E+04  0.46999998093E+01 0. -1.
</event>
<event>
 5   0  0.2217251E-04  0.1378045E+04  0.7818609E-02  0.8969866E-01
       -1   -1    0    0    0  501  0.00000000000E+00  0.00000000000E+00  0.58348224984E+03  0.58348224986E+03  0.50400001928E-02 0.  1.
        1   -1    0    0  501    0  0.00000000000E+00  0.00000000000E+00 -0.81365286363E+03  0.81365286364E+03  0.50400001928E-02 0. -1.
    10030    2    1    2    0    0  0.00000000000E+00  0.00000000000E+00 -0.23017061378E+03  0.13971351135E+04  0.13780449971E+04 0.  0.
        5    1    3    3  502    0  0.40277681307E+03 -0.14567164577E+03  0.43209534504E+03  0.60842244102E+03  0.46999998093E+01 0.  1.
       -5    1    3    3    0  502 -0.40277681307E+03  0.14567164577E+03 -0.66226595883E+03  0.78871267249E+03  0.46999998093E+01 0. -1.
</event>
<event>
 5   0  0.4310348E-04  0.1402111E+04  0.7818609E-02  0.8952292E-01
       -2   -1    0    0    0  501  0.00000000000E+00  0.00000000000E+00  0.98549528670E+03  0.98549528670E+03  0.25500000920E-02 0.  1.
        2   -1    0    0  501    0  0.00000000000E+00  0.00000000000E+00 -0.49871230624E+03  0.49871230624E+03  0.25500000920E-02 0. -1.
    10030    2    1    2    0    0  0.00000000000E+00  0.00000000000E+00  0.48678298046E+03  0.14842075929E+04  0.14021107335E+04 0.  0.
        1    1    3    3  502    0 -0.24136095313E+03  0.86393802635E+02 -0.44731664970E+03  0.51556879653E+03  0.50400001928E-02 0. -1.
       -1    1    3    3    0  502  0.24136095313E+03 -0.86393802635E+02  0.93409963016E+03  0.96863879642E+03  0.50400001928E-02 0.  1.
</event>
<event>
 5   0  0.2223112E-04  0.1404930E+04  0.7818609E-02  0.8950258E-01
        1   -1    0    0  501    0  0.00000000000E+00  0.00000000000E+00  0.71377411169E+03  0.71377411171E+03  0.50400001928E-02 0. -1.
       -1   -1    0    0    0  501  0.00000000000E+00  0.00000000000E+00 -0.69133511690E+03  0.69133511691E+03  0.50400001928E-02 0.  1.
    10030    2    1    2    0    0  0.00000000000E+00  0.00000000000E+00  0.22438994793E+02  0.14051092286E+04  0.14049300466E+04 0.  0.
        1    1    3    3  502    0 -0.24288440595E+02 -0.42184648847E+03  0.57246191613E+03  0.71151741624E+03  0.50400001928E-02 0. -1.
       -1    1    3    3    0  502  0.24288440595E+02  0.42184648847E+03 -0.55002292134E+03  0.69359181238E+03  0.50400001928E-02 0.  1.
</event>
<event>
 5   0  0.3917598E-04  0.1395563E+04  0.7818609E-02  0.8957037E-01
       -2   -1    0    0    0  501  0.00000000000E+00  0.00000000000E+00  0.73216127571E+03  0.73216127571E+03  0.25500000920E-02 0.  1.
        2   -1    0    0  501    0  0.00000000000E+00  0.00000000000E+00 -0.66501570218E+03  0.66501570219E+03  0.25500000920E-02 0. -1.
    10030    2    1    2    0    0  0.00000000000E+00  0.00000000000E+00  0.67145573525E+02  0.13971769779E+04  0.13955626032E+04 0.  0.
        3    1    3    3  502    0  0.72891857737E+02 -0.67701101505E+03  0.18620109251E+03  0.70592350469E+03  0.10100000352E+00 0.  1.
       -3    1    3    3    0  502 -0.72891857737E+02  0.67701101505E+03 -0.11905551898E+03  0.69125347321E+03  0.10100000352E+00 0. -1.
</event>
<event>
 5   0  0.4208622E-04  0.1393390E+04  0.7818609E-02  0.8958617E-01
        2   -1    0    0  501    0  0.00000000000E+00  0.00000000000E+00  0.77054736310E+03  0.77054736311E+03  0.25500000920E-02 0. -1.
       -2   -1    0    0    0  501  0.00000000000E+00  0.00000000000E+00 -0.62992111691E+03  0.62992111692E+03  0.25500000920E-02 0.  1.
    10030    2    1    2    0    0  0.00000000000E+00  0.00000000000E+00  0.14062624619E+03  0.14004684800E+04  0.13933901903E+04 0.  0.
        4    1    3    3  502    0  0.25754723475E+03  0.25519480650E+03  0.66825329103E+03  0.76027563506E+03  0.12699999809E+01 0. -1.
       -4    1    3    3    0  502 -0.25754723475E+03 -0.25519480650E+03 -0.52762704484E+03  0.64019284496E+03  0.12699999809E+01 0.  1.
</event>
<event>
 5   0  0.3932568E-04  0.1393322E+04  0.7818609E-02  0.8958667E-01
        2   -1    0    0  501    0  0.00000000000E+00  0.00000000000E+00  0.98773807197E+03  0.98773807197E+03  0.25500000920E-02 0.  1.
       -2   -1    0    0    0  501  0.00000000000E+00  0.00000000000E+00 -0.49136135217E+03  0.49136135218E+03  0.25500000920E-02 0. -1.
    10030    2    1    2    0    0  0.00000000000E+00  0.00000000000E+00  0.49637671980E+03  0.14790994242E+04  0.13933216637E+04 0.  0.
        2    1    3    3  502    0 -0.17688356101E+03  0.60787804188E+03  0.55683291703E+03  0.84312893762E+03  0.25500000920E-02 0.  1.
       -2    1    3    3    0  502  0.17688356101E+03 -0.60787804188E+03 -0.60456197232E+02  0.63597048653E+03  0.25500000920E-02 0. -1.
</event>
<event>
 5   0  0.3932568E-04  0.1395458E+04  0.7818609E-02  0.8957113E-01
        2   -1    0    0  501    0  0.00000000000E+00  0.00000000000E+00  0.43406435561E+03  0.43406435561E+03  0.25500000920E-02 0. -1.
       -2   -1    0    0    0  501  0.00000000000E+00  0.00000000000E+00 -0.11215515295E+04  0.11215515295E+04  0.25500000920E-02 0.  1.
    10030    2    1    2    0    0  0.00000000000E+00  0.00000000000E+00 -0.68748717389E+03  0.15556158851E+04  0.13954576911E+04 0.  0.
        2    1    3    3  502    0  0.43985228685E+02  0.12606322681E+03 -0.11071777840E+04  0.11151992122E+04  0.25500000920E-02 0.  1.
       -2    1    3    3    0  502 -0.43985228685E+02 -0.12606322681E+03  0.41969061015E+03  0.44041667288E+03  0.25500000920E-02 0. -1.
</event>
<event>
 5   0  0.4310348E-04  0.1403058E+04  0.7818609E-02  0.8951608E-01
        2   -1    0    0  501    0  0.00000000000E+00  0.00000000000E+00  0.88136517201E+03  0.88136517201E+03  0.25500000920E-02 0.  1.
       -2   -1    0    0    0  501  0.00000000000E+00  0.00000000000E+00 -0.55838738577E+03  0.55838738577E+03  0.25500000920E-02 0. -1.
    10030    2    1    2    0    0  0.00000000000E+00  0.00000000000E+00  0.32297778624E+03  0.14397525578E+04  0.14030583656E+04 0.  0.
        1    1    3    3  502    0  0.27859082024E+03 -0.43493154901E+03 -0.32565274984E+03  0.61059643870E+03  0.50400001928E-02 0. -1.
       -1    1    3    3    0  502 -0.27859082024E+03  0.43493154901E+03  0.64863053608E+03  0.82915611908E+03  0.50400001928E-02 0.  1.
</event>
<event>
 5   0  0.2217251E-04  0.1416579E+04  0.7818609E-02  0.8941904E-01
        1   -1    0    0  501    0  0.00000000000E+00  0.00000000000E+00  0.69103594288E+03  0.69103594290E+03  0.50400001928E-02 0.  1.
       -1   -1    0    0    0  501  0.00000000000E+00  0.00000000000E+00 -0.72597399380E+03  0.72597399382E+03  0.50400001928E-02 0. -1.
    10030    2    1    2    0    0  0.00000000000E+00  0.00000000000E+00 -0.34938050919E+02  0.14170099367E+04  0.14165791518E+04 0.  0.
        5    1    3    3  502    0  0.57132330032E+03 -0.38066133353E+03  0.15676393335E+03  0.70420904931E+03  0.46999998093E+01 0. -1.
       -5    1    3    3    0  502 -0.57132330032E+03  0.38066133353E+03 -0.19170198426E+03  0.71280088742E+03  0.46999998093E+01 0.  1.
</event>
<event>
 5   0  0.2223112E-04  0.1404353E+04  0.7818609E-02  0.8950674E-01
       -1   -1    0    0    0  501  0.00000000000E+00  0.00000000000E+00  0.63027324265E+03  0.63027324267E+03  0.50400001928E-02 0. -1.
        1   -1    0    0  501    0  0.00000000000E+00  0.00000000000E+00 -0.78228238199E+03  0.78228238200E+03  0.50400001928E-02 0.  1.
    10030    2    1    2    0    0  0.00000000000E+00  0.00000000000E+00 -0.15200913934E+03  0.14125556247E+04  0.14043527386E+04 0.  0.
        1    1    3    3  502    0 -0.44193455068E+03 -0.11249754123E+02 -0.62473575554E+03  0.76532834021E+03  0.50400001928E-02 0.  1.
       -1    1    3    3    0  502  0.44193455068E+03  0.11249754123E+02  0.47272661620E+03  0.64722728446E+03  0.50400001928E-02 0. -1.
</event>
<event>
 5   0  0.3917598E-04  0.1399775E+04  0.7818609E-02  0.8953981E-01
       -2   -1    0    0    0  501  0.00000000000E+00  0.00000000000E+00  0.87925306252E+03  0.87925306252E+03  0.25500000920E-02 0. -1.
        2   -1    0    0  501    0  0.00000000000E+00  0.00000000000E+00 -0.55711202138E+03  0.55711202139E+03  0.25500000920E-02 0.  1.
    10030    2    1    2    0    0  0.00000000000E+00  0.00000000000E+00  0.32214104114E+03  0.14363650839E+04  0.13997749119E+04 0.  0.
        3    1    3    3  502    0 -0.58961696008E+03 -0.24547106571E+03  0.45480162749E+03  0.78405913953E+03  0.10100000352E+00 0. -1.
       -3    1    3    3    0  502  0.58961696008E+03  0.24547106571E+03 -0.13266058635E+03  0.65230594438E+03  0.10100000352E+00 0.  1.
</event>
<event>
 5   0  0.2155352E-04  0.1399746E+04  0.7818609E-02  0.8954002E-01
        1   -1    0    0  501    0  0.00000000000E+00  0.00000000000E+00  0.11262514001E+04  0.11262514001E+04  0.50400001928E-02 0. -1.
       -1   -1    0    0    0  501  0.00000000000E+00  0.00000000000E+00 -0.43491385386E+03  0.43491385389E+03  0.50400001928E-02 0.  1.
    10030    2    1    2    0    0  0.00000000000E+00  0.00000000000E+00  0.69133754625E+03  0.15611652540E+04  0.13997461725E+04 0.  0.
        2    1    3    3  502    0 -0.51889123191E+03  0.60110286028E+02 -0.17383703215E+03  0.55052762946E+03  0.25500000920E-02 0.  1.
       -2    1    3    3    0  502  0.51889123191E+03 -0.60110286028E+02  0.86517457840E+03  0.10106376246E+04  0.25500000920E-02 0. -1.
</event>
<event>
 5   0  0.2215876E-04  0.1373517E+04  0.7818609E-02  0.8973215E-01
       -1   -1    0    0    0  501  0.00000000000E+00  0.00000000000E+00  0.10631956885E+04  0.10631956885E+04  0.50400001928E-02 0. -1.
        1   -1    0    0  501    0  0.00000000000E+00  0.00000000000E+00 -0.44360333871E+03  0.44360333874E+03  0.50400001928E-02 0.  1.
    10030    2    1    2    0    0  0.00000000000E+00  0.00000000000E+00  0.61959234982E+03  0.15067990273E+04  0.13735168833E+04 0.  0.
        3    1    3    3  502    0 -0.35083925011E+03 -0.75427668445E+01  0.95741249077E+03  0.10196978770E+04  0.10100000352E+00 0. -1.
       -3    1    3    3    0  502  0.35083925011E+03  0.75427668445E+01 -0.33782014094E+03  0.48710115025E+03  0.10100000352E+00 0.  1.
</event>
<event>
 5   0  0.2143942E-04  0.1399030E+04  0.7818609E-02  0.8954521E-01
       -1   -1    0    0    0  501  0.00000000000E+00  0.00000000000E+00  0.63097399804E+03  0.63097399806E+03  0.50400001928E-02 0. -1.
        1   -1    0    0  501    0  0.00000000000E+00  0.00000000000E+00 -0.77550154481E+03  0.77550154483E+03  0.50400001928E-02 0.  1.
    10030    2    1    2    0    0  0.00000000000E+00  0.00000000000E+00 -0.14452754678E+03  0.14064755429E+04  0.13990301072E+04 0.  0.
        4    1    3    3  502    0  0.57149756689E+03  0.12540032456E+03 -0.45769031055E+03  0.74284368721E+03  0.12699999809E+01 0.  1.
       -4    1    3    3    0  502 -0.57149756689E+03 -0.12540032456E+03  0.31316276377E+03  0.66363185568E+03  0.12699999809E+01 0. -1.
</event>
<event>
 5   0  0.4310348E-04  0.1402318E+04  0.7818609E-02  0.8952142E-01
        2   -1    0    0  501    0  0.00000000000E+00  0.00000000000E+00  0.58861169173E+03  0.58861169173E+03  0.25500000920E-02 0.  1.
       -2   -1    0    0    0  501  0.00000000000E+00  0.00000000000E+00 -0.83522656148E+03  0.83522656148E+03  0.25500000920E-02 0. -1.
    10030    2    1    2    0    0  0.00000000000E+00  0.00000000000E+00 -0.24661486975E+03  0.14238382532E+04  0.14023182511E+04 0.  0.
        1    1    3    3  502    0  0.49237544056E+03 -0.10329539630E+03  0.37257305575E+03  0.62603050665E+03  0.50400001928E-02 0.  1.
       -1    1    3    3    0  502 -0.49237544056E+03  0.10329539630E+03 -0.61918792550E+03  0.79780774656E+03  0.50400001928E-02 0. -1.
</event>
<event>
 5   0  0.2155352E-04  0.1399554E+04  0.7818609E-02  0.8954141E-01
        1   -1    0    0  501    0  0.00000000000E+00  0.00000000000E+00  0.43536002263E+03  0.43536002266E+03  0.50400001928E-02 0. -1.
       -1   -1    0    0    0  501  0.00000000000E+00  0.00000000000E+00 -0.11247883918E+04  0.11247883919E+04  0.50400001928E-02 0.  1.
    10030    2    1    2    0    0  0.00000000000E+00  0.00000000000E+00 -0.68942836922E+03  0.15601484145E+04  0.13995540715E+04 0.  0.
        2    1    3    3  502    0  0.38462783944E+03  0.21659402216E+03 -0.95000871344E+03  0.10475533881E+04  0.25500000920E-02 0.  1.
       -2    1    3    3    0  502 -0.38462783944E+03 -0.21659402216E+03  0.26058034422E+03  0.51259502642E+03  0.25500000920E-02 0. -1.
</event>
<event>
 5   0  0.2217251E-04  0.1399459E+04  0.7818609E-02  0.8954211E-01
       -1   -1    0    0    0  501  0.00000000000E+00  0.00000000000E+00  0.71485220729E+03  0.71485220730E+03  0.50400001928E-02 0.  1.
        1   -1    0    0  501    0  0.00000000000E+00  0.00000000000E+00 -0.68492634107E+03  0.68492634109E+03  0.50400001928E-02 0. -1.
    10030    2    1    2    0    0  0.00000000000E+00  0.00000000000E+00  0.29925866217E+02  0.13997785484E+04  0.13994586193E+04 0.  0.
        5    1    3    3  502    0  0.22128729429E+03 -0.30347117266E+03  0.60546744020E+03  0.71251367032E+03  0.46999998093E+01 0.  1.
       -5    1    3    3    0  502 -0.22128729429E+03  0.30347117266E+03 -0.57554157399E+03  0.68726487807E+03  0.46999998093E+01 0. -1.
</event>
<event>
 5   0  0.2217251E-04  0.1389708E+04  0.7818609E-02  0.8961303E-01
       -1   -1    0    0    0  501  0.00000000000E+00  0.00000000000E+00  0.75384305530E+03  0.75384305532E+03  0.50400001928E-02 0.  1.
        1   -1    0    0  501    0  0.00000000000E+00  0.00000000000E+00 -0.64048061773E+03  0.64048061775E+03  0.50400001928E-02 0. -1.
    10030    2    1    2    0    0  0.00000000000E+00  0.00000000000E+00  0.11336243757E+03  0.13943236731E+04  0.13897076898E+04 0.  0.
        5    1    3    3  502    0  0.45439171812E+03 -0.42220892296E+03  0.37087880345E+03  0.72270698417E+03  0.46999998093E+01 0.  1.
       -5    1    3    3    0  502 -0.45439171812E+03  0.42220892296E+03 -0.25751636588E+03  0.67161668890E+03  0.46999998093E+01 0. -1.
</event>
<event>
 5   0  0.4310348E-04  0.1398745E+04  0.7818609E-02  0.8954727E-01
        2   -1    0    0  501    0  0.00000000000E+00  0.00000000000E+00  0.61017573480E+03  0.61017573480E+03  0.25500000920E-02 0. -1.
       -2   -1    0    0    0  501  0.00000000000E+00  0.00000000000E+00 -0.80160822934E+03  0.80160822934E+03  0.25500000920E-02 0.  1.
    10030    2    1    2    0    0  0.00000000000E+00  0.00000000000E+00 -0.19143249454E+03  0.14117839641E+04  0.13987449951E+04 0.  0.
        1    1    3    3  502    0 -0.16606636578E+03 -0.53603744740E+03  0.32555651642E+03  0.64876900995E+03  0.50400001928E-02 0. -1.
       -1    1    3    3    0  502  0.16606636578E+03  0.53603744740E+03 -0.51698901095E+03  0.76301495420E+03  0.50400001928E-02 0.  1.
</event>
<event>
 5   0  0.2217251E-04  0.1397444E+04  0.7818609E-02  0.8955671E-01
       -1   -1    0    0    0  501  0.00000000000E+00  0.00000000000E+00  0.10068661343E+04  0.10068661343E+04  0.50400001928E-02 0.  1.
        1   -1    0    0  501    0  0.00000000000E+00  0.00000000000E+00 -0.48488338211E+03  0.48488338214E+03  0.50400001928E-02 0. -1.
    10030    2    1    2    0    0  0.00000000000E+00  0.00000000000E+00  0.52198275222E+03  0.14917495165E+04  0.13974443196E+04 0.  0.
        5    1    3    3  502    0 -0.10082214336E+03  0.67199838823E+03  0.87402490861E+02  0.68513372693E+03  0.46999998093E+01 0. -1.
       -5    1    3    3    0  502  0.10082214336E+03 -0.67199838823E+03  0.43458026135E+03  0.80661578954E+03  0.46999998093E+01 0.  1.
</event>
<event>
 5   0  0.3932568E-04  0.1397628E+04  0.7818609E-02  0.8955538E-01
       -2   -1    0    0    0  501  0.00000000000E+00  0.00000000000E+00  0.91426853706E+03  0.91426853707E+03  0.25500000920E-02 0. -1.
        2   -1    0    0  501    0  0.00000000000E+00  0.00000000000E+00 -0.53413279561E+03  0.53413279562E+03  0.25500000920E-02 0.  1.
    10030    2    1    2    0    0  0.00000000000E+00  0.00000000000E+00  0.38013574145E+03  0.14484013327E+04  0.13976277182E+04 0.  0.
        2    1    3    3  502    0  0.51056417222E+03 -0.47204627192E+03  0.26214563291E+03  0.74311761495E+03  0.25500000920E-02 0. -1.
       -2    1    3    3    0  502 -0.51056417222E+03  0.47204627192E+03  0.11799010854E+03  0.70528371774E+03  0.25500000920E-02 0.  1.
</event>
<event>
 5   0  0.2155352E-04  0.1399797E+04  0.7818609E-02  0.8953966E-01
        1   -1    0    0  501    0  0.00000000000E+00  0.00000000000E+00  0.64537278078E+03  0.64537278080E+03  0.50400001928E-02 0. -1.
       -1   -1    0    0    0  501  0.00000000000E+00  0.00000000000E+00 -0.75903060616E+03  0.75903060617E+03  0.50400001928E-02 0.  1.
    10030    2    1    2    0    0  0.00000000000E+00  0.00000000000E+00 -0.11365782538E+03  0.14044033870E+04  0.13997966895E+04 0.  0.
        2    1    3    3  502    0 -0.26417389017E+03 -0.49961512097E+03  0.35739125782E+03  0.66867901457E+03  0.25500000920E-02 0. -1.
       -2    1    3    3    0  502  0.26417389017E+03  0.49961512097E+03 -0.47104908320E+03  0.73572437240E+03  0.25500000920E-02 0.  1.
</event>
<event>
 5   0  0.3975164E-04  0.1397133E+04  0.7818609E-02  0.8955896E-01
        2   -1    0    0  501    0  0.00000000000E+00  0.00000000000E+00  0.13766418324E+04  0.13766418324E+04  0.25500000920E-02 0. -1.
       -2   -1    0    0    0  501  0.00000000000E+00  0.00000000000E+00 -0.35448241076E+03  0.35448241077E+03  0.25500000920E-02 0.  1.
    10030    2    1    2    0    0  0.00000000000E+00  0.00000000000E+00  0.10221594217E+04  0.17311242432E+04  0.13971332299E+04 0.  0.
        5    1    3    3  502    0 -0.41115665695E+02  0.35763934408E+03 -0.23067510781E+03  0.42758565664E+03  0.46999998093E+01 0.  1.
       -5    1    3    3    0  502  0.41115665695E+02 -0.35763934408E+03  0.12528345295E+04  0.13035385866E+04  0.46999998093E+01 0. -1.
</event>
<event>
 5   0  0.4208622E-04  0.1414030E+04  0.7818609E-02  0.8943725E-01
        2   -1    0    0  501    0  0.00000000000E+00  0.00000000000E+00  0.13786214553E+04  0.13786214553E+04  0.25500000920E-02 0.  1.
       -2   -1    0    0    0  501  0.00000000000E+00  0.00000000000E+00 -0.36258724578E+03  0.36258724579E+03  0.25500000920E-02 0. -1.
    10030    2    1    2    0    0  0.00000000000E+00  0.00000000000E+00  0.10160342095E+04  0.17412087010E+04  0.14140304897E+04 0.  0.
        4    1    3    3  502    0 -0.32832729624E+03  0.31476127538E+03 -0.15851720166E+03  0.48166667942E+03  0.12699999809E+01 0. -1.
       -4    1    3    3    0  502  0.32832729624E+03 -0.31476127538E+03  0.11745514111E+04  0.12595420216E+04  0.12699999809E+01 0.  1.
</event>
<event>
 5   0  0.4208622E-04  0.1400656E+04  0.7818609E-02  0.8953344E-01
        2   -1    0    0  501    0  0.00000000000E+00  0.00000000000E+00  0.17796767797E+04  0.17796767797E+04  0.25500000920E-02 0. -1.
       -2   -1    0    0    0  501  0.00000000000E+00  0.00000000000E+00 -0.27558903820E+03  0.27558903821E+03  0.25500000920E-02 0.  1.
    10030    2    1    2    0    0  0.00000000000E+00  0.00000000000E+00  0.15040877415E+04  0.20552658179E+04  0.14006561491E+04 0.  0.
        4    1    3    3  502    0  0.66383360856E+02  0.67363990323E+03  0.10155986313E+04  0.12205079527E+04  0.12699999809E+01 0. -1.
       -4    1    3    3    0  502 -0.66383360856E+02 -0.67363990323E+03  0.48848911018E+03  0.83475786518E+03  0.12699999809E+01 0.  1.
</event>
<event>
 5   0  0.2217251E-04  0.1400990E+04  0.7818609E-02  0.8953102E-01
       -1   -1    0    0    0  501  0.00000000000E+00  0.00000000000E+00  0.26184811985E+03  0.26184811990E+03  0.50400001928E-02 0.  1.
        1   -1    0    0  501    0  0.00000000000E+00  0.00000000000E+00 -0.18739613169E+04  0.18739613169E+04  0.50400001928E-02 0. -1.
    10030    2    1    2    0    0  0.00000000000E+00  0.00000000000E+00 -0.16121131970E+04  0.21358094368E+04  0.14009900036E+04 0.  0.
        5    1    3    3  502    0  0.10915964696E+03 -0.66751269567E+03 -0.52835422242E+03  0.85829441438E+03  0.46999998093E+01 0. -1.
       -5    1    3    3    0  502 -0.10915964696E+03  0.66751269567E+03 -0.10837589746E+04  0.12775150224E+04  0.46999998093E+01 0.  1.
</event>
<event>
 5   0  0.1497625E-04  0.1401059E+04  0.7818609E-02  0.8953052E-01
       -3   -1    0    0    0  501  0.00000000000E+00  0.00000000000E+00  0.26125913592E+03  0.26125915545E+03  0.10100000352E+00 0. -1.
        3   -1    0    0  501    0  0.00000000000E+00  0.00000000000E+00 -0.18783710184E+04  0.18783710211E+04  0.10100000352E+00 0.  1.
    10030    2    1    2    0    0  0.00000000000E+00  0.00000000000E+00 -0.16171118824E+04  0.21396301765E+04  0.14010590466E+04 0.  0.
        4    1    3    3  502    0 -0.44685729623E+03  0.49742792565E+03 -0.11275224582E+04  0.13108869101E+04  0.12699999809E+01 0.  1.
       -4    1    3    3    0  502  0.44685729623E+03 -0.49742792565E+03 -0.48958942422E+03  0.82874326641E+03  0.12699999809E+01 0. -1.
</event>
<event>
 5   0  0.2217251E-04  0.1400956E+04  0.7818609E-02  0.8953127E-01
       -1   -1    0    0    0  501  0.00000000000E+00  0.00000000000E+00  0.10164959775E+04  0.10164959775E+04  0.50400001928E-02 0. -1.
        1   -1    0    0  501    0  0.00000000000E+00  0.00000000000E+00 -0.48270680987E+03  0.48270680989E+03  0.50400001928E-02 0.  1.
    10030    2    1    2    0    0  0.00000000000E+00  0.00000000000E+00  0.53378916761E+03  0.14992027874E+04  0.14009561457E+04 0.  0.
        5    1    3    3  502    0 -0.54275453058E+02  0.50927637762E+03 -0.24446460627E+03  0.56753263107E+03  0.46999998093E+01 0.  1.
       -5    1    3    3    0  502  0.54275453058E+02 -0.50927637762E+03  0.77825377388E+03  0.93167015631E+03  0.46999998093E+01 0. -1.
</event>
<event>
 5   0  0.4310348E-04  0.1401174E+04  0.7818609E-02  0.8952969E-01
       -2   -1    0    0    0  501  0.00000000000E+00  0.00000000000E+00  0.31346627693E+03  0.31346627694E+03  0.25500000920E-02 0.  1.
        2   -1    0    0  501    0  0.00000000000E+00  0.00000000000E+00 -0.15657889318E+04  0.15657889318E+04  0.25500000920E-02 0. -1.
    10030    2    1    2    0    0  0.00000000000E+00  0.00000000000E+00 -0.12523226549E+04  0.18792552087E+04  0.14011738321E+04 0.  0.
        1    1    3    3  502    0  0.54377228219E+03  0.41350685738E+03 -0.83456945050E+03  0.10785093341E+04  0.50400001928E-02 0. -1.
       -1    1    3    3    0  502 -0.54377228219E+03 -0.41350685738E+03 -0.41775320436E+03  0.80074587464E+03  0.50400001928E-02 0.  1.
</event>
<event>
 5   0  0.3975164E-04  0.1404958E+04  0.7818609E-02  0.8950237E-01
        2   -1    0    0  501    0  0.00000000000E+00  0.00000000000E+00  0.12307418736E+04  0.12307418736E+04  0.25500000920E-02 0. -1.
       -2   -1    0    0    0  501  0.00000000000E+00  0.00000000000E+00 -0.40095881738E+03  0.40095881739E+03  0.25500000920E-02 0.  1.
    10030    2    1    2    0    0  0.00000000000E+00  0.00000000000E+00  0.82978305619E+03  0.16317006910E+04  0.14049580864E+04 0.  0.
        5    1    3    3  502    0 -0.70603708104E+02 -0.11202815458E+03  0.12160969700E+04  0.12232943724E+04  0.46999998093E+01 0. -1.
       -5    1    3    3    0  502  0.70603708104E+02  0.11202815458E+03 -0.38631391384E+03  0.40840631856E+03  0.46999998093E+01 0.  1.
</event>
<event>
 5   0  0.2215876E-04  0.1408923E+04  0.7818609E-02  0.8947385E-01
       -1   -1    0    0    0  501  0.00000000000E+00  0.00000000000E+00  0.41786067609E+03  0.41786067612E+03  0.50400001928E-02 0. -1.
        1   -1    0    0  501    0  0.00000000000E+00  0.00000000000E+00 -0.11876346552E+04  0.11876346552E+04  0.50400001928E-02 0.  1.
    10030    2    1    2    0    0  0.00000000000E+00  0.00000000000E+00 -0.76977397908E+03  0.16054953313E+04  0.14089227374E+04 0.  0.
        3    1    3    3  502    0 -0.58280536381E+03 -0.36453343722E+03 -0.56038447101E+03  0.88689203654E+03  0.10100000352E+00 0.  1.
       -3    1    3    3    0  502  0.58280536381E+03  0.36453343722E+03 -0.20938950807E+03  0.71860329475E+03  0.10100000352E+00 0. -1.
</event>
<event>
 5   0  0.4208622E-04  0.1402339E+04  0.7818609E-02  0.8952127E-01
       -2   -1    0    0    0  501  0.00000000000E+00  0.00000000000E+00  0.42474803044E+03  0.42474803045E+03  0.25500000920E-02 0. -1.
        2   -1    0    0  501    0  0.00000000000E+00  0.00000000000E+00 -0.11574825561E+04  0.11574825561E+04  0.25500000920E-02 0.  1.
    10030    2    1    2    0    0  0.00000000000E+00  0.00000000000E+00 -0.73273452567E+03  0.15822305866E+04  0.14023386695E+04 0.  0.
        4    1    3    3  502    0  0.11089461791E+02  0.57448940842E+03 -0.81975580777E+03  0.10010805431E+04  0.12699999809E+01 0.  1.
       -4    1    3    3    0  502 -0.11089461791E+02 -0.57448940842E+03  0.87021282096E+02  0.58115004344E+03  0.12699999809E+01 0. -1.
</event>
<event>
 5   0  0.4310348E-04  0.1398390E+04  0.7818609E-02  0.8954985E-01
        2   -1    0    0  501    0  0.00000000000E+00  0.00000000000E+00  0.14020666800E+04  0.14020666800E+04  0.25500000920E-02 0. -1.
       -2   -1    0    0    0  501  0.00000000000E+00  0.00000000000E+00 -0.34868084301E+03  0.34868084302E+03  0.25500000920E-02 0.  1.
    10030    2    1    2    0    0  0.00000000000E+00  0.00000000000E+00  0.10533858369E+04  0.17507475230E+04  0.13983902058E+04 0.  0.
        1    1    3    3  502    0 -0.48417549953E+03 -0.49791470203E+03  0.42553200789E+03  0.81450749204E+03  0.50400001928E-02 0.  1.
       -1    1    3    3    0  502  0.48417549953E+03  0.49791470203E+03  0.62785382906E+03  0.93624003093E+03  0.50400001928E-02 0. -1.
</event>
<event>
 5   0  0.2215876E-04  0.1404384E+04  0.7818609E-02  0.8950651E-01
       -1   -1    0    0    0  501  0.00000000000E+00  0.00000000000E+00  0.62407226726E+03  0.62407226728E+03  0.50400001928E-02 0. -1.
        1   -1    0    0  501    0  0.00000000000E+00  0.00000000000E+00 -0.79009095950E+03  0.79009095952E+03  0.50400001928E-02 0.  1.
    10030    2    1    2    0    0  0.00000000000E+00  0.00000000000E+00 -0.16601869224E+03  0.14141632268E+04  0.14043843583E+04 0.  0.
        3    1    3    3  502    0 -0.37838791394E+03 -0.36940843616E+02 -0.67748594695E+03  0.77687145517E+03  0.10100000352E+00 0.  1.
       -3    1    3    3    0  502  0.37838791394E+03  0.36940843616E+02  0.51146725471E+03  0.63729177162E+03  0.10100000352E+00 0. -1.
</event>
<event>
 5   0  0.3917598E-04  0.1395710E+04  0.7818609E-02  0.8956930E-01
       -2   -1    0    0    0  501  0.00000000000E+00  0.00000000000E+00  0.49187662115E+03  0.49187662115E+03  0.25500000920E-02 0. -1.
        2   -1    0    0  501    0  0.00000000000E+00  0.00000000000E+00 -0.99008878505E+03  0.99008878506E+03  0.25500000920E-02 0.  1.
    10030    2    1    2    0    0  0.00000000000E+00  0.00000000000E+00 -0.49821216391E+03  0.14819654062E+04  0.13957098928E+04 0.  0.
        3    1    3    3  502    0  0.45040703603E+03  0.12246093825E+02  0.31673001437E+03  0.55075800232E+03  0.10100000352E+00 0. -1.
       -3    1    3    3    0  502 -0.45040703603E+03 -0.12246093825E+02 -0.81494217827E+03  0.93120740388E+03  0.10100000352E+00 0.  1.
</event>
<event>
 5   0  0.2215876E-04  0.1399697E+04  0.7818609E-02  0.8954038E-01
       -1   -1    0    0    0  501  0.00000000000E+00  0.00000000000E+00  0.32214873367E+03  0.32214873371E+03  0.50400001928E-02 0.  1.
        1   -1    0    0  501    0  0.00000000000E+00  0.00000000000E+00 -0.15203786328E+04  0.15203786328E+04  0.50400001928E-02 0. -1.
    10030    2    1    2    0    0  0.00000000000E+00  0.00000000000E+00 -0.11982298991E+04  0.18425273665E+04  0.13996971834E+04 0.  0.
        3    1    3    3  502    0  0.29841070941E+03  0.19836583438E+03 -0.13904637988E+04  0.14358925941E+04  0.10100000352E+00 0. -1.
       -3    1    3    3    0  502 -0.29841070941E+03 -0.19836583438E+03  0.19223389970E+03  0.40663477241E+03  0.10100000352E+00 0.  1.
</event>
<event>
 5   0  0.2217251E-04  0.1397654E+04  0.7818609E-02  0.8955519E-01
        1   -1    0    0  501    0  0.00000000000E+00  0.00000000000E+00  0.15997351021E+04  0.15997351021E+04  0.50400001928E-02 0. -1.
       -1   -1    0    0    0  501  0.00000000000E+00  0.00000000000E+00 -0.30527487302E+03  0.30527487306E+03  0.50400001928E-02 0.  1.
    10030    2    1    2    0    0  0.00000000000E+00  0.00000000000E+00  0.12944602291E+04  0.19050099752E+04  0.13976536484E+04 0.  0.
        5    1    3    3  502    0 -0.38839677819E+03  0.51641582354E+03  0.28455920133E+03  0.70606896913E+03  0.46999998093E+01 0.  1.
       -5    1    3    3    0  502  0.38839677819E+03 -0.51641582354E+03  0.10099010278E+04  0.11989410061E+04  0.46999998093E+01 0. -1.
</event>
<event>
 5   0  0.2223112E-04  0.1391906E+04  0.7818609E-02  0.8959698E-01
       -1   -1    0    0    0  501  0.00000000000E+00  0.00000000000E+00  0.72363397157E+03  0.72363397158E+03  0.50400001928E-02 0. -1.
        1   -1    0    0  501    0  0.00000000000E+00  0.00000000000E+00 -0.66933100468E+03  0.66933100470E+03  0.50400001928E-02 0.  1.
    10030    2    1    2    0    0  0.00000000000E+00  0.00000000000E+00  0.54302966889E+02  0.13929649763E+04  0.13919061078E+04 0.  0.
        1    1    3    3  502    0 -0.18997267594E+03  0.73824033933E+02  0.69309819720E+03  0.72244357328E+03  0.50400001928E-02 0. -1.
       -1    1    3    3    0  502  0.18997267594E+03 -0.73824033933E+02 -0.63879523031E+03  0.67052140300E+03  0.50400001928E-02 0.  1.
</event>
<event>
 5   0  0.2223112E-04  0.1400365E+04  0.7818609E-02  0.8953554E-01
       -1   -1    0    0    0  501  0.00000000000E+00  0.00000000000E+00  0.50281141405E+03  0.50281141407E+03  0.50400001928E-02 0. -1.
        1   -1    0    0  501    0  0.00000000000E+00  0.00000000000E+00 -0.97502864784E+03  0.97502864786E+03  0.50400001928E-02 0.  1.
    10030    2    1    2    0    0  0.00000000000E+00  0.00000000000E+00 -0.47221723380E+03  0.14778400619E+04  0.14003649998E+04 0.  0.
        1    1    3    3  502    0 -0.53411718045E+03 -0.23240426454E+03 -0.64614360110E+03  0.86993934150E+03  0.50400001928E-02 0.  1.
       -1    1    3    3    0  502  0.53411718045E+03  0.23240426454E+03  0.17392636730E+03  0.60790072042E+03  0.50400001928E-02 0. -1.
</event>
<event>
 5   0  0.3917598E-04  0.1386721E+04  0.7818609E-02  0.8963487E-01
       -2   -1    0    0    0  501  0.00000000000E+00  0.00000000000E+00  0.36333167420E+03  0.36333167421E+03  0.25500000920E-02 0. -1.
        2   -1    0    0  501    0  0.00000000000E+00  0.00000000000E+00 -0.13231673953E+04  0.13231673953E+04  0.25500000920E-02 0.  1.
    10030    2    1    2    0    0  0.00000000000E+00  0.00000000000E+00 -0.95983572111E+03  0.16864990695E+04  0.13867207722E+04 0.  0.
        3    1    3    3  502    0  0.65483285331E+03 -0.77787254892E+02 -0.21938403293E+03  0.69497214829E+03  0.10100000352E+00 0. -1.
       -3    1    3    3    0  502 -0.65483285331E+03  0.77787254892E+02 -0.74045168818E+03  0.99152692123E+03  0.10100000352E+00 0.  1.
</event>
<event>
 5   0  0.2223112E-04  0.1411645E+04  0.7818609E-02  0.8945432E-01
        1   -1    0    0  501    0  0.00000000000E+00  0.00000000000E+00  0.71238699659E+03  0.71238699661E+03  0.50400001928E-02 0. -1.
       -1   -1    0    0    0  501  0.00000000000E+00  0.00000000000E+00 -0.69931844150E+03  0.69931844152E+03  0.50400001928E-02 0.  1.
    10030    2    1    2    0    0  0.00000000000E+00  0.00000000000E+00  0.13068555087E+02  0.14117054381E+04  0.14116449472E+04 0.  0.
        1    1    3    3  502    0  0.50629254526E+03 -0.57077454406E+02  0.49501747658E+03  0.71037474570E+03  0.50400001928E-02 0. -1.
       -1    1    3    3    0  502 -0.50629254526E+03  0.57077454406E+02 -0.48194892150E+03  0.70133069243E+03  0.50400001928E-02 0.  1.
</event>
<event>
 5   0  0.2155352E-04  0.1401475E+04  0.7818609E-02  0.8952751E-01
        1   -1    0    0  501    0  0.00000000000E+00  0.00000000000E+00  0.17982258617E+04  0.17982258617E+04  0.50400001928E-02 0. -1.
       -1   -1    0    0    0  501  0.00000000000E+00  0.00000000000E+00 -0.27306541374E+03  0.27306541378E+03  0.50400001928E-02 0.  1.
    10030    2    1    2    0    0  0.00000000000E+00  0.00000000000E+00  0.15251604480E+04  0.20712912755E+04  0.14014753497E+04 0.  0.
        2    1    3    3  502    0 -0.13664945904E+02  0.40829151403E+03 -0.78863559907E+02  0.41606267829E+03  0.25500000920E-02 0.  1.
       -2    1    3    3    0  502  0.13664945904E+02 -0.40829151403E+03  0.16040240079E+04  0.16552285972E+04  0.25500000920E-02 0. -1.
</event>
<event>
 5   0  0.2217251E-04  0.1398006E+04  0.7818609E-02  0.8955263E-01
       -1   -1    0    0    0  501  0.00000000000E+00  0.00000000000E+00  0.27455338652E+03  0.27455338657E+03  0.50400001928E-02 0. -1.
        1   -1    0    0  501    0  0.00000000000E+00  0.00000000000E+00 -0.17796363939E+04  0.17796363940E+04  0.50400001928E-02 0.  1.
    10030    2    1    2    0    0  0.00000000000E+00  0.00000000000E+00 -0.15050830074E+04  0.20541897805E+04  0.13980060068E+04 0.  0.
        5    1    3    3  502    0 -0.65493298842E+03 -0.40717585362E+02 -0.39870676311E+03  0.76784393859E+03  0.46999998093E+01 0. -1.
       -5    1    3    3    0  502  0.65493298842E+03  0.40717585362E+02 -0.11063762443E+04  0.12863458419E+04  0.46999998093E+01 0.  1.
</event>
<event>
 5   0  0.4310348E-04  0.1402275E+04  0.7818609E-02  0.8952173E-01
        2   -1    0    0  501    0  0.00000000000E+00  0.00000000000E+00  0.12716226585E+04  0.12716226586E+04  0.25500000920E-02 0.  1.
       -2   -1    0    0    0  501  0.00000000000E+00  0.00000000000E+00 -0.38658774865E+03  0.38658774866E+03  0.25500000920E-02 0. -1.
    10030    2    1    2    0    0  0.00000000000E+00  0.00000000000E+00  0.88503490990E+03  0.16582104072E+04  0.14022749241E+04 0.  0.
        1    1    3    3  502    0 -0.62739648313E+03 -0.17018844669E+03  0.75314599517E+03  0.99489665016E+03  0.50400001928E-02 0. -1.
       -1    1    3    3    0  502  0.62739648313E+03  0.17018844669E+03  0.13188891474E+03  0.66331375705E+03  0.50400001928E-02 0.  1.
</event>
<event>
 5   0  0.3917598E-04  0.1401248E+04  0.7818609E-02  0.8952916E-01
        2   -1    0    0  501    0  0.00000000000E+00  0.00000000000E+00  0.13218061167E+04  0.13218061167E+04  0.25500000920E-02 0. -1.
       -2   -1    0    0    0  501  0.00000000000E+00  0.00000000000E+00 -0.37136603905E+03  0.37136603906E+03  0.25500000920E-02 0.  1.
    10030    2    1    2    0    0  0.00000000000E+00  0.00000000000E+00  0.95044007766E+03  0.16931721558E+04  0.14012478752E+04 0.  0.
        3    1    3    3  502    0  0.28373592496E+03  0.40815248239E+03  0.10718219277E+04  0.11814807569E+04  0.10100000352E+00 0. -1.
       -3    1    3    3    0  502 -0.28373592496E+03 -0.40815248239E+03 -0.12138185001E+03  0.51169139890E+03  0.10100000352E+00 0.  1.
</event>
<event>
 5   0  0.2143942E-04  0.1400398E+04  0.7818609E-02  0.8953531E-01
       -1   -1    0    0    0  501  0.00000000000E+00  0.00000000000E+00  0.39485247204E+03  0.39485247208E+03  0.50400001928E-02 0. -1.
        1   -1    0    0  501    0  0.00000000000E+00  0.00000000000E+00 -0.12416750618E+04  0.12416750618E+04  0.50400001928E-02 0.  1.
    10030    2    1    2    0    0  0.00000000000E+00  0.00000000000E+00 -0.84682258978E+03  0.16365275339E+04  0.14003977545E+04 0.  0.
        4    1    3    3  502    0  0.32796303539E+03 -0.98481573160E+02  0.29032385608E+03  0.44894089494E+03  0.12699999809E+01 0. -1.
       -4    1    3    3    0  502 -0.32796303539E+03  0.98481573160E+02 -0.11371464459E+04  0.11875866390E+04  0.12699999809E+01 0.  1.
</event>
<event>
 5   0  0.2155352E-04  0.1400889E+04  0.7818609E-02  0.8953175E-01
       -1   -1    0    0    0  501  0.00000000000E+00  0.00000000000E+00  0.24567652347E+03  0.24567652352E+03  0.50400001928E-02 0. -1.
        1   -1    0    0  501    0  0.00000000000E+00  0.00000000000E+00 -0.19970259100E+04  0.19970259100E+04  0.50400001928E-02 0.  1.
    10030    2    1    2    0    0  0.00000000000E+00  0.00000000000E+00 -0.17513493865E+04  0.22427024335E+04  0.14008888363E+04 0.  0.
        2    1    3    3  502    0 -0.19662890239E+03 -0.66958227534E+03 -0.97198312759E+03  0.11965594632E+04  0.25500000920E-02 0.  1.
       -2    1    3    3    0  502  0.19662890239E+03  0.66958227534E+03 -0.77936625890E+03  0.10461429703E+04  0.25500000920E-02 0. -1.
</event>
<event>
 5   0  0.2143942E-04  0.1401011E+04  0.7818609E-02  0.8953087E-01
       -1   -1    0    0    0  501  0.00000000000E+00  0.00000000000E+00  0.44893118866E+03  0.44893118869E+03  0.50400001928E-02 0.  1.
        1   -1    0    0  501    0  0.00000000000E+00  0.00000000000E+00 -0.10930589622E+04  0.10930589622E+04  0.50400001928E-02 0. -1.
    10030    2    1    2    0    0  0.00000000000E+00  0.00000000000E+00 -0.64412777353E+03  0.15419901509E+04  0.14010114335E+04 0.  0.
        4    1    3    3  502    0 -0.30451756148E+03 -0.56462931937E+03 -0.12379944515E+02  0.64163236317E+03  0.12699999809E+01 0.  1.
       -4    1    3    3    0  502  0.30451756148E+03  0.56462931937E+03 -0.63174782901E+03  0.90035778772E+03  0.12699999809E+01 0. -1.
</event>
<event>
 5   0  0.2215876E-04  0.1401667E+04  0.7818609E-02  0.8952612E-01
       -1   -1    0    0    0  501  0.00000000000E+00  0.00000000000E+00  0.61761064489E+03  0.61761064491E+03  0.50400001928E-02 0. -1.
        1   -1    0    0  501    0  0.00000000000E+00  0.00000000000E+00 -0.79527113951E+03  0.79527113952E+03  0.50400001928E-02 0.  1.
    10030    2    1    2    0    0  0.00000000000E+00  0.00000000000E+00 -0.17766049462E+03  0.14128817844E+04  0.14016674661E+04 0.  0.
        3    1    3    3  502    0  0.23256581578E+03  0.28478334984E+03  0.51258346373E+03  0.63081711494E+03  0.10100000352E+00 0. -1.
       -3    1    3    3    0  502 -0.23256581578E+03 -0.28478334984E+03 -0.69024395836E+03  0.78206466949E+03  0.10100000352E+00 0.  1.
</event>
<event>
 5   0  0.1497625E-04  0.1393045E+04  0.7818609E-02  0.8958868E-01
       -3   -1    0    0    0  501  0.00000000000E+00  0.00000000000E+00  0.38256515119E+03  0.38256516452E+03  0.10100000352E+00 0. -1.
        3   -1    0    0  501    0  0.00000000000E+00  0.00000000000E+00 -0.12681332023E+04  0.12681332063E+04  0.10100000352E+00 0.  1.
    10030    2    1    2    0    0  0.00000000000E+00  0.00000000000E+00 -0.88556805107E+03  0.16506983708E+04  0.13930449879E+04 0.  0.
        3    1    3    3  502    0 -0.10005916820E+03  0.22667608446E+03  0.32857626433E+03  0.41152916797E+03  0.10100000352E+00 0. -1.
       -3    1    3    3    0  502  0.10005916820E+03 -0.22667608446E+03 -0.12141443154E+04  0.12391692028E+04  0.10100000352E+00 0.  1.
</event>
<event>
 5   0  0.2223112E-04  0.1400430E+04  0.7818609E-02  0.8953508E-01
       -1   -1    0    0    0  501  0.00000000000E+00  0.00000000000E+00  0.41626829317E+03  0.41626829320E+03  0.50400001928E-02 0. -1.
        1   -1    0    0  501    0  0.00000000000E+00  0.00000000000E+00 -0.11778482311E+04  0.11778482311E+04  0.50400001928E-02 0.  1.
    10030    2    1    2    0    0  0.00000000000E+00  0.00000000000E+00 -0.76157993790E+03  0.15941165243E+04  0.14004297523E+04 0.  0.
        1    1    3    3  502    0  0.41134697486E+03 -0.55967415734E+03 -0.27987565184E+03  0.74884703154E+03  0.50400001928E-02 0. -1.
       -1    1    3    3    0  502 -0.41134697486E+03  0.55967415734E+03 -0.48170428605E+03  0.84526949274E+03  0.50400001928E-02 0.  1.
</event>
<event>
 5   0  0.4208622E-04  0.1398167E+04  0.7818609E-02  0.8955146E-01
        2   -1    0    0  501    0  0.00000000000E+00  0.00000000000E+00  0.22429559767E+04  0.22429559767E+04  0.25500000920E-02 0. -1.
       -2   -1    0    0    0  501  0.00000000000E+00  0.00000000000E+00 -0.21789001890E+03  0.21789001891E+03  0.25500000920E-02 0.  1.
    10030    2    1    2    0    0  0.00000000000E+00  0.00000000000E+00  0.20250659578E+04  0.24608459956E+04  0.13981669717E+04 0.  0.
        4    1    3    3  502    0  0.38877549829E+03  0.23539661123E+03  0.77618899802E+02  0.46106860569E+03  0.12699999809E+01 0.  1.
       -4    1    3    3    0  502 -0.38877549829E+03 -0.23539661123E+03  0.19474470580E+04  0.19997773899E+04  0.12699999809E+01 0. -1.
</event>
<event>
 5   0  0.4208622E-04  0.1398911E+04  0.7818609E-02  0.8954607E-01
       -2   -1    0    0    0  501  0.00000000000E+00  0.00000000000E+00  0.80702887494E+03  0.80702887494E+03  0.25500000920E-02 0.  1.
        2   -1    0    0  501    0  0.00000000000E+00  0.00000000000E+00 -0.60622090852E+03  0.60622090853E+03  0.25500000920E-02 0. -1.
    10030    2    1    2    0    0  0.00000000000E+00  0.00000000000E+00  0.20080796642E+03  0.14132497835E+04  0.13989106873E+04 0.  0.
        4    1    3    3  502    0 -0.84059177708E+02  0.22251891468E+03  0.76491177872E+03  0.80104447746E+03  0.12699999809E+01 0.  1.
       -4    1    3    3    0  502  0.84059177708E+02 -0.22251891468E+03 -0.56410381231E+03  0.61220530601E+03  0.12699999809E+01 0. -1.
</event>
<event>
 5   0  0.2223112E-04  0.1402227E+04  0.7818609E-02  0.8952208E-01
        1   -1    0    0  501    0  0.00000000000E+00  0.00000000000E+00  0.52916472020E+03  0.52916472022E+03  0.50400001928E-02 0.  1.
       -1   -1    0    0    0  501  0.00000000000E+00  0.00000000000E+00 -0.92893644278E+03  0.92893644279E+03  0.50400001928E-02 0. -1.
    10030    2    1    2    0    0  0.00000000000E+00  0.00000000000E+00 -0.39977172258E+03  0.14581011630E+04  0.14022273608E+04 0.  0.
        1    1    3    3  502    0  0.36157502960E+03 -0.57495106278E+03 -0.19014839982E+02  0.67946066169E+03  0.50400001928E-02 0.  1.
       -1    1    3    3    0  502 -0.36157502960E+03  0.57495106278E+03 -0.38075688260E+03  0.77864050132E+03  0.50400001928E-02 0. -1.
</event>
<event>
 5   0  0.2143942E-04  0.1401882E+04  0.7818609E-02  0.8952457E-01
       -1   -1    0    0    0  501  0.00000000000E+00  0.00000000000E+00  0.72791369974E+03  0.72791369976E+03  0.50400001928E-02 0.  1.
        1   -1    0    0  501    0  0.00000000000E+00  0.00000000000E+00 -0.67496769107E+03  0.67496769109E+03  0.50400001928E-02 0. -1.
    10030    2    1    2    0    0  0.00000000000E+00  0.00000000000E+00  0.52946008666E+02  0.14028813908E+04  0.14018819198E+04 0.  0.
        4    1    3    3  502    0 -0.51875193935E+03  0.29116709515E+03 -0.34451325206E+03  0.68743933959E+03  0.12699999809E+01 0. -1.
       -4    1    3    3    0  502  0.51875193935E+03 -0.29116709515E+03  0.39745926072E+03  0.71544205126E+03  0.12699999809E+01 0.  1.
</event>
<event>
 5   0  0.4208622E-04  0.1405013E+04  0.7818609E-02  0.8950198E-01
        2   -1    0    0  501    0  0.00000000000E+00  0.00000000000E+00  0.16106899642E+04  0.16106899642E+04  0.25500000920E-02 0. -1.
       -2   -1    0    0    0  501  0.00000000000E+00  0.00000000000E+00 -0.30640003628E+03  0.30640003629E+03  0.25500000920E-02 0.  1.
    10030    2    1    2    0    0  0.00000000000E+00  0.00000000000E+00  0.13042899279E+04  0.19170900005E+04  0.14050131152E+04 0.  0.
        4    1    3    3  502    0 -0.16473210761E+03 -0.32872177625E+03 -0.16462009367E+03  0.40285985355E+03  0.12699999809E+01 0.  1.
       -4    1    3    3    0  502  0.16473210761E+03  0.32872177625E+03  0.14689100216E+04  0.15142301469E+04  0.12699999809E+01 0. -1.
</event>
<event>
 5   0  0.4208622E-04  0.1403984E+04  0.7818609E-02  0.8950940E-01
        2   -1    0    0  501    0  0.00000000000E+00  0.00000000000E+00  0.13906382987E+04  0.13906382987E+04  0.25500000920E-02 0. -1.
       -2   -1    0    0    0  501  0.00000000000E+00  0.00000000000E+00 -0.35436452293E+03  0.35436452294E+03  0.25500000920E-02 0.  1.
    10030    2    1    2    0    0  0.00000000000E+00  0.00000000000E+00  0.10362737757E+04  0.17450028216E+04  0.14039841556E+04 0.  0.
        4    1    3    3  502    0  0.60812292071E+03 -0.27487232341E+03  0.78879955901E+03  0.10332350353E+04  0.12699999809E+01 0. -1.
       -4    1    3    3    0  502 -0.60812292071E+03  0.27487232341E+03  0.24747421674E+03  0.71176778637E+03  0.12699999809E+01 0.  1.
</event>
<event>
 5   0  0.3975164E-04  0.1402009E+04  0.7818609E-02  0.8952366E-01
        2   -1    0    0  501    0  0.00000000000E+00  0.00000000000E+00  0.11200437261E+04  0.11200437261E+04  0.25500000920E-02 0. -1.
       -2   -1    0    0    0  501  0.00000000000E+00  0.00000000000E+00 -0.43873932596E+03  0.43873932597E+03  0.25500000920E-02 0.  1.
    10030    2    1    2    0    0  0.00000000000E+00  0.00000000000E+00  0.68130440011E+03  0.15587830521E+04  0.14020088865E+04 0.  0.
        5    1    3    3  502    0  0.51876291393E+03  0.30933769959E+03 -0.54913004827E+02  0.60650004234E+03  0.46999998093E+01 0.  1.
       -5    1    3    3    0  502 -0.51876291393E+03 -0.30933769959E+03  0.73621740494E+03  0.95228300972E+03  0.46999998093E+01 0. -1.
</event>
<event>
 5   0  0.4310348E-04  0.1399310E+04  0.7818609E-02  0.8954318E-01
       -2   -1    0    0    0  501  0.00000000000E+00  0.00000000000E+00  0.38507825589E+03  0.38507825590E+03  0.25500000920E-02 0. -1.
        2   -1    0    0  501    0  0.00000000000E+00  0.00000000000E+00 -0.12712139087E+04  0.12712139087E+04  0.25500000920E-02 0.  1.
    10030    2    1    2    0    0  0.00000000000E+00  0.00000000000E+00 -0.88613565278E+03  0.16562921646E+04  0.13993095938E+04 0.  0.
        1    1    3    3  502    0  0.33150893136E+03 -0.37252959109E+03  0.13781398201E+03  0.51736753036E+03  0.50400001928E-02 0. -1.
       -1    1    3    3    0  502 -0.33150893136E+03  0.37252959109E+03 -0.10239496348E+04  0.11389246342E+04  0.50400001928E-02 0.  1.
</event>
<event>
 5   0  0.2217251E-04  0.1397972E+04  0.7818609E-02  0.8955288E-01
        1   -1    0    0  501    0  0.00000000000E+00  0.00000000000E+00  0.66716846951E+03  0.66716846953E+03  0.50400001928E-02 0. -1.
       -1   -1    0    0    0  501  0.00000000000E+00  0.00000000000E+00 -0.73232101628E+03  0.73232101630E+03  0.50400001928E-02 0.  1.
    10030    2    1    2    0    0  0.00000000000E+00  0.00000000000E+00 -0.65152546777E+02  0.13994894858E+04  0.13979720908E+04 0.  0.
        5    1    3    3  502    0 -0.21195397489E+03  0.66225355151E+03  0.38600461741E+02  0.69643114491E+03  0.46999998093E+01 0.  1.
       -5    1    3    3    0  502  0.21195397489E+03 -0.66225355151E+03 -0.10375300852E+03  0.70305834092E+03  0.46999998093E+01 0. -1.
</event>
<event>
 5   0  0.3975164E-04  0.1407065E+04  0.7818609E-02  0.8948720E-01
        2   -1    0    0  501    0  0.00000000000E+00  0.00000000000E+00  0.14026218527E+04  0.14026218527E+04  0.25500000920E-02 0. -1.
       -2   -1    0    0    0  501  0.00000000000E+00  0.00000000000E+00 -0.35288072720E+03  0.35288072721E+03  0.25500000920E-02 0.  1.
    10030    2    1    2    0    0  0.00000000000E+00  0.00000000000E+00  0.10497411255E+04  0.17555025799E+04  0.14070653423E+04 0.  0.
        5    1    3    3  502    0 -0.55140292905E+03 -0.36714689000E+03  0.82036261190E+03  0.10544472173E+04  0.46999998093E+01 0. -1.
       -5    1    3    3    0  502  0.55140292905E+03  0.36714689000E+03  0.22937851362E+03  0.70105536266E+03  0.46999998093E+01 0.  1.
</event>
<event>
 5   0  0.2155352E-04  0.1395614E+04  0.7818609E-02  0.8957000E-01
       -1   -1    0    0    0  501  0.00000000000E+00  0.00000000000E+00  0.84918417223E+03  0.84918417225E+03  0.50400001928E-02 0.  1.
        1   -1    0    0  501    0  0.00000000000E+00  0.00000000000E+00 -0.57341426441E+03  0.57341426443E+03  0.50400001928E-02 0. -1.
    10030    2    1    2    0    0  0.00000000000E+00  0.00000000000E+00  0.27576990783E+03  0.14225984367E+04  0.13956135819E+04 0.  0.
        2    1    3    3  502    0  0.34628553185E+03 -0.56983652726E+03 -0.71778701355E+02  0.67065603654E+03  0.25500000920E-02 0.  1.
       -2    1    3    3    0  502 -0.34628553185E+03  0.56983652726E+03  0.34754860918E+03  0.75194240014E+03  0.25500000920E-02 0. -1.
</event>
<event>
 5   0  0.3975164E-04  0.1378414E+04  0.7818609E-02  0.8969593E-01
       -2   -1    0    0    0  501  0.00000000000E+00  0.00000000000E+00  0.10755048959E+04  0.10755048959E+04  0.25500000920E-02 0.  1.
        2   -1    0    0  501    0  0.00000000000E+00  0.00000000000E+00 -0.44165915508E+03  0.44165915509E+03  0.25500000920E-02 0. -1.
    10030    2    1    2    0    0  0.00000000000E+00  0.00000000000E+00  0.63384574084E+03  0.15171640510E+04  0.13784144277E+04 0.  0.
        5    1    3    3  502    0 -0.21600992430E+03  0.56442234027E+03 -0.47712017374E+02  0.60624367394E+03  0.46999998093E+01 0. -1.
       -5    1    3    3    0  502  0.21600992430E+03 -0.56442234027E+03  0.68155775821E+03  0.91092037707E+03  0.46999998093E+01 0.  1.
</event>
<event>
 5   0  0.2215876E-04  0.1400221E+04  0.7818609E-02  0.8953659E-01
        1   -1    0    0  501    0  0.00000000000E+00  0.00000000000E+00  0.17896632043E+04  0.17896632043E+04  0.50400001928E-02 0.  1.
       -1   -1    0    0    0  501  0.00000000000E+00  0.00000000000E+00 -0.27388080539E+03  0.27388080544E+03  0.50400001928E-02 0. -1.
    10030    2    1    2    0    0  0.00000000000E+00  0.00000000000E+00  0.15157823989E+04  0.20635440098E+04  0.14002205538E+04 0.  0.
        3    1    3    3  502    0  0.29963287426E+03  0.78027808840E+02 -0.16749511199E+03  0.35202673340E+03  0.10100000352E+00 0. -1.
       -3    1    3    3    0  502 -0.29963287426E+03 -0.78027808840E+02  0.16832775109E+04  0.17115172764E+04  0.10100000352E+00 0.  1.
</event>
<event>
 5   0  0.2143942E-04  0.1396698E+04  0.7818609E-02  0.8956212E-01
       -1   -1    0    0    0  501  0.00000000000E+00  0.00000000000E+00  0.17427312215E+04  0.17427312215E+04  0.50400001928E-02 0.  1.
        1   -1    0    0  501    0  0.00000000000E+00  0.00000000000E+00 -0.27984313705E+03  0.27984313709E+03  0.50400001928E-02 0. -1.
    10030    2    1    2    0    0  0.00000000000E+00  0.00000000000E+00  0.14628880845E+04  0.20225743586E+04  0.13966980663E+04 0.  0.
        4    1    3    3  502    0  0.32053695698E+03  0.43753383127E+03  0.13684648704E+04  0.14720317621E+04  0.12699999809E+01 0.  1.
       -4    1    3    3    0  502 -0.32053695698E+03 -0.43753383127E+03  0.94423214072E+02  0.55054259649E+03  0.12699999809E+01 0. -1.
</event>
<event>
 5   0  0.2215876E-04  0.1401472E+04  0.7818609E-02  0.8952753E-01
       -1   -1    0    0    0  501  0.00000000000E+00  0.00000000000E+00  0.49354567319E+03  0.49354567322E+03  0.50400001928E-02 0.  1.
        1   -1    0    0  501    0  0.00000000000E+00  0.00000000000E+00 -0.99490525393E+03  0.99490525395E+03  0.50400001928E-02 0. -1.
    10030    2    1    2    0    0  0.00000000000E+00  0.00000000000E+00 -0.50135958075E+03  0.14884509272E+04  0.14014723448E+04 0.  0.
        3    1    3    3  502    0 -0.17365589559E+03  0.14399469780E+03  0.45392496687E+03  0.50689123963E+03  0.10100000352E+00 0.  1.
       -3    1    3    3    0  502  0.17365589559E+03 -0.14399469780E+03 -0.95528454761E+03  0.98155968753E+03  0.10100000352E+00 0. -1.
</event>
<event>
 5   0  0.2215876E-04  0.1400557E+04  0.7818609E-02  0.8953415E-01
        1   -1    0    0  501    0  0.00000000000E+00  0.00000000000E+00  0.65464430553E+03  0.65464430555E+03  0.50400001928E-02 0. -1.
       -1   -1    0    0    0  501  0.00000000000E+00  0.00000000000E+00 -0.74909374426E+03  0.74909374427E+03  0.50400001928E-02 0.  1.
    10030    2    1    2    0    0  0.00000000000E+00  0.00000000000E+00 -0.94449438727E+02  0.14037380498E+04  0.14005569664E+04 0.  0.
        3    1    3    3  502    0 -0.29606143670E+03  0.31223070524E+03 -0.60097354047E+03  0.73912758990E+03  0.10100000352E+00 0.  1.
       -3    1    3    3    0  502  0.29606143670E+03 -0.31223070524E+03  0.50652410175E+03  0.66461045993E+03  0.10100000352E+00 0. -1.
</event>
<event>
 5   0  0.3932568E-04  0.1397820E+04  0.7818609E-02  0.8955398E-01
        2   -1    0    0  501    0  0.00000000000E+00  0.00000000000E+00  0.53004149140E+03  0.53004149141E+03  0.25500000920E-02 0. -1.
       -2   -1    0    0    0  501  0.00000000000E+00  0.00000000000E+00 -0.92157926554E+03  0.92157926554E+03  0.25500000920E-02 0.  1.
    10030    2    1    2    0    0  0.00000000000E+00  0.00000000000E+00 -0.39153777413E+03  0.14516207570E+04  0.13978200862E+04 0.  0.
        2    1    3    3  502    0  0.49919126526E+03 -0.42890373774E+03  0.48496686111E+02  0.65992595352E+03  0.25500000920E-02 0. -1.
       -2    1    3    3    0  502 -0.49919126526E+03  0.42890373774E+03 -0.44003446025E+03  0.79169480343E+03  0.25500000920E-02 0.  1.
</event>
<event>
 5   0  0.2217251E-04  0.1396085E+04  0.7818609E-02  0.8956658E-01
       -1   -1    0    0    0  501  0.00000000000E+00  0.00000000000E+00  0.65797544827E+03  0.65797544829E+03  0.50400001928E-02 0.  1.
        1   -1    0    0  501    0  0.00000000000E+00  0.00000000000E+00 -0.74054889806E+03  0.74054889807E+03  0.50400001928E-02 0. -1.
    10030    2    1    2    0    0  0.00000000000E+00  0.00000000000E+00 -0.82573449785E+02  0.13985243464E+04  0.13960845149E+04 0.  0.
        5    1    3    3  502    0 -0.27473425391E+02 -0.12528310873E+03 -0.72862741464E+03  0.73984501472E+03  0.46999998093E+01 0. -1.
       -5    1    3    3    0  502  0.27473425391E+02  0.12528310873E+03  0.64605396486E+03  0.65867933165E+03  0.46999998093E+01 0.  1.
</event>
<event>
 5   0  0.2155352E-04  0.1398064E+04  0.7818609E-02  0.8955221E-01
       -1   -1    0    0    0  501  0.00000000000E+00  0.00000000000E+00  0.51273324901E+03  0.51273324904E+03  0.50400001928E-02 0.  1.
        1   -1    0    0  501    0  0.00000000000E+00  0.00000000000E+00 -0.95302079268E+03  0.95302079269E+03  0.50400001928E-02 0. -1.
    10030    2    1    2    0    0  0.00000000000E+00  0.00000000000E+00 -0.44028754366E+03  0.14657540417E+04  0.13980635857E+04 0.  0.
        2    1    3    3  502    0  0.48829751373E+03 -0.33395793638E+03  0.17028868979E+03  0.61559776077E+03  0.25500000920E-02 0.  1.
       -2    1    3    3    0  502 -0.48829751373E+03  0.33395793638E+03 -0.61057623345E+03  0.85015628096E+03  0.25500000920E-02 0. -1.
</event>
<event>
 5   0  0.2215876E-04  0.1401215E+04  0.7818609E-02  0.8952940E-01
       -1   -1    0    0    0  501  0.00000000000E+00  0.00000000000E+00  0.68118036015E+03  0.68118036017E+03  0.50400001928E-02 0. -1.
        1   -1    0    0  501    0  0.00000000000E+00  0.00000000000E+00 -0.72058828762E+03  0.72058828764E+03  0.50400001928E-02 0.  1.
    10030    2    1    2    0    0  0.00000000000E+00  0.00000000000E+00 -0.39407927473E+02  0.14017686478E+04  0.14012146007E+04 0.  0.
        3    1    3    3  502    0 -0.35992605249E+03 -0.50817869435E+03 -0.34085773691E+03  0.70991292118E+03  0.10100000352E+00 0.  1.
       -3    1    3    3    0  502  0.35992605249E+03  0.50817869435E+03  0.30144980943E+03  0.69185572662E+03  0.10100000352E+00 0. -1.
</event>
<event>
 5   0  0.4310348E-04  0.1379521E+04  0.7818609E-02  0.8968777E-01
       -2   -1    0    0    0  501  0.00000000000E+00  0.00000000000E+00  0.53649126202E+03  0.53649126202E+03  0.25500000920E-02 0.  1.
        2   -1    0    0  501    0  0.00000000000E+00  0.00000000000E+00 -0.88681691238E+03  0.88681691239E+03  0.25500000920E-02 0. -1.
    10030    2    1    2    0    0  0.00000000000E+00  0.00000000000E+00 -0.35032565036E+03  0.14233081744E+04  0.13795209669E+04 0.  0.
        1    1    3    3  502    0 -0.32161504178E+03 -0.51651171443E+02 -0.80246250615E+03  0.86605435881E+03  0.50400001928E-02 0. -1.
       -1    1    3    3    0  502  0.32161504178E+03  0.51651171443E+02  0.45213685579E+03  0.55725381560E+03  0.50400001928E-02 0.  1.
</event>
<event>
 5   0  0.3932568E-04  0.1422126E+04  0.7818609E-02  0.8937957E-01
       -2   -1    0    0    0  501  0.00000000000E+00  0.00000000000E+00  0.61561366166E+03  0.61561366167E+03  0.25500000920E-02 0. -1.
        2   -1    0    0  501    0  0.00000000000E+00  0.00000000000E+00 -0.82131105128E+03  0.82131105128E+03  0.25500000920E-02 0.  1.
    10030    2    1    2    0    0  0.00000000000E+00  0.00000000000E+00 -0.20569738962E+03  0.14369247129E+04  0.14221255973E+04 0.  0.
        2    1    3    3  502    0 -0.13970987345E+03  0.16240206678E+03 -0.78792879674E+03  0.81653234398E+03  0.25500000920E-02 0.  1.
       -2    1    3    3    0  502  0.13970987345E+03 -0.16240206678E+03  0.58223140712E+03  0.62039236897E+03  0.25500000920E-02 0. -1.
</event>
<event>
 5   0  0.2215876E-04  0.1400403E+04  0.7818609E-02  0.8953527E-01
       -1   -1    0    0    0  501  0.00000000000E+00  0.00000000000E+00  0.52587901792E+03  0.52587901794E+03  0.50400001928E-02 0.  1.
        1   -1    0    0  501    0  0.00000000000E+00  0.00000000000E+00 -0.93231029162E+03  0.93231029163E+03  0.50400001928E-02 0. -1.
    10030    2    1    2    0    0  0.00000000000E+00  0.00000000000E+00 -0.40643127370E+03  0.14581893096E+04  0.14004033999E+04 0.  0.
        3    1    3    3  502    0 -0.26242665587E+01 -0.25998983959E+03 -0.88018188662E+03  0.91778089281E+03  0.10100000352E+00 0. -1.
       -3    1    3    3    0  502  0.26242665587E+01  0.25998983959E+03  0.47375061292E+03  0.54040841676E+03  0.10100000352E+00 0.  1.
</event>
<event>
 5   0  0.4310348E-04  0.1403753E+04  0.7818609E-02  0.8951106E-01
       -2   -1    0    0    0  501  0.00000000000E+00  0.00000000000E+00  0.25163781583E+03  0.25163781585E+03  0.25500000920E-02 0. -1.
        2   -1    0    0  501    0  0.00000000000E+00  0.00000000000E+00 -0.19576978884E+04  0.19576978884E+04  0.25500000920E-02 0.  1.
    10030    2    1    2    0    0  0.00000000000E+00  0.00000000000E+00 -0.17060600726E+04  0.22093357043E+04  0.14037532842E+04 0.  0.
        1    1    3    3  502    0 -0.29533268814E+03 -0.53617924435E+03 -0.13934942564E+04  0.15220170240E+04  0.50400001928E-02 0.  1.
       -1    1    3    3    0  502  0.29533268814E+03  0.53617924435E+03 -0.31256581622E+03  0.68731868027E+03  0.50400001928E-02 0. -1.
</event>
<event>
 5   0  0.2223112E-04  0.1399757E+04  0.7818609E-02  0.8953995E-01
       -1   -1    0    0    0  501  0.00000000000E+00  0.00000000000E+00  0.47626188239E+03  0.47626188242E+03  0.50400001928E-02 0.  1.
        1   -1    0    0  501    0  0.00000000000E+00  0.00000000000E+00 -0.10284878965E+04  0.10284878965E+04  0.50400001928E-02 0. -1.
    10030    2    1    2    0    0  0.00000000000E+00  0.00000000000E+00 -0.55222601406E+03  0.15047497789E+04  0.13997565240E+04 0.  0.
        1    1    3    3  502    0  0.51704651232E+03 -0.41822372362E+03 -0.51060629071E+03  0.83843125123E+03  0.50400001928E-02 0.  1.
       -1    1    3    3    0  502 -0.51704651232E+03  0.41822372362E+03 -0.41619723345E+02  0.66631852765E+03  0.50400001928E-02 0. -1.
</event>
<event>
 5   0  0.2215876E-04  0.1396580E+04  0.7818609E-02  0.8956298E-01
        1   -1    0    0  501    0  0.00000000000E+00  0.00000000000E+00  0.76649349430E+03  0.76649349431E+03  0.50400001928E-02 0. -1.
       -1   -1    0    0    0  501  0.00000000000E+00  0.00000000000E+00 -0.63615537563E+03  0.63615537565E+03  0.50400001928E-02 0.  1.
    10030    2    1    2    0    0  0.00000000000E+00  0.00000000000E+00  0.13033811867E+03  0.14026488700E+04  0.13965800468E+04 0.  0.
        3    1    3    3  502    0  0.17118660467E+03  0.44194599112E+03  0.58022092219E+03  0.74918451761E+03  0.10100000352E+00 0. -1.
       -3    1    3    3    0  502 -0.17118660467E+03 -0.44194599112E+03 -0.44988280352E+03  0.65346435235E+03  0.10100000352E+00 0.  1.
</event>
<event>
 5   0  0.4208622E-04  0.1490037E+04  0.7818609E-02  0.8891105E-01
       -2   -1    0    0    0  501  0.00000000000E+00  0.00000000000E+00  0.42365686075E+03  0.42365686076E+03  0.25500000920E-02 0.  1.
        2   -1    0    0  501    0  0.00000000000E+00  0.00000000000E+00 -0.13101469796E+04  0.13101469796E+04  0.25500000920E-02 0. -1.
    10030    2    1    2    0    0  0.00000000000E+00  0.00000000000E+00 -0.88649011882E+03  0.17338038403E+04  0.14900372566E+04 0.  0.
        4    1    3    3  502    0 -0.15426783444E+03  0.60328983454E+03  0.32684803905E+02  0.62356001997E+03  0.12699999809E+01 0. -1.
       -4    1    3    3    0  502  0.15426783444E+03 -0.60328983454E+03 -0.91917492273E+03  0.11102438204E+04  0.12699999809E+01 0.  1.
</event>
<event>
 5   0  0.1497625E-04  0.1378319E+04  0.7818609E-02  0.8969663E-01
        4   -1    0    0  501    0  0.00000000000E+00  0.00000000000E+00  0.30600839549E+03  0.30601103087E+03  0.12699999809E+01 0. -1.
       -4   -1    0    0    0  501  0.00000000000E+00  0.00000000000E+00 -0.15520430732E+04  0.15520435928E+04  0.12699999809E+01 0.  1.
    10030    2    1    2    0    0  0.00000000000E+00  0.00000000000E+00 -0.12460346777E+04  0.18580546237E+04  0.13783194719E+04 0.  0.
        3    1    3    3  502    0  0.50262706733E+03 -0.55410155462E+02 -0.12542150125E+04  0.13523163690E+04  0.10100000352E+00 0.  1.
       -3    1    3    3    0  502 -0.50262706733E+03  0.55410155462E+02  0.81803347910E+01  0.50573825465E+03  0.10100000352E+00 0. -1.
</event>
<event>
 5   0  0.4310348E-04  0.1398950E+04  0.7818609E-02  0.8954579E-01
        2   -1    0    0  501    0  0.00000000000E+00  0.00000000000E+00  0.19976614770E+04  0.19976614770E+04  0.25500000920E-02 0.  1.
       -2   -1    0    0    0  501  0.00000000000E+00  0.00000000000E+00 -0.24491898627E+03  0.24491898628E+03  0.25500000920E-02 0. -1.
    10030    2    1    2    0    0  0.00000000000E+00  0.00000000000E+00  0.17527424907E+04  0.22425804633E+04  0.13989499260E+04 0.  0.
        1    1    3    3  502    0 -0.34264752507E+03  0.60347246049E+02  0.18491123230E+04  0.18815593266E+04  0.50400001928E-02 0.  1.
       -1    1    3    3    0  502  0.34264752507E+03 -0.60347246049E+02 -0.96369832231E+02  0.36102113669E+03  0.50400001928E-02 0. -1.
</event>
<event>
 5   0  0.3975164E-04  0.1402958E+04  0.7818609E-02  0.8951680E-01
       -2   -1    0    0    0  501  0.00000000000E+00  0.00000000000E+00  0.39868156142E+03  0.39868156143E+03  0.25500000920E-02 0. -1.
        2   -1    0    0  501    0  0.00000000000E+00  0.00000000000E+00 -0.12342508419E+04  0.12342508419E+04  0.25500000920E-02 0.  1.
    10030    2    1    2    0    0  0.00000000000E+00  0.00000000000E+00 -0.83556928050E+03  0.16329324033E+04  0.14029583784E+04 0.  0.
        5    1    3    3  502    0 -0.60006850287E+03 -0.35463306985E+02 -0.83858845587E+03  0.10317909394E+04  0.46999998093E+01 0.  1.
       -5    1    3    3    0  502  0.60006850287E+03  0.35463306985E+02  0.30191753701E+01  0.60114146396E+03  0.46999998093E+01 0. -1.
</event>
<event>
 5   0  0.4208622E-04  0.1393897E+04  0.7818609E-02  0.8958248E-01
        2   -1    0    0  501    0  0.00000000000E+00  0.00000000000E+00  0.17314255150E+04  0.17314255150E+04  0.25500000920E-02 0. -1.
       -2   -1    0    0    0  501  0.00000000000E+00  0.00000000000E+00 -0.28054164192E+03  0.28054164193E+03  0.25500000920E-02 0.  1.
    10030    2    1    2    0    0  0.00000000000E+00  0.00000000000E+00  0.14508838731E+04  0.20119671570E+04  0.13938966344E+04 0.  0.
        4    1    3    3  502    0 -0.46843750701E+01  0.67639439677E+03  0.96784931192E+03  0.11807900858E+04  0.12699999809E+01 0. -1.
       -4    1    3    3    0  502  0.46843750701E+01 -0.67639439677E+03  0.48303456120E+03  0.83117707113E+03  0.12699999809E+01 0.  1.
</event>
<event>
 5   0  0.2215876E-04  0.1396625E+04  0.7818609E-02  0.8956265E-01
       -1   -1    0    0    0  501  0.00000000000E+00  0.00000000000E+00  0.62962074678E+03  0.62962074680E+03  0.50400001928E-02 0. -1.
        1   -1    0    0  501    0  0.00000000000E+00  0.00000000000E+00 -0.77449806829E+03  0.77449806831E+03  0.50400001928E-02 0.  1.
    10030    2    1    2    0    0  0.00000000000E+00  0.00000000000E+00 -0.14487732151E+03  0.14041188151E+04  0.13966245768E+04 0.  0.
        3    1    3    3  502    0  0.34006116549E+03  0.90443083301E+02 -0.67884895457E+03  0.76462896944E+03  0.10100000352E+00 0.  1.
       -3    1    3    3    0  502 -0.34006116549E+03 -0.90443083301E+02  0.53397163306E+03  0.63948984566E+03  0.10100000352E+00 0. -1.
</event>
<event>
 5   0  0.2215876E-04  0.1402659E+04  0.7818609E-02  0.8951896E-01
       -1   -1    0    0    0  501  0.00000000000E+00  0.00000000000E+00  0.19715012274E+03  0.19715012281E+03  0.50400001928E-02 0.  1.
        1   -1    0    0  501    0  0.00000000000E+00  0.00000000000E+00 -0.24948639707E+04  0.24948639707E+04  0.50400001928E-02 0. -1.
    10030    2    1    2    0    0  0.00000000000E+00  0.00000000000E+00 -0.22977138479E+04  0.26920140935E+04  0.14026585303E+04 0.  0.
        3    1    3    3  502    0 -0.48207093711E+03  0.57050425600E+02 -0.21203241344E+04  0.21751831152E+04  0.10100000352E+00 0. -1.
       -3    1    3    3    0  502  0.48207093711E+03 -0.57050425600E+02 -0.17738971353E+03  0.51683097830E+03  0.10100000352E+00 0.  1.
</event>
<event>
 5   0  0.3917598E-04  0.1394223E+04  0.7818609E-02  0.8958011E-01
        2   -1    0    0  501    0  0.00000000000E+00  0.00000000000E+00  0.48498487454E+03  0.48498487455E+03  0.25500000920E-02 0. -1.
       -2   -1    0    0    0  501  0.00000000000E+00  0.00000000000E+00 -0.10020203706E+04  0.10020203706E+04  0.25500000920E-02 0.  1.
    10030    2    1    2    0    0  0.00000000000E+00  0.00000000000E+00 -0.51703549601E+03  0.14870052451E+04  0.13942234020E+04 0.  0.
        3    1    3    3  502    0 -0.21403262839E+03  0.50580515910E+02  0.44701468386E+03  0.49818720617E+03  0.10100000352E+00 0. -1.
       -3    1    3    3    0  502  0.21403262839E+03 -0.50580515910E+02 -0.96405017987E+03  0.98881803893E+03  0.10100000352E+00 0.  1.
</event>
<event>
 5   0  0.4208622E-04  0.1401270E+04  0.7818609E-02  0.8952900E-01
       -2   -1    0    0    0  501  0.00000000000E+00  0.00000000000E+00  0.91155991630E+03  0.91155991631E+03  0.25500000920E-02 0.  1.
        2   -1    0    0  501    0  0.00000000000E+00  0.00000000000E+00 -0.53851540741E+03  0.53851540741E+03  0.25500000920E-02 0. -1.
    10030    2    1    2    0    0  0.00000000000E+00  0.00000000000E+00  0.37304450890E+03  0.14500753237E+04  0.14012695097E+04 0.  0.
        4    1    3    3  502    0 -0.27716875124E+03 -0.60291211689E+03  0.41921381012E+03  0.78489959157E+03  0.12699999809E+01 0.  1.
       -4    1    3    3    0  502  0.27716875124E+03  0.60291211689E+03 -0.46169301225E+02  0.66517573214E+03  0.12699999809E+01 0. -1.
</event>
<event>
 5   0  0.2155352E-04  0.1395801E+04  0.7818609E-02  0.8956864E-01
       -1   -1    0    0    0  501  0.00000000000E+00  0.00000000000E+00  0.43740933119E+03  0.43740933122E+03  0.50400001928E-02 0.  1.
        1   -1    0    0  501    0  0.00000000000E+00  0.00000000000E+00 -0.11135220160E+04  0.11135220160E+04  0.50400001928E-02 0. -1.
    10030    2    1    2    0    0  0.00000000000E+00  0.00000000000E+00 -0.67611268482E+03  0.15509313472E+04  0.13958007312E+04 0.  0.
        2    1    3    3  502    0  0.40102614166E+03 -0.56947631356E+03 -0.28911966777E+03  0.75413222999E+03  0.25500000920E-02 0.  1.
       -2    1    3    3    0  502 -0.40102614166E+03  0.56947631356E+03 -0.38699301705E+03  0.79679911725E+03  0.25500000920E-02 0. -1.
</event>
<event>
 5   0  0.2223112E-04  0.1396939E+04  0.7818609E-02  0.8956037E-01
        1   -1    0    0  501    0  0.00000000000E+00  0.00000000000E+00  0.96428114788E+03  0.96428114789E+03  0.50400001928E-02 0. -1.
       -1   -1    0    0    0  501  0.00000000000E+00  0.00000000000E+00 -0.50593066138E+03  0.50593066140E+03  0.50400001928E-02 0.  1.
    10030    2    1    2    0    0  0.00000000000E+00  0.00000000000E+00  0.45835048650E+03  0.14702118093E+04  0.13969386514E+04 0.  0.
        1    1    3    3  502    0 -0.57918763628E+03 -0.19607234250E+03  0.58445669786E+03  0.84586778708E+03  0.50400001928E-02 0. -1.
       -1    1    3    3    0  502  0.57918763628E+03  0.19607234250E+03 -0.12610621136E+03  0.62434402222E+03  0.50400001928E-02 0.  1.
</event>
<event>
 5   0  0.2155352E-04  0.1401454E+04  0.7818609E-02  0.8952767E-01
        1   -1    0    0  501    0  0.00000000000E+00  0.00000000000E+00  0.69918145654E+03  0.69918145656E+03  0.50400001928E-02 0. -1.
       -1   -1    0    0    0  501  0.00000000000E+00  0.00000000000E+00 -0.70227621677E+03  0.70227621679E+03  0.50400001928E-02 0.  1.
    10030    2    1    2    0    0  0.00000000000E+00  0.00000000000E+00 -0.30947602274E+01  0.14014576733E+04  0.14014542564E+04 0.  0.
        2    1    3    3  502    0 -0.53159950860E+03  0.45602427662E+03 -0.23049286979E+02  0.70077631813E+03  0.25500000920E-02 0. -1.
       -2    1    3    3    0  502  0.53159950860E+03 -0.45602427662E+03  0.19954526752E+02  0.70068135522E+03  0.25500000920E-02 0.  1.
</event>
<event>
 5   0  0.4208622E-04  0.1391364E+04  0.7818609E-02  0.8960094E-01
       -2   -1    0    0    0  501  0.00000000000E+00  0.00000000000E+00  0.21172347439E+03  0.21172347441E+03  0.25500000920E-02 0. -1.
        2   -1    0    0  501    0  0.00000000000E+00  0.00000000000E+00 -0.22858746923E+04  0.22858746923E+04  0.25500000920E-02 0.  1.
    10030    2    1    2    0    0  0.00000000000E+00  0.00000000000E+00 -0.20741512179E+04  0.24975981667E+04  0.13913638372E+04 0.  0.
        4    1    3    3  502    0  0.37784576540E+03 -0.53796200369E+03 -0.62851952856E+03  0.90951028060E+03  0.12699999809E+01 0. -1.
       -4    1    3    3    0  502 -0.37784576540E+03  0.53796200369E+03 -0.14456316893E+04  0.15880878861E+04  0.12699999809E+01 0.  1.
</event>
<event>
 5   0  0.4208622E-04  0.1404641E+04  0.7818609E-02  0.8950466E-01
        2   -1    0    0  501    0  0.00000000000E+00  0.00000000000E+00  0.48056976885E+03  0.48056976885E+03  0.25500000920E-02 0.  1.
       -2   -1    0    0    0  501  0.00000000000E+00  0.00000000000E+00 -0.10263938763E+04  0.10263938763E+04  0.25500000920E-02 0. -1.
    10030    2    1    2    0    0  0.00000000000E+00  0.00000000000E+00 -0.54582410742E+03  0.15069636451E+04  0.14046406912E+04 0.  0.
        4    1    3    3  502    0  0.16787546420E+03  0.28214142950E+03 -0.93899871364E+03  0.99473923962E+03  0.12699999809E+01 0. -1.
       -4    1    3    3    0  502 -0.16787546420E+03 -0.28214142950E+03  0.39317460622E+03  0.51222440550E+03  0.12699999809E+01 0.  1.
</event>
<event>
 5   0  0.3975164E-04  0.1404346E+04  0.7818609E-02  0.8950678E-01
        2   -1    0    0  501    0  0.00000000000E+00  0.00000000000E+00  0.11306241221E+04  0.11306241221E+04  0.25500000920E-02 0. -1.
       -2   -1    0    0    0  501  0.00000000000E+00  0.00000000000E+00 -0.43608407103E+03  0.43608407104E+03  0.25500000920E-02 0.  1.
    10030    2    1    2    0    0  0.00000000000E+00  0.00000000000E+00  0.69454005103E+03  0.15667081931E+04  0.14043463532E+04 0.  0.
        5    1    3    3  502    0  0.31115418326E+03 -0.11221817003E+03 -0.34370413651E+03  0.47703717560E+03  0.46999998093E+01 0.  1.
       -5    1    3    3    0  502 -0.31115418326E+03  0.11221817003E+03  0.10382441875E+04  0.10896710175E+04  0.46999998093E+01 0. -1.
</event>
<event>
 5   0  0.2215876E-04  0.1401107E+04  0.7818609E-02  0.8953018E-01
        1   -1    0    0  501    0  0.00000000000E+00  0.00000000000E+00  0.14893210075E+04  0.14893210075E+04  0.50400001928E-02 0.  1.
       -1   -1    0    0    0  501  0.00000000000E+00  0.00000000000E+00 -0.32952927450E+03  0.32952927454E+03  0.50400001928E-02 0. -1.
    10030    2    1    2    0    0  0.00000000000E+00  0.00000000000E+00  0.11597917330E+04  0.18188502820E+04  0.14011065215E+04 0.  0.
        3    1    3    3  502    0 -0.66782139800E+03 -0.12657407532E+03  0.35971276271E+03  0.76902516086E+03  0.10100000352E+00 0. -1.
       -3    1    3    3    0  502  0.66782139800E+03  0.12657407532E+03  0.80007897026E+03  0.10498251212E+04  0.10100000352E+00 0.  1.
</event>
<event>
 5   0  0.2155352E-04  0.1401567E+04  0.7818609E-02  0.8952685E-01
        1   -1    0    0  501    0  0.00000000000E+00  0.00000000000E+00  0.50403110958E+03  0.50403110961E+03  0.50400001928E-02 0.  1.
       -1   -1    0    0    0  501  0.00000000000E+00  0.00000000000E+00 -0.97433983617E+03  0.97433983618E+03  0.50400001928E-02 0. -1.
    10030    2    1    2    0    0  0.00000000000E+00  0.00000000000E+00 -0.47030872659E+03  0.14783709458E+04  0.14015671069E+04 0.  0.
        2    1    3    3  502    0  0.54263965012E+03 -0.77600558352E+02 -0.69567746612E+03  0.88568999848E+03  0.25500000920E-02 0. -1.
       -2    1    3    3    0  502 -0.54263965012E+03  0.77600558352E+02  0.22536873954E+03  0.59268094731E+03  0.25500000920E-02 0.  1.
</event>
<event>
 5   0  0.4310348E-04  0.1387455E+04  0.7818609E-02  0.8962949E-01
        2   -1    0    0  501    0  0.00000000000E+00  0.00000000000E+00  0.65175762904E+03  0.65175762904E+03  0.25500000920E-02 0.  1.
       -2   -1    0    0    0  501  0.00000000000E+00  0.00000000000E+00 -0.73840021522E+03  0.73840021523E+03  0.25500000920E-02 0. -1.
    10030    2    1    2    0    0  0.00000000000E+00  0.00000000000E+00 -0.86642586184E+02  0.13901578443E+04  0.13874551864E+04 0.  0.
        1    1    3    3  502    0 -0.15375042639E+03  0.11791473653E+03  0.62409553667E+03  0.65348168882E+03  0.50400001928E-02 0.  1.
       -1    1    3    3    0  502  0.15375042639E+03 -0.11791473653E+03 -0.71073812286E+03  0.73667615545E+03  0.50400001928E-02 0. -1.
</event>
<event>
 5   0  0.2143942E-04  0.1398108E+04  0.7818609E-02  0.8955189E-01
       -1   -1    0    0    0  501  0.00000000000E+00  0.00000000000E+00  0.42697089974E+03  0.42697089977E+03  0.50400001928E-02 0. -1.
        1   -1    0    0  501    0  0.00000000000E+00  0.00000000000E+00 -0.11445199432E+04  0.11445199432E+04  0.50400001928E-02 0.  1.
    10030    2    1    2    0    0  0.00000000000E+00  0.00000000000E+00 -0.71754904344E+03  0.15714908430E+04  0.13981083076E+04 0.  0.
        4    1    3    3  502    0 -0.33141314618E+02 -0.47305546320E+03 -0.93607849688E+03  0.10493447399E+04  0.12699999809E+01 0.  1.
       -4    1    3    3    0  502  0.33141314618E+02  0.47305546320E+03  0.21852945344E+03  0.52214610304E+03  0.12699999809E+01 0. -1.
</event>
<event>
 5   0  0.4310348E-04  0.1400525E+04  0.7818609E-02  0.8953439E-01
       -2   -1    0    0    0  501  0.00000000000E+00  0.00000000000E+00  0.64522052874E+03  0.64522052874E+03  0.25500000920E-02 0.  1.
        2   -1    0    0  501    0  0.00000000000E+00  0.00000000000E+00 -0.76000003105E+03  0.76000003105E+03  0.25500000920E-02 0. -1.
    10030    2    1    2    0    0  0.00000000000E+00  0.00000000000E+00 -0.11477950231E+03  0.14052205598E+04  0.14005250756E+04 0.  0.
        1    1    3    3  502    0 -0.29908361802E+03  0.49123891959E+03 -0.45822999915E+03  0.73535122142E+03  0.50400001928E-02 0. -1.
       -1    1    3    3    0  502  0.29908361802E+03 -0.49123891959E+03  0.34345049684E+03  0.66986933838E+03  0.50400001928E-02 0.  1.
</event>
<event>
 5   0  0.1497625E-04  0.1400663E+04  0.7818609E-02  0.8953339E-01
       -3   -1    0    0    0  501  0.00000000000E+00  0.00000000000E+00  0.50831135816E+03  0.50831136819E+03  0.10100000352E+00 0. -1.
        3   -1    0    0  501    0  0.00000000000E+00  0.00000000000E+00 -0.96488970650E+03  0.96488971179E+03  0.10100000352E+00 0.  1.
    10030    2    1    2    0    0  0.00000000000E+00  0.00000000000E+00 -0.45657834834E+03  0.14732010800E+04  0.14006632835E+04 0.  0.
        5    1    3    3  502    0  0.50131482442E+03 -0.15591320924E+02  0.28577887485E+03  0.57727921994E+03  0.46999998093E+01 0. -1.
       -5    1    3    3    0  502 -0.50131482442E+03  0.15591320924E+02 -0.74235722319E+03  0.89592186004E+03  0.46999998093E+01 0.  1.
</event>
<event>
 5   0  0.3932568E-04  0.1402585E+04  0.7818609E-02  0.8951950E-01
       -2   -1    0    0    0  501  0.00000000000E+00  0.00000000000E+00  0.79639523108E+03  0.79639523109E+03  0.25500000920E-02 0.  1.
        2   -1    0    0  501    0  0.00000000000E+00  0.00000000000E+00 -0.61754655037E+03  0.61754655037E+03  0.25500000920E-02 0. -1.
    10030    2    1    2    0    0  0.00000000000E+00  0.00000000000E+00  0.17884868071E+03  0.14139417815E+04  0.14025849389E+04 0.  0.
        2    1    3    3  502    0 -0.67488622740E+03  0.31048684154E+02 -0.10018284787E+03  0.68298758681E+03  0.25500000920E-02 0. -1.
       -2    1    3    3    0  502  0.67488622740E+03 -0.31048684154E+02  0.27903152859E+03  0.73095419465E+03  0.25500000920E-02 0.  1.
</event>
<event>
 5   0  0.2143942E-04  0.1397468E+04  0.7818609E-02  0.8955654E-01
        1   -1    0    0  501    0  0.00000000000E+00  0.00000000000E+00  0.79244432031E+03  0.79244432033E+03  0.50400001928E-02 0.  1.
       -1   -1    0    0    0  501  0.00000000000E+00  0.00000000000E+00 -0.61610499466E+03  0.61610499468E+03  0.50400001928E-02 0. -1.
    10030    2    1    2    0    0  0.00000000000E+00  0.00000000000E+00  0.17633932565E+03  0.14085493150E+04  0.13974675721E+04 0.  0.
        4    1    3    3  502    0  0.14443995973E+03  0.56048513637E+03 -0.30636864877E+03  0.65488155563E+03  0.12699999809E+01 0. -1.
       -4    1    3    3    0  502 -0.14443995973E+03 -0.56048513637E+03  0.48270797443E+03  0.75366775938E+03  0.12699999809E+01 0.  1.
</event>
<event>
 5   0  0.4208622E-04  0.1393096E+04  0.7818609E-02  0.8958831E-01
        2   -1    0    0  501    0  0.00000000000E+00  0.00000000000E+00  0.18134149676E+04  0.18134149676E+04  0.25500000920E-02 0. -1.
       -2   -1    0    0    0  501  0.00000000000E+00  0.00000000000E+00 -0.26755008290E+03  0.26755008291E+03  0.25500000920E-02 0.  1.
    10030    2    1    2    0    0  0.00000000000E+00  0.00000000000E+00  0.15458648847E+04  0.20809650505E+04  0.13930962995E+04 0.  0.
        4    1    3    3  502    0 -0.23505955125E+03  0.26275323137E+03 -0.12443093092E+03  0.37386752025E+03  0.12699999809E+01 0.  1.
       -4    1    3    3    0  502  0.23505955125E+03 -0.26275323137E+03  0.16702958156E+04  0.17070975302E+04  0.12699999809E+01 0. -1.
</event>
<event>
 5   0  0.2215876E-04  0.1408335E+04  0.7818609E-02  0.8947807E-01
       -1   -1    0    0    0  501  0.00000000000E+00  0.00000000000E+00  0.43775345801E+03  0.43775345804E+03  0.50400001928E-02 0. -1.
        1   -1    0    0  501    0  0.00000000000E+00  0.00000000000E+00 -0.11327201984E+04  0.11327201984E+04  0.50400001928E-02 0.  1.
    10030    2    1    2    0    0  0.00000000000E+00  0.00000000000E+00 -0.69496674040E+03  0.15704736564E+04  0.14083354484E+04 0.  0.
        3    1    3    3  502    0 -0.33850369237E+02 -0.46321704629E+03  0.24273025984E+03  0.52405521533E+03  0.10100000352E+00 0. -1.
       -3    1    3    3    0  502  0.33850369237E+02  0.46321704629E+03 -0.93769700024E+03  0.10464184411E+04  0.10100000352E+00 0.  1.
</event>
<event>
 5   0  0.3975164E-04  0.1410253E+04  0.7818609E-02  0.8946430E-01
        2   -1    0    0  501    0  0.00000000000E+00  0.00000000000E+00  0.17013819124E+04  0.17013819124E+04  0.25500000920E-02 0.  1.
       -2   -1    0    0    0  501  0.00000000000E+00  0.00000000000E+00 -0.29223510787E+03  0.29223510788E+03  0.25500000920E-02 0. -1.
    10030    2    1    2    0    0  0.00000000000E+00  0.00000000000E+00  0.14091468046E+04  0.19936170203E+04  0.14102532067E+04 0.  0.
        5    1    3    3  502    0  0.57612415393E+03 -0.29158836770E+03  0.30413440821E+03  0.71376652007E+03  0.46999998093E+01 0. -1.
       -5    1    3    3    0  502 -0.57612415393E+03  0.29158836770E+03  0.11050123964E+04  0.12798505003E+04  0.46999998093E+01 0.  1.
</event>
<event>
 5   0  0.3975164E-04  0.1393259E+04  0.7818609E-02  0.8958712E-01
       -2   -1    0    0    0  501  0.00000000000E+00  0.00000000000E+00  0.39669337635E+03  0.39669337636E+03  0.25500000920E-02 0.  1.
        2   -1    0    0  501    0  0.00000000000E+00  0.00000000000E+00 -0.12233447635E+04  0.12233447635E+04  0.25500000920E-02 0. -1.
    10030    2    1    2    0    0  0.00000000000E+00  0.00000000000E+00 -0.82665138714E+03  0.16200381399E+04  0.13932591499E+04 0.  0.
        5    1    3    3  502    0 -0.82420058626E+02  0.37451672643E+03  0.26289687131E+03  0.46496526686E+03  0.46999998093E+01 0.  1.
       -5    1    3    3    0  502  0.82420058626E+02 -0.37451672643E+03 -0.10895482585E+04  0.11550728730E+04  0.46999998093E+01 0. -1.
</event>
<event>
 5   0  0.4310348E-04  0.1399237E+04  0.7818609E-02  0.8954371E-01
        2   -1    0    0  501    0  0.00000000000E+00  0.00000000000E+00  0.47726695192E+03  0.47726695192E+03  0.25500000920E-02 0.  1.
       -2   -1    0    0    0  501  0.00000000000E+00  0.00000000000E+00 -0.10255598964E+04  0.10255598964E+04  0.25500000920E-02 0. -1.
    10030    2    1    2    0    0  0.00000000000E+00  0.00000000000E+00 -0.54829294445E+03  0.15028268483E+04  0.13992367144E+04 0.  0.
        1    1    3    3  502    0 -0.69700745372E+03  0.50504898702E+02 -0.23859434074E+03  0.73844254671E+03  0.50400001928E-02 0.  1.
       -1    1    3    3    0  502  0.69700745372E+03 -0.50504898702E+02 -0.30969860371E+03  0.76438430158E+03  0.50400001928E-02 0. -1.
</event>
<event>
 5   0  0.2143942E-04  0.1400664E+04  0.7818609E-02  0.8953338E-01
       -1   -1    0    0    0  501  0.00000000000E+00  0.00000000000E+00  0.73448335524E+03  0.73448335526E+03  0.50400001928E-02 0.  1.
        1   -1    0    0  501    0  0.00000000000E+00  0.00000000000E+00 -0.66776851960E+03  0.66776851962E+03  0.50400001928E-02 0. -1.
    10030    2    1    2    0    0  0.00000000000E+00  0.00000000000E+00  0.66714835634E+02  0.14022518749E+04  0.14006639323E+04 0.  0.
        4    1    3    3  502    0 -0.38913831668E+03 -0.34722561793E+03  0.50129398524E+03  0.72338892153E+03  0.12699999809E+01 0.  1.
       -4    1    3    3    0  502  0.38913831668E+03  0.34722561793E+03 -0.43457914961E+03  0.67886295335E+03  0.12699999809E+01 0. -1.
</event>
<event>
 5   0  0.2215876E-04  0.1385405E+04  0.7818609E-02  0.8964451E-01
        1   -1    0    0  501    0  0.00000000000E+00  0.00000000000E+00  0.11292158004E+04  0.11292158004E+04  0.50400001928E-02 0. -1.
       -1   -1    0    0    0  501  0.00000000000E+00  0.00000000000E+00 -0.42492921839E+03  0.42492921842E+03  0.50400001928E-02 0.  1.
    10030    2    1    2    0    0  0.00000000000E+00  0.00000000000E+00  0.70428658203E+03  0.15541450188E+04  0.13854050491E+04 0.  0.
        3    1    3    3  502    0  0.44264827103E+03 -0.31914567103E+03 -0.12649180627E+03  0.56017107962E+03  0.10100000352E+00 0.  1.
       -3    1    3    3    0  502 -0.44264827103E+03  0.31914567103E+03  0.83077838831E+03  0.99397393923E+03  0.10100000352E+00 0. -1.
</event>
<event>
 5   0  0.2215876E-04  0.1396266E+04  0.7818609E-02  0.8956526E-01
        1   -1    0    0  501    0  0.00000000000E+00  0.00000000000E+00  0.16467644340E+04  0.16467644340E+04  0.50400001928E-02 0.  1.
       -1   -1    0    0    0  501  0.00000000000E+00  0.00000000000E+00 -0.29596796929E+03  0.29596796933E+03  0.50400001928E-02 0. -1.
    10030    2    1    2    0    0  0.00000000000E+00  0.00000000000E+00  0.13507964647E+04  0.19427324033E+04  0.13962657705E+04 0.  0.
        3    1    3    3  502    0  0.54647022832E+03 -0.37084577882E+03  0.99033305934E+03  0.11903427577E+04  0.10100000352E+00 0.  1.
       -3    1    3    3    0  502 -0.54647022832E+03  0.37084577882E+03  0.36046340538E+03  0.75238964568E+03  0.10100000352E+00 0. -1.
</event>
<event>
 5   0  0.4208622E-04  0.1401880E+04  0.7818609E-02  0.8952459E-01
       -2   -1    0    0    0  501  0.00000000000E+00  0.00000000000E+00  0.34724858440E+03  0.34724858441E+03  0.25500000920E-02 0.  1.
        2   -1    0    0  501    0  0.00000000000E+00  0.00000000000E+00 -0.14148858529E+04  0.14148858529E+04  0.25500000920E-02 0. -1.
    10030    2    1    2    0    0  0.00000000000E+00  0.00000000000E+00 -0.10676372685E+04  0.17621344373E+04  0.14018803223E+04 0.  0.
        4    1    3    3  502    0  0.16711888918E+03 -0.40855891540E+03 -0.12182278182E+04  0.12957352123E+04  0.12699999809E+01 0. -1.
       -4    1    3    3    0  502 -0.16711888918E+03  0.40855891540E+03  0.15059054974E+03  0.46639922496E+03  0.12699999809E+01 0.  1.
</event>
<event>
 5   0  0.2217251E-04  0.1402405E+04  0.7818609E-02  0.8952080E-01
        1   -1    0    0  501    0  0.00000000000E+00  0.00000000000E+00  0.10287893560E+04  0.10287893560E+04  0.50400001928E-02 0.  1.
       -1   -1    0    0    0  501  0.00000000000E+00  0.00000000000E+00 -0.47792549485E+03  0.47792549488E+03  0.50400001928E-02 0. -1.
    10030    2    1    2    0    0  0.00000000000E+00  0.00000000000E+00  0.55086386113E+03  0.15067148509E+04  0.14024045951E+04 0.  0.
        5    1    3    3  502    0 -0.71447361310E+02 -0.63567990650E+03 -0.33101943184E+02  0.64055561633E+03  0.46999998093E+01 0.  1.
       -5    1    3    3    0  502  0.71447361310E+02  0.63567990650E+03  0.58396580431E+03  0.86615923454E+03  0.46999998093E+01 0. -1.
</event>
<event>
 5   0  0.2143942E-04  0.1397331E+04  0.7818609E-02  0.8955753E-01
       -1   -1    0    0    0  501  0.00000000000E+00  0.00000000000E+00  0.41074473322E+03  0.41074473326E+03  0.50400001928E-02 0.  1.
        1   -1    0    0  501    0  0.00000000000E+00  0.00000000000E+00 -0.11884112402E+04  0.11884112403E+04  0.50400001928E-02 0. -1.
    10030    2    1    2    0    0  0.00000000000E+00  0.00000000000E+00 -0.77766650702E+03  0.15991559735E+04  0.13973312533E+04 0.  0.
        4    1    3    3  502    0 -0.56592851884E+03 -0.16916937128E+03 -0.81587605074E+03  0.10072480865E+04  0.12699999809E+01 0. -1.
       -4    1    3    3    0  502  0.56592851884E+03  0.16916937128E+03  0.38209543724E+02  0.59190788704E+03  0.12699999809E+01 0.  1.
</event>
<event>
 5   0  0.2155352E-04  0.1402633E+04  0.7818609E-02  0.8951915E-01
        1   -1    0    0  501    0  0.00000000000E+00  0.00000000000E+00  0.19285040032E+04  0.19285040032E+04  0.50400001928E-02 0.  1.
       -1   -1    0    0    0  501  0.00000000000E+00  0.00000000000E+00 -0.25503956314E+03  0.25503956319E+03  0.50400001928E-02 0. -1.
    10030    2    1    2    0    0  0.00000000000E+00  0.00000000000E+00  0.16734644401E+04  0.21835435664E+04  0.14026329791E+04 0.  0.
        2    1    3    3  502    0  0.43159740476E+03 -0.18975274835E+01  0.16972692178E+04  0.17512860183E+04  0.25500000920E-02 0.  1.
       -2    1    3    3    0  502 -0.43159740476E+03  0.18975274835E+01 -0.23804777708E+02  0.43225754806E+03  0.25500000920E-02 0. -1.
</event>
<event>
 5   0  0.3917598E-04  0.1396096E+04  0.7818609E-02  0.8956650E-01
       -2   -1    0    0    0  501  0.00000000000E+00  0.00000000000E+00  0.34500491623E+03  0.34500491624E+03  0.25500000920E-02 0. -1.
        2   -1    0    0  501    0  0.00000000000E+00  0.00000000000E+00 -0.14123586126E+04  0.14123586126E+04  0.25500000920E-02 0.  1.
    10030    2    1    2    0    0  0.00000000000E+00  0.00000000000E+00 -0.10673536964E+04  0.17573635289E+04  0.13960955051E+04 0.  0.
        3    1    3    3  502    0  0.10504025956E+03 -0.58461429239E+03 -0.99525836256E+03  0.11590282764E+04  0.10100000352E+00 0.  1.
       -3    1    3    3    0  502 -0.10504025956E+03  0.58461429239E+03 -0.72095333829E+02  0.59833525248E+03  0.10100000352E+00 0. -1.
</event>
<event>
 5   0  0.4208622E-04  0.1400750E+04  0.7818609E-02  0.8953276E-01
       -2   -1    0    0    0  501  0.00000000000E+00  0.00000000000E+00  0.18864728958E+03  0.18864728959E+03  0.25500000920E-02 0. -1.
        2   -1    0    0  501    0  0.00000000000E+00  0.00000000000E+00 -0.26002224988E+04  0.26002224988E+04  0.25500000920E-02 0.  1.
    10030    2    1    2    0    0  0.00000000000E+00  0.00000000000E+00 -0.24115752092E+04  0.27888697884E+04  0.14007496946E+04 0.  0.
        4    1    3    3  502    0  0.55816855725E+03  0.40808687641E+03 -0.98375697449E+03  0.12024418634E+04  0.12699999809E+01 0.  1.
       -4    1    3    3    0  502 -0.55816855725E+03 -0.40808687641E+03 -0.14278182347E+04  0.15864279251E+04  0.12699999809E+01 0. -1.
</event>
<event>
 5   0  0.3917598E-04  0.1401499E+04  0.7818609E-02  0.8952734E-01
        2   -1    0    0  501    0  0.00000000000E+00  0.00000000000E+00  0.74820391355E+03  0.74820391356E+03  0.25500000920E-02 0.  1.
       -2   -1    0    0    0  501  0.00000000000E+00  0.00000000000E+00 -0.65630462194E+03  0.65630462195E+03  0.25500000920E-02 0. -1.
    10030    2    1    2    0    0  0.00000000000E+00  0.00000000000E+00  0.91899291610E+02  0.14045085355E+04  0.14014987501E+04 0.  0.
        3    1    3    3  502    0  0.36371224312E+03  0.54820309036E+03 -0.19589090509E+03  0.68643024480E+03  0.10100000352E+00 0. -1.
       -3    1    3    3    0  502 -0.36371224312E+03 -0.54820309036E+03  0.28779019670E+03  0.71807829071E+03  0.10100000352E+00 0.  1.
</event>
<event>
 5   0  0.3917598E-04  0.1400143E+04  0.7818609E-02  0.8953715E-01
       -2   -1    0    0    0  501  0.00000000000E+00  0.00000000000E+00  0.61677089858E+03  0.61677089859E+03  0.25500000920E-02 0. -1.
        2   -1    0    0  501    0  0.00000000000E+00  0.00000000000E+00 -0.79462290215E+03  0.79462290216E+03  0.25500000920E-02 0.  1.
    10030    2    1    2    0    0  0.00000000000E+00  0.00000000000E+00 -0.17785200357E+03  0.14113938007E+04  0.14001432518E+04 0.  0.
        3    1    3    3  502    0  0.15025045620E+03  0.63902688835E+03  0.15627680969E+03  0.67479849960E+03  0.10100000352E+00 0. -1.
       -3    1    3    3    0  502 -0.15025045620E+03 -0.63902688835E+03 -0.33412881326E+03  0.73659530114E+03  0.10100000352E+00 0.  1.
</event>
<event>
 5   0  0.2217251E-04  0.1404367E+04  0.7818609E-02  0.8950664E-01
        1   -1    0    0  501    0  0.00000000000E+00  0.00000000000E+00  0.17670284058E+04  0.17670284058E+04  0.50400001928E-02 0. -1.
       -1   -1    0    0    0  501  0.00000000000E+00  0.00000000000E+00 -0.27903439069E+03  0.27903439073E+03  0.50400001928E-02 0.  1.
    10030    2    1    2    0    0  0.00000000000E+00  0.00000000000E+00  0.14879940151E+04  0.20460627965E+04  0.14043670383E+04 0.  0.
        5    1    3    3  502    0 -0.47620836362E+02  0.23160031098E+03 -0.21926671687E+03  0.32250028097E+03  0.46999998093E+01 0.  1.
       -5    1    3    3    0  502  0.47620836362E+02 -0.23160031098E+03  0.17072607320E+04  0.17235625155E+04  0.46999998093E+01 0. -1.
</event>
<event>
 5   0  0.2143942E-04  0.1400847E+04  0.7818609E-02  0.8953205E-01
        1   -1    0    0  501    0  0.00000000000E+00  0.00000000000E+00  0.15948024174E+04  0.15948024174E+04  0.50400001928E-02 0.  1.
       -1   -1    0    0    0  501  0.00000000000E+00  0.00000000000E+00 -0.30762012747E+03  0.30762012751E+03  0.50400001928E-02 0. -1.
    10030    2    1    2    0    0  0.00000000000E+00  0.00000000000E+00  0.12871822899E+04  0.19024225449E+04  0.14008473478E+04 0.  0.
        4    1    3    3  502    0  0.44769116002E+03  0.39356623579E+03  0.14411259542E+03  0.61326324671E+03  0.12699999809E+01 0. -1.
       -4    1    3    3    0  502 -0.44769116002E+03 -0.39356623579E+03  0.11430696945E+04  0.12891592982E+04  0.12699999809E+01 0.  1.
</event>
<event>
 5   0  0.2217251E-04  0.1398886E+04  0.7818609E-02  0.8954625E-01
       -1   -1    0    0    0  501  0.00000000000E+00  0.00000000000E+00  0.60157157696E+03  0.60157157698E+03  0.50400001928E-02 0.  1.
        1   -1    0    0  501    0  0.00000000000E+00  0.00000000000E+00 -0.81323782762E+03  0.81323782764E+03  0.50400001928E-02 0. -1.
    10030    2    1    2    0    0  0.00000000000E+00  0.00000000000E+00 -0.21166625066E+03  0.14148094046E+04  0.13988863605E+04 0.  0.
        5    1    3    3  502    0 -0.25588707138E+03 -0.24448915504E+03  0.50431277633E+03  0.61612223349E+03  0.46999998093E+01 0.  1.
       -5    1    3    3    0  502  0.25588707138E+03  0.24448915504E+03 -0.71597902699E+03  0.79868717113E+03  0.46999998093E+01 0. -1.
</event>
<event>
 5   0  0.2223112E-04  0.1397519E+04  0.7818609E-02  0.8955616E-01
        1   -1    0    0  501    0  0.00000000000E+00  0.00000000000E+00  0.58555202984E+03  0.58555202986E+03  0.50400001928E-02 0.  1.
       -1   -1    0    0    0  501  0.00000000000E+00  0.00000000000E+00 -0.83385372780E+03  0.83385372781E+03  0.50400001928E-02 0. -1.
    10030    2    1    2    0    0  0.00000000000E+00  0.00000000000E+00 -0.24830169796E+03  0.14194057577E+04  0.13975188627E+04 0.  0.
        1    1    3    3  502    0 -0.37126888089E+03  0.48121971988E+03 -0.47429885721E+03  0.77095551538E+03  0.50400001928E-02 0. -1.
       -1    1    3    3    0  502  0.37126888089E+03 -0.48121971988E+03  0.22599715925E+03  0.64845024230E+03  0.50400001928E-02 0.  1.
</event>
<event>
 5   0  0.4208622E-04  0.1398547E+04  0.7818609E-02  0.8954871E-01
        2   -1    0    0  501    0  0.00000000000E+00  0.00000000000E+00  0.18028300321E+04  0.18028300321E+04  0.25500000920E-02 0. -1.
       -2   -1    0    0    0  501  0.00000000000E+00  0.00000000000E+00 -0.27123115248E+03  0.27123115249E+03  0.25500000920E-02 0.  1.
    10030    2    1    2    0    0  0.00000000000E+00  0.00000000000E+00  0.15315988796E+04  0.20740611846E+04  0.13985473426E+04 0.  0.
        4    1    3    3  502    0  0.34158617924E+03 -0.50933403412E+03  0.26754352219E+03  0.66909149249E+03  0.12699999809E+01 0.  1.
       -4    1    3    3    0  502 -0.34158617924E+03  0.50933403412E+03  0.12640553574E+04  0.14049696921E+04  0.12699999809E+01 0. -1.
</event>
<event>
 5   0  0.4310348E-04  0.1404915E+04  0.7818609E-02  0.8950268E-01
        2   -1    0    0  501    0  0.00000000000E+00  0.00000000000E+00  0.62824633695E+03  0.62824633696E+03  0.25500000920E-02 0.  1.
       -2   -1    0    0    0  501  0.00000000000E+00  0.00000000000E+00 -0.78543493422E+03  0.78543493422E+03  0.25500000920E-02 0. -1.
    10030    2    1    2    0    0  0.00000000000E+00  0.00000000000E+00 -0.15718859726E+03  0.14136812712E+04  0.14049151154E+04 0.  0.
        1    1    3    3  502    0  0.18874575061E+01  0.45272626021E+03 -0.61905083396E+03  0.76693452408E+03  0.50400001928E-02 0. -1.
       -1    1    3    3    0  502 -0.18874575061E+01 -0.45272626021E+03  0.46186223669E+03  0.64674674710E+03  0.50400001928E-02 0.  1.
</event>
<event>
 5   0  0.3932568E-04  0.1413867E+04  0.7818609E-02  0.8943841E-01
       -2   -1    0    0    0  501  0.00000000000E+00  0.00000000000E+00  0.89703718003E+03  0.89703718004E+03  0.25500000920E-02 0. -1.
        2   -1    0    0  501    0  0.00000000000E+00  0.00000000000E+00 -0.55711772220E+03  0.55711772221E+03  0.25500000920E-02 0.  1.
    10030    2    1    2    0    0  0.00000000000E+00  0.00000000000E+00  0.33991945783E+03  0.14541549022E+04  0.14138674768E+04 0.  0.
        2    1    3    3  502    0  0.42846501571E+03  0.22826116054E+03 -0.35856024396E+03  0.60353200052E+03  0.25500000920E-02 0.  1.
       -2    1    3    3    0  502 -0.42846501571E+03 -0.22826116054E+03  0.69847970180E+03  0.85062290172E+03  0.25500000920E-02 0. -1.
</event>
<event>
 5   0  0.2215876E-04  0.1402618E+04  0.7818609E-02  0.8951926E-01
        1   -1    0    0  501    0  0.00000000000E+00  0.00000000000E+00  0.81112974735E+03  0.81112974737E+03  0.50400001928E-02 0.  1.
       -1   -1    0    0    0  501  0.00000000000E+00  0.00000000000E+00 -0.60635671771E+03  0.60635671773E+03  0.50400001928E-02 0. -1.
    10030    2    1    2    0    0  0.00000000000E+00  0.00000000000E+00  0.20477302965E+03  0.14174864651E+04  0.14026175120E+04 0.  0.
        3    1    3    3  502    0 -0.22577627887E+03  0.62815215178E+03  0.31980410149E+03  0.74015182728E+03  0.10100000352E+00 0.  1.
       -3    1    3    3    0  502  0.22577627887E+03 -0.62815215178E+03 -0.11503107185E+03  0.67733463782E+03  0.10100000352E+00 0. -1.
</event>
<event>
 5   0  0.3917598E-04  0.1399260E+04  0.7818609E-02  0.8954355E-01
        2   -1    0    0  501    0  0.00000000000E+00  0.00000000000E+00  0.18078654448E+04  0.18078654448E+04  0.25500000920E-02 0.  1.
       -2   -1    0    0    0  501  0.00000000000E+00  0.00000000000E+00 -0.27075124024E+03  0.27075124026E+03  0.25500000920E-02 0. -1.
    10030    2    1    2    0    0  0.00000000000E+00  0.00000000000E+00  0.15371142045E+04  0.20786166850E+04  0.13992595347E+04 0.  0.
        3    1    3    3  502    0  0.44150381410E+02 -0.28836153188E+03 -0.17609318377E+03  0.34074983318E+03  0.10100000352E+00 0. -1.
       -3    1    3    3    0  502 -0.44150381410E+02  0.28836153188E+03  0.17132073883E+04  0.17378668519E+04  0.10100000352E+00 0.  1.
</event>
<event>
 5   0  0.3975164E-04  0.1398815E+04  0.7818609E-02  0.8954677E-01
       -2   -1    0    0    0  501  0.00000000000E+00  0.00000000000E+00  0.45180175647E+03  0.45180175648E+03  0.25500000920E-02 0.  1.
        2   -1    0    0  501    0  0.00000000000E+00  0.00000000000E+00 -0.10827105764E+04  0.10827105764E+04  0.25500000920E-02 0. -1.
    10030    2    1    2    0    0  0.00000000000E+00  0.00000000000E+00 -0.63090881990E+03  0.15345123328E+04  0.13988145555E+04 0.  0.
        5    1    3    3  502    0 -0.35382949146E+03 -0.56010692145E+03 -0.56132491365E+03  0.86834487455E+03  0.46999998093E+01 0. -1.
       -5    1    3    3    0  502  0.35382949146E+03  0.56010692145E+03 -0.69583906249E+02  0.66616745829E+03  0.46999998093E+01 0.  1.
</event>
<event>
 5   0  0.4310348E-04  0.1399857E+04  0.7818609E-02  0.8953922E-01
       -2   -1    0    0    0  501  0.00000000000E+00  0.00000000000E+00  0.24271891574E+03  0.24271891575E+03  0.25500000920E-02 0. -1.
        2   -1    0    0  501    0  0.00000000000E+00  0.00000000000E+00 -0.20183841391E+04  0.20183841391E+04  0.25500000920E-02 0.  1.
    10030    2    1    2    0    0  0.00000000000E+00  0.00000000000E+00 -0.17756652233E+04  0.22611030548E+04  0.13998571496E+04 0.  0.
        1    1    3    3  502    0  0.28172149031E+03 -0.21124135714E+01  0.14709105692E+03  0.31781636119E+03  0.50400001928E-02 0. -1.
       -1    1    3    3    0  502 -0.28172149031E+03  0.21124135714E+01 -0.19227562802E+04  0.19432866936E+04  0.50400001928E-02 0.  1.
</event>
<event>
 5   0  0.2215876E-04  0.1429337E+04  0.7818609E-02  0.8932853E-01
        1   -1    0    0  501    0  0.00000000000E+00  0.00000000000E+00  0.13123586141E+04  0.13123586141E+04  0.50400001928E-02 0.  1.
       -1   -1    0    0    0  501  0.00000000000E+00  0.00000000000E+00 -0.38918552655E+03  0.38918552659E+03  0.50400001928E-02 0. -1.
    10030    2    1    2    0    0  0.00000000000E+00  0.00000000000E+00  0.92317308756E+03  0.17015441407E+04  0.14293368788E+04 0.  0.
        3    1    3    3  502    0  0.47391972685E+03 -0.41415091666E+03  0.86463560704E+03  0.10694464140E+04  0.10100000352E+00 0.  1.
       -3    1    3    3    0  502 -0.47391972685E+03  0.41415091666E+03  0.58537480515E+02  0.63209772670E+03  0.10100000352E+00 0. -1.
</event>
<event>
 5   0  0.2143942E-04  0.1398388E+04  0.7818609E-02  0.8954986E-01
       -1   -1    0    0    0  501  0.00000000000E+00  0.00000000000E+00  0.63792085759E+03  0.63792085761E+03  0.50400001928E-02 0.  1.
        1   -1    0    0  501    0  0.00000000000E+00  0.00000000000E+00 -0.76635220154E+03  0.76635220156E+03  0.50400001928E-02 0. -1.
    10030    2    1    2    0    0  0.00000000000E+00  0.00000000000E+00 -0.12843134396E+03  0.14042730592E+04  0.13983877197E+04 0.  0.
        4    1    3    3  502    0 -0.37894638542E+03  0.15846393975E+03  0.50399187094E+03  0.65016967178E+03  0.12699999809E+01 0.  1.
       -4    1    3    3    0  502  0.37894638542E+03 -0.15846393975E+03 -0.63242321490E+03  0.75410338739E+03  0.12699999809E+01 0. -1.
</event>
<event>
 5   0  0.2215876E-04  0.1400865E+04  0.7818609E-02  0.8953192E-01
       -1   -1    0    0    0  501  0.00000000000E+00  0.00000000000E+00  0.17648715112E+04  0.17648715112E+04  0.50400001928E-02 0. -1.
        1   -1    0    0  501    0  0.00000000000E+00  0.00000000000E+00 -0.27798395932E+03  0.27798395936E+03  0.50400001928E-02 0.  1.
    10030    2    1    2    0    0  0.00000000000E+00  0.00000000000E+00  0.14868875518E+04  0.20428554705E+04  0.14008654045E+04 0.  0.
        3    1    3    3  502    0  0.53494011994E+03  0.44539058610E+03  0.62980770736E+03  0.93871798990E+03  0.10100000352E+00 0.  1.
       -3    1    3    3    0  502 -0.53494011994E+03 -0.44539058610E+03  0.85707984448E+03  0.11041374806E+04  0.10100000352E+00 0. -1.
</event>
<event>
 5   0  0.4310348E-04  0.1397635E+04  0.7818609E-02  0.8955532E-01
       -2   -1    0    0    0  501  0.00000000000E+00  0.00000000000E+00  0.80345846406E+03  0.80345846406E+03  0.25500000920E-02 0. -1.
        2   -1    0    0  501    0  0.00000000000E+00  0.00000000000E+00 -0.60780486797E+03  0.60780486798E+03  0.25500000920E-02 0.  1.
    10030    2    1    2    0    0  0.00000000000E+00  0.00000000000E+00  0.19565359609E+03  0.14112633320E+04  0.13976350964E+04 0.  0.
        1    1    3    3  502    0  0.46583293047E+03 -0.25457282528E+03  0.55672312678E+03  0.76925176789E+03  0.50400001928E-02 0. -1.
       -1    1    3    3    0  502 -0.46583293047E+03  0.25457282528E+03 -0.36106953069E+03  0.64201156415E+03  0.50400001928E-02 0.  1.
</event>
<event>
 5   0  0.3975164E-04  0.1398953E+04  0.7818609E-02  0.8954577E-01
        2   -1    0    0  501    0  0.00000000000E+00  0.00000000000E+00  0.91506855495E+03  0.91506855496E+03  0.25500000920E-02 0. -1.
       -2   -1    0    0    0  501  0.00000000000E+00  0.00000000000E+00 -0.53467831225E+03  0.53467831225E+03  0.25500000920E-02 0.  1.
    10030    2    1    2    0    0  0.00000000000E+00  0.00000000000E+00  0.38039024271E+03  0.14497468672E+04  0.13989529092E+04 0.  0.
        5    1    3    3  502    0 -0.16283649515E+02  0.67872489498E+03  0.15822294408E+02  0.67912081053E+03  0.46999998093E+01 0.  1.
       -5    1    3    3    0  502  0.16283649515E+02 -0.67872489498E+03  0.36456794830E+03  0.77062605668E+03  0.46999998093E+01 0. -1.
</event>
<event>
 5   0  0.3932568E-04  0.1401668E+04  0.7818609E-02  0.8952612E-01
        2   -1    0    0  501    0  0.00000000000E+00  0.00000000000E+00  0.91536394327E+03  0.91536394327E+03  0.25500000920E-02 0.  1.
       -2   -1    0    0    0  501  0.00000000000E+00  0.00000000000E+00 -0.53658288237E+03  0.53658288238E+03  0.25500000920E-02 0. -1.
    10030    2    1    2    0    0  0.00000000000E+00  0.00000000000E+00  0.37878106090E+03  0.14519468257E+04  0.14016684674E+04 0.  0.
        2    1    3    3  502    0  0.58986252672E+03 -0.35786513068E+03  0.31694723409E+03  0.75925015732E+03  0.25500000920E-02 0. -1.
       -2    1    3    3    0  502 -0.58986252672E+03  0.35786513068E+03  0.61833826804E+02  0.69269666834E+03  0.25500000920E-02 0.  1.
</event>
<event>
 5   0  0.3917598E-04  0.1365962E+04  0.7818609E-02  0.8978832E-01
        2   -1    0    0  501    0  0.00000000000E+00  0.00000000000E+00  0.66204500379E+03  0.66204500379E+03  0.25500000920E-02 0. -1.
       -2   -1    0    0    0  501  0.00000000000E+00  0.00000000000E+00 -0.70457939159E+03  0.70457939159E+03  0.25500000920E-02 0.  1.
    10030    2    1    2    0    0  0.00000000000E+00  0.00000000000E+00 -0.42534387800E+02  0.13666243954E+04  0.13659623216E+04 0.  0.
        3    1    3    3  502    0  0.31478286040E+03 -0.17774533234E+03 -0.60101471221E+03  0.70135607709E+03  0.10100000352E+00 0.  1.
       -3    1    3    3    0  502 -0.31478286040E+03  0.17774533234E+03  0.55848032441E+03  0.66526831829E+03  0.10100000352E+00 0. -1.
</event>
<event>
 5   0  0.3932568E-04  0.1405163E+04  0.7818609E-02  0.8950090E-01
        2   -1    0    0  501    0  0.00000000000E+00  0.00000000000E+00  0.11722174333E+04  0.11722174333E+04  0.25500000920E-02 0.  1.
       -2   -1    0    0    0  501  0.00000000000E+00  0.00000000000E+00 -0.42110005537E+03  0.42110005538E+03  0.25500000920E-02 0. -1.
    10030    2    1    2    0    0  0.00000000000E+00  0.00000000000E+00  0.75111737789E+03  0.15933174886E+04  0.14051630881E+04 0.  0.
        2    1    3    3  502    0  0.29630469799E+03 -0.46680520225E+03  0.86709875137E+03  0.10283792178E+04  0.25500000920E-02 0.  1.
       -2    1    3    3    0  502 -0.29630469799E+03  0.46680520225E+03 -0.11598137348E+03  0.56493827087E+03  0.25500000920E-02 0. -1.
</event>
<event>
 5   0  0.3917598E-04  0.1393116E+04  0.7818609E-02  0.8958817E-01
       -2   -1    0    0    0  501  0.00000000000E+00  0.00000000000E+00  0.58624652688E+03  0.58624652689E+03  0.25500000920E-02 0. -1.
        2   -1    0    0  501    0  0.00000000000E+00  0.00000000000E+00 -0.82762646109E+03  0.82762646109E+03  0.25500000920E-02 0.  1.
    10030    2    1    2    0    0  0.00000000000E+00  0.00000000000E+00 -0.24137993421E+03  0.14138729880E+04  0.13931161307E+04 0.  0.
        3    1    3    3  502    0  0.34240365807E+03  0.25916350650E+03  0.43592221692E+03  0.61191026921E+03  0.10100000352E+00 0. -1.
       -3    1    3    3    0  502 -0.34240365807E+03 -0.25916350650E+03 -0.67730215113E+03  0.80196271877E+03  0.10100000352E+00 0.  1.
</event>
<event>
 5   0  0.3917598E-04  0.1399299E+04  0.7818609E-02  0.8954326E-01
       -2   -1    0    0    0  501  0.00000000000E+00  0.00000000000E+00  0.48693257680E+03  0.48693257681E+03  0.25500000920E-02 0.  1.
        2   -1    0    0  501    0  0.00000000000E+00  0.00000000000E+00 -0.10052915652E+04  0.10052915652E+04  0.25500000920E-02 0. -1.
    10030    2    1    2    0    0  0.00000000000E+00  0.00000000000E+00 -0.51835898839E+03  0.14922241420E+04  0.13992986990E+04 0.  0.
        3    1    3    3  502    0 -0.91165127731E+02  0.25957256294E+03  0.42682897592E+03  0.50781096959E+03  0.10100000352E+00 0.  1.
       -3    1    3    3    0  502  0.91165127731E+02 -0.25957256294E+03 -0.94518796431E+03  0.98441317242E+03  0.10100000352E+00 0. -1.
</event>
<event>
 5   0  0.4208622E-04  0.1398337E+04  0.7818609E-02  0.8955023E-01
       -2   -1    0    0    0  501  0.00000000000E+00  0.00000000000E+00  0.36316977889E+03  0.36316977890E+03  0.25500000920E-02 0. -1.
        2   -1    0    0  501    0  0.00000000000E+00  0.00000000000E+00 -0.13460274531E+04  0.13460274531E+04  0.25500000920E-02 0.  1.
    10030    2    1    2    0    0  0.00000000000E+00  0.00000000000E+00 -0.98285767424E+03  0.17091972320E+04  0.13983368586E+04 0.  0.
        4    1    3    3  502    0  0.10456643618E+03 -0.44072518620E+03  0.15957117151E+03  0.48024722905E+03  0.12699999809E+01 0. -1.
       -4    1    3    3    0  502 -0.10456643618E+03  0.44072518620E+03 -0.11424288458E+04  0.12289500030E+04  0.12699999809E+01 0.  1.
</event>
<event>
 5   0  0.2217251E-04  0.1403345E+04  0.7818609E-02  0.8951401E-01
        1   -1    0    0  501    0  0.00000000000E+00  0.00000000000E+00  0.14793801916E+04  0.14793801916E+04  0.50400001928E-02 0. -1.
       -1   -1    0    0    0  501  0.00000000000E+00  0.00000000000E+00 -0.33280456697E+03  0.33280456701E+03  0.50400001928E-02 0.  1.
    10030    2    1    2    0    0  0.00000000000E+00  0.00000000000E+00  0.11465756247E+04  0.18121847587E+04  0.14033452663E+04 0.  0.
        5    1    3    3  502    0  0.74665782169E+02  0.56079725648E+03  0.11092355116E+04  0.12451883601E+04  0.46999998093E+01 0. -1.
       -5    1    3    3    0  502 -0.74665782169E+02 -0.56079725648E+03  0.37340113034E+02  0.56699639853E+03  0.46999998093E+01 0.  1.
</event>
<event>
 5   0  0.2155352E-04  0.1407011E+04  0.7818609E-02  0.8948759E-01
        1   -1    0    0  501    0  0.00000000000E+00  0.00000000000E+00  0.74844114859E+03  0.74844114861E+03  0.50400001928E-02 0.  1.
       -1   -1    0    0    0  501  0.00000000000E+00  0.00000000000E+00 -0.66126812486E+03  0.66126812488E+03  0.50400001928E-02 0. -1.
    10030    2    1    2    0    0  0.00000000000E+00  0.00000000000E+00  0.87173023734E+02  0.14097092735E+04  0.14070114071E+04 0.  0.
        2    1    3    3  502    0  0.26154907817E+03  0.63132598481E+03 -0.12388618589E+03  0.69449852876E+03  0.25500000920E-02 0. -1.
       -2    1    3    3    0  502 -0.26154907817E+03 -0.63132598481E+03  0.21105920963E+03  0.71521074472E+03  0.25500000920E-02 0.  1.
</event>
<event>
 5   0  0.2155352E-04  0.1400752E+04  0.7818609E-02  0.8953274E-01
       -1   -1    0    0    0  501  0.00000000000E+00  0.00000000000E+00  0.31839087984E+03  0.31839087988E+03  0.50400001928E-02 0. -1.
        1   -1    0    0  501    0  0.00000000000E+00  0.00000000000E+00 -0.15406430430E+04  0.15406430430E+04  0.50400001928E-02 0.  1.
    10030    2    1    2    0    0  0.00000000000E+00  0.00000000000E+00 -0.12222521631E+04  0.18590339229E+04  0.14007522179E+04 0.  0.
        2    1    3    3  502    0 -0.14223044885E+03 -0.39162291377E+03 -0.13582743107E+04  0.14207417465E+04  0.25500000920E-02 0.  1.
       -2    1    3    3    0  502  0.14223044885E+03  0.39162291377E+03  0.13602214761E+03  0.43829217631E+03  0.25500000920E-02 0. -1.
</event>
<event>
 5   0  0.2215876E-04  0.1399693E+04  0.7818609E-02  0.8954041E-01
        1   -1    0    0  501    0  0.00000000000E+00  0.00000000000E+00  0.61957872526E+03  0.61957872528E+03  0.50400001928E-02 0. -1.
       -1   -1    0    0    0  501  0.00000000000E+00  0.00000000000E+00 -0.79051322266E+03  0.79051322268E+03  0.50400001928E-02 0.  1.
    10030    2    1    2    0    0  0.00000000000E+00  0.00000000000E+00 -0.17093449741E+03  0.14100919480E+04  0.13996930732E+04 0.  0.
        3    1    3    3  502    0  0.71962627094E+02 -0.65010707780E+03  0.16531455369E+03  0.67464564341E+03  0.10100000352E+00 0. -1.
       -3    1    3    3    0  502 -0.71962627094E+02  0.65010707780E+03 -0.33624905110E+03  0.73544630455E+03  0.10100000352E+00 0.  1.
</event>
<event>
 5   0  0.4310348E-04  0.1403762E+04  0.7818609E-02  0.8951100E-01
        2   -1    0    0  501    0  0.00000000000E+00  0.00000000000E+00  0.50250203099E+03  0.50250203099E+03  0.25500000920E-02 0.  1.
       -2   -1    0    0    0  501  0.00000000000E+00  0.00000000000E+00 -0.98036765720E+03  0.98036765720E+03  0.25500000920E-02 0. -1.
    10030    2    1    2    0    0  0.00000000000E+00  0.00000000000E+00 -0.47786562621E+03  0.14828696882E+04  0.14037617160E+04 0.  0.
        1    1    3    3  502    0  0.30398640185E+02 -0.24717852593E+03 -0.93212616906E+03  0.96482148404E+03  0.50400001928E-02 0. -1.
       -1    1    3    3    0  502 -0.30398640185E+02  0.24717852593E+03  0.45426054285E+03  0.51804820415E+03  0.50400001928E-02 0.  1.
</event>
<event>
 5   0  0.2215876E-04  0.1388665E+04  0.7818609E-02  0.8962064E-01
       -1   -1    0    0    0  501  0.00000000000E+00  0.00000000000E+00  0.62083127447E+03  0.62083127449E+03  0.50400001928E-02 0. -1.
        1   -1    0    0  501    0  0.00000000000E+00  0.00000000000E+00 -0.77653615301E+03  0.77653615303E+03  0.50400001928E-02 0.  1.
    10030    2    1    2    0    0  0.00000000000E+00  0.00000000000E+00 -0.15570487854E+03  0.13973674275E+04  0.13886654450E+04 0.  0.
        3    1    3    3  502    0  0.70249735116E+02 -0.66969036199E+03  0.92553703040E+02  0.67969581754E+03  0.10100000352E+00 0. -1.
       -3    1    3    3    0  502 -0.70249735116E+02  0.66969036199E+03 -0.24825858158E+03  0.71767160997E+03  0.10100000352E+00 0.  1.
</event>
<event>
 5   0  0.3917598E-04  0.1397837E+04  0.7818609E-02  0.8955385E-01
        2   -1    0    0  501    0  0.00000000000E+00  0.00000000000E+00  0.67108533607E+03  0.67108533608E+03  0.25500000920E-02 0.  1.
       -2   -1    0    0    0  501  0.00000000000E+00  0.00000000000E+00 -0.72790647230E+03  0.72790647230E+03  0.25500000920E-02 0. -1.
    10030    2    1    2    0    0  0.00000000000E+00  0.00000000000E+00 -0.56821136223E+02  0.13989918084E+04  0.13978374149E+04 0.  0.
        3    1    3    3  502    0  0.69336145950E+03  0.63004654678E+02 -0.89842440123E+02  0.70199100727E+03  0.10100000352E+00 0. -1.
       -3    1    3    3    0  502 -0.69336145950E+03 -0.63004654678E+02  0.33021303901E+02  0.69700080111E+03  0.10100000352E+00 0.  1.
</event>
<event>
 5   0  0.2223112E-04  0.1397092E+04  0.7818609E-02  0.8955926E-01
        1   -1    0    0  501    0  0.00000000000E+00  0.00000000000E+00  0.41858845094E+03  0.41858845097E+03  0.50400001928E-02 0. -1.
       -1   -1    0    0    0  501  0.00000000000E+00  0.00000000000E+00 -0.11657433528E+04  0.11657433528E+04  0.50400001928E-02 0.  1.
    10030    2    1    2    0    0  0.00000000000E+00  0.00000000000E+00 -0.74715490189E+03  0.15843318038E+04  0.13970922722E+04 0.  0.
        1    1    3    3  502    0  0.45151754742E+03 -0.27054607320E+01  0.23085811167E+03  0.50712018585E+03  0.50400001928E-02 0. -1.
       -1    1    3    3    0  502 -0.45151754742E+03  0.27054607320E+01 -0.97801301356E+03  0.10772116180E+04  0.50400001928E-02 0.  1.
</event>
<event>
 5   0  0.4208622E-04  0.1406778E+04  0.7818609E-02  0.8948927E-01
        2   -1    0    0  501    0  0.00000000000E+00  0.00000000000E+00  0.57057034421E+03  0.57057034422E+03  0.25500000920E-02 0.  1.
       -2   -1    0    0    0  501  0.00000000000E+00  0.00000000000E+00 -0.86712588138E+03  0.86712588138E+03  0.25500000920E-02 0. -1.
    10030    2    1    2    0    0  0.00000000000E+00  0.00000000000E+00 -0.29655553717E+03  0.14376962256E+04  0.14067783231E+04 0.  0.
        4    1    3    3  502    0  0.38845666486E+03 -0.51355299114E+03  0.14099691667E+03  0.65917903379E+03  0.12699999809E+01 0. -1.
       -4    1    3    3    0  502 -0.38845666486E+03  0.51355299114E+03 -0.43755245384E+03  0.77851719181E+03  0.12699999809E+01 0.  1.
</event>
<event>
 5   0  0.4208622E-04  0.1399021E+04  0.7818609E-02  0.8954528E-01
       -2   -1    0    0    0  501  0.00000000000E+00  0.00000000000E+00  0.19744543674E+03  0.19744543676E+03  0.25500000920E-02 0. -1.
        2   -1    0    0  501    0  0.00000000000E+00  0.00000000000E+00 -0.24782277136E+04  0.24782277136E+04  0.25500000920E-02 0.  1.
    10030    2    1    2    0    0  0.00000000000E+00  0.00000000000E+00 -0.22807822769E+04  0.26756731504E+04  0.13990207336E+04 0.  0.
        4    1    3    3  502    0  0.56032225926E+03 -0.40527657741E+03 -0.13419162257E+04  0.15096194581E+04  0.12699999809E+01 0. -1.
       -4    1    3    3    0  502 -0.56032225926E+03  0.40527657741E+03 -0.93886605114E+03  0.11660536923E+04  0.12699999809E+01 0.  1.
</event>
<event>
 5   0  0.2217251E-04  0.1394912E+04  0.7818609E-02  0.8957510E-01
       -1   -1    0    0    0  501  0.00000000000E+00  0.00000000000E+00  0.50227426052E+03  0.50227426054E+03  0.50400001928E-02 0.  1.
        1   -1    0    0  501    0  0.00000000000E+00  0.00000000000E+00 -0.96848447684E+03  0.96848447685E+03  0.50400001928E-02 0. -1.
    10030    2    1    2    0    0  0.00000000000E+00  0.00000000000E+00 -0.46621021632E+03  0.14707587374E+04  0.13949119319E+04 0.  0.
        5    1    3    3  502    0 -0.65907137941E+03 -0.11302930002E+03 -0.44205219271E+03  0.80161271004E+03  0.46999998093E+01 0. -1.
       -5    1    3    3    0  502  0.65907137941E+03  0.11302930002E+03 -0.24158023611E+02  0.66914602735E+03  0.46999998093E+01 0.  1.
</event>
<event>
 5   0  0.2215876E-04  0.1400367E+04  0.7818609E-02  0.8953553E-01
        1   -1    0    0  501    0  0.00000000000E+00  0.00000000000E+00  0.11014728140E+04  0.11014728140E+04  0.50400001928E-02 0.  1.
       -1   -1    0    0    0  501  0.00000000000E+00  0.00000000000E+00 -0.44509194530E+03  0.44509194533E+03  0.50400001928E-02 0. -1.
    10030    2    1    2    0    0  0.00000000000E+00  0.00000000000E+00  0.65638086872E+03  0.15465647594E+04  0.14003666342E+04 0.  0.
        3    1    3    3  502    0  0.43166383238E+03  0.50154951797E+03  0.58092936154E+03  0.88054785018E+03  0.10100000352E+00 0.  1.
       -3    1    3    3    0  502 -0.43166383238E+03 -0.50154951797E+03  0.75451507180E+02  0.66601690917E+03  0.10100000352E+00 0. -1.
</event>
<event>
 5   0  0.2155352E-04  0.1389605E+04  0.7818609E-02  0.8961377E-01
       -1   -1    0    0    0  501  0.00000000000E+00  0.00000000000E+00  0.69705470672E+03  0.69705470674E+03  0.50400001928E-02 0.  1.
        1   -1    0    0  501    0  0.00000000000E+00  0.00000000000E+00 -0.69255763799E+03  0.69255763801E+03  0.50400001928E-02 0. -1.
    10030    2    1    2    0    0  0.00000000000E+00  0.00000000000E+00  0.44970687291E+01  0.13896123447E+04  0.13896050680E+04 0.  0.
        2    1    3    3  502    0 -0.47364698501E+03 -0.97849155857E+01 -0.50599949133E+03  0.69316137819E+03  0.25500000920E-02 0. -1.
       -2    1    3    3    0  502  0.47364698501E+03  0.97849155857E+01  0.51049656006E+03  0.69645096656E+03  0.25500000920E-02 0.  1.
</event>
<event>
 5   0  0.4208622E-04  0.1420611E+04  0.7818609E-02  0.8939033E-01
       -2   -1    0    0    0  501  0.00000000000E+00  0.00000000000E+00  0.18080318314E+04  0.18080318314E+04  0.25500000920E-02 0.  1.
        2   -1    0    0  501    0  0.00000000000E+00  0.00000000000E+00 -0.27905131092E+03  0.27905131093E+03  0.25500000920E-02 0. -1.
    10030    2    1    2    0    0  0.00000000000E+00  0.00000000000E+00  0.15289805205E+04  0.20870831424E+04  0.14206106472E+04 0.  0.
        4    1    3    3  502    0  0.66620816995E+03 -0.23991555603E+03  0.84680487569E+03  0.11038446042E+04  0.12699999809E+01 0.  1.
       -4    1    3    3    0  502 -0.66620816995E+03  0.23991555603E+03  0.68217564482E+03  0.98323853821E+03  0.12699999809E+01 0. -1.
</event>
<event>
 5   0  0.2215876E-04  0.1396756E+04  0.7818609E-02  0.8956170E-01
        1   -1    0    0  501    0  0.00000000000E+00  0.00000000000E+00  0.11365807945E+04  0.11365807945E+04  0.50400001928E-02 0. -1.
       -1   -1    0    0    0  501  0.00000000000E+00  0.00000000000E+00 -0.42912196199E+03  0.42912196202E+03  0.50400001928E-02 0.  1.
    10030    2    1    2    0    0  0.00000000000E+00  0.00000000000E+00  0.70745883254E+03  0.15657027566E+04  0.13967559279E+04 0.  0.
        3    1    3    3  502    0  0.20586331098E+03  0.42136537650E+03 -0.22636240797E+03  0.52073835394E+03  0.10100000352E+00 0.  1.
       -3    1    3    3    0  502 -0.20586331098E+03 -0.42136537650E+03  0.93382124051E+03  0.10449644026E+04  0.10100000352E+00 0. -1.
</event>
<event>
 5   0  0.3932568E-04  0.1397921E+04  0.7818609E-02  0.8955324E-01
       -2   -1    0    0    0  501  0.00000000000E+00  0.00000000000E+00  0.34910830161E+03  0.34910830162E+03  0.25500000920E-02 0. -1.
        2   -1    0    0  501    0  0.00000000000E+00  0.00000000000E+00 -0.13994112258E+04  0.13994112258E+04  0.25500000920E-02 0.  1.
    10030    2    1    2    0    0  0.00000000000E+00  0.00000000000E+00 -0.10503029242E+04  0.17485195274E+04  0.13979214231E+04 0.  0.
        2    1    3    3  502    0  0.64051033630E+03 -0.19775499258E+03 -0.77275149058E+03  0.10229884624E+04  0.25500000920E-02 0.  1.
       -2    1    3    3    0  502 -0.64051033630E+03  0.19775499258E+03 -0.27755143361E+03  0.72553106502E+03  0.25500000920E-02 0. -1.
</event>
<event>
 5   0  0.4208622E-04  0.1443502E+04  0.7818609E-02  0.8922918E-01
        2   -1    0    0  501    0  0.00000000000E+00  0.00000000000E+00  0.50375562813E+03  0.50375562814E+03  0.25500000920E-02 0.  1.
       -2   -1    0    0    0  501  0.00000000000E+00  0.00000000000E+00 -0.10340813090E+04  0.10340813090E+04  0.25500000920E-02 0. -1.
    10030    2    1    2    0    0  0.00000000000E+00  0.00000000000E+00 -0.53032568090E+03  0.15378369372E+04  0.14435016860E+04 0.  0.
        4    1    3    3  502    0 -0.60910673524E+02  0.71914638939E+03 -0.25833901960E+03  0.76656526237E+03  0.12699999809E+01 0. -1.
       -4    1    3    3    0  502  0.60910673524E+02 -0.71914638939E+03 -0.27198666130E+03  0.77127167480E+03  0.12699999809E+01 0.  1.
</event>
<event>
 5   0  0.2217251E-04  0.1382427E+04  0.7818609E-02  0.8966638E-01
       -1   -1    0    0    0  501  0.00000000000E+00  0.00000000000E+00  0.10956551969E+04  0.10956551969E+04  0.50400001928E-02 0. -1.
        1   -1    0    0  501    0  0.00000000000E+00  0.00000000000E+00 -0.43606455732E+03  0.43606455735E+03  0.50400001928E-02 0.  1.
    10030    2    1    2    0    0  0.00000000000E+00  0.00000000000E+00  0.65959063958E+03  0.15317197543E+04  0.13824274280E+04 0.  0.
        5    1    3    3  502    0  0.61255903688E+03  0.86034330882E+02  0.67152416000E+03  0.91301548027E+03  0.46999998093E+01 0. -1.
       -5    1    3    3    0  502 -0.61255903688E+03 -0.86034330882E+02 -0.11933520418E+02  0.61870427400E+03  0.46999998093E+01 0.  1.
</event>
<event>
 5   0  0.2155352E-04  0.1402254E+04  0.7818609E-02  0.8952188E-01
       -1   -1    0    0    0  501  0.00000000000E+00  0.00000000000E+00  0.52831016785E+03  0.52831016787E+03  0.50400001928E-02 0.  1.
        1   -1    0    0  501    0  0.00000000000E+00  0.00000000000E+00 -0.93047494572E+03  0.93047494573E+03  0.50400001928E-02 0. -1.
    10030    2    1    2    0    0  0.00000000000E+00  0.00000000000E+00 -0.40216477787E+03  0.14587851136E+04  0.14022544345E+04 0.  0.
        2    1    3    3  502    0 -0.24158325425E+03 -0.33071446706E+03  0.39093300062E+03  0.56618295491E+03  0.25500000920E-02 0.  1.
       -2    1    3    3    0  502  0.24158325425E+03  0.33071446706E+03 -0.79309777849E+03  0.89260215869E+03  0.25500000920E-02 0. -1.
</event>
<event>
 5   0  0.3932568E-04  0.1399750E+04  0.7818609E-02  0.8954000E-01
        2   -1    0    0  501    0  0.00000000000E+00  0.00000000000E+00  0.86474930488E+03  0.86474930488E+03  0.25500000920E-02 0.  1.
       -2   -1    0    0    0  501  0.00000000000E+00  0.00000000000E+00 -0.56643555887E+03  0.56643555888E+03  0.25500000920E-02 0. -1.
    10030    2    1    2    0    0  0.00000000000E+00  0.00000000000E+00  0.29831374601E+03  0.14311848638E+04  0.13997496288E+04 0.  0.
        2    1    3    3  502    0 -0.23691664683E+03 -0.32178551338E+03  0.73664702537E+03  0.83804788298E+03  0.25500000920E-02 0.  1.
       -2    1    3    3    0  502  0.23691664683E+03  0.32178551338E+03 -0.43833327936E+03  0.59313698078E+03  0.25500000920E-02 0. -1.
</event>
<event>
 5   0  0.3917598E-04  0.1399774E+04  0.7818609E-02  0.8953982E-01
        2   -1    0    0  501    0  0.00000000000E+00  0.00000000000E+00  0.14557761877E+04  0.14557761877E+04  0.25500000920E-02 0.  1.
       -2   -1    0    0    0  501  0.00000000000E+00  0.00000000000E+00 -0.33648134440E+03  0.33648134441E+03  0.25500000920E-02 0. -1.
    10030    2    1    2    0    0  0.00000000000E+00  0.00000000000E+00  0.11192948433E+04  0.17922575321E+04  0.13997735942E+04 0.  0.
        3    1    3    3  502    0 -0.66135971945E+03  0.19168708946E+03  0.39921029008E+03  0.79593309059E+03  0.10100000352E+00 0. -1.
       -3    1    3    3    0  502  0.66135971945E+03 -0.19168708946E+03  0.72008455318E+03  0.99632444149E+03  0.10100000352E+00 0.  1.
</event>
<event>
 5   0  0.3975164E-04  0.1407587E+04  0.7818609E-02  0.8948345E-01
       -2   -1    0    0    0  501  0.00000000000E+00  0.00000000000E+00  0.41515331830E+03  0.41515331831E+03  0.25500000920E-02 0.  1.
        2   -1    0    0  501    0  0.00000000000E+00  0.00000000000E+00 -0.11931139651E+04  0.11931139651E+04  0.25500000920E-02 0. -1.
    10030    2    1    2    0    0  0.00000000000E+00  0.00000000000E+00 -0.77796064676E+03  0.16082672834E+04  0.14075869021E+04 0.  0.
        5    1    3    3  502    0 -0.90363232679E+02  0.24886422139E+03 -0.11340241009E+04  0.11645306634E+04  0.46999998093E+01 0. -1.
       -5    1    3    3    0  502  0.90363232679E+02 -0.24886422139E+03  0.35606345417E+03  0.44373661997E+03  0.46999998093E+01 0.  1.
</event>
<event>
 5   0  0.2155352E-04  0.1400855E+04  0.7818609E-02  0.8953200E-01
        1   -1    0    0  501    0  0.00000000000E+00  0.00000000000E+00  0.93710489131E+03  0.93710489132E+03  0.50400001928E-02 0.  1.
       -1   -1    0    0    0  501  0.00000000000E+00  0.00000000000E+00 -0.52352602119E+03  0.52352602121E+03  0.50400001928E-02 0. -1.
    10030    2    1    2    0    0  0.00000000000E+00  0.00000000000E+00  0.41357887013E+03  0.14606309125E+04  0.14008551605E+04 0.  0.
        2    1    3    3  502    0 -0.56434777980E+03 -0.26760930791E+03 -0.12374815548E+03  0.63672345978E+03  0.25500000920E-02 0.  1.
       -2    1    3    3    0  502  0.56434777980E+03  0.26760930791E+03  0.53732702561E+03  0.82390745275E+03  0.25500000920E-02 0. -1.
</event>
<event>
 5   0  0.3932568E-04  0.1400492E+04  0.7818609E-02  0.8953463E-01
        2   -1    0    0  501    0  0.00000000000E+00  0.00000000000E+00  0.64853444844E+03  0.64853444845E+03  0.25500000920E-02 0.  1.
       -2   -1    0    0    0  501  0.00000000000E+00  0.00000000000E+00 -0.75608076819E+03  0.75608076820E+03  0.25500000920E-02 0. -1.
    10030    2    1    2    0    0  0.00000000000E+00  0.00000000000E+00 -0.10754631975E+03  0.14046152166E+04  0.14004919478E+04 0.  0.
        2    1    3    3  502    0  0.38705845689E+03 -0.20807367101E+03 -0.60057139979E+03  0.74417397689E+03  0.25500000920E-02 0. -1.
       -2    1    3    3    0  502 -0.38705845689E+03  0.20807367101E+03  0.49302508004E+03  0.66044123976E+03  0.25500000920E-02 0.  1.
</event>
<event>
 5   0  0.2155352E-04  0.1388160E+04  0.7818609E-02  0.8962434E-01
       -1   -1    0    0    0  501  0.00000000000E+00  0.00000000000E+00  0.46066604760E+03  0.46066604763E+03  0.50400001928E-02 0.  1.
        1   -1    0    0  501    0  0.00000000000E+00  0.00000000000E+00 -0.10457612708E+04  0.10457612709E+04  0.50400001928E-02 0. -1.
    10030    2    1    2    0    0  0.00000000000E+00  0.00000000000E+00 -0.58509522324E+03  0.15064273185E+04  0.13881595174E+04 0.  0.
        2    1    3    3  502    0  0.86498712691E+02  0.36399976434E+03 -0.92696495936E+03  0.99962087395E+03  0.25500000920E-02 0. -1.
       -2    1    3    3    0  502 -0.86498712691E+02 -0.36399976434E+03  0.34186973612E+03  0.50680644454E+03  0.25500000920E-02 0.  1.
</event>
<event>
 5   0  0.3975164E-04  0.1407505E+04  0.7818609E-02  0.8948404E-01
       -2   -1    0    0    0  501  0.00000000000E+00  0.00000000000E+00  0.92278989578E+03  0.92278989579E+03  0.25500000920E-02 0. -1.
        2   -1    0    0  501    0  0.00000000000E+00  0.00000000000E+00 -0.53670703347E+03  0.53670703347E+03  0.25500000920E-02 0.  1.
    10030    2    1    2    0    0  0.00000000000E+00  0.00000000000E+00  0.38608286231E+03  0.14594969293E+04  0.14075053499E+04 0.  0.
        5    1    3    3  502    0 -0.63061856074E+02  0.29363192328E+03 -0.46690249873E+03  0.55517252938E+03  0.46999998093E+01 0.  1.
       -5    1    3    3    0  502  0.63061856074E+02 -0.29363192328E+03  0.85298536105E+03  0.90432439988E+03  0.46999998093E+01 0. -1.
</event>
<event>
 5   0  0.2223112E-04  0.1376018E+04  0.7818609E-02  0.8971363E-01
        1   -1    0    0  501    0  0.00000000000E+00  0.00000000000E+00  0.44152981764E+03  0.44152981767E+03  0.50400001928E-02 0. -1.
       -1   -1    0    0    0  501  0.00000000000E+00  0.00000000000E+00 -0.10720828089E+04  0.10720828089E+04  0.50400001928E-02 0.  1.
    10030    2    1    2    0    0  0.00000000000E+00  0.00000000000E+00 -0.63055299129E+03  0.15136126266E+04  0.13760182080E+04 0.  0.
        1    1    3    3  502    0  0.86442197405E+02  0.57013628692E+03  0.97520413007E+02  0.58484003807E+03  0.50400001928E-02 0. -1.
       -1    1    3    3    0  502 -0.86442197405E+02 -0.57013628692E+03 -0.72807340430E+03  0.92877258854E+03  0.50400001928E-02 0.  1.
</event>
<event>
 5   0  0.2155352E-04  0.1400645E+04  0.7818609E-02  0.8953352E-01
        1   -1    0    0  501    0  0.00000000000E+00  0.00000000000E+00  0.18395686719E+04  0.18395686719E+04  0.50400001928E-02 0. -1.
       -1   -1    0    0    0  501  0.00000000000E+00  0.00000000000E+00 -0.26661212760E+03  0.26661212765E+03  0.50400001928E-02 0.  1.
    10030    2    1    2    0    0  0.00000000000E+00  0.00000000000E+00  0.15729565443E+04  0.21061807995E+04  0.14006445910E+04 0.  0.
        2    1    3    3  502    0 -0.36727025655E+03 -0.54346239466E+03  0.41749129644E+03  0.77752028807E+03  0.25500000920E-02 0. -1.
       -2    1    3    3    0  502  0.36727025655E+03  0.54346239466E+03  0.11554652478E+04  0.13286605115E+04  0.25500000920E-02 0.  1.
</event>
<event>
 5   0  0.2223112E-04  0.1402343E+04  0.7818609E-02  0.8952125E-01
       -1   -1    0    0    0  501  0.00000000000E+00  0.00000000000E+00  0.43504361147E+03  0.43504361150E+03  0.50400001928E-02 0.  1.
        1   -1    0    0  501    0  0.00000000000E+00  0.00000000000E+00 -0.11300962550E+04  0.11300962550E+04  0.50400001928E-02 0. -1.
    10030    2    1    2    0    0  0.00000000000E+00  0.00000000000E+00 -0.69505264354E+03  0.15651398665E+04  0.14023425489E+04 0.  0.
        1    1    3    3  502    0  0.49732519813E+03 -0.40862492591E+03 -0.37152125076E+02  0.64473790271E+03  0.50400001928E-02 0.  1.
       -1    1    3    3    0  502 -0.49732519813E+03  0.40862492591E+03 -0.65790051846E+03  0.92040196381E+03  0.50400001928E-02 0. -1.
</event>
<event>
 5   0  0.3975164E-04  0.1400853E+04  0.7818609E-02  0.8953201E-01
       -2   -1    0    0    0  501  0.00000000000E+00  0.00000000000E+00  0.51878456060E+03  0.51878456061E+03  0.25500000920E-02 0. -1.
        2   -1    0    0  501    0  0.00000000000E+00  0.00000000000E+00 -0.94566674355E+03  0.94566674355E+03  0.25500000920E-02 0.  1.
    10030    2    1    2    0    0  0.00000000000E+00  0.00000000000E+00 -0.42688218295E+03  0.14644513042E+04  0.14008530345E+04 0.  0.
        5    1    3    3  502    0 -0.21101549603E+03  0.81216444328E+02  0.47956630196E+03  0.53021653914E+03  0.46999998093E+01 0. -1.
       -5    1    3    3    0  502  0.21101549603E+03 -0.81216444328E+02 -0.90644848491E+03  0.93423476503E+03  0.46999998093E+01 0.  1.
</event>
<event>
 5   0  0.2217251E-04  0.1399772E+04  0.7818609E-02  0.8953984E-01
       -1   -1    0    0    0  501  0.00000000000E+00  0.00000000000E+00  0.38893984900E+03  0.38893984903E+03  0.50400001928E-02 0.  1.
        1   -1    0    0  501    0  0.00000000000E+00  0.00000000000E+00 -0.12594240222E+04  0.12594240222E+04  0.50400001928E-02 0. -1.
    10030    2    1    2    0    0  0.00000000000E+00  0.00000000000E+00 -0.87048417318E+03  0.16483638712E+04  0.13997716800E+04 0.  0.
        5    1    3    3  502    0  0.30191342559E+03 -0.28954781414E+03 -0.10959855374E+04  0.11731138229E+04  0.46999998093E+01 0. -1.
       -5    1    3    3    0  502 -0.30191342559E+03  0.28954781414E+03  0.22550136420E+03  0.47525004837E+03  0.46999998093E+01 0.  1.
</event>
<event>
 5   0  0.2215876E-04  0.1403914E+04  0.7818609E-02  0.8950990E-01
        1   -1    0    0  501    0  0.00000000000E+00  0.00000000000E+00  0.11006172858E+04  0.11006172858E+04  0.50400001928E-02 0.  1.
       -1   -1    0    0    0  501  0.00000000000E+00  0.00000000000E+00 -0.44769741738E+03  0.44769741741E+03  0.50400001928E-02 0. -1.
    10030    2    1    2    0    0  0.00000000000E+00  0.00000000000E+00  0.65291986837E+03  0.15483147032E+04  0.14039138384E+04 0.  0.
        3    1    3    3  502    0 -0.15164990077E+03  0.30722228941E+03  0.10021428520E+04  0.10590908996E+04  0.10100000352E+00 0.  1.
       -3    1    3    3    0  502  0.15164990077E+03 -0.30722228941E+03 -0.34922298364E+03  0.48922380361E+03  0.10100000352E+00 0. -1.
</event>
<event>
 5   0  0.4310348E-04  0.1406642E+04  0.7818609E-02  0.8949024E-01
        2   -1    0    0  501    0  0.00000000000E+00  0.00000000000E+00  0.15405975635E+04  0.15405975635E+04  0.25500000920E-02 0.  1.
       -2   -1    0    0    0  501  0.00000000000E+00  0.00000000000E+00 -0.32108367334E+03  0.32108367335E+03  0.25500000920E-02 0. -1.
    10030    2    1    2    0    0  0.00000000000E+00  0.00000000000E+00  0.12195138902E+04  0.18616812369E+04  0.14066424206E+04 0.  0.
        1    1    3    3  502    0  0.17534873665E+03 -0.15088028714E+03  0.14888080121E+04  0.15066722727E+04  0.50400001928E-02 0.  1.
       -1    1    3    3    0  502 -0.17534873665E+03  0.15088028714E+03 -0.26929412192E+03  0.35500896414E+03  0.50400001928E-02 0. -1.
</event>
<event>
 5   0  0.2215876E-04  0.1363623E+04  0.7818609E-02  0.8980579E-01
        1   -1    0    0  501    0  0.00000000000E+00  0.00000000000E+00  0.10140760765E+04  0.10140760765E+04  0.50400001928E-02 0. -1.
       -1   -1    0    0    0  501  0.00000000000E+00  0.00000000000E+00 -0.45841414432E+03  0.45841414435E+03  0.50400001928E-02 0.  1.
    10030    2    1    2    0    0  0.00000000000E+00  0.00000000000E+00  0.55566193217E+03  0.14724902208E+04  0.13636228465E+04 0.  0.
        3    1    3    3  502    0  0.12851311455E+02 -0.29494544478E+03 -0.38581540221E+03  0.48581015468E+03  0.10100000352E+00 0.  1.
       -3    1    3    3    0  502 -0.12851311455E+02  0.29494544478E+03  0.94147733438E+03  0.98668006616E+03  0.10100000352E+00 0. -1.
</event>
<event>
 5   0  0.3917598E-04  0.1399364E+04  0.7818609E-02  0.8954279E-01
       -2   -1    0    0    0  501  0.00000000000E+00  0.00000000000E+00  0.49898938603E+03  0.49898938603E+03  0.25500000920E-02 0.  1.
        2   -1    0    0  501    0  0.00000000000E+00  0.00000000000E+00 -0.98109229232E+03  0.98109229232E+03  0.25500000920E-02 0. -1.
    10030    2    1    2    0    0  0.00000000000E+00  0.00000000000E+00 -0.48210290629E+03  0.14800816784E+04  0.13993636276E+04 0.  0.
        3    1    3    3  502    0  0.52687598956E+03  0.63755018789E+02 -0.72330295900E+03  0.89712328668E+03  0.10100000352E+00 0. -1.
       -3    1    3    3    0  502 -0.52687598956E+03 -0.63755018789E+02  0.24120005272E+03  0.58295839168E+03  0.10100000352E+00 0.  1.
</event>
<event>
 5   0  0.2223112E-04  0.1359080E+04  0.7818609E-02  0.8983983E-01
        1   -1    0    0  501    0  0.00000000000E+00  0.00000000000E+00  0.66338616744E+03  0.66338616745E+03  0.50400001928E-02 0. -1.
       -1   -1    0    0    0  501  0.00000000000E+00  0.00000000000E+00 -0.69608738732E+03  0.69608738734E+03  0.50400001928E-02 0.  1.
    10030    2    1    2    0    0  0.00000000000E+00  0.00000000000E+00 -0.32701219886E+02  0.13594735548E+04  0.13590801950E+04 0.  0.
        1    1    3    3  502    0  0.15107415510E+03 -0.12999076107E+03 -0.66619527748E+03  0.69536835279E+03  0.50400001928E-02 0.  1.
       -1    1    3    3    0  502 -0.15107415510E+03  0.12999076107E+03  0.63349405759E+03  0.66410520201E+03  0.50400001928E-02 0. -1.
</event>
<event>
 5   0  0.2223112E-04  0.1401147E+04  0.7818609E-02  0.8952989E-01
       -1   -1    0    0    0  501  0.00000000000E+00  0.00000000000E+00  0.32243769337E+03  0.32243769341E+03  0.50400001928E-02 0.  1.
        1   -1    0    0  501    0  0.00000000000E+00  0.00000000000E+00 -0.15221643616E+04  0.15221643616E+04  0.50400001928E-02 0. -1.
    10030    2    1    2    0    0  0.00000000000E+00  0.00000000000E+00 -0.11997266682E+04  0.18446020550E+04  0.14011469098E+04 0.  0.
        1    1    3    3  502    0 -0.23466470076E+03 -0.40421435403E+03  0.87173203710E+02  0.47545339757E+03  0.50400001928E-02 0.  1.
       -1    1    3    3    0  502  0.23466470076E+03  0.40421435403E+03 -0.12868998719E+04  0.13691486574E+04  0.50400001928E-02 0. -1.
</event>
<event>
 5   0  0.4310348E-04  0.1361655E+04  0.7818609E-02  0.8982052E-01
        2   -1    0    0  501    0  0.00000000000E+00  0.00000000000E+00  0.98420407344E+03  0.98420407345E+03  0.25500000920E-02 0.  1.
       -2   -1    0    0    0  501  0.00000000000E+00  0.00000000000E+00 -0.47096529048E+03  0.47096529049E+03  0.25500000920E-02 0. -1.
    10030    2    1    2    0    0  0.00000000000E+00  0.00000000000E+00  0.51323878296E+03  0.14551693639E+04  0.13616548129E+04 0.  0.
        1    1    3    3  502    0 -0.61242093664E+03 -0.23143624731E+03  0.45627567358E+03  0.79800352790E+03  0.50400001928E-02 0.  1.
       -1    1    3    3    0  502  0.61242093664E+03  0.23143624731E+03  0.56963109378E+02  0.65716583604E+03  0.50400001928E-02 0. -1.
</event>
<event>
 5   0  0.2215876E-04  0.1386533E+04  0.7818609E-02  0.8963625E-01
       -1   -1    0    0    0  501  0.00000000000E+00  0.00000000000E+00  0.32463106066E+03  0.32463106070E+03  0.50400001928E-02 0. -1.
        1   -1    0    0  501    0  0.00000000000E+00  0.00000000000E+00 -0.14805056533E+04  0.14805056533E+04  0.50400001928E-02 0.  1.
    10030    2    1    2    0    0  0.00000000000E+00  0.00000000000E+00 -0.11558745926E+04  0.18051367140E+04  0.13865325392E+04 0.  0.
        3    1    3    3  502    0  0.69293877866E+03  0.18663986526E+02 -0.59131688902E+03  0.91113564786E+03  0.10100000352E+00 0. -1.
       -3    1    3    3    0  502 -0.69293877866E+03 -0.18663986526E+02 -0.56455770363E+03  0.89400106616E+03  0.10100000352E+00 0.  1.
</event>
<event>
 5   0  0.2223112E-04  0.1409719E+04  0.7818609E-02  0.8946813E-01
       -1   -1    0    0    0  501  0.00000000000E+00  0.00000000000E+00  0.70093310899E+03  0.70093310900E+03  0.50400001928E-02 0. -1.
        1   -1    0    0  501    0  0.00000000000E+00  0.00000000000E+00 -0.70880768668E+03  0.70880768670E+03  0.50400001928E-02 0.  1.
    10030    2    1    2    0    0  0.00000000000E+00  0.00000000000E+00 -0.78745776907E+01  0.14097407957E+04  0.14097188025E+04 0.  0.
        1    1    3    3  502    0 -0.50069411337E+03 -0.23571792832E+03 -0.44048646688E+03  0.70730888897E+03  0.50400001928E-02 0.  1.
       -1    1    3    3    0  502  0.50069411337E+03  0.23571792832E+03  0.43261188919E+03  0.70243190673E+03  0.50400001928E-02 0. -1.
</event>
<event>
 5   0  0.3917598E-04  0.1399391E+04  0.7818609E-02  0.8954260E-01
        2   -1    0    0  501    0  0.00000000000E+00  0.00000000000E+00  0.14038955540E+04  0.14038955540E+04  0.25500000920E-02 0. -1.
       -2   -1    0    0    0  501  0.00000000000E+00  0.00000000000E+00 -0.34872509975E+03  0.34872509975E+03  0.25500000920E-02 0.  1.
    10030    2    1    2    0    0  0.00000000000E+00  0.00000000000E+00  0.10551704542E+04  0.17526206537E+04  0.13993907490E+04 0.  0.
        3    1    3    3  502    0  0.27705635446E+02  0.52310537086E+03  0.11085322530E+04  0.12260712040E+04  0.10100000352E+00 0. -1.
       -3    1    3    3    0  502 -0.27705635446E+02 -0.52310537086E+03 -0.53361798706E+02  0.52654944974E+03  0.10100000352E+00 0.  1.
</event>
<event>
 5   0  0.3975164E-04  0.1400527E+04  0.7818609E-02  0.8953437E-01
        2   -1    0    0  501    0  0.00000000000E+00  0.00000000000E+00  0.69908683947E+03  0.69908683948E+03  0.25500000920E-02 0.  1.
       -2   -1    0    0    0  501  0.00000000000E+00  0.00000000000E+00 -0.70144178657E+03  0.70144178657E+03  0.25500000920E-02 0. -1.
    10030    2    1    2    0    0  0.00000000000E+00  0.00000000000E+00 -0.23549470955E+01  0.14005286260E+04  0.14005266462E+04 0.  0.
        5    1    3    3  502    0  0.25837162036E+03 -0.60000728670E+03 -0.25333253123E+03  0.70068830423E+03  0.46999998093E+01 0. -1.
       -5    1    3    3    0  502 -0.25837162036E+03  0.60000728670E+03  0.25097758414E+03  0.69984032182E+03  0.46999998093E+01 0.  1.
</event>
<event>
 5   0  0.3932568E-04  0.1391557E+04  0.7818609E-02  0.8959953E-01
       -2   -1    0    0    0  501  0.00000000000E+00  0.00000000000E+00  0.98831971046E+03  0.98831971046E+03  0.25500000920E-02 0. -1.
        2   -1    0    0  501    0  0.00000000000E+00  0.00000000000E+00 -0.48982891159E+03  0.48982891160E+03  0.25500000920E-02 0.  1.
    10030    2    1    2    0    0  0.00000000000E+00  0.00000000000E+00  0.49849079887E+03  0.14781486221E+04  0.13915567801E+04 0.  0.
        2    1    3    3  502    0 -0.31600204043E+03 -0.16685522647E+03 -0.38490442292E+03  0.52521364315E+03  0.25500000920E-02 0.  1.
       -2    1    3    3    0  502  0.31600204043E+03  0.16685522647E+03  0.88339522179E+03  0.95293497892E+03  0.25500000920E-02 0. -1.
</event>
<event>
 5   0  0.3932568E-04  0.1389274E+04  0.7818609E-02  0.8961619E-01
       -2   -1    0    0    0  501  0.00000000000E+00  0.00000000000E+00  0.38302909546E+03  0.38302909546E+03  0.25500000920E-02 0. -1.
        2   -1    0    0  501    0  0.00000000000E+00  0.00000000000E+00 -0.12597494158E+04  0.12597494158E+04  0.25500000920E-02 0.  1.
    10030    2    1    2    0    0  0.00000000000E+00  0.00000000000E+00 -0.87672032030E+03  0.16427785112E+04  0.13892741691E+04 0.  0.
        2    1    3    3  502    0 -0.49750145507E+03 -0.21168868608E+03  0.77340058125E+02  0.54616964600E+03  0.25500000920E-02 0.  1.
       -2    1    3    3    0  502  0.49750145507E+03  0.21168868608E+03 -0.95406037842E+03  0.10966088652E+04  0.25500000920E-02 0. -1.
</event>
<event>
 5   0  0.3917598E-04  0.1400367E+04  0.7818609E-02  0.8953553E-01
        2   -1    0    0  501    0  0.00000000000E+00  0.00000000000E+00  0.87110678650E+03  0.87110678650E+03  0.25500000920E-02 0. -1.
       -2   -1    0    0    0  501  0.00000000000E+00  0.00000000000E+00 -0.56279744898E+03  0.56279744899E+03  0.25500000920E-02 0.  1.
    10030    2    1    2    0    0  0.00000000000E+00  0.00000000000E+00  0.30830933751E+03  0.14339042355E+04  0.14003666338E+04 0.  0.
        3    1    3    3  502    0 -0.47608118742E+03  0.16311960126E+03  0.65263533657E+03  0.82413238868E+03  0.10100000352E+00 0. -1.
       -3    1    3    3    0  502  0.47608118742E+03 -0.16311960126E+03 -0.34432599905E+03  0.60977184681E+03  0.10100000352E+00 0.  1.
</event>
<event>
 5   0  0.2155352E-04  0.1347062E+04  0.7818609E-02  0.8993055E-01
        1   -1    0    0  501    0  0.00000000000E+00  0.00000000000E+00  0.94414824964E+03  0.94414824965E+03  0.50400001928E-02 0. -1.
       -1   -1    0    0    0  501  0.00000000000E+00  0.00000000000E+00 -0.48047967397E+03  0.48047967400E+03  0.50400001928E-02 0.  1.
    10030    2    1    2    0    0  0.00000000000E+00  0.00000000000E+00  0.46366857566E+03  0.14246279236E+04  0.13470620523E+04 0.  0.
        2    1    3    3  502    0 -0.11823443584E+03 -0.65304514659E+03  0.35332595390E+03  0.75185542162E+03  0.25500000920E-02 0.  1.
       -2    1    3    3    0  502  0.11823443584E+03  0.65304514659E+03  0.11034262176E+03  0.67277250203E+03  0.25500000920E-02 0. -1.
</event>
<event>
 5   0  0.4310348E-04  0.1401887E+04  0.7818609E-02  0.8952454E-01
       -2   -1    0    0    0  501  0.00000000000E+00  0.00000000000E+00  0.47642714174E+03  0.47642714174E+03  0.25500000920E-02 0. -1.
        2   -1    0    0  501    0  0.00000000000E+00  0.00000000000E+00 -0.10312627885E+04  0.10312627885E+04  0.25500000920E-02 0.  1.
    10030    2    1    2    0    0  0.00000000000E+00  0.00000000000E+00 -0.55483564673E+03  0.15076899302E+04  0.14018867040E+04 0.  0.
        1    1    3    3  502    0  0.84651813280E+02  0.64660249797E+03 -0.55383895351E+03  0.85556899565E+03  0.50400001928E-02 0.  1.
       -1    1    3    3    0  502 -0.84651813280E+02 -0.64660249797E+03 -0.99669322345E+00  0.65212093456E+03  0.50400001928E-02 0. -1.
</event>
<event>
 5   0  0.2215876E-04  0.1403600E+04  0.7818609E-02  0.8951217E-01
        1   -1    0    0  501    0  0.00000000000E+00  0.00000000000E+00  0.14701664865E+04  0.14701664865E+04  0.50400001928E-02 0. -1.
       -1   -1    0    0    0  501  0.00000000000E+00  0.00000000000E+00 -0.33501191789E+03  0.33501191793E+03  0.50400001928E-02 0.  1.
    10030    2    1    2    0    0  0.00000000000E+00  0.00000000000E+00  0.11351545686E+04  0.18051784045E+04  0.14036000774E+04 0.  0.
        3    1    3    3  502    0 -0.34441867181E+03  0.59507931550E+03  0.74845550469E+03  0.10163312776E+04  0.10100000352E+00 0.  1.
       -3    1    3    3    0  502  0.34441867181E+03 -0.59507931550E+03  0.38669906396E+03  0.78884712682E+03  0.10100000352E+00 0. -1.
</event>
<event>
 5   0  0.2215876E-04  0.1402408E+04  0.7818609E-02  0.8952078E-01
       -1   -1    0    0    0  501  0.00000000000E+00  0.00000000000E+00  0.52381433258E+03  0.52381433261E+03  0.50400001928E-02 0. -1.
        1   -1    0    0  501    0  0.00000000000E+00  0.00000000000E+00 -0.93866619501E+03  0.93866619502E+03  0.50400001928E-02 0.  1.
    10030    2    1    2    0    0  0.00000000000E+00  0.00000000000E+00 -0.41485186242E+03  0.14624805276E+04  0.14024076533E+04 0.  0.
        3    1    3    3  502    0  0.34041817566E+03  0.42117345728E+03 -0.67194470162E+03  0.86300713072E+03  0.10100000352E+00 0.  1.
       -3    1    3    3    0  502 -0.34041817566E+03 -0.42117345728E+03  0.25709283920E+03  0.59947339691E+03  0.10100000352E+00 0. -1.
</event>
<event>
 5   0  0.2143942E-04  0.1399725E+04  0.7818609E-02  0.8954018E-01
        1   -1    0    0  501    0  0.00000000000E+00  0.00000000000E+00  0.12021149571E+04  0.12021149571E+04  0.50400001928E-02 0.  1.
       -1   -1    0    0    0  501  0.00000000000E+00  0.00000000000E+00 -0.40745480207E+03  0.40745480210E+03  0.50400001928E-02 0. -1.
    10030    2    1    2    0    0  0.00000000000E+00  0.00000000000E+00  0.79466015503E+03  0.16095697592E+04  0.13997249901E+04 0.  0.
        4    1    3    3  502    0 -0.43049674095E+03 -0.33937872813E+03 -0.10298432724E+03  0.55777481983E+03  0.12699999809E+01 0. -1.
       -4    1    3    3    0  502  0.43049674095E+03  0.33937872813E+03  0.89764448227E+03  0.10517949394E+04  0.12699999809E+01 0.  1.
</event>
<event>
 5   0  0.4208622E-04  0.1402167E+04  0.7818609E-02  0.8952252E-01
        2   -1    0    0  501    0  0.00000000000E+00  0.00000000000E+00  0.92032686575E+03  0.92032686575E+03  0.25500000920E-02 0. -1.
       -2   -1    0    0    0  501  0.00000000000E+00  0.00000000000E+00 -0.53406885671E+03  0.53406885672E+03  0.25500000920E-02 0.  1.
    10030    2    1    2    0    0  0.00000000000E+00  0.00000000000E+00  0.38625800904E+03  0.14543957225E+04  0.14021667761E+04 0.  0.
        4    1    3    3  502    0  0.14202031748E+03  0.39214968190E+03  0.77764895861E+03  0.88243450710E+03  0.12699999809E+01 0. -1.
       -4    1    3    3    0  502 -0.14202031748E+03 -0.39214968190E+03 -0.39139094957E+03  0.57196121538E+03  0.12699999809E+01 0.  1.
</event>
<event>
 5   0  0.2215876E-04  0.1398870E+04  0.7818609E-02  0.8954637E-01
       -1   -1    0    0    0  501  0.00000000000E+00  0.00000000000E+00  0.12944018649E+04  0.12944018649E+04  0.50400001928E-02 0.  1.
        1   -1    0    0  501    0  0.00000000000E+00  0.00000000000E+00 -0.37794243474E+03  0.37794243477E+03  0.50400001928E-02 0. -1.
    10030    2    1    2    0    0  0.00000000000E+00  0.00000000000E+00  0.91645943014E+03  0.16723442997E+04  0.13988701046E+04 0.  0.
        3    1    3    3  502    0  0.69546634056E+03 -0.56274373009E+02  0.51641916378E+03  0.86806048108E+03  0.10100000352E+00 0.  1.
       -3    1    3    3    0  502 -0.69546634056E+03  0.56274373009E+02  0.40004026636E+03  0.80428381857E+03  0.10100000352E+00 0. -1.
</event>
<event>
 5   0  0.3975164E-04  0.1398905E+04  0.7818609E-02  0.8954611E-01
       -2   -1    0    0    0  501  0.00000000000E+00  0.00000000000E+00  0.82724326683E+03  0.82724326683E+03  0.25500000920E-02 0.  1.
        2   -1    0    0  501    0  0.00000000000E+00  0.00000000000E+00 -0.59140295162E+03  0.59140295163E+03  0.25500000920E-02 0. -1.
    10030    2    1    2    0    0  0.00000000000E+00  0.00000000000E+00  0.23584031520E+03  0.14186462185E+04  0.13989054432E+04 0.  0.
        5    1    3    3  502    0 -0.32237340712E+03 -0.10524320230E+03  0.73828071675E+03  0.81245384606E+03  0.46999998093E+01 0.  1.
       -5    1    3    3    0  502  0.32237340712E+03  0.10524320230E+03 -0.50244040155E+03  0.60619237240E+03  0.46999998093E+01 0. -1.
</event>
<event>
 5   0  0.2215876E-04  0.1397744E+04  0.7818609E-02  0.8955453E-01
        1   -1    0    0  501    0  0.00000000000E+00  0.00000000000E+00  0.10702747650E+04  0.10702747650E+04  0.50400001928E-02 0. -1.
       -1   -1    0    0    0  501  0.00000000000E+00  0.00000000000E+00 -0.45635187481E+03  0.45635187484E+03  0.50400001928E-02 0.  1.
    10030    2    1    2    0    0  0.00000000000E+00  0.00000000000E+00  0.61392289017E+03  0.15266266398E+04  0.13977437470E+04 0.  0.
        3    1    3    3  502    0  0.53298644031E+03  0.22379442442E+03 -0.12201823564E+03  0.59080195496E+03  0.10100000352E+00 0.  1.
       -3    1    3    3    0  502 -0.53298644031E+03 -0.22379442442E+03  0.73594112581E+03  0.93582468487E+03  0.10100000352E+00 0. -1.
</event>
<event>
 5   0  0.4310348E-04  0.1425227E+04  0.7818609E-02  0.8935758E-01
       -2   -1    0    0    0  501  0.00000000000E+00  0.00000000000E+00  0.71664322351E+03  0.71664322351E+03  0.25500000920E-02 0. -1.
        2   -1    0    0  501    0  0.00000000000E+00  0.00000000000E+00 -0.70860668534E+03  0.70860668535E+03  0.25500000920E-02 0.  1.
    10030    2    1    2    0    0  0.00000000000E+00  0.00000000000E+00  0.80365381663E+01  0.14252499089E+04  0.14252272509E+04 0.  0.
        1    1    3    3  502    0  0.50884339129E+03  0.37057278793E+03 -0.33001157791E+03  0.71074146466E+03  0.50400001928E-02 0.  1.
       -1    1    3    3    0  502 -0.50884339129E+03 -0.37057278793E+03  0.33804811607E+03  0.71450844419E+03  0.50400001928E-02 0. -1.
</event>
<event>
 5   0  0.2215876E-04  0.1391852E+04  0.7818609E-02  0.8959738E-01
        1   -1    0    0  501    0  0.00000000000E+00  0.00000000000E+00  0.63894370155E+03  0.63894370157E+03  0.50400001928E-02 0.  1.
       -1   -1    0    0    0  501  0.00000000000E+00  0.00000000000E+00 -0.75798989069E+03  0.75798989071E+03  0.50400001928E-02 0. -1.
    10030    2    1    2    0    0  0.00000000000E+00  0.00000000000E+00 -0.11904618914E+03  0.13969335923E+04  0.13918518118E+04 0.  0.
        3    1    3    3  502    0  0.57376704206E+03  0.11200746555E+02  0.33558768848E+03  0.66479559425E+03  0.10100000352E+00 0.  1.
       -3    1    3    3    0  502 -0.57376704206E+03 -0.11200746555E+02 -0.45463387762E+03  0.73213799803E+03  0.10100000352E+00 0. -1.
</event>
<event>
 5   0  0.3975164E-04  0.1401881E+04  0.7818609E-02  0.8952458E-01
       -2   -1    0    0    0  501  0.00000000000E+00  0.00000000000E+00  0.67309536809E+03  0.67309536809E+03  0.25500000920E-02 0.  1.
        2   -1    0    0  501    0  0.00000000000E+00  0.00000000000E+00 -0.72993759141E+03  0.72993759141E+03  0.25500000920E-02 0. -1.
    10030    2    1    2    0    0  0.00000000000E+00  0.00000000000E+00 -0.56842223324E+02  0.14030329595E+04  0.14018810389E+04 0.  0.
        5    1    3    3  502    0  0.29531143387E+03  0.56318856464E+03  0.26661820390E+03  0.68956331033E+03  0.46999998093E+01 0. -1.
       -5    1    3    3    0  502 -0.29531143387E+03 -0.56318856464E+03 -0.32346042722E+03  0.71346964917E+03  0.46999998093E+01 0.  1.
</event>
<event>
 5   0  0.3917598E-04  0.1398275E+04  0.7818609E-02  0.8955068E-01
       -2   -1    0    0    0  501  0.00000000000E+00  0.00000000000E+00  0.47464312533E+03  0.47464312534E+03  0.25500000920E-02 0. -1.
        2   -1    0    0  501    0  0.00000000000E+00  0.00000000000E+00 -0.10298118382E+04  0.10298118382E+04  0.25500000920E-02 0.  1.
    10030    2    1    2    0    0  0.00000000000E+00  0.00000000000E+00 -0.55516871289E+03  0.15044549636E+04  0.13982748076E+04 0.  0.
        3    1    3    3  502    0 -0.16713648881E+03  0.29799495973E+03  0.37869945031E+03  0.51004792499E+03  0.10100000352E+00 0. -1.
       -3    1    3    3    0  502  0.16713648881E+03 -0.29799495973E+03 -0.93386816320E+03  0.99440703857E+03  0.10100000352E+00 0.  1.
</event>
<event>
 5   0  0.3917598E-04  0.1405725E+04  0.7818609E-02  0.8949685E-01
        2   -1    0    0  501    0  0.00000000000E+00  0.00000000000E+00  0.12676550251E+04  0.12676550251E+04  0.25500000920E-02 0.  1.
       -2   -1    0    0    0  501  0.00000000000E+00  0.00000000000E+00 -0.38970831560E+03  0.38970831561E+03  0.25500000920E-02 0. -1.
    10030    2    1    2    0    0  0.00000000000E+00  0.00000000000E+00  0.87794670950E+03  0.16573633407E+04  0.14057250152E+04 0.  0.
        3    1    3    3  502    0  0.18405467054E+03  0.93548597868E+02 -0.35314936812E+03  0.40907450216E+03  0.10100000352E+00 0. -1.
       -3    1    3    3    0  502 -0.18405467054E+03 -0.93548597868E+02  0.12310960776E+04  0.12482888385E+04  0.10100000352E+00 0.  1.
</event>
<event>
 5   0  0.2223112E-04  0.1400259E+04  0.7818609E-02  0.8953631E-01
        1   -1    0    0  501    0  0.00000000000E+00  0.00000000000E+00  0.11549510292E+04  0.11549510292E+04  0.50400001928E-02 0.  1.
       -1   -1    0    0    0  501  0.00000000000E+00  0.00000000000E+00 -0.42441748492E+03  0.42441748495E+03  0.50400001928E-02 0. -1.
    10030    2    1    2    0    0  0.00000000000E+00  0.00000000000E+00  0.73053354425E+03  0.15793685141E+04  0.14002591346E+04 0.  0.
        1    1    3    3  502    0  0.27947963738E+03 -0.60063821051E+03  0.62074879082E+03  0.90785692098E+03  0.50400001928E-02 0.  1.
       -1    1    3    3    0  502 -0.27947963738E+03  0.60063821051E+03  0.10978475344E+03  0.67151159316E+03  0.50400001928E-02 0. -1.
</event>
<event>
 5   0  0.2143942E-04  0.1404583E+04  0.7818609E-02  0.8950508E-01
        1   -1    0    0  501    0  0.00000000000E+00  0.00000000000E+00  0.11074855202E+04  0.11074855202E+04  0.50400001928E-02 0. -1.
       -1   -1    0    0    0  501  0.00000000000E+00  0.00000000000E+00 -0.44534489439E+03  0.44534489441E+03  0.50400001928E-02 0.  1.
    10030    2    1    2    0    0  0.00000000000E+00  0.00000000000E+00  0.66214062585E+03  0.15528304147E+04  0.14045825317E+04 0.  0.
        4    1    3    3  502    0 -0.14330207017E+03 -0.60877284813E+03  0.68427715729E+03  0.92702573039E+03  0.12699999809E+01 0. -1.
       -4    1    3    3    0  502  0.14330207017E+03  0.60877284813E+03 -0.22136531434E+02  0.62580468427E+03  0.12699999809E+01 0.  1.
</event>
<event>
 5   0  0.2223112E-04  0.1403270E+04  0.7818609E-02  0.8951455E-01
        1   -1    0    0  501    0  0.00000000000E+00  0.00000000000E+00  0.11723123719E+04  0.11723123719E+04  0.50400001928E-02 0.  1.
       -1   -1    0    0    0  501  0.00000000000E+00  0.00000000000E+00 -0.41993187899E+03  0.41993187902E+03  0.50400001928E-02 0. -1.
    10030    2    1    2    0    0  0.00000000000E+00  0.00000000000E+00  0.75238049291E+03  0.15922442509E+04  0.14032695210E+04 0.  0.
        1    1    3    3  502    0  0.21727477620E+03 -0.35665762702E+03 -0.26354321794E+03  0.49382994951E+03  0.50400001928E-02 0. -1.
       -1    1    3    3    0  502 -0.21727477620E+03  0.35665762702E+03  0.10159237109E+04  0.10984143014E+04  0.50400001928E-02 0.  1.
</event>
<event>
 5   0  0.1497625E-04  0.1396641E+04  0.7818609E-02  0.8956254E-01
       -3   -1    0    0    0  501  0.00000000000E+00  0.00000000000E+00  0.45699094559E+03  0.45699095675E+03  0.10100000352E+00 0.  1.
        3   -1    0    0  501    0  0.00000000000E+00  0.00000000000E+00 -0.10670918598E+04  0.10670918646E+04  0.10100000352E+00 0. -1.
    10030    2    1    2    0    0  0.00000000000E+00  0.00000000000E+00 -0.61010091418E+03  0.15240828213E+04  0.13966407271E+04 0.  0.
        4    1    3    3  502    0  0.93272881483E+02 -0.29939437553E+02 -0.10595554612E+04  0.10640749920E+04  0.12699999809E+01 0. -1.
       -4    1    3    3    0  502 -0.93272881483E+02  0.29939437553E+02  0.44945454699E+03  0.46000782934E+03  0.12699999809E+01 0.  1.
</event>
<event>
 5   0  0.2217251E-04  0.1418350E+04  0.7818609E-02  0.8940642E-01
       -1   -1    0    0    0  501  0.00000000000E+00  0.00000000000E+00  0.48257991223E+03  0.48257991226E+03  0.50400001928E-02 0. -1.
        1   -1    0    0  501    0  0.00000000000E+00  0.00000000000E+00 -0.10421670608E+04  0.10421670608E+04  0.50400001928E-02 0.  1.
    10030    2    1    2    0    0  0.00000000000E+00  0.00000000000E+00 -0.55958714854E+03  0.15247469730E+04  0.14183495884E+04 0.  0.
        5    1    3    3  502    0  0.56014776984E+03 -0.49026188152E+01  0.18770474332E+03  0.59080006804E+03  0.46999998093E+01 0.  1.
       -5    1    3    3    0  502 -0.56014776984E+03  0.49026188152E+01 -0.74729189186E+03  0.93394690500E+03  0.46999998093E+01 0. -1.
</event>
<event>
 5   0  0.2143942E-04  0.1320103E+04  0.7818609E-02  0.9013774E-01
       -1   -1    0    0    0  501  0.00000000000E+00  0.00000000000E+00  0.30215459041E+03  0.30215459046E+03  0.50400001928E-02 0. -1.
        1   -1    0    0  501    0  0.00000000000E+00  0.00000000000E+00 -0.14418710860E+04  0.14418710860E+04  0.50400001928E-02 0.  1.
    10030    2    1    2    0    0  0.00000000000E+00  0.00000000000E+00 -0.11397164956E+04  0.17440256765E+04  0.13201029770E+04 0.  0.
        4    1    3    3  502    0 -0.28374039537E+02 -0.52455114069E+03 -0.10978261763E+04  0.12170385826E+04  0.12699999809E+01 0.  1.
       -4    1    3    3    0  502  0.28374039537E+02  0.52455114069E+03 -0.41890319279E+02  0.52698709384E+03  0.12699999809E+01 0. -1.
</event>
<event>
 5   0  0.2155352E-04  0.1397841E+04  0.7818609E-02  0.8955383E-01
       -1   -1    0    0    0  501  0.00000000000E+00  0.00000000000E+00  0.60296111736E+03  0.60296111738E+03  0.50400001928E-02 0. -1.
        1   -1    0    0  501    0  0.00000000000E+00  0.00000000000E+00 -0.81015149865E+03  0.81015149866E+03  0.50400001928E-02 0.  1.
    10030    2    1    2    0    0  0.00000000000E+00  0.00000000000E+00 -0.20719038129E+03  0.14131126160E+04  0.13978409822E+04 0.  0.
        2    1    3    3  502    0  0.13148351482E+03  0.65870484311E+03 -0.29886309264E+03  0.73518646149E+03  0.25500000920E-02 0.  1.
       -2    1    3    3    0  502 -0.13148351482E+03 -0.65870484311E+03  0.91672711355E+02  0.67792615455E+03  0.25500000920E-02 0. -1.
</event>
<event>
 5   0  0.3932568E-04  0.1388639E+04  0.7818609E-02  0.8962084E-01
        2   -1    0    0  501    0  0.00000000000E+00  0.00000000000E+00  0.94517627463E+03  0.94517627464E+03  0.25500000920E-02 0.  1.
       -2   -1    0    0    0  501  0.00000000000E+00  0.00000000000E+00 -0.51004168597E+03  0.51004168598E+03  0.25500000920E-02 0. -1.
    10030    2    1    2    0    0  0.00000000000E+00  0.00000000000E+00  0.43513458866E+03  0.14552179606E+04  0.13886386148E+04 0.  0.
        2    1    3    3  502    0 -0.41839233948E+03 -0.54854265135E+03  0.13553174232E+03  0.70307897371E+03  0.25500000920E-02 0. -1.
       -2    1    3    3    0  502  0.41839233948E+03  0.54854265135E+03  0.29960284634E+03  0.75213898691E+03  0.25500000920E-02 0.  1.
</event>
<event>
 5   0  0.2217251E-04  0.1411191E+04  0.7818609E-02  0.8945758E-01
       -1   -1    0    0    0  501  0.00000000000E+00  0.00000000000E+00  0.72493553611E+03  0.72493553613E+03  0.50400001928E-02 0. -1.
        1   -1    0    0  501    0  0.00000000000E+00  0.00000000000E+00 -0.68677106502E+03  0.68677106504E+03  0.50400001928E-02 0.  1.
    10030    2    1    2    0    0  0.00000000000E+00  0.00000000000E+00  0.38164471085E+02  0.14117066012E+04  0.14111906324E+04 0.  0.
        5    1    3    3  502    0 -0.63509722554E+03  0.15189809959E+03 -0.24826281897E+03  0.69862581961E+03  0.46999998093E+01 0.  1.
       -5    1    3    3    0  502  0.63509722554E+03 -0.15189809959E+03  0.28642729006E+03  0.71308078156E+03  0.46999998093E+01 0. -1.
</event>
<event>
 5   0  0.2215876E-04  0.1406920E+04  0.7818609E-02  0.8948824E-01
        1   -1    0    0  501    0  0.00000000000E+00  0.00000000000E+00  0.11223300175E+04  0.11223300175E+04  0.50400001928E-02 0. -1.
       -1   -1    0    0    0  501  0.00000000000E+00  0.00000000000E+00 -0.44091864366E+03  0.44091864369E+03  0.50400001928E-02 0.  1.
    10030    2    1    2    0    0  0.00000000000E+00  0.00000000000E+00  0.68141137381E+03  0.15632486612E+04  0.14069203660E+04 0.  0.
        3    1    3    3  502    0 -0.69289029965E+03 -0.12075429058E+03  0.35551533049E+03  0.78807977163E+03  0.10100000352E+00 0.  1.
       -3    1    3    3    0  502  0.69289029965E+03  0.12075429058E+03  0.32589604332E+03  0.77516888953E+03  0.10100000352E+00 0. -1.
</event>
<event>
 5   0  0.3932568E-04  0.1403705E+04  0.7818609E-02  0.8951141E-01
        2   -1    0    0  501    0  0.00000000000E+00  0.00000000000E+00  0.92986208502E+03  0.92986208502E+03  0.25500000920E-02 0. -1.
       -2   -1    0    0    0  501  0.00000000000E+00  0.00000000000E+00 -0.52975286464E+03  0.52975286465E+03  0.25500000920E-02 0.  1.
    10030    2    1    2    0    0  0.00000000000E+00  0.00000000000E+00  0.40010922038E+03  0.14596149497E+04  0.14037052444E+04 0.  0.
        2    1    3    3  502    0 -0.45449794325E+03 -0.23650957295E+02  0.75562888404E+03  0.88210133125E+03  0.25500000920E-02 0. -1.
       -2    1    3    3    0  502  0.45449794325E+03  0.23650957295E+02 -0.35551966366E+03  0.57751361841E+03  0.25500000920E-02 0.  1.
</event>
<event>
 5   0  0.2155352E-04  0.1408108E+04  0.7818609E-02  0.8947970E-01
        1   -1    0    0  501    0  0.00000000000E+00  0.00000000000E+00  0.86547584612E+03  0.86547584613E+03  0.50400001928E-02 0.  1.
       -1   -1    0    0    0  501  0.00000000000E+00  0.00000000000E+00 -0.57273939342E+03  0.57273939344E+03  0.50400001928E-02 0. -1.
    10030    2    1    2    0    0  0.00000000000E+00  0.00000000000E+00  0.29273645269E+03  0.14382152396E+04  0.14081081083E+04 0.  0.
        2    1    3    3  502    0  0.47533598151E+03  0.36511314046E+03 -0.23090768545E+03  0.64231632383E+03  0.25500000920E-02 0. -1.
       -2    1    3    3    0  502 -0.47533598151E+03 -0.36511314046E+03  0.52364413814E+03  0.79589891574E+03  0.25500000920E-02 0.  1.
</event>
<event>
 5   0  0.2217251E-04  0.1405181E+04  0.7818609E-02  0.8950076E-01
        1   -1    0    0  501    0  0.00000000000E+00  0.00000000000E+00  0.82990059648E+03  0.82990059650E+03  0.50400001928E-02 0. -1.
       -1   -1    0    0    0  501  0.00000000000E+00  0.00000000000E+00 -0.59481068690E+03  0.59481068693E+03  0.50400001928E-02 0.  1.
    10030    2    1    2    0    0  0.00000000000E+00  0.00000000000E+00  0.23508990958E+03  0.14247112834E+04  0.14051814742E+04 0.  0.
        5    1    3    3  502    0 -0.46881157689E+03 -0.45315598292E+03 -0.14777313191E+03  0.66857582068E+03  0.46999998093E+01 0.  1.
       -5    1    3    3    0  502  0.46881157689E+03  0.45315598292E+03  0.38286304149E+03  0.75613546275E+03  0.46999998093E+01 0. -1.
</event>
<event>
 5   0  0.4310348E-04  0.1393317E+04  0.7818609E-02  0.8958671E-01
        2   -1    0    0  501    0  0.00000000000E+00  0.00000000000E+00  0.15010713093E+04  0.15010713093E+04  0.25500000920E-02 0.  1.
       -2   -1    0    0    0  501  0.00000000000E+00  0.00000000000E+00 -0.32332426685E+03  0.32332426686E+03  0.25500000920E-02 0. -1.
    10030    2    1    2    0    0  0.00000000000E+00  0.00000000000E+00  0.11777470425E+04  0.18243955762E+04  0.13933165908E+04 0.  0.
        1    1    3    3  502    0  0.55062918615E+03 -0.12829889709E+03  0.55902229884E+02  0.56813569415E+03  0.50400001928E-02 0.  1.
       -1    1    3    3    0  502 -0.55062918615E+03  0.12829889709E+03  0.11218448126E+04  0.12562598820E+04  0.50400001928E-02 0. -1.
</event>
<event>
 5   0  0.3932568E-04  0.1387659E+04  0.7818609E-02  0.8962800E-01
       -2   -1    0    0    0  501  0.00000000000E+00  0.00000000000E+00  0.72075599518E+03  0.72075599519E+03  0.25500000920E-02 0. -1.
        2   -1    0    0  501    0  0.00000000000E+00  0.00000000000E+00 -0.66790923627E+03  0.66790923627E+03  0.25500000920E-02 0.  1.
    10030    2    1    2    0    0  0.00000000000E+00  0.00000000000E+00  0.52846758914E+02  0.13886652315E+04  0.13876593044E+04 0.  0.
        2    1    3    3  502    0 -0.30935728847E+02  0.23875511828E+03 -0.62476990369E+03  0.66955093786E+03  0.25500000920E-02 0.  1.
       -2    1    3    3    0  502  0.30935728847E+02 -0.23875511828E+03  0.67761666260E+03  0.71911429361E+03  0.25500000920E-02 0. -1.
</event>
<event>
 5   0  0.4310348E-04  0.1404000E+04  0.7818609E-02  0.8950928E-01
       -2   -1    0    0    0  501  0.00000000000E+00  0.00000000000E+00  0.30089859627E+03  0.30089859628E+03  0.25500000920E-02 0.  1.
        2   -1    0    0  501    0  0.00000000000E+00  0.00000000000E+00 -0.16377753336E+04  0.16377753336E+04  0.25500000920E-02 0. -1.
    10030    2    1    2    0    0  0.00000000000E+00  0.00000000000E+00 -0.13368767373E+04  0.19386739299E+04  0.14040004258E+04 0.  0.
        1    1    3    3  502    0  0.25228489450E+02  0.33113009530E+03  0.18557563391E+03  0.38042335972E+03  0.50400001928E-02 0.  1.
       -1    1    3    3    0  502 -0.25228489450E+02 -0.33113009530E+03 -0.15224523712E+04  0.15582505702E+04  0.50400001928E-02 0. -1.
</event>
<event>
 5   0  0.3975164E-04  0.1395706E+04  0.7818609E-02  0.8956933E-01
        2   -1    0    0  501    0  0.00000000000E+00  0.00000000000E+00  0.61738616743E+03  0.61738616744E+03  0.25500000920E-02 0. -1.
       -2   -1    0    0    0  501  0.00000000000E+00  0.00000000000E+00 -0.78880728641E+03  0.78880728641E+03  0.25500000920E-02 0.  1.
    10030    2    1    2    0    0  0.00000000000E+00  0.00000000000E+00 -0.17142111897E+03  0.14061934538E+04  0.13957058535E+04 0.  0.
        5    1    3    3  502    0  0.65761659233E+02  0.24513644958E+03  0.56922027420E+03  0.62325780003E+03  0.46999998093E+01 0. -1.
       -5    1    3    3    0  502 -0.65761659233E+02 -0.24513644958E+03 -0.74064139317E+03  0.78293565382E+03  0.46999998093E+01 0.  1.
</event>
<event>
 5   0  0.4208622E-04  0.1410072E+04  0.7818609E-02  0.8946560E-01
       -2   -1    0    0    0  501  0.00000000000E+00  0.00000000000E+00  0.34544922079E+03  0.34544922080E+03  0.25500000920E-02 0. -1.
        2   -1    0    0  501    0  0.00000000000E+00  0.00000000000E+00 -0.14389258264E+04  0.14389258264E+04  0.25500000920E-02 0.  1.
    10030    2    1    2    0    0  0.00000000000E+00  0.00000000000E+00 -0.10934766056E+04  0.17843750472E+04  0.14100720627E+04 0.  0.
        4    1    3    3  502    0 -0.43357994694E+03  0.44581432857E+03 -0.96707372046E+03  0.11497717946E+04  0.12699999809E+01 0. -1.
       -4    1    3    3    0  502  0.43357994694E+03 -0.44581432857E+03 -0.12640288516E+03  0.63460325261E+03  0.12699999809E+01 0.  1.
</event>
<event>
 5   0  0.4310348E-04  0.1400746E+04  0.7818609E-02  0.8953279E-01
       -2   -1    0    0    0  501  0.00000000000E+00  0.00000000000E+00  0.24488508657E+03  0.24488508658E+03  0.25500000920E-02 0. -1.
        2   -1    0    0  501    0  0.00000000000E+00  0.00000000000E+00 -0.20030721268E+04  0.20030721268E+04  0.25500000920E-02 0.  1.
    10030    2    1    2    0    0  0.00000000000E+00  0.00000000000E+00 -0.17581870402E+04  0.22479572134E+04  0.14007462171E+04 0.  0.
        1    1    3    3  502    0  0.32443619819E+02  0.13594573069E+02  0.24346650700E+03  0.24599459534E+03  0.50400001928E-02 0. -1.
       -1    1    3    3    0  502 -0.32443619819E+02 -0.13594573069E+02 -0.20016535472E+04  0.20019626180E+04  0.50400001928E-02 0.  1.
</event>
<event>
 5   0  0.2143942E-04  0.1396436E+04  0.7818609E-02  0.8956403E-01
        1   -1    0    0  501    0  0.00000000000E+00  0.00000000000E+00  0.73796433506E+03  0.73796433508E+03  0.50400001928E-02 0.  1.
       -1   -1    0    0    0  501  0.00000000000E+00  0.00000000000E+00 -0.66061216088E+03  0.66061216090E+03  0.50400001928E-02 0. -1.
    10030    2    1    2    0    0  0.00000000000E+00  0.00000000000E+00  0.77352174185E+02  0.13985764960E+04  0.13964357688E+04 0.  0.
        4    1    3    3  502    0 -0.11858367378E+03 -0.64218414465E+03 -0.20877358767E+03  0.68560235351E+03  0.12699999809E+01 0. -1.
       -4    1    3    3    0  502  0.11858367378E+03  0.64218414465E+03  0.28612576185E+03  0.71297414247E+03  0.12699999809E+01 0.  1.
</event>
<event>
 5   0  0.3932568E-04  0.1398564E+04  0.7818609E-02  0.8954859E-01
       -2   -1    0    0    0  501  0.00000000000E+00  0.00000000000E+00  0.10108416725E+04  0.10108416725E+04  0.25500000920E-02 0. -1.
        2   -1    0    0  501    0  0.00000000000E+00  0.00000000000E+00 -0.48375058359E+03  0.48375058360E+03  0.25500000920E-02 0.  1.
    10030    2    1    2    0    0  0.00000000000E+00  0.00000000000E+00  0.52709108888E+03  0.14945922561E+04  0.13985639048E+04 0.  0.
        2    1    3    3  502    0 -0.12610563785E+03  0.68002503880E+03  0.37387456287E+03  0.78620536380E+03  0.25500000920E-02 0.  1.
       -2    1    3    3    0  502  0.12610563785E+03 -0.68002503880E+03  0.15321652601E+03  0.70838689227E+03  0.25500000920E-02 0. -1.
</event>
<event>
 5   0  0.3917598E-04  0.1386329E+04  0.7818609E-02  0.8963774E-01
       -2   -1    0    0    0  501  0.00000000000E+00  0.00000000000E+00  0.10559564873E+04  0.10559564873E+04  0.25500000920E-02 0.  1.
        2   -1    0    0  501    0  0.00000000000E+00  0.00000000000E+00 -0.45501569207E+03  0.45501569208E+03  0.25500000920E-02 0. -1.
    10030    2    1    2    0    0  0.00000000000E+00  0.00000000000E+00  0.60094079524E+03  0.15109721794E+04  0.13863286362E+04 0.  0.
        3    1    3    3  502    0 -0.66796962077E+03  0.10698305279E+03  0.13572468542E+03  0.68996375867E+03  0.10100000352E+00 0. -1.
       -3    1    3    3    0  502  0.66796962077E+03 -0.10698305279E+03  0.46521610982E+03  0.82100842072E+03  0.10100000352E+00 0.  1.
</event>
<event>
 5   0  0.1497625E-04  0.1393240E+04  0.7818609E-02  0.8958726E-01
        4   -1    0    0  501    0  0.00000000000E+00  0.00000000000E+00  0.11031757215E+04  0.11031764525E+04  0.12699999809E+01 0.  1.
       -4   -1    0    0    0  501  0.00000000000E+00  0.00000000000E+00 -0.43989141349E+03  0.43989324678E+03  0.12699999809E+01 0. -1.
    10030    2    1    2    0    0  0.00000000000E+00  0.00000000000E+00  0.66328430803E+03  0.15430696993E+04  0.13932401170E+04 0.  0.
        3    1    3    3  502    0  0.60958980895E+03  0.90243644304E+02 -0.28156528314E+02  0.61687636590E+03  0.10100000352E+00 0.  1.
       -3    1    3    3    0  502 -0.60958980895E+03 -0.90243644304E+02  0.69144083634E+03  0.92619333343E+03  0.10100000352E+00 0. -1.
</event>
<event>
 5   0  0.4310348E-04  0.1405338E+04  0.7818609E-02  0.8949963E-01
       -2   -1    0    0    0  501  0.00000000000E+00  0.00000000000E+00  0.13934612419E+04  0.13934612419E+04  0.25500000920E-02 0. -1.
        2   -1    0    0  501    0  0.00000000000E+00  0.00000000000E+00 -0.35432914630E+03  0.35432914631E+03  0.25500000920E-02 0.  1.
    10030    2    1    2    0    0  0.00000000000E+00  0.00000000000E+00  0.10391320956E+04  0.17477903882E+04  0.14053382970E+04 0.  0.
        1    1    3    3  502    0  0.48710565981E+03 -0.33294797309E+03  0.44979435839E+02  0.59173425308E+03  0.50400001928E-02 0.  1.
       -1    1    3    3    0  502 -0.48710565981E+03  0.33294797309E+03  0.99415265973E+03  0.11560561351E+04  0.50400001928E-02 0. -1.
</event>
<event>
 5   0  0.2223112E-04  0.1404477E+04  0.7818609E-02  0.8950584E-01
        1   -1    0    0  501    0  0.00000000000E+00  0.00000000000E+00  0.67552619330E+03  0.67552619332E+03  0.50400001928E-02 0. -1.
       -1   -1    0    0    0  501  0.00000000000E+00  0.00000000000E+00 -0.73000679437E+03  0.73000679439E+03  0.50400001928E-02 0.  1.
    10030    2    1    2    0    0  0.00000000000E+00  0.00000000000E+00 -0.54480601065E+02  0.14055329877E+04  0.14044767152E+04 0.  0.
        1    1    3    3  502    0  0.80415803755E+02 -0.47820434487E+03  0.48107143423E+03  0.68306355619E+03  0.50400001928E-02 0. -1.
       -1    1    3    3    0  502 -0.80415803755E+02  0.47820434487E+03 -0.53555203529E+03  0.72246943151E+03  0.50400001928E-02 0.  1.
</event>
<event>
 5   0  0.3932568E-04  0.1401279E+04  0.7818609E-02  0.8952893E-01
       -2   -1    0    0    0  501  0.00000000000E+00  0.00000000000E+00  0.14164012766E+04  0.14164012766E+04  0.25500000920E-02 0.  1.
        2   -1    0    0  501    0  0.00000000000E+00  0.00000000000E+00 -0.34657938647E+03  0.34657938648E+03  0.25500000920E-02 0. -1.
    10030    2    1    2    0    0  0.00000000000E+00  0.00000000000E+00  0.10698218902E+04  0.17629806631E+04  0.14012786810E+04 0.  0.
        2    1    3    3  502    0  0.34774448142E+03 -0.54996112335E+03  0.20801194065E+03  0.68311963009E+03  0.25500000920E-02 0. -1.
       -2    1    3    3    0  502 -0.34774448142E+03  0.54996112335E+03  0.86180994951E+03  0.10798610330E+04  0.25500000920E-02 0.  1.
</event>
<event>
 5   0  0.2217251E-04  0.1453854E+04  0.7818609E-02  0.8915733E-01
       -1   -1    0    0    0  501  0.00000000000E+00  0.00000000000E+00  0.34276244515E+03  0.34276244519E+03  0.50400001928E-02 0.  1.
        1   -1    0    0  501    0  0.00000000000E+00  0.00000000000E+00 -0.15416600557E+04  0.15416600557E+04  0.50400001928E-02 0. -1.
    10030    2    1    2    0    0  0.00000000000E+00  0.00000000000E+00 -0.11988976106E+04  0.18844225009E+04  0.14538544223E+04 0.  0.
        5    1    3    3  502    0 -0.87894312513E+02  0.52325685445E+02 -0.15322650882E+04  0.15356828377E+04  0.46999998093E+01 0. -1.
       -5    1    3    3    0  502  0.87894312513E+02 -0.52325685445E+02  0.33336747765E+03  0.34873966319E+03  0.46999998093E+01 0.  1.
</event>
<event>
 5   0  0.3975164E-04  0.1399424E+04  0.7818609E-02  0.8954236E-01
        2   -1    0    0  501    0  0.00000000000E+00  0.00000000000E+00  0.76536064205E+03  0.76536064206E+03  0.25500000920E-02 0. -1.
       -2   -1    0    0    0  501  0.00000000000E+00  0.00000000000E+00 -0.63969408701E+03  0.63969408701E+03  0.25500000920E-02 0.  1.
    10030    2    1    2    0    0  0.00000000000E+00  0.00000000000E+00  0.12566655505E+03  0.14050547291E+04  0.13994237059E+04 0.  0.
        5    1    3    3  502    0 -0.13074082345E+03  0.23812688392E+02 -0.62689117033E+03  0.64083916585E+03  0.46999998093E+01 0.  1.
       -5    1    3    3    0  502  0.13074082345E+03 -0.23812688392E+02  0.75255772538E+03  0.76421556322E+03  0.46999998093E+01 0. -1.
</event>
<event>
 5   0  0.2143942E-04  0.1409917E+04  0.7818609E-02  0.8946671E-01
       -1   -1    0    0    0  501  0.00000000000E+00  0.00000000000E+00  0.50183360812E+03  0.50183360815E+03  0.50400001928E-02 0.  1.
        1   -1    0    0  501    0  0.00000000000E+00  0.00000000000E+00 -0.99030184483E+03  0.99030184484E+03  0.50400001928E-02 0. -1.
    10030    2    1    2    0    0  0.00000000000E+00  0.00000000000E+00 -0.48846823670E+03  0.14921354530E+04  0.14099173706E+04 0.  0.
        4    1    3    3  502    0  0.86897144827E+01  0.17326877690E+03  0.47888764905E+03  0.50934523998E+03  0.12699999809E+01 0.  1.
       -4    1    3    3    0  502 -0.86897144827E+01 -0.17326877690E+03 -0.96735588575E+03  0.98279021300E+03  0.12699999809E+01 0. -1.
</event>
<event>
 5   0  0.4208622E-04  0.1410608E+04  0.7818609E-02  0.8946175E-01
        2   -1    0    0  501    0  0.00000000000E+00  0.00000000000E+00  0.95241222495E+03  0.95241222496E+03  0.25500000920E-02 0.  1.
       -2   -1    0    0    0  501  0.00000000000E+00  0.00000000000E+00 -0.52230956356E+03  0.52230956356E+03  0.25500000920E-02 0. -1.
    10030    2    1    2    0    0  0.00000000000E+00  0.00000000000E+00  0.43010266140E+03  0.14747217885E+04  0.14106083986E+04 0.  0.
        4    1    3    3  502    0  0.35782686157E+03 -0.74485069112E+02 -0.41557683351E+03  0.55343816803E+03  0.12699999809E+01 0. -1.
       -4    1    3    3    0  502 -0.35782686157E+03  0.74485069112E+02  0.84567949490E+03  0.92128362049E+03  0.12699999809E+01 0.  1.
</event>
<event>
 5   0  0.2223112E-04  0.1388519E+04  0.7818609E-02  0.8962171E-01
        1   -1    0    0  501    0  0.00000000000E+00  0.00000000000E+00  0.87901103535E+03  0.87901103536E+03  0.50400001928E-02 0.  1.
       -1   -1    0    0    0  501  0.00000000000E+00  0.00000000000E+00 -0.54833953508E+03  0.54833953510E+03  0.50400001928E-02 0. -1.
    10030    2    1    2    0    0  0.00000000000E+00  0.00000000000E+00  0.33067150027E+03  0.14273505705E+04  0.13885193589E+04 0.  0.
        1    1    3    3  502    0  0.70642842871E+02 -0.67552587465E+02  0.87190267410E+03  0.87736425529E+03  0.50400001928E-02 0.  1.
       -1    1    3    3    0  502 -0.70642842871E+02  0.67552587465E+02 -0.54123117383E+03  0.54998631517E+03  0.50400001928E-02 0. -1.
</event>
<event>
 5   0  0.4310348E-04  0.1373146E+04  0.7818609E-02  0.8973490E-01
        2   -1    0    0  501    0  0.00000000000E+00  0.00000000000E+00  0.31538385816E+03  0.31538385817E+03  0.25500000920E-02 0. -1.
       -2   -1    0    0    0  501  0.00000000000E+00  0.00000000000E+00 -0.14946305143E+04  0.14946305143E+04  0.25500000920E-02 0.  1.
    10030    2    1    2    0    0  0.00000000000E+00  0.00000000000E+00 -0.11792466561E+04  0.18100143724E+04  0.13731457870E+04 0.  0.
        1    1    3    3  502    0 -0.14884523087E+03  0.31384558796E+01 -0.14730972795E+04  0.14806013466E+04  0.50400001928E-02 0.  1.
       -1    1    3    3    0  502  0.14884523087E+03 -0.31384558796E+01  0.29385062342E+03  0.32941302581E+03  0.50400001928E-02 0. -1.
</event>
<event>
 5   0  0.2143942E-04  0.1391182E+04  0.7818609E-02  0.8960226E-01
       -1   -1    0    0    0  501  0.00000000000E+00  0.00000000000E+00  0.50855195164E+03  0.50855195167E+03  0.50400001928E-02 0. -1.
        1   -1    0    0  501    0  0.00000000000E+00  0.00000000000E+00 -0.95142090227E+03  0.95142090228E+03  0.50400001928E-02 0.  1.
    10030    2    1    2    0    0  0.00000000000E+00  0.00000000000E+00 -0.44286895063E+03  0.14599728539E+04  0.13911821688E+04 0.  0.
        4    1    3    3  502    0  0.22371408397E+03  0.69772787201E+02 -0.90874586249E+03  0.93847583277E+03  0.12699999809E+01 0.  1.
       -4    1    3    3    0  502 -0.22371408397E+03 -0.69772787201E+02  0.46587691186E+03  0.52149702118E+03  0.12699999809E+01 0. -1.
</event>
<event>
 5   0  0.3917598E-04  0.1400150E+04  0.7818609E-02  0.8953710E-01
        2   -1    0    0  501    0  0.00000000000E+00  0.00000000000E+00  0.51083185490E+03  0.51083185491E+03  0.25500000920E-02 0.  1.
       -2   -1    0    0    0  501  0.00000000000E+00  0.00000000000E+00 -0.95942531989E+03  0.95942531989E+03  0.25500000920E-02 0. -1.
    10030    2    1    2    0    0  0.00000000000E+00  0.00000000000E+00 -0.44859346499E+03  0.14702571748E+04  0.14001500145E+04 0.  0.
        3    1    3    3  502    0  0.31769693714E+03 -0.57967558983E+03  0.17789365727E+02  0.66126515487E+03  0.10100000352E+00 0.  1.
       -3    1    3    3    0  502 -0.31769693714E+03  0.57967558983E+03 -0.46638283071E+03  0.80899201992E+03  0.10100000352E+00 0. -1.
</event>
<event>
 5   0  0.2215876E-04  0.1404322E+04  0.7818609E-02  0.8950696E-01
        1   -1    0    0  501    0  0.00000000000E+00  0.00000000000E+00  0.59341365860E+03  0.59341365862E+03  0.50400001928E-02 0.  1.
       -1   -1    0    0    0  501  0.00000000000E+00  0.00000000000E+00 -0.83083748777E+03  0.83083748778E+03  0.50400001928E-02 0. -1.
    10030    2    1    2    0    0  0.00000000000E+00  0.00000000000E+00 -0.23742382917E+03  0.14242511464E+04  0.14043223467E+04 0.  0.
        3    1    3    3  502    0  0.10496351991E+02  0.29569238523E+03 -0.76452639668E+03  0.81978337475E+03  0.10100000352E+00 0. -1.
       -3    1    3    3    0  502 -0.10496351991E+02 -0.29569238523E+03  0.52710256752E+03  0.60446777166E+03  0.10100000352E+00 0.  1.
</event>
<event>
 5   0  0.4310348E-04  0.1400490E+04  0.7818609E-02  0.8953464E-01
        2   -1    0    0  501    0  0.00000000000E+00  0.00000000000E+00  0.15546603201E+04  0.15546603201E+04  0.25500000920E-02 0.  1.
       -2   -1    0    0    0  501  0.00000000000E+00  0.00000000000E+00 -0.31540208373E+03  0.31540208374E+03  0.25500000920E-02 0. -1.
    10030    2    1    2    0    0  0.00000000000E+00  0.00000000000E+00  0.12392582364E+04  0.18700624039E+04  0.14004900635E+04 0.  0.
        1    1    3    3  502    0  0.68410257243E+03 -0.42787632844E+02  0.81088832128E+03  0.10617753909E+04  0.50400001928E-02 0.  1.
       -1    1    3    3    0  502 -0.68410257243E+03  0.42787632844E+02  0.42836991512E+03  0.80828701297E+03  0.50400001928E-02 0. -1.
</event>
<event>
 5   0  0.2143942E-04  0.1401336E+04  0.7818609E-02  0.8952852E-01
       -1   -1    0    0    0  501  0.00000000000E+00  0.00000000000E+00  0.49816674949E+03  0.49816674952E+03  0.50400001928E-02 0. -1.
        1   -1    0    0  501    0  0.00000000000E+00  0.00000000000E+00 -0.98548392667E+03  0.98548392668E+03  0.50400001928E-02 0.  1.
    10030    2    1    2    0    0  0.00000000000E+00  0.00000000000E+00 -0.48731717718E+03  0.14836506762E+04  0.14013355408E+04 0.  0.
        4    1    3    3  502    0  0.44537461597E+02 -0.21678863789E+02 -0.98362666448E+03  0.98487389376E+03  0.12699999809E+01 0.  1.
       -4    1    3    3    0  502 -0.44537461597E+02  0.21678863789E+02  0.49630948730E+03  0.49877678244E+03  0.12699999809E+01 0. -1.
</event>
<event>
 5   0  0.3917598E-04  0.1403035E+04  0.7818609E-02  0.8951624E-01
        2   -1    0    0  501    0  0.00000000000E+00  0.00000000000E+00  0.11046672124E+04  0.11046672124E+04  0.25500000920E-02 0. -1.
       -2   -1    0    0    0  501  0.00000000000E+00  0.00000000000E+00 -0.44549806692E+03  0.44549806692E+03  0.25500000920E-02 0.  1.
    10030    2    1    2    0    0  0.00000000000E+00  0.00000000000E+00  0.65916914552E+03  0.15501652794E+04  0.14030354347E+04 0.  0.
        3    1    3    3  502    0 -0.24918466319E+03  0.64773213163E+03  0.44267652722E+03  0.82317217438E+03  0.10100000352E+00 0. -1.
       -3    1    3    3    0  502  0.24918466319E+03 -0.64773213163E+03  0.21649261830E+03  0.72699310499E+03  0.10100000352E+00 0.  1.
</event>
<event>
 5   0  0.2143942E-04  0.1388325E+04  0.7818609E-02  0.8962313E-01
        1   -1    0    0  501    0  0.00000000000E+00  0.00000000000E+00  0.14806372019E+04  0.14806372020E+04  0.50400001928E-02 0. -1.
       -1   -1    0    0    0  501  0.00000000000E+00  0.00000000000E+00 -0.32544198493E+03  0.32544198497E+03  0.50400001928E-02 0.  1.
    10030    2    1    2    0    0  0.00000000000E+00  0.00000000000E+00  0.11551952170E+04  0.18060791869E+04  0.13883249043E+04 0.  0.
        4    1    3    3  502    0  0.35697372622E+03  0.42445536459E+03  0.11206648721E+04  0.12503935246E+04  0.12699999809E+01 0. -1.
       -4    1    3    3    0  502 -0.35697372622E+03 -0.42445536459E+03  0.34530344894E+02  0.55568566237E+03  0.12699999809E+01 0.  1.
</event>
<event>
 5   0  0.1497625E-04  0.1401746E+04  0.7818609E-02  0.8952556E-01
       -3   -1    0    0    0  501  0.00000000000E+00  0.00000000000E+00  0.10054604685E+04  0.10054604735E+04  0.10100000352E+00 0. -1.
        3   -1    0    0  501    0  0.00000000000E+00  0.00000000000E+00 -0.48855525968E+03  0.48855527012E+03  0.10100000352E+00 0.  1.
    10030    2    1    2    0    0  0.00000000000E+00  0.00000000000E+00  0.51690520879E+03  0.14940157437E+04  0.14017460710E+04 0.  0.
        4    1    3    3  502    0  0.65874071320E+03 -0.17443501835E+03  0.43311295616E+03  0.80743751990E+03  0.12699999809E+01 0. -1.
       -4    1    3    3    0  502 -0.65874071320E+03  0.17443501835E+03  0.83792252627E+02  0.68657822377E+03  0.12699999809E+01 0.  1.
</event>
<event>
 5   0  0.2143942E-04  0.1383990E+04  0.7818609E-02  0.8965490E-01
        1   -1    0    0  501    0  0.00000000000E+00  0.00000000000E+00  0.10787851893E+04  0.10787851893E+04  0.50400001928E-02 0. -1.
       -1   -1    0    0    0  501  0.00000000000E+00  0.00000000000E+00 -0.44388526775E+03  0.44388526778E+03  0.50400001928E-02 0.  1.
    10030    2    1    2    0    0  0.00000000000E+00  0.00000000000E+00  0.63489992154E+03  0.15226704571E+04  0.13839896714E+04 0.  0.
        4    1    3    3  502    0  0.40256973235E+03 -0.56266364013E+03  0.33310529737E+03  0.76786295221E+03  0.12699999809E+01 0.  1.
       -4    1    3    3    0  502 -0.40256973235E+03  0.56266364013E+03  0.30179462417E+03  0.75480750487E+03  0.12699999809E+01 0. -1.
</event>
<event>
 5   0  0.2217251E-04  0.1395940E+04  0.7818609E-02  0.8956763E-01
       -1   -1    0    0    0  501  0.00000000000E+00  0.00000000000E+00  0.63346002041E+03  0.63346002043E+03  0.50400001928E-02 0. -1.
        1   -1    0    0  501    0  0.00000000000E+00  0.00000000000E+00 -0.76904938929E+03  0.76904938931E+03  0.50400001928E-02 0.  1.
    10030    2    1    2    0    0  0.00000000000E+00  0.00000000000E+00 -0.13558936888E+03  0.14025094097E+04  0.13959398868E+04 0.  0.
        5    1    3    3  502    0  0.12602351988E+03 -0.51181197927E+03 -0.52744805364E+03  0.74569227499E+03  0.46999998093E+01 0.  1.
       -5    1    3    3    0  502 -0.12602351988E+03  0.51181197927E+03  0.39185868476E+03  0.65681713475E+03  0.46999998093E+01 0. -1.
</event>
<event>
 5   0  0.3932568E-04  0.1401725E+04  0.7818609E-02  0.8952571E-01
        2   -1    0    0  501    0  0.00000000000E+00  0.00000000000E+00  0.18037726686E+04  0.18037726686E+04  0.25500000920E-02 0.  1.
       -2   -1    0    0    0  501  0.00000000000E+00  0.00000000000E+00 -0.27232250849E+03  0.27232250850E+03  0.25500000920E-02 0. -1.
    10030    2    1    2    0    0  0.00000000000E+00  0.00000000000E+00  0.15314501601E+04  0.20760951771E+04  0.14017245063E+04 0.  0.
        2    1    3    3  502    0  0.60199956766E+03 -0.29394628998E+03  0.10707023738E+04  0.12630168146E+04  0.25500000920E-02 0.  1.
       -2    1    3    3    0  502 -0.60199956766E+03  0.29394628998E+03  0.46074778631E+03  0.81307836244E+03  0.25500000920E-02 0. -1.
</event>
<event>
 5   0  0.4208622E-04  0.1391003E+04  0.7818609E-02  0.8960357E-01
       -2   -1    0    0    0  501  0.00000000000E+00  0.00000000000E+00  0.37242518826E+03  0.37242518827E+03  0.25500000920E-02 0. -1.
        2   -1    0    0  501    0  0.00000000000E+00  0.00000000000E+00 -0.12988437125E+04  0.12988437125E+04  0.25500000920E-02 0.  1.
    10030    2    1    2    0    0  0.00000000000E+00  0.00000000000E+00 -0.92641852424E+03  0.16712689008E+04  0.13910026803E+04 0.  0.
        4    1    3    3  502    0 -0.37117139021E+03 -0.40787290706E+03  0.45959614113E+02  0.55339173129E+03  0.12699999809E+01 0. -1.
       -4    1    3    3    0  502  0.37117139021E+03  0.40787290706E+03 -0.97237813835E+03  0.11178771695E+04  0.12699999809E+01 0.  1.
</event>
<event>
 5   0  0.3975164E-04  0.1401553E+04  0.7818609E-02  0.8952695E-01
        2   -1    0    0  501    0  0.00000000000E+00  0.00000000000E+00  0.28940734479E+03  0.28940734481E+03  0.25500000920E-02 0. -1.
       -2   -1    0    0    0  501  0.00000000000E+00  0.00000000000E+00 -0.16968737217E+04  0.16968737217E+04  0.25500000920E-02 0.  1.
    10030    2    1    2    0    0  0.00000000000E+00  0.00000000000E+00 -0.14074663769E+04  0.19862810665E+04  0.14015530219E+04 0.  0.
        5    1    3    3  502    0  0.42097820056E+03  0.36638664412E+03 -0.10312818850E+03  0.56755557578E+03  0.46999998093E+01 0. -1.
       -5    1    3    3    0  502 -0.42097820056E+03 -0.36638664412E+03 -0.13043381884E+04  0.14187254907E+04  0.46999998093E+01 0.  1.
</event>
<event>
 5   0  0.1497625E-04  0.1395122E+04  0.7818609E-02  0.8957357E-01
        4   -1    0    0  501    0  0.00000000000E+00  0.00000000000E+00  0.52151267505E+03  0.52151422141E+03  0.12699999809E+01 0.  1.
       -4   -1    0    0    0  501  0.00000000000E+00  0.00000000000E+00 -0.93303453181E+03  0.93303539614E+03  0.12699999809E+01 0. -1.
    10030    2    1    2    0    0  0.00000000000E+00  0.00000000000E+00 -0.41152185676E+03  0.14545496176E+04  0.13951216260E+04 0.  0.
        4    1    3    3  502    0 -0.17264718591E+02  0.15535575741E+03  0.50301794533E+03  0.52674675898E+03  0.12699999809E+01 0.  1.
       -4    1    3    3    0  502  0.17264718591E+02 -0.15535575741E+03 -0.91453980209E+03  0.92780285857E+03  0.12699999809E+01 0. -1.
</event>
<event>
 5   0  0.2143942E-04  0.1400515E+04  0.7818609E-02  0.8953446E-01
       -1   -1    0    0    0  501  0.00000000000E+00  0.00000000000E+00  0.28536326920E+03  0.28536326924E+03  0.50400001928E-02 0.  1.
        1   -1    0    0  501    0  0.00000000000E+00  0.00000000000E+00 -0.17183720975E+04  0.17183720975E+04  0.50400001928E-02 0. -1.
    10030    2    1    2    0    0  0.00000000000E+00  0.00000000000E+00 -0.14330088283E+04  0.20037353667E+04  0.14005145904E+04 0.  0.
        4    1    3    3  502    0 -0.91759991450E+02 -0.24010902229E+03 -0.16484322760E+04  0.16683533259E+04  0.12699999809E+01 0. -1.
       -4    1    3    3    0  502  0.91759991450E+02  0.24010902229E+03  0.21542344768E+03  0.33538204085E+03  0.12699999809E+01 0.  1.
</event>
<event>
 5   0  0.2223112E-04  0.1403148E+04  0.7818609E-02  0.8951543E-01
       -1   -1    0    0    0  501  0.00000000000E+00  0.00000000000E+00  0.84315352151E+03  0.84315352153E+03  0.50400001928E-02 0. -1.
        1   -1    0    0  501    0  0.00000000000E+00  0.00000000000E+00 -0.58376773887E+03  0.58376773889E+03  0.50400001928E-02 0.  1.
    10030    2    1    2    0    0  0.00000000000E+00  0.00000000000E+00  0.25938578264E+03  0.14269212604E+04  0.14031476398E+04 0.  0.
        1    1    3    3  502    0  0.30432528263E+03  0.32800646064E+03  0.67922215246E+03  0.81335407314E+03  0.50400001928E-02 0. -1.
       -1    1    3    3    0  502 -0.30432528263E+03 -0.32800646064E+03 -0.41983636982E+03  0.61356718729E+03  0.50400001928E-02 0.  1.
</event>
<event>
 5   0  0.3917598E-04  0.1398842E+04  0.7818609E-02  0.8954657E-01
       -2   -1    0    0    0  501  0.00000000000E+00  0.00000000000E+00  0.55259905002E+03  0.55259905003E+03  0.25500000920E-02 0. -1.
        2   -1    0    0  501    0  0.00000000000E+00  0.00000000000E+00 -0.88525265161E+03  0.88525265161E+03  0.25500000920E-02 0.  1.
    10030    2    1    2    0    0  0.00000000000E+00  0.00000000000E+00 -0.33265360158E+03  0.14378517016E+04  0.13988420559E+04 0.  0.
        3    1    3    3  502    0  0.33567251332E+00  0.69626343598E+03 -0.98091205359E+02  0.70313923211E+03  0.10100000352E+00 0. -1.
       -3    1    3    3    0  502 -0.33567251332E+00 -0.69626343598E+03 -0.23456239623E+03  0.73471246953E+03  0.10100000352E+00 0.  1.
</event>
<event>
 5   0  0.4310348E-04  0.1397495E+04  0.7818609E-02  0.8955634E-01
       -2   -1    0    0    0  501  0.00000000000E+00  0.00000000000E+00  0.79255297300E+03  0.79255297301E+03  0.25500000920E-02 0. -1.
        2   -1    0    0  501    0  0.00000000000E+00  0.00000000000E+00 -0.61604476121E+03  0.61604476122E+03  0.25500000920E-02 0.  1.
    10030    2    1    2    0    0  0.00000000000E+00  0.00000000000E+00  0.17650821179E+03  0.14085977342E+04  0.13974950547E+04 0.  0.
        1    1    3    3  502    0 -0.32396890544E+03 -0.32121559705E+03 -0.44520751427E+03  0.63745199213E+03  0.50400001928E-02 0.  1.
       -1    1    3    3    0  502  0.32396890544E+03  0.32121559705E+03  0.62171572607E+03  0.77114574209E+03  0.50400001928E-02 0. -1.
</event>
<event>
 5   0  0.3975164E-04  0.1399929E+04  0.7818609E-02  0.8953870E-01
        2   -1    0    0  501    0  0.00000000000E+00  0.00000000000E+00  0.73672810519E+03  0.73672810520E+03  0.25500000920E-02 0. -1.
       -2   -1    0    0    0  501  0.00000000000E+00  0.00000000000E+00 -0.66503581725E+03  0.66503581725E+03  0.25500000920E-02 0.  1.
    10030    2    1    2    0    0  0.00000000000E+00  0.00000000000E+00  0.71692287944E+02  0.14017639225E+04  0.13999293947E+04 0.  0.
        5    1    3    3  502    0 -0.19619788249E+03 -0.17370561226E+03 -0.61405080159E+03  0.66764341213E+03  0.46999998093E+01 0.  1.
       -5    1    3    3    0  502  0.19619788249E+03  0.17370561226E+03  0.68574308954E+03  0.73412051032E+03  0.46999998093E+01 0. -1.
</event>
<event>
 5   0  0.2215876E-04  0.1400854E+04  0.7818609E-02  0.8953200E-01
        1   -1    0    0  501    0  0.00000000000E+00  0.00000000000E+00  0.73069783382E+03  0.73069783383E+03  0.50400001928E-02 0.  1.
       -1   -1    0    0    0  501  0.00000000000E+00  0.00000000000E+00 -0.67141058978E+03  0.67141058980E+03  0.50400001928E-02 0. -1.
    10030    2    1    2    0    0  0.00000000000E+00  0.00000000000E+00  0.59287244037E+02  0.14021084236E+04  0.14008544015E+04 0.  0.
        3    1    3    3  502    0  0.53177956323E+03  0.25875398787E+02  0.48517653473E+03  0.72031612517E+03  0.10100000352E+00 0.  1.
       -3    1    3    3    0  502 -0.53177956323E+03 -0.25875398787E+02 -0.42588929069E+03  0.68179229847E+03  0.10100000352E+00 0. -1.
</event>
<event>
 5   0  0.3932568E-04  0.1400769E+04  0.7818609E-02  0.8953262E-01
        2   -1    0    0  501    0  0.00000000000E+00  0.00000000000E+00  0.54352526283E+03  0.54352526284E+03  0.25500000920E-02 0.  1.
       -2   -1    0    0    0  501  0.00000000000E+00  0.00000000000E+00 -0.90251229682E+03  0.90251229683E+03  0.25500000920E-02 0. -1.
    10030    2    1    2    0    0  0.00000000000E+00  0.00000000000E+00 -0.35898703399E+03  0.14460375597E+04  0.14007686937E+04 0.  0.
        2    1    3    3  502    0  0.63818063967E+03 -0.26597454866E+03 -0.63978915246E+02  0.69434162412E+03  0.25500000920E-02 0.  1.
       -2    1    3    3    0  502 -0.63818063967E+03  0.26597454866E+03 -0.29500811875E+03  0.75169593555E+03  0.25500000920E-02 0. -1.
</event>
<event>
 5   0  0.2223112E-04  0.1359700E+04  0.7818609E-02  0.8983517E-01
        1   -1    0    0  501    0  0.00000000000E+00  0.00000000000E+00  0.93683788845E+03  0.93683788847E+03  0.50400001928E-02 0. -1.
       -1   -1    0    0    0  501  0.00000000000E+00  0.00000000000E+00 -0.49335769397E+03  0.49335769399E+03  0.50400001928E-02 0.  1.
    10030    2    1    2    0    0  0.00000000000E+00  0.00000000000E+00  0.44348019449E+03  0.14301955825E+04  0.13597002321E+04 0.  0.
        1    1    3    3  502    0  0.47349599848E+03  0.29072607564E+03  0.63381161150E+03  0.84287440971E+03  0.50400001928E-02 0. -1.
       -1    1    3    3    0  502 -0.47349599848E+03 -0.29072607564E+03 -0.19033141702E+03  0.58732117275E+03  0.50400001928E-02 0.  1.
</event>
<event>
 5   0  0.3917598E-04  0.1397889E+04  0.7818609E-02  0.8955348E-01
       -2   -1    0    0    0  501  0.00000000000E+00  0.00000000000E+00  0.24849648005E+03  0.24849648006E+03  0.25500000920E-02 0. -1.
        2   -1    0    0  501    0  0.00000000000E+00  0.00000000000E+00 -0.19659162555E+04  0.19659162555E+04  0.25500000920E-02 0.  1.
    10030    2    1    2    0    0  0.00000000000E+00  0.00000000000E+00 -0.17174197754E+04  0.22144127356E+04  0.13978887933E+04 0.  0.
        3    1    3    3  502    0 -0.17480390012E+03 -0.16109476730E+03  0.18249339143E+03  0.29968612859E+03  0.10100000352E+00 0. -1.
       -3    1    3    3    0  502  0.17480390012E+03  0.16109476730E+03 -0.18999131669E+04  0.19147266070E+04  0.10100000352E+00 0.  1.
</event>
<event>
 5   0  0.3932568E-04  0.1400226E+04  0.7818609E-02  0.8953655E-01
        2   -1    0    0  501    0  0.00000000000E+00  0.00000000000E+00  0.15464850055E+04  0.15464850055E+04  0.25500000920E-02 0. -1.
       -2   -1    0    0    0  501  0.00000000000E+00  0.00000000000E+00 -0.31694992114E+03  0.31694992115E+03  0.25500000920E-02 0.  1.
    10030    2    1    2    0    0  0.00000000000E+00  0.00000000000E+00  0.12295350844E+04  0.18634349267E+04  0.14002261254E+04 0.  0.
        2    1    3    3  502    0  0.51660135580E+03 -0.12816848858E+03  0.94988593714E+01  0.53234796009E+03  0.25500000920E-02 0.  1.
       -2    1    3    3    0  502 -0.51660135580E+03  0.12816848858E+03  0.12200362250E+04  0.13310869666E+04  0.25500000920E-02 0. -1.
</event>
<event>
 5   0  0.2223112E-04  0.1339417E+04  0.7818609E-02  0.8998878E-01
       -1   -1    0    0    0  501  0.00000000000E+00  0.00000000000E+00  0.81608109685E+03  0.81608109687E+03  0.50400001928E-02 0. -1.
        1   -1    0    0  501    0  0.00000000000E+00  0.00000000000E+00 -0.54958927839E+03  0.54958927842E+03  0.50400001928E-02 0.  1.
    10030    2    1    2    0    0  0.00000000000E+00  0.00000000000E+00  0.26649181846E+03  0.13656703753E+04  0.13394169196E+04 0.  0.
        1    1    3    3  502    0  0.41657359848E+03 -0.19629222556E+03 -0.36254136776E+03  0.58608910938E+03  0.50400001928E-02 0.  1.
       -1    1    3    3    0  502 -0.41657359848E+03  0.19629222556E+03  0.62903318621E+03  0.77958126591E+03  0.50400001928E-02 0. -1.
</event>
<event>
 5   0  0.3975164E-04  0.1410509E+04  0.7818609E-02  0.8946247E-01
       -2   -1    0    0    0  501  0.00000000000E+00  0.00000000000E+00  0.45786651572E+03  0.45786651573E+03  0.25500000920E-02 0. -1.
        2   -1    0    0  501    0  0.00000000000E+00  0.00000000000E+00 -0.10863076510E+04  0.10863076510E+04  0.25500000920E-02 0.  1.
    10030    2    1    2    0    0  0.00000000000E+00  0.00000000000E+00 -0.62844113523E+03  0.15441741667E+04  0.14105089849E+04 0.  0.
        5    1    3    3  502    0  0.42879462585E+03  0.39293012630E+03 -0.75089671004E+03  0.94980359784E+03  0.46999998093E+01 0.  1.
       -5    1    3    3    0  502 -0.42879462585E+03 -0.39293012630E+03  0.12245557481E+03  0.59437056885E+03  0.46999998093E+01 0. -1.
</event>
<event>
 5   0  0.3932568E-04  0.1402142E+04  0.7818609E-02  0.8952270E-01
       -2   -1    0    0    0  501  0.00000000000E+00  0.00000000000E+00  0.44087429127E+03  0.44087429127E+03  0.25500000920E-02 0.  1.
        2   -1    0    0  501    0  0.00000000000E+00  0.00000000000E+00 -0.11148311919E+04  0.11148311919E+04  0.25500000920E-02 0. -1.
    10030    2    1    2    0    0  0.00000000000E+00  0.00000000000E+00 -0.67395690061E+03  0.15557054831E+04  0.14021418068E+04 0.  0.
        2    1    3    3  502    0 -0.59142030053E+03  0.18690192584E+03  0.25599141745E+02  0.62077823563E+03  0.25500000920E-02 0.  1.
       -2    1    3    3    0  502  0.59142030053E+03 -0.18690192584E+03 -0.69955604235E+03  0.93492724752E+03  0.25500000920E-02 0. -1.
</event>
<event>
 5   0  0.1497625E-04  0.1406348E+04  0.7818609E-02  0.8949236E-01
        4   -1    0    0  501    0  0.00000000000E+00  0.00000000000E+00  0.41924429039E+03  0.41924621397E+03  0.12699999809E+01 0.  1.
       -4   -1    0    0    0  501  0.00000000000E+00  0.00000000000E+00 -0.11793885930E+04  0.11793892767E+04  0.12699999809E+01 0. -1.
    10030    2    1    2    0    0  0.00000000000E+00  0.00000000000E+00 -0.76014430257E+03  0.15986354907E+04  0.14063484886E+04 0.  0.
        4    1    3    3  502    0  0.43050627962E+03 -0.41674242552E+03  0.38272266729E+02  0.60039677324E+03  0.12699999809E+01 0.  1.
       -4    1    3    3    0  502 -0.43050627962E+03  0.41674242552E+03 -0.79841656929E+03  0.99823871746E+03  0.12699999809E+01 0. -1.
</event>
<event>
 5   0  0.2223112E-04  0.1399959E+04  0.7818609E-02  0.8953848E-01
       -1   -1    0    0    0  501  0.00000000000E+00  0.00000000000E+00  0.54888177763E+03  0.54888177765E+03  0.50400001928E-02 0.  1.
        1   -1    0    0  501    0  0.00000000000E+00  0.00000000000E+00 -0.89267238500E+03  0.89267238501E+03  0.50400001928E-02 0. -1.
    10030    2    1    2    0    0  0.00000000000E+00  0.00000000000E+00 -0.34379060737E+03  0.14415541627E+04  0.13999594359E+04 0.  0.
        1    1    3    3  502    0 -0.39843220324E+03 -0.52387224712E+03 -0.41726334765E+03  0.77929394532E+03  0.50400001928E-02 0. -1.
       -1    1    3    3    0  502  0.39843220324E+03  0.52387224712E+03  0.73472740278E+02  0.66226021734E+03  0.50400001928E-02 0.  1.
</event>
<event>
 5   0  0.4208622E-04  0.1397127E+04  0.7818609E-02  0.8955901E-01
       -2   -1    0    0    0  501  0.00000000000E+00  0.00000000000E+00  0.53274466337E+03  0.53274466338E+03  0.25500000920E-02 0.  1.
        2   -1    0    0  501    0  0.00000000000E+00  0.00000000000E+00 -0.91599378134E+03  0.91599378135E+03  0.25500000920E-02 0. -1.
    10030    2    1    2    0    0  0.00000000000E+00  0.00000000000E+00 -0.38324911797E+03  0.14487384447E+04  0.13971267640E+04 0.  0.
        4    1    3    3  502    0 -0.22797541162E+03 -0.52739272248E+03  0.22038617924E+03  0.61537594438E+03  0.12699999809E+01 0.  1.
       -4    1    3    3    0  502  0.22797541162E+03  0.52739272248E+03 -0.60363529721E+03  0.83336250034E+03  0.12699999809E+01 0. -1.
</event>
<event>
 5   0  0.3917598E-04  0.1398499E+04  0.7818609E-02  0.8954906E-01
       -2   -1    0    0    0  501  0.00000000000E+00  0.00000000000E+00  0.57522980550E+03  0.57522980550E+03  0.25500000920E-02 0.  1.
        2   -1    0    0  501    0  0.00000000000E+00  0.00000000000E+00 -0.85000744874E+03  0.85000744874E+03  0.25500000920E-02 0. -1.
    10030    2    1    2    0    0  0.00000000000E+00  0.00000000000E+00 -0.27477764324E+03  0.14252372542E+04  0.13984986513E+04 0.  0.
        3    1    3    3  502    0  0.62858207421E+03 -0.30476172291E+03 -0.10590351342E+03  0.70654843863E+03  0.10100000352E+00 0. -1.
       -3    1    3    3    0  502 -0.62858207421E+03  0.30476172291E+03 -0.16887412983E+03  0.71868881562E+03  0.10100000352E+00 0.  1.
</event>
<event>
 5   0  0.1497625E-04  0.1395612E+04  0.7818609E-02  0.8957001E-01
        4   -1    0    0  501    0  0.00000000000E+00  0.00000000000E+00  0.82264489109E+03  0.82264587140E+03  0.12699999809E+01 0. -1.
       -4   -1    0    0    0  501  0.00000000000E+00  0.00000000000E+00 -0.59190937147E+03  0.59191073392E+03  0.12699999809E+01 0.  1.
    10030    2    1    2    0    0  0.00000000000E+00  0.00000000000E+00  0.23073551962E+03  0.14145566053E+04  0.13956115182E+04 0.  0.
        4    1    3    3  502    0 -0.53196823638E+03  0.12907474128E+03  0.55400184882E+03  0.77882613897E+03  0.12699999809E+01 0. -1.
       -4    1    3    3    0  502  0.53196823638E+03 -0.12907474128E+03 -0.32326632920E+03  0.63573046635E+03  0.12699999809E+01 0.  1.
</event>
<event>
 5   0  0.3917598E-04  0.1397306E+04  0.7818609E-02  0.8955771E-01
        2   -1    0    0  501    0  0.00000000000E+00  0.00000000000E+00  0.70166471474E+03  0.70166471474E+03  0.25500000920E-02 0.  1.
       -2   -1    0    0    0  501  0.00000000000E+00  0.00000000000E+00 -0.69565420932E+03  0.69565420932E+03  0.25500000920E-02 0. -1.
    10030    2    1    2    0    0  0.00000000000E+00  0.00000000000E+00  0.60105054205E+01  0.13973189241E+04  0.13973059970E+04 0.  0.
        3    1    3    3  502    0  0.17522653212E+03 -0.50273980811E+03 -0.44939737416E+03  0.69671347219E+03  0.10100000352E+00 0. -1.
       -3    1    3    3    0  502 -0.17522653212E+03  0.50273980811E+03  0.45540787958E+03  0.70060545188E+03  0.10100000352E+00 0.  1.
</event>
<event>
 5   0  0.2215876E-04  0.1417880E+04  0.7818609E-02  0.8940977E-01
       -1   -1    0    0    0  501  0.00000000000E+00  0.00000000000E+00  0.58612418205E+03  0.58612418207E+03  0.50400001928E-02 0. -1.
        1   -1    0    0  501    0  0.00000000000E+00  0.00000000000E+00 -0.85749088591E+03  0.85749088593E+03  0.50400001928E-02 0.  1.
    10030    2    1    2    0    0  0.00000000000E+00  0.00000000000E+00 -0.27136670387E+03  0.14436150680E+04  0.14178803111E+04 0.  0.
        3    1    3    3  502    0 -0.63251096275E+03  0.13591224609E+03  0.15949921863E+03  0.66631994386E+03  0.10100000352E+00 0. -1.
       -3    1    3    3    0  502  0.63251096275E+03 -0.13591224609E+03 -0.43086592250E+03  0.77729512414E+03  0.10100000352E+00 0.  1.
</event>
<event>
 5   0  0.2215876E-04  0.1402280E+04  0.7818609E-02  0.8952170E-01
       -1   -1    0    0    0  501  0.00000000000E+00  0.00000000000E+00  0.22464856419E+03  0.22464856425E+03  0.50400001928E-02 0. -1.
        1   -1    0    0  501    0  0.00000000000E+00  0.00000000000E+00 -0.21882936742E+04  0.21882936742E+04  0.50400001928E-02 0.  1.
    10030    2    1    2    0    0  0.00000000000E+00  0.00000000000E+00 -0.19636451100E+04  0.24129422385E+04  0.14022796184E+04 0.  0.
        3    1    3    3  502    0 -0.66323933452E+02  0.34058660006E+03  0.66550038821E+02  0.35330866697E+03  0.10100000352E+00 0. -1.
       -3    1    3    3    0  502  0.66323933452E+02 -0.34058660006E+03 -0.20301951489E+04  0.20596335715E+04  0.10100000352E+00 0.  1.
</event>
<event>
 5   0  0.4208622E-04  0.1405684E+04  0.7818609E-02  0.8949714E-01
       -2   -1    0    0    0  501  0.00000000000E+00  0.00000000000E+00  0.36760187872E+03  0.36760187873E+03  0.25500000920E-02 0.  1.
        2   -1    0    0  501    0  0.00000000000E+00  0.00000000000E+00 -0.13438094427E+04  0.13438094427E+04  0.25500000920E-02 0. -1.
    10030    2    1    2    0    0  0.00000000000E+00  0.00000000000E+00 -0.97620756394E+03  0.17114113214E+04  0.14056839983E+04 0.  0.
        4    1    3    3  502    0  0.50238723839E+03  0.20704615179E+03  0.54636550545E+02  0.54612069346E+03  0.12699999809E+01 0.  1.
       -4    1    3    3    0  502 -0.50238723839E+03 -0.20704615179E+03 -0.10308441145E+04  0.11652906279E+04  0.12699999809E+01 0. -1.
</event>
<event>
 5   0  0.2217251E-04  0.1415153E+04  0.7818609E-02  0.8942922E-01
       -1   -1    0    0    0  501  0.00000000000E+00  0.00000000000E+00  0.64064105683E+03  0.64064105685E+03  0.50400001928E-02 0.  1.
        1   -1    0    0  501    0  0.00000000000E+00  0.00000000000E+00 -0.78150563327E+03  0.78150563329E+03  0.50400001928E-02 0. -1.
    10030    2    1    2    0    0  0.00000000000E+00  0.00000000000E+00 -0.14086457645E+03  0.14221466901E+04  0.14151531293E+04 0.  0.
        5    1    3    3  502    0 -0.21725976050E+02  0.70537326639E+03 -0.19002802714E+02  0.70597922029E+03  0.46999998093E+01 0. -1.
       -5    1    3    3    0  502  0.21725976050E+02 -0.70537326639E+03 -0.12186177373E+03  0.71616746985E+03  0.46999998093E+01 0.  1.
</event>
<event>
 5   0  0.1497625E-04  0.1397438E+04  0.7818609E-02  0.8955675E-01
       -3   -1    0    0    0  501  0.00000000000E+00  0.00000000000E+00  0.12606336477E+04  0.12606336518E+04  0.10100000352E+00 0.  1.
        3   -1    0    0  501    0  0.00000000000E+00  0.00000000000E+00 -0.38727216241E+03  0.38727217558E+03  0.10100000352E+00 0. -1.
    10030    2    1    2    0    0  0.00000000000E+00  0.00000000000E+00  0.87336148532E+03  0.16479058274E+04  0.13974381317E+04 0.  0.
        5    1    3    3  502    0 -0.54642583329E+03 -0.16331502842E+03  0.91267823450E+03  0.10762233223E+04  0.46999998093E+01 0. -1.
       -5    1    3    3    0  502  0.54642583329E+03  0.16331502842E+03 -0.39316749185E+02  0.57168250503E+03  0.46999998093E+01 0.  1.
</event>
<event>
 5   0  0.2215876E-04  0.1399605E+04  0.7818609E-02  0.8954104E-01
        1   -1    0    0  501    0  0.00000000000E+00  0.00000000000E+00  0.13640346452E+04  0.13640346452E+04  0.50400001928E-02 0.  1.
       -1   -1    0    0    0  501  0.00000000000E+00  0.00000000000E+00 -0.35902582231E+03  0.35902582234E+03  0.50400001928E-02 0. -1.
    10030    2    1    2    0    0  0.00000000000E+00  0.00000000000E+00  0.10050088228E+04  0.17230604675E+04  0.13996051731E+04 0.  0.
        3    1    3    3  502    0 -0.44327685036E+03  0.53613422934E+03  0.59617660894E+03  0.91616638073E+03  0.10100000352E+00 0. -1.
       -3    1    3    3    0  502  0.44327685036E+03 -0.53613422934E+03  0.40883221391E+03  0.80689408677E+03  0.10100000352E+00 0.  1.
</event>
<event>
 5   0  0.1497625E-04  0.1402597E+04  0.7818609E-02  0.8951941E-01
        3   -1    0    0  501    0  0.00000000000E+00  0.00000000000E+00  0.33298650453E+03  0.33298651985E+03  0.10100000352E+00 0.  1.
       -3   -1    0    0    0  501  0.00000000000E+00  0.00000000000E+00 -0.14769962351E+04  0.14769962386E+04  0.10100000352E+00 0. -1.
    10030    2    1    2    0    0  0.00000000000E+00  0.00000000000E+00 -0.11440097306E+04  0.18099827584E+04  0.14025973485E+04 0.  0.
        1    1    3    3  502    0  0.82620473409E+02  0.59561237732E+02 -0.14674011375E+04  0.14709316034E+04  0.50400001928E-02 0. -1.
       -1    1    3    3    0  502 -0.82620473409E+02 -0.59561237732E+02  0.32339140686E+03  0.33905115503E+03  0.50400001928E-02 0.  1.
</event>
<event>
 5   0  0.2215876E-04  0.1415337E+04  0.7818609E-02  0.8942791E-01
       -1   -1    0    0    0  501  0.00000000000E+00  0.00000000000E+00  0.69299819630E+03  0.69299819632E+03  0.50400001928E-02 0. -1.
        1   -1    0    0  501    0  0.00000000000E+00  0.00000000000E+00 -0.72264929726E+03  0.72264929727E+03  0.50400001928E-02 0.  1.
    10030    2    1    2    0    0  0.00000000000E+00  0.00000000000E+00 -0.29651100952E+02  0.14156474936E+04  0.14153369346E+04 0.  0.
        3    1    3    3  502    0  0.11532663802E+03 -0.21492191367E+03  0.64962660976E+03  0.69390662536E+03  0.10100000352E+00 0. -1.
       -3    1    3    3    0  502 -0.11532663802E+03  0.21492191367E+03 -0.67927771071E+03  0.72174086824E+03  0.10100000352E+00 0.  1.
</event>
<event>
 5   0  0.3917598E-04  0.1340252E+04  0.7818609E-02  0.8998240E-01
       -2   -1    0    0    0  501  0.00000000000E+00  0.00000000000E+00  0.39135502816E+03  0.39135502816E+03  0.25500000920E-02 0. -1.
        2   -1    0    0  501    0  0.00000000000E+00  0.00000000000E+00 -0.11474712453E+04  0.11474712453E+04  0.25500000920E-02 0.  1.
    10030    2    1    2    0    0  0.00000000000E+00  0.00000000000E+00 -0.75611621713E+03  0.15388262735E+04  0.13402516801E+04 0.  0.
        3    1    3    3  502    0  0.20744117610E+03 -0.87948713342E+02  0.34656031913E+03  0.41336531388E+03  0.10100000352E+00 0. -1.
       -3    1    3    3    0  502 -0.20744117610E+03  0.87948713342E+02 -0.11026765363E+04  0.11254609596E+04  0.10100000352E+00 0.  1.
</event>
<event>
 5   0  0.2155352E-04  0.1394154E+04  0.7818609E-02  0.8958061E-01
        1   -1    0    0  501    0  0.00000000000E+00  0.00000000000E+00  0.20525631321E+04  0.20525631321E+04  0.50400001928E-02 0.  1.
       -1   -1    0    0    0  501  0.00000000000E+00  0.00000000000E+00 -0.23673644116E+03  0.23673644121E+03  0.50400001928E-02 0. -1.
    10030    2    1    2    0    0  0.00000000000E+00  0.00000000000E+00  0.18158266909E+04  0.22892995733E+04  0.13941542113E+04 0.  0.
        2    1    3    3  502    0 -0.11979368434E+03  0.36530668698E+03  0.18627417030E+04  0.19020005664E+04  0.25500000920E-02 0.  1.
       -2    1    3    3    0  502  0.11979368434E+03 -0.36530668698E+03 -0.46915012135E+02  0.38729900688E+03  0.25500000920E-02 0. -1.
</event>
<event>
 5   0  0.2215876E-04  0.1394178E+04  0.7818609E-02  0.8958043E-01
       -1   -1    0    0    0  501  0.00000000000E+00  0.00000000000E+00  0.39054762373E+03  0.39054762376E+03  0.50400001928E-02 0.  1.
        1   -1    0    0  501    0  0.00000000000E+00  0.00000000000E+00 -0.12442356140E+04  0.12442356140E+04  0.50400001928E-02 0. -1.
    10030    2    1    2    0    0  0.00000000000E+00  0.00000000000E+00 -0.85368799026E+03  0.16347832378E+04  0.13941782704E+04 0.  0.
        3    1    3    3  502    0  0.64918786655E+02  0.35856438258E+03 -0.11236657640E+04  0.11812737298E+04  0.10100000352E+00 0. -1.
       -3    1    3    3    0  502 -0.64918786655E+02 -0.35856438258E+03  0.26997777373E+03  0.45350950798E+03  0.10100000352E+00 0.  1.
</event>
<event>
 5   0  0.2155352E-04  0.1399877E+04  0.7818609E-02  0.8953907E-01
       -1   -1    0    0    0  501  0.00000000000E+00  0.00000000000E+00  0.17457420165E+04  0.17457420165E+04  0.50400001928E-02 0.  1.
        1   -1    0    0  501    0  0.00000000000E+00  0.00000000000E+00 -0.28063371947E+03  0.28063371952E+03  0.50400001928E-02 0. -1.
    10030    2    1    2    0    0  0.00000000000E+00  0.00000000000E+00  0.14651082970E+04  0.20263757360E+04  0.13998772452E+04 0.  0.
        2    1    3    3  502    0 -0.32562812949E+03 -0.60706024529E+03  0.55316301960E+03  0.88348466109E+03  0.25500000920E-02 0. -1.
       -2    1    3    3    0  502  0.32562812949E+03  0.60706024529E+03  0.91194527740E+03  0.11428910749E+04  0.25500000920E-02 0.  1.
</event>
<event>
 5   0  0.2215876E-04  0.1395453E+04  0.7818609E-02  0.8957116E-01
       -1   -1    0    0    0  501  0.00000000000E+00  0.00000000000E+00  0.54100797626E+03  0.54100797628E+03  0.50400001928E-02 0.  1.
        1   -1    0    0  501    0  0.00000000000E+00  0.00000000000E+00 -0.89984364490E+03  0.89984364492E+03  0.50400001928E-02 0. -1.
    10030    2    1    2    0    0  0.00000000000E+00  0.00000000000E+00 -0.35883566865E+03  0.14408516212E+04  0.13954534594E+04 0.  0.
        3    1    3    3  502    0 -0.14410043645E+03  0.51899152400E+03 -0.63736153535E+03  0.83447401081E+03  0.10100000352E+00 0. -1.
       -3    1    3    3    0  502  0.14410043645E+03 -0.51899152400E+03  0.27852586670E+03  0.60637761039E+03  0.10100000352E+00 0.  1.
</event>
<event>
 5   0  0.3975164E-04  0.1393272E+04  0.7818609E-02  0.8958703E-01
       -2   -1    0    0    0  501  0.00000000000E+00  0.00000000000E+00  0.76433128255E+03  0.76433128255E+03  0.25500000920E-02 0.  1.
        2   -1    0    0  501    0  0.00000000000E+00  0.00000000000E+00 -0.63493623343E+03  0.63493623343E+03  0.25500000920E-02 0. -1.
    10030    2    1    2    0    0  0.00000000000E+00  0.00000000000E+00  0.12939504912E+03  0.13992675160E+04  0.13932718696E+04 0.  0.
        5    1    3    3  502    0  0.42166465237E+03  0.36950323390E+02 -0.49095828901E+03  0.64825036599E+03  0.46999998093E+01 0. -1.
       -5    1    3    3    0  502 -0.42166465237E+03 -0.36950323390E+02  0.62035333813E+03  0.75101714999E+03  0.46999998093E+01 0.  1.
</event>
<event>
 5   0  0.4310348E-04  0.1400947E+04  0.7818609E-02  0.8953133E-01
       -2   -1    0    0    0  501  0.00000000000E+00  0.00000000000E+00  0.31089955652E+03  0.31089955653E+03  0.25500000920E-02 0. -1.
        2   -1    0    0  501    0  0.00000000000E+00  0.00000000000E+00 -0.15782052032E+04  0.15782052032E+04  0.25500000920E-02 0.  1.
    10030    2    1    2    0    0  0.00000000000E+00  0.00000000000E+00 -0.12673056467E+04  0.18891047597E+04  0.14009472478E+04 0.  0.
        1    1    3    3  502    0 -0.26381144413E+03  0.52252154977E+03 -0.11524778743E+04  0.12926060880E+04  0.50400001928E-02 0.  1.
       -1    1    3    3    0  502  0.26381144413E+03 -0.52252154977E+03 -0.11482777240E+03  0.59649867172E+03  0.50400001928E-02 0. -1.
</event>
<event>
 5   0  0.2223112E-04  0.1398707E+04  0.7818609E-02  0.8954755E-01
        1   -1    0    0  501    0  0.00000000000E+00  0.00000000000E+00  0.10165003260E+04  0.10165003260E+04  0.50400001928E-02 0. -1.
       -1   -1    0    0    0  501  0.00000000000E+00  0.00000000000E+00 -0.48115584177E+03  0.48115584179E+03  0.50400001928E-02 0.  1.
    10030    2    1    2    0    0  0.00000000000E+00  0.00000000000E+00  0.53534448421E+03  0.14976561678E+04  0.13987066455E+04 0.  0.
        1    1    3    3  502    0 -0.42603968510E+03  0.14179250493E+03  0.84177470059E+03  0.95404380104E+03  0.50400001928E-02 0. -1.
       -1    1    3    3    0  502  0.42603968510E+03 -0.14179250493E+03 -0.30643021638E+03  0.54361236674E+03  0.50400001928E-02 0.  1.
</event>
<event>
 5   0  0.3932568E-04  0.1401691E+04  0.7818609E-02  0.8952595E-01
        2   -1    0    0  501    0  0.00000000000E+00  0.00000000000E+00  0.94251466762E+03  0.94251466763E+03  0.25500000920E-02 0.  1.
       -2   -1    0    0    0  501  0.00000000000E+00  0.00000000000E+00 -0.52114279841E+03  0.52114279842E+03  0.25500000920E-02 0. -1.
    10030    2    1    2    0    0  0.00000000000E+00  0.00000000000E+00  0.42137186921E+03  0.14636574660E+04  0.14016914517E+04 0.  0.
        2    1    3    3  502    0 -0.17751839430E+03 -0.70250686083E+02 -0.49346713131E+03  0.52911033717E+03  0.25500000920E-02 0. -1.
       -2    1    3    3    0  502  0.17751839430E+03  0.70250686083E+02  0.91483900052E+03  0.93454712888E+03  0.25500000920E-02 0.  1.
</event>
<event>
 5   0  0.3975164E-04  0.1391638E+04  0.7818609E-02  0.8959894E-01
       -2   -1    0    0    0  501  0.00000000000E+00  0.00000000000E+00  0.26580408133E+03  0.26580408134E+03  0.25500000920E-02 0.  1.
        2   -1    0    0  501    0  0.00000000000E+00  0.00000000000E+00 -0.18215068664E+04  0.18215068664E+04  0.25500000920E-02 0. -1.
    10030    2    1    2    0    0  0.00000000000E+00  0.00000000000E+00 -0.15557027851E+04  0.20873109477E+04  0.13916378254E+04 0.  0.
        5    1    3    3  502    0  0.42024985238E+03  0.52623021781E+03 -0.10402845812E+04  0.12392506931E+04  0.46999998093E+01 0.  1.
       -5    1    3    3    0  502 -0.42024985238E+03 -0.52623021781E+03 -0.51541820387E+03  0.84806025460E+03  0.46999998093E+01 0. -1.
</event>
<event>
 5   0  0.2155352E-04  0.1402926E+04  0.7818609E-02  0.8951703E-01
        1   -1    0    0  501    0  0.00000000000E+00  0.00000000000E+00  0.33549481830E+03  0.33549481834E+03  0.50400001928E-02 0.  1.
       -1   -1    0    0    0  501  0.00000000000E+00  0.00000000000E+00 -0.14666416117E+04  0.14666416117E+04  0.50400001928E-02 0. -1.
    10030    2    1    2    0    0  0.00000000000E+00  0.00000000000E+00 -0.11311467934E+04  0.18021364301E+04  0.14029264572E+04 0.  0.
        2    1    3    3  502    0  0.10531297581E+03  0.68491979035E+02 -0.14520734684E+04  0.14574976267E+04  0.25500000920E-02 0. -1.
       -2    1    3    3    0  502 -0.10531297581E+03 -0.68491979035E+02  0.32092667501E+03  0.34463880339E+03  0.25500000920E-02 0.  1.
</event>
<event>
 5   0  0.3932568E-04  0.1405194E+04  0.7818609E-02  0.8950068E-01
       -2   -1    0    0    0  501  0.00000000000E+00  0.00000000000E+00  0.43106938095E+03  0.43106938095E+03  0.25500000920E-02 0.  1.
        2   -1    0    0  501    0  0.00000000000E+00  0.00000000000E+00 -0.11451577197E+04  0.11451577197E+04  0.25500000920E-02 0. -1.
    10030    2    1    2    0    0  0.00000000000E+00  0.00000000000E+00 -0.71408833874E+03  0.15762271006E+04  0.14051938362E+04 0.  0.
        2    1    3    3  502    0 -0.69820219062E+03  0.72049255189E+02 -0.39189026469E+03  0.80390010183E+03  0.25500000920E-02 0. -1.
       -2    1    3    3    0  502  0.69820219062E+03 -0.72049255189E+02 -0.32219807404E+03  0.77232699881E+03  0.25500000920E-02 0.  1.
</event>
<event>
 5   0  0.3917598E-04  0.1404187E+04  0.7818609E-02  0.8950793E-01
        2   -1    0    0  501    0  0.00000000000E+00  0.00000000000E+00  0.19040785821E+04  0.19040785821E+04  0.25500000920E-02 0.  1.
       -2   -1    0    0    0  501  0.00000000000E+00  0.00000000000E+00 -0.25888396237E+03  0.25888396238E+03  0.25500000920E-02 0. -1.
    10030    2    1    2    0    0  0.00000000000E+00  0.00000000000E+00  0.16451946198E+04  0.21629625445E+04  0.14041871784E+04 0.  0.
        3    1    3    3  502    0  0.47334463531E+03  0.45713054880E+03  0.11996313813E+04  0.13682612849E+04  0.10100000352E+00 0.  1.
       -3    1    3    3    0  502 -0.47334463531E+03 -0.45713054880E+03  0.44556323846E+03  0.79470125965E+03  0.10100000352E+00 0. -1.
</event>
<event>
 5   0  0.1497625E-04  0.1400428E+04  0.7818609E-02  0.8953509E-01
       -3   -1    0    0    0  501  0.00000000000E+00  0.00000000000E+00  0.75653283144E+03  0.75653283818E+03  0.10100000352E+00 0. -1.
        3   -1    0    0  501    0  0.00000000000E+00  0.00000000000E+00 -0.64808782273E+03  0.64808783060E+03  0.10100000352E+00 0.  1.
    10030    2    1    2    0    0  0.00000000000E+00  0.00000000000E+00  0.10844500872E+03  0.14046206688E+04  0.14004281143E+04 0.  0.
        4    1    3    3  502    0 -0.45882628386E+03  0.48010270574E+03  0.27687344431E+03  0.71950030152E+03  0.12699999809E+01 0. -1.
       -4    1    3    3    0  502  0.45882628386E+03 -0.48010270574E+03 -0.16842843559E+03  0.68512036726E+03  0.12699999809E+01 0.  1.
</event>
<event>
 5   0  0.2217251E-04  0.1395467E+04  0.7818609E-02  0.8957106E-01
        1   -1    0    0  501    0  0.00000000000E+00  0.00000000000E+00  0.66996359558E+03  0.66996359560E+03  0.50400001928E-02 0.  1.
       -1   -1    0    0    0  501  0.00000000000E+00  0.00000000000E+00 -0.72665463382E+03  0.72665463384E+03  0.50400001928E-02 0. -1.
    10030    2    1    2    0    0  0.00000000000E+00  0.00000000000E+00 -0.56691038241E+02  0.13966182294E+04  0.13954671637E+04 0.  0.
        5    1    3    3  502    0  0.62693788520E+03  0.29888228049E+03 -0.94946121765E+02  0.70101254306E+03  0.46999998093E+01 0.  1.
       -5    1    3    3    0  502 -0.62693788520E+03 -0.29888228049E+03  0.38255083524E+02  0.69560568637E+03  0.46999998093E+01 0. -1.
</event>
<event>
 5   0  0.4310348E-04  0.1401061E+04  0.7818609E-02  0.8953051E-01
        2   -1    0    0  501    0  0.00000000000E+00  0.00000000000E+00  0.15969299995E+04  0.15969299995E+04  0.25500000920E-02 0.  1.
       -2   -1    0    0    0  501  0.00000000000E+00  0.00000000000E+00 -0.30730403774E+03  0.30730403775E+03  0.25500000920E-02 0. -1.
    10030    2    1    2    0    0  0.00000000000E+00  0.00000000000E+00  0.12896259617E+04  0.19042340372E+04  0.14010610791E+04 0.  0.
        1    1    3    3  502    0 -0.73512385564E+02 -0.12722227078E+03 -0.28612493022E+03  0.32164740436E+03  0.50400001928E-02 0. -1.
       -1    1    3    3    0  502  0.73512385564E+02  0.12722227078E+03  0.15757508920E+04  0.15825866329E+04  0.50400001928E-02 0.  1.
</event>
<event>
 5   0  0.2143942E-04  0.1399708E+04  0.7818609E-02  0.8954030E-01
        1   -1    0    0  501    0  0.00000000000E+00  0.00000000000E+00  0.10345232916E+04  0.10345232916E+04  0.50400001928E-02 0. -1.
       -1   -1    0    0    0  501  0.00000000000E+00  0.00000000000E+00 -0.47345046493E+03  0.47345046495E+03  0.50400001928E-02 0.  1.
    10030    2    1    2    0    0  0.00000000000E+00  0.00000000000E+00  0.56107282664E+03  0.15079737565E+04  0.13997078744E+04 0.  0.
        4    1    3    3  502    0  0.68881688540E+03 -0.10540398777E+03  0.35048298141E+03  0.78001194568E+03  0.12699999809E+01 0.  1.
       -4    1    3    3    0  502 -0.68881688540E+03  0.10540398777E+03  0.21058984524E+03  0.72796181086E+03  0.12699999809E+01 0. -1.
</event>
<event>
 5   0  0.2155352E-04  0.1400155E+04  0.7818609E-02  0.8953706E-01
        1   -1    0    0  501    0  0.00000000000E+00  0.00000000000E+00  0.73973191960E+03  0.73973191961E+03  0.50400001928E-02 0.  1.
       -1   -1    0    0    0  501  0.00000000000E+00  0.00000000000E+00 -0.66254908036E+03  0.66254908038E+03  0.50400001928E-02 0. -1.
    10030    2    1    2    0    0  0.00000000000E+00  0.00000000000E+00  0.77182839235E+02  0.14022810000E+04  0.14001552815E+04 0.  0.
        2    1    3    3  502    0  0.41650244474E+03  0.31733100481E+03  0.50398546228E+03  0.72675621723E+03  0.25500000920E-02 0.  1.
       -2    1    3    3    0  502 -0.41650244474E+03 -0.31733100481E+03 -0.42680262304E+03  0.67552478277E+03  0.25500000920E-02 0. -1.
</event>
<event>
 5   0  0.4208622E-04  0.1407060E+04  0.7818609E-02  0.8948724E-01
        2   -1    0    0  501    0  0.00000000000E+00  0.00000000000E+00  0.66238814196E+03  0.66238814196E+03  0.25500000920E-02 0. -1.
       -2   -1    0    0    0  501  0.00000000000E+00  0.00000000000E+00 -0.74722675553E+03  0.74722675554E+03  0.25500000920E-02 0.  1.
    10030    2    1    2    0    0  0.00000000000E+00  0.00000000000E+00 -0.84838613573E+02  0.14096148975E+04  0.14070595470E+04 0.  0.
        4    1    3    3  502    0 -0.52365173211E+03  0.46631838159E+03 -0.99869417943E+02  0.70826512204E+03  0.12699999809E+01 0. -1.
       -4    1    3    3    0  502  0.52365173211E+03 -0.46631838159E+03  0.15030804369E+02  0.70134977546E+03  0.12699999809E+01 0.  1.
</event>
<event>
 5   0  0.3932568E-04  0.1396959E+04  0.7818609E-02  0.8956023E-01
        2   -1    0    0  501    0  0.00000000000E+00  0.00000000000E+00  0.15394818137E+04  0.15394818137E+04  0.25500000920E-02 0. -1.
       -2   -1    0    0    0  501  0.00000000000E+00  0.00000000000E+00 -0.31690764943E+03  0.31690764944E+03  0.25500000920E-02 0.  1.
    10030    2    1    2    0    0  0.00000000000E+00  0.00000000000E+00  0.12225741643E+04  0.18563894632E+04  0.13969589299E+04 0.  0.
        2    1    3    3  502    0 -0.28981561494E+03  0.35424047048E+02  0.14544978696E+04  0.14835133995E+04  0.25500000920E-02 0. -1.
       -2    1    3    3    0  502  0.28981561494E+03 -0.35424047048E+02 -0.23192370531E+03  0.37287606367E+03  0.25500000920E-02 0.  1.
</event>
<event>
 5   0  0.3975164E-04  0.1402072E+04  0.7818609E-02  0.8952320E-01
       -2   -1    0    0    0  501  0.00000000000E+00  0.00000000000E+00  0.44249473129E+03  0.44249473130E+03  0.25500000920E-02 0.  1.
        2   -1    0    0  501    0  0.00000000000E+00  0.00000000000E+00 -0.11106378865E+04  0.11106378865E+04  0.25500000920E-02 0. -1.
    10030    2    1    2    0    0  0.00000000000E+00  0.00000000000E+00 -0.66814315521E+03  0.15531326178E+04  0.14020719142E+04 0.  0.
        5    1    3    3  502    0 -0.56187578960E+03  0.41188425661E+03 -0.42042053881E+03  0.81371282603E+03  0.46999998093E+01 0. -1.
       -5    1    3    3    0  502  0.56187578960E+03 -0.41188425661E+03 -0.24772261640E+03  0.73941979177E+03  0.46999998093E+01 0.  1.
</event>
<event>
 5   0  0.2155352E-04  0.1493499E+04  0.7818609E-02  0.8888787E-01
        1   -1    0    0  501    0  0.00000000000E+00  0.00000000000E+00  0.10018566039E+04  0.10018566039E+04  0.50400001928E-02 0. -1.
       -1   -1    0    0    0  501  0.00000000000E+00  0.00000000000E+00 -0.55660164192E+03  0.55660164194E+03  0.50400001928E-02 0.  1.
    10030    2    1    2    0    0  0.00000000000E+00  0.00000000000E+00  0.44525496199E+03  0.15584582459E+04  0.14934992879E+04 0.  0.
        2    1    3    3  502    0  0.23072652838E+03 -0.21819134952E+03  0.92788835794E+03  0.98072371273E+03  0.25500000920E-02 0. -1.
       -2    1    3    3    0  502 -0.23072652838E+03  0.21819134952E+03 -0.48263339594E+03  0.57773453314E+03  0.25500000920E-02 0.  1.
</event>
<event>
 5   0  0.4208622E-04  0.1398459E+04  0.7818609E-02  0.8954935E-01
        2   -1    0    0  501    0  0.00000000000E+00  0.00000000000E+00  0.61345627341E+03  0.61345627341E+03  0.25500000920E-02 0. -1.
       -2   -1    0    0    0  501  0.00000000000E+00  0.00000000000E+00 -0.79699497151E+03  0.79699497152E+03  0.25500000920E-02 0.  1.
    10030    2    1    2    0    0  0.00000000000E+00  0.00000000000E+00 -0.18353869810E+03  0.14104512449E+04  0.13984585302E+04 0.  0.
        4    1    3    3  502    0  0.21990333427E+03  0.63694187553E+02 -0.75812081784E+03  0.79193636947E+03  0.12699999809E+01 0.  1.
       -4    1    3    3    0  502 -0.21990333427E+03 -0.63694187553E+02  0.57458211973E+03  0.61851487546E+03  0.12699999809E+01 0. -1.
</event>
<event>
 5   0  0.3917598E-04  0.1393598E+04  0.7818609E-02  0.8958466E-01
        2   -1    0    0  501    0  0.00000000000E+00  0.00000000000E+00  0.19422506939E+04  0.19422506939E+04  0.25500000920E-02 0.  1.
       -2   -1    0    0    0  501  0.00000000000E+00  0.00000000000E+00 -0.24998260811E+03  0.24998260812E+03  0.25500000920E-02 0. -1.
    10030    2    1    2    0    0  0.00000000000E+00  0.00000000000E+00  0.16922680858E+04  0.21922333020E+04  0.13935980684E+04 0.  0.
        3    1    3    3  502    0 -0.25273139950E+03  0.59733039049E+03  0.12467344177E+04  0.14053552840E+04  0.10100000352E+00 0.  1.
       -3    1    3    3    0  502  0.25273139950E+03 -0.59733039049E+03  0.44553366809E+03  0.78687801806E+03  0.10100000352E+00 0. -1.
</event>
<event>
 5   0  0.2215876E-04  0.1405062E+04  0.7818609E-02  0.8950162E-01
        1   -1    0    0  501    0  0.00000000000E+00  0.00000000000E+00  0.19617942382E+04  0.19617942382E+04  0.50400001928E-02 0. -1.
       -1   -1    0    0    0  501  0.00000000000E+00  0.00000000000E+00 -0.25158091025E+03  0.25158091030E+03  0.50400001928E-02 0.  1.
    10030    2    1    2    0    0  0.00000000000E+00  0.00000000000E+00  0.17102133279E+04  0.22133751485E+04  0.14050622481E+04 0.  0.
        3    1    3    3  502    0  0.53072925353E+03 -0.19797329720E+03  0.20049421419E+03  0.60088676728E+03  0.10100000352E+00 0. -1.
       -3    1    3    3    0  502 -0.53072925353E+03  0.19797329720E+03  0.15097191137E+04  0.16124883812E+04  0.10100000352E+00 0.  1.
</event>
<event>
 5   0  0.3917598E-04  0.1398216E+04  0.7818609E-02  0.8955111E-01
        2   -1    0    0  501    0  0.00000000000E+00  0.00000000000E+00  0.10279913865E+04  0.10279913865E+04  0.25500000920E-02 0. -1.
       -2   -1    0    0    0  501  0.00000000000E+00  0.00000000000E+00 -0.47544386737E+03  0.47544386738E+03  0.25500000920E-02 0.  1.
    10030    2    1    2    0    0  0.00000000000E+00  0.00000000000E+00  0.55254751914E+03  0.15034352539E+04  0.13982162929E+04 0.  0.
        3    1    3    3  502    0  0.44280450066E+03 -0.37823860960E+03 -0.13963059495E+03  0.59886307688E+03  0.10100000352E+00 0.  1.
       -3    1    3    3    0  502 -0.44280450066E+03  0.37823860960E+03  0.69217811409E+03  0.90457217702E+03  0.10100000352E+00 0. -1.
</event>
<event>
 5   0  0.2155352E-04  0.1406013E+04  0.7818609E-02  0.8949478E-01
        1   -1    0    0  501    0  0.00000000000E+00  0.00000000000E+00  0.68443010360E+03  0.68443010362E+03  0.50400001928E-02 0.  1.
       -1   -1    0    0    0  501  0.00000000000E+00  0.00000000000E+00 -0.72208667612E+03  0.72208667613E+03  0.50400001928E-02 0. -1.
    10030    2    1    2    0    0  0.00000000000E+00  0.00000000000E+00 -0.37656572513E+02  0.14065167798E+04  0.14060126010E+04 0.  0.
        2    1    3    3  502    0 -0.45446119128E+03 -0.52393310232E+03  0.96003940843E+02  0.70018399493E+03  0.25500000920E-02 0.  1.
       -2    1    3    3    0  502  0.45446119128E+03  0.52393310232E+03 -0.13366051336E+03  0.70633278483E+03  0.25500000920E-02 0. -1.
</event>
<event>
 5   0  0.2223112E-04  0.1410706E+04  0.7818609E-02  0.8946105E-01
        1   -1    0    0  501    0  0.00000000000E+00  0.00000000000E+00  0.97026158607E+03  0.97026158608E+03  0.50400001928E-02 0.  1.
       -1   -1    0    0    0  501  0.00000000000E+00  0.00000000000E+00 -0.51277190043E+03  0.51277190045E+03  0.50400001928E-02 0. -1.
    10030    2    1    2    0    0  0.00000000000E+00  0.00000000000E+00  0.45748968564E+03  0.14830334865E+04  0.14107060323E+04 0.  0.
        1    1    3    3  502    0 -0.91139396822E+02 -0.74752648257E+02 -0.50234439360E+03  0.51598860248E+03  0.50400001928E-02 0. -1.
       -1    1    3    3    0  502  0.91139396822E+02  0.74752648257E+02  0.95983407924E+03  0.96704488406E+03  0.50400001928E-02 0.  1.
</event>
<event>
 5   0  0.4208622E-04  0.1404031E+04  0.7818609E-02  0.8950906E-01
       -2   -1    0    0    0  501  0.00000000000E+00  0.00000000000E+00  0.27710299664E+03  0.27710299665E+03  0.25500000920E-02 0.  1.
        2   -1    0    0  501    0  0.00000000000E+00  0.00000000000E+00 -0.17784941305E+04  0.17784941305E+04  0.25500000920E-02 0. -1.
    10030    2    1    2    0    0  0.00000000000E+00  0.00000000000E+00 -0.15013911338E+04  0.20555971271E+04  0.14040314143E+04 0.  0.
        4    1    3    3  502    0 -0.96128662927E+02  0.65521286806E+03 -0.10917945055E+04  0.12769344061E+04  0.12699999809E+01 0. -1.
       -4    1    3    3    0  502  0.96128662927E+02 -0.65521286806E+03 -0.40959662836E+03  0.77866272106E+03  0.12699999809E+01 0.  1.
</event>
<event>
 5   0  0.4208622E-04  0.1399881E+04  0.7818609E-02  0.8953905E-01
       -2   -1    0    0    0  501  0.00000000000E+00  0.00000000000E+00  0.16718328250E+03  0.16718328252E+03  0.25500000920E-02 0. -1.
        2   -1    0    0  501    0  0.00000000000E+00  0.00000000000E+00 -0.29304169627E+04  0.29304169627E+04  0.25500000920E-02 0.  1.
    10030    2    1    2    0    0  0.00000000000E+00  0.00000000000E+00 -0.27632336802E+04  0.30976002452E+04  0.13998810334E+04 0.  0.
        4    1    3    3  502    0 -0.28125257527E+03 -0.36050634102E+01  0.36620729167E+02  0.28365242514E+03  0.12699999809E+01 0. -1.
       -4    1    3    3    0  502  0.28125257527E+03  0.36050634102E+01 -0.27998544094E+04  0.28139478201E+04  0.12699999809E+01 0.  1.
</event>
<event>
 5   0  0.4208622E-04  0.1398242E+04  0.7818609E-02  0.8955092E-01
       -2   -1    0    0    0  501  0.00000000000E+00  0.00000000000E+00  0.10855773441E+04  0.10855773441E+04  0.25500000920E-02 0.  1.
        2   -1    0    0  501    0  0.00000000000E+00  0.00000000000E+00 -0.45023965525E+03  0.45023965526E+03  0.25500000920E-02 0. -1.
    10030    2    1    2    0    0  0.00000000000E+00  0.00000000000E+00  0.63533768887E+03  0.15358169994E+04  0.13982417090E+04 0.  0.
        4    1    3    3  502    0  0.61447180764E+03 -0.33118561950E+03  0.27500316022E+03  0.75025853409E+03  0.12699999809E+01 0.  1.
       -4    1    3    3    0  502 -0.61447180764E+03  0.33118561950E+03  0.36033452865E+03  0.78555846529E+03  0.12699999809E+01 0. -1.
</event>
<event>
 5   0  0.2223112E-04  0.1404902E+04  0.7818609E-02  0.8950278E-01
       -1   -1    0    0    0  501  0.00000000000E+00  0.00000000000E+00  0.49210607132E+03  0.49210607134E+03  0.50400001928E-02 0.  1.
        1   -1    0    0  501    0  0.00000000000E+00  0.00000000000E+00 -0.10027052985E+04  0.10027052985E+04  0.50400001928E-02 0. -1.
    10030    2    1    2    0    0  0.00000000000E+00  0.00000000000E+00 -0.51059922721E+03  0.14948113699E+04  0.14049019399E+04 0.  0.
        1    1    3    3  502    0  0.36892492100E+03  0.54710205661E+03 -0.51156854539E+03  0.83494229402E+03  0.50400001928E-02 0.  1.
       -1    1    3    3    0  502 -0.36892492100E+03 -0.54710205661E+03  0.96931818286E+00  0.65986907586E+03  0.50400001928E-02 0. -1.
</event>
<event>
 5   0  0.3975164E-04  0.1395594E+04  0.7818609E-02  0.8957014E-01
       -2   -1    0    0    0  501  0.00000000000E+00  0.00000000000E+00  0.95640755170E+03  0.95640755170E+03  0.25500000920E-02 0. -1.
        2   -1    0    0  501    0  0.00000000000E+00  0.00000000000E+00 -0.50911436269E+03  0.50911436269E+03  0.25500000920E-02 0.  1.
    10030    2    1    2    0    0  0.00000000000E+00  0.00000000000E+00  0.44729318901E+03  0.14655219144E+04  0.13955942407E+04 0.  0.
        5    1    3    3  502    0 -0.25991747554E+03 -0.23431945740E+03  0.85758023868E+03  0.92624438350E+03  0.46999998093E+01 0. -1.
       -5    1    3    3    0  502  0.25991747554E+03  0.23431945740E+03 -0.41028704966E+03  0.53927753089E+03  0.46999998093E+01 0.  1.
</event>
<event>
 5   0  0.3917598E-04  0.1399486E+04  0.7818609E-02  0.8954191E-01
       -2   -1    0    0    0  501  0.00000000000E+00  0.00000000000E+00  0.54555993672E+03  0.54555993673E+03  0.25500000920E-02 0. -1.
        2   -1    0    0  501    0  0.00000000000E+00  0.00000000000E+00 -0.89750047104E+03  0.89750047104E+03  0.25500000920E-02 0.  1.
    10030    2    1    2    0    0  0.00000000000E+00  0.00000000000E+00 -0.35194053432E+03  0.14430604078E+04  0.13994860488E+04 0.  0.
        3    1    3    3  502    0 -0.94526796394E+02 -0.12152565989E+03  0.52787841090E+03  0.54987219255E+03  0.10100000352E+00 0. -1.
       -3    1    3    3    0  502  0.94526796394E+02  0.12152565989E+03 -0.87981894521E+03  0.89318821522E+03  0.10100000352E+00 0.  1.
</event>
<event>
 5   0  0.2155352E-04  0.1396791E+04  0.7818609E-02  0.8956145E-01
       -1   -1    0    0    0  501  0.00000000000E+00  0.00000000000E+00  0.34778299267E+03  0.34778299271E+03  0.50400001928E-02 0.  1.
        1   -1    0    0  501    0  0.00000000000E+00  0.00000000000E+00 -0.14024734144E+04  0.14024734144E+04  0.50400001928E-02 0. -1.
    10030    2    1    2    0    0  0.00000000000E+00  0.00000000000E+00 -0.10546904217E+04  0.17502564071E+04  0.13967911816E+04 0.  0.
        2    1    3    3  502    0  0.51162591716E+03 -0.27839625861E+03 -0.44486543557E+02  0.58416145755E+03  0.25500000920E-02 0.  1.
       -2    1    3    3    0  502 -0.51162591716E+03  0.27839625861E+03 -0.10102038782E+04  0.11660949496E+04  0.25500000920E-02 0. -1.
</event>
<event>
 5   0  0.2223112E-04  0.1399306E+04  0.7818609E-02  0.8954321E-01
        1   -1    0    0  501    0  0.00000000000E+00  0.00000000000E+00  0.15588303776E+04  0.15588303776E+04  0.50400001928E-02 0.  1.
       -1   -1    0    0    0  501  0.00000000000E+00  0.00000000000E+00 -0.31402678137E+03  0.31402678141E+03  0.50400001928E-02 0. -1.
    10030    2    1    2    0    0  0.00000000000E+00  0.00000000000E+00  0.12448035962E+04  0.18728571590E+04  0.13993062370E+04 0.  0.
        1    1    3    3  502    0  0.45744297588E+03 -0.27830687881E+03  0.12251444918E+04  0.13370444348E+04  0.50400001928E-02 0.  1.
       -1    1    3    3    0  502 -0.45744297588E+03  0.27830687881E+03  0.19659104440E+02  0.53581272417E+03  0.50400001928E-02 0. -1.
</event>
<event>
 5   0  0.2155352E-04  0.1397165E+04  0.7818609E-02  0.8955873E-01
        1   -1    0    0  501    0  0.00000000000E+00  0.00000000000E+00  0.10998140766E+04  0.10998140766E+04  0.50400001928E-02 0.  1.
       -1   -1    0    0    0  501  0.00000000000E+00  0.00000000000E+00 -0.44372724669E+03  0.44372724672E+03  0.50400001928E-02 0. -1.
    10030    2    1    2    0    0  0.00000000000E+00  0.00000000000E+00  0.65608682991E+03  0.15435413233E+04  0.13971649468E+04 0.  0.
        2    1    3    3  502    0 -0.20912562584E+03  0.48634832258E+03  0.83159076636E+03  0.98580496091E+03  0.25500000920E-02 0.  1.
       -2    1    3    3    0  502  0.20912562584E+03 -0.48634832258E+03 -0.17550393644E+03  0.55773636242E+03  0.25500000920E-02 0. -1.
</event>
<event>
 5   0  0.3917598E-04  0.1397452E+04  0.7818609E-02  0.8955665E-01
       -2   -1    0    0    0  501  0.00000000000E+00  0.00000000000E+00  0.54416696806E+03  0.54416696806E+03  0.25500000920E-02 0.  1.
        2   -1    0    0  501    0  0.00000000000E+00  0.00000000000E+00 -0.89718405222E+03  0.89718405222E+03  0.25500000920E-02 0. -1.
    10030    2    1    2    0    0  0.00000000000E+00  0.00000000000E+00 -0.35301708416E+03  0.14413510203E+04  0.13974518603E+04 0.  0.
        3    1    3    3  502    0  0.38393181821E+03 -0.44028769186E+03  0.21888901924E+03  0.62383435749E+03  0.10100000352E+00 0.  1.
       -3    1    3    3    0  502 -0.38393181821E+03  0.44028769186E+03 -0.57190610340E+03  0.81751666279E+03  0.10100000352E+00 0. -1.
</event>
<event>
 5   0  0.2155352E-04  0.1403431E+04  0.7818609E-02  0.8951338E-01
       -1   -1    0    0    0  501  0.00000000000E+00  0.00000000000E+00  0.58728882708E+03  0.58728882710E+03  0.50400001928E-02 0.  1.
        1   -1    0    0  501    0  0.00000000000E+00  0.00000000000E+00 -0.83843743336E+03  0.83843743337E+03  0.50400001928E-02 0. -1.
    10030    2    1    2    0    0  0.00000000000E+00  0.00000000000E+00 -0.25114860628E+03  0.14257262605E+04  0.14034314188E+04 0.  0.
        2    1    3    3  502    0  0.20854099133E+03 -0.14082980019E+03 -0.79102423531E+03  0.83008536823E+03  0.25500000920E-02 0. -1.
       -2    1    3    3    0  502 -0.20854099133E+03  0.14082980019E+03  0.53987562903E+03  0.59564089224E+03  0.25500000920E-02 0.  1.
</event>
<event>
 5   0  0.3932568E-04  0.1409250E+04  0.7818609E-02  0.8947150E-01
       -2   -1    0    0    0  501  0.00000000000E+00  0.00000000000E+00  0.89221925745E+03  0.89221925746E+03  0.25500000920E-02 0. -1.
        2   -1    0    0  501    0  0.00000000000E+00  0.00000000000E+00 -0.55647378171E+03  0.55647378171E+03  0.25500000920E-02 0.  1.
    10030    2    1    2    0    0  0.00000000000E+00  0.00000000000E+00  0.33574547574E+03  0.14486930392E+04  0.14092503317E+04 0.  0.
        2    1    3    3  502    0 -0.31899793263E+03  0.43658669095E+03 -0.29657899392E+03  0.61670634777E+03  0.25500000920E-02 0.  1.
       -2    1    3    3    0  502  0.31899793263E+03 -0.43658669095E+03  0.63232446966E+03  0.83198669140E+03  0.25500000920E-02 0. -1.
</event>
<event>
 5   0  0.2215876E-04  0.1402276E+04  0.7818609E-02  0.8952173E-01
        1   -1    0    0  501    0  0.00000000000E+00  0.00000000000E+00  0.14169054101E+04  0.14169054101E+04  0.50400001928E-02 0. -1.
       -1   -1    0    0    0  501  0.00000000000E+00  0.00000000000E+00 -0.34694918421E+03  0.34694918424E+03  0.50400001928E-02 0.  1.
    10030    2    1    2    0    0  0.00000000000E+00  0.00000000000E+00  0.10699562259E+04  0.17638545944E+04  0.14022755452E+04 0.  0.
        3    1    3    3  502    0  0.12395238359E+03  0.16779678209E+03  0.13769631922E+04  0.13926764148E+04  0.10100000352E+00 0. -1.
       -3    1    3    3    0  502 -0.12395238359E+03 -0.16779678209E+03 -0.30700696626E+03  0.37117817960E+03  0.10100000352E+00 0.  1.
</event>
<event>
 5   0  0.2223112E-04  0.1400935E+04  0.7818609E-02  0.8953142E-01
       -1   -1    0    0    0  501  0.00000000000E+00  0.00000000000E+00  0.29556827324E+03  0.29556827329E+03  0.50400001928E-02 0.  1.
        1   -1    0    0  501    0  0.00000000000E+00  0.00000000000E+00 -0.16600381611E+04  0.16600381611E+04  0.50400001928E-02 0. -1.
    10030    2    1    2    0    0  0.00000000000E+00  0.00000000000E+00 -0.13644698878E+04  0.19556064344E+04  0.14009348491E+04 0.  0.
        1    1    3    3  502    0  0.44665585110E+03  0.21939312386E+03 -0.13703869287E+04  0.14579420861E+04  0.50400001928E-02 0. -1.
       -1    1    3    3    0  502 -0.44665585110E+03 -0.21939312386E+03  0.59170408659E+01  0.49766434825E+03  0.50400001928E-02 0.  1.
</event>
<event>
 5   0  0.4208622E-04  0.1406838E+04  0.7818609E-02  0.8948884E-01
        2   -1    0    0  501    0  0.00000000000E+00  0.00000000000E+00  0.38894711047E+03  0.38894711048E+03  0.25500000920E-02 0.  1.
       -2   -1    0    0    0  501  0.00000000000E+00  0.00000000000E+00 -0.12721481484E+04  0.12721481484E+04  0.25500000920E-02 0. -1.
    10030    2    1    2    0    0  0.00000000000E+00  0.00000000000E+00 -0.88320103790E+03  0.16610952589E+04  0.14068380808E+04 0.  0.
        4    1    3    3  502    0 -0.97588881075E+02  0.33821648583E+03  0.27746546063E+03  0.44822168147E+03  0.12699999809E+01 0.  1.
       -4    1    3    3    0  502  0.97588881075E+02 -0.33821648583E+03 -0.11606664985E+04  0.12128735774E+04  0.12699999809E+01 0. -1.
</event>
<event>
 5   0  0.3975164E-04  0.1393583E+04  0.7818609E-02  0.8958477E-01
        2   -1    0    0  501    0  0.00000000000E+00  0.00000000000E+00  0.19842672657E+04  0.19842672657E+04  0.25500000920E-02 0. -1.
       -2   -1    0    0    0  501  0.00000000000E+00  0.00000000000E+00 -0.24468393337E+03  0.24468393338E+03  0.25500000920E-02 0.  1.
    10030    2    1    2    0    0  0.00000000000E+00  0.00000000000E+00  0.17395833324E+04  0.22289511991E+04  0.13935828923E+04 0.  0.
        5    1    3    3  502    0  0.43595314992E+03 -0.42105512983E+03  0.32000862411E+03  0.68539782666E+03  0.46999998093E+01 0.  1.
       -5    1    3    3    0  502 -0.43595314992E+03  0.42105512983E+03  0.14195747083E+04  0.15435533725E+04  0.46999998093E+01 0. -1.
</event>
<event>
 5   0  0.2155352E-04  0.1399625E+04  0.7818609E-02  0.8954090E-01
       -1   -1    0    0    0  501  0.00000000000E+00  0.00000000000E+00  0.39060770764E+03  0.39060770767E+03  0.50400001928E-02 0. -1.
        1   -1    0    0  501    0  0.00000000000E+00  0.00000000000E+00 -0.12537831059E+04  0.12537831059E+04  0.50400001928E-02 0.  1.
    10030    2    1    2    0    0  0.00000000000E+00  0.00000000000E+00 -0.86317539825E+03  0.16443908136E+04  0.13996247281E+04 0.  0.
        2    1    3    3  502    0 -0.14427946796E+03  0.98893134151E+02  0.36451012866E+03  0.40430687696E+03  0.25500000920E-02 0. -1.
       -2    1    3    3    0  502  0.14427946796E+03 -0.98893134151E+02 -0.12276855269E+04  0.12400839366E+04  0.25500000920E-02 0.  1.
</event>
<event>
 5   0  0.2155352E-04  0.1402908E+04  0.7818609E-02  0.8951716E-01
        1   -1    0    0  501    0  0.00000000000E+00  0.00000000000E+00  0.37612865247E+03  0.37612865251E+03  0.50400001928E-02 0. -1.
       -1   -1    0    0    0  501  0.00000000000E+00  0.00000000000E+00 -0.13081639373E+04  0.13081639373E+04  0.50400001928E-02 0.  1.
    10030    2    1    2    0    0  0.00000000000E+00  0.00000000000E+00 -0.93203528484E+03  0.16842925898E+04  0.14029083206E+04 0.  0.
        2    1    3    3  502    0  0.40178882472E+03 -0.37029305556E+03  0.62079529798E+02  0.54991369750E+03  0.25500000920E-02 0. -1.
       -2    1    3    3    0  502 -0.40178882472E+03  0.37029305556E+03 -0.99411481464E+03  0.11343788923E+04  0.25500000920E-02 0.  1.
</event>
<event>
 5   0  0.2223112E-04  0.1444295E+04  0.7818609E-02  0.8922366E-01
       -1   -1    0    0    0  501  0.00000000000E+00  0.00000000000E+00  0.10611704631E+04  0.10611704631E+04  0.50400001928E-02 0.  1.
        1   -1    0    0  501    0  0.00000000000E+00  0.00000000000E+00 -0.49143539040E+03  0.49143539043E+03  0.50400001928E-02 0. -1.
    10030    2    1    2    0    0  0.00000000000E+00  0.00000000000E+00  0.56973507273E+03  0.15526058536E+04  0.14442945972E+04 0.  0.
        1    1    3    3  502    0 -0.57771098860E+03  0.32888686758E+03 -0.18387375706E+02  0.66502229559E+03  0.50400001928E-02 0. -1.
       -1    1    3    3    0  502  0.57771098860E+03 -0.32888686758E+03  0.58812244843E+03  0.88758355798E+03  0.50400001928E-02 0.  1.
</event>
<event>
 5   0  0.2217251E-04  0.1351196E+04  0.7818609E-02  0.8989923E-01
        1   -1    0    0  501    0  0.00000000000E+00  0.00000000000E+00  0.78830700280E+03  0.78830700282E+03  0.50400001928E-02 0.  1.
       -1   -1    0    0    0  501  0.00000000000E+00  0.00000000000E+00 -0.57900348588E+03  0.57900348590E+03  0.50400001928E-02 0. -1.
    10030    2    1    2    0    0  0.00000000000E+00  0.00000000000E+00  0.20930351693E+03  0.13673104887E+04  0.13511957706E+04 0.  0.
        5    1    3    3  502    0 -0.28076094756E+03  0.13084781490E+03 -0.50289393235E+03  0.59065409295E+03  0.46999998093E+01 0. -1.
       -5    1    3    3    0  502  0.28076094756E+03 -0.13084781490E+03  0.71219744927E+03  0.77665639576E+03  0.46999998093E+01 0.  1.
</event>
<event>
 5   0  0.2215876E-04  0.1403625E+04  0.7818609E-02  0.8951198E-01
       -1   -1    0    0    0  501  0.00000000000E+00  0.00000000000E+00  0.34543805188E+03  0.34543805192E+03  0.50400001928E-02 0.  1.
        1   -1    0    0  501    0  0.00000000000E+00  0.00000000000E+00 -0.14258449603E+04  0.14258449604E+04  0.50400001928E-02 0. -1.
    10030    2    1    2    0    0  0.00000000000E+00  0.00000000000E+00 -0.10804069085E+04  0.17712830123E+04  0.14036254563E+04 0.  0.
        3    1    3    3  502    0  0.33400442587E+03 -0.57658383623E+03 -0.81821079778E+03  0.10552140998E+04  0.10100000352E+00 0.  1.
       -3    1    3    3    0  502 -0.33400442587E+03  0.57658383623E+03 -0.26219611069E+03  0.71606891244E+03  0.10100000352E+00 0. -1.
</event>
<event>
 5   0  0.4310348E-04  0.1399903E+04  0.7818609E-02  0.8953889E-01
        2   -1    0    0  501    0  0.00000000000E+00  0.00000000000E+00  0.96637277922E+03  0.96637277922E+03  0.25500000920E-02 0. -1.
       -2   -1    0    0    0  501  0.00000000000E+00  0.00000000000E+00 -0.50698040408E+03  0.50698040409E+03  0.25500000920E-02 0.  1.
    10030    2    1    2    0    0  0.00000000000E+00  0.00000000000E+00  0.45939237514E+03  0.14733531833E+04  0.13999029425E+04 0.  0.
        1    1    3    3  502    0 -0.13519156141E+03 -0.47300791689E+03 -0.29434290087E+03  0.57328090063E+03  0.50400001928E-02 0.  1.
       -1    1    3    3    0  502  0.13519156141E+03  0.47300791689E+03  0.75373527600E+03  0.90007228267E+03  0.50400001928E-02 0. -1.
</event>
<event>
 5   0  0.2217251E-04  0.1394832E+04  0.7818609E-02  0.8957568E-01
        1   -1    0    0  501    0  0.00000000000E+00  0.00000000000E+00  0.89167559154E+03  0.89167559156E+03  0.50400001928E-02 0. -1.
       -1   -1    0    0    0  501  0.00000000000E+00  0.00000000000E+00 -0.54547746912E+03  0.54547746914E+03  0.50400001928E-02 0.  1.
    10030    2    1    2    0    0  0.00000000000E+00  0.00000000000E+00  0.34619812242E+03  0.14371530607E+04  0.13948318106E+04 0.  0.
        5    1    3    3  502    0 -0.24544403050E+03  0.43306576451E+03 -0.33016566602E+03  0.59734427721E+03  0.46999998093E+01 0.  1.
       -5    1    3    3    0  502  0.24544403050E+03 -0.43306576451E+03  0.67636378844E+03  0.83980878348E+03  0.46999998093E+01 0. -1.
</event>
<event>
 5   0  0.2223112E-04  0.1397428E+04  0.7818609E-02  0.8955682E-01
       -1   -1    0    0    0  501  0.00000000000E+00  0.00000000000E+00  0.54023981876E+03  0.54023981878E+03  0.50400001928E-02 0. -1.
        1   -1    0    0  501    0  0.00000000000E+00  0.00000000000E+00 -0.90367567220E+03  0.90367567221E+03  0.50400001928E-02 0.  1.
    10030    2    1    2    0    0  0.00000000000E+00  0.00000000000E+00 -0.36343585344E+03  0.14439154910E+04  0.13974284689E+04 0.  0.
        1    1    3    3  502    0  0.47338317714E+03  0.30981557454E+03 -0.60538760250E+03  0.82859608490E+03  0.50400001928E-02 0.  1.
       -1    1    3    3    0  502 -0.47338317714E+03 -0.30981557454E+03  0.24195174906E+03  0.61531940610E+03  0.50400001928E-02 0. -1.
</event>
<event>
 5   0  0.2215876E-04  0.1403354E+04  0.7818609E-02  0.8951394E-01
        1   -1    0    0  501    0  0.00000000000E+00  0.00000000000E+00  0.18050013420E+04  0.18050013420E+04  0.50400001928E-02 0. -1.
       -1   -1    0    0    0  501  0.00000000000E+00  0.00000000000E+00 -0.27277032145E+03  0.27277032150E+03  0.50400001928E-02 0.  1.
    10030    2    1    2    0    0  0.00000000000E+00  0.00000000000E+00  0.15322310205E+04  0.20777716635E+04  0.14033542622E+04 0.  0.
        3    1    3    3  502    0 -0.24119911019E+03 -0.71736765212E+02 -0.20366426586E+03  0.32373186070E+03  0.10100000352E+00 0.  1.
       -3    1    3    3    0  502  0.24119911019E+03  0.71736765212E+02  0.17358952864E+04  0.17540398028E+04  0.10100000352E+00 0. -1.
</event>
<event>
 5   0  0.2143942E-04  0.1336770E+04  0.7818609E-02  0.9000904E-01
       -1   -1    0    0    0  501  0.00000000000E+00  0.00000000000E+00  0.11193039485E+04  0.11193039485E+04  0.50400001928E-02 0.  1.
        1   -1    0    0  501    0  0.00000000000E+00  0.00000000000E+00 -0.39912196690E+03  0.39912196694E+03  0.50400001928E-02 0. -1.
    10030    2    1    2    0    0  0.00000000000E+00  0.00000000000E+00  0.72018198155E+03  0.15184259154E+04  0.13367704268E+04 0.  0.
        4    1    3    3  502    0  0.16031075614E+03 -0.62310298376E+03  0.56574791245E+03  0.85675502931E+03  0.12699999809E+01 0.  1.
       -4    1    3    3    0  502 -0.16031075614E+03  0.62310298376E+03  0.15443406910E+03  0.66167088609E+03  0.12699999809E+01 0. -1.
</event>
<event>
 5   0  0.2215876E-04  0.1397860E+04  0.7818609E-02  0.8955369E-01
       -1   -1    0    0    0  501  0.00000000000E+00  0.00000000000E+00  0.53231778867E+03  0.53231778869E+03  0.50400001928E-02 0. -1.
        1   -1    0    0  501    0  0.00000000000E+00  0.00000000000E+00 -0.91769017332E+03  0.91769017333E+03  0.50400001928E-02 0.  1.
    10030    2    1    2    0    0  0.00000000000E+00  0.00000000000E+00 -0.38537238465E+03  0.14500079620E+04  0.13978595119E+04 0.  0.
        3    1    3    3  502    0 -0.19608626890E+03  0.65100667414E+03 -0.36072744457E+03  0.76966474136E+03  0.10100000352E+00 0.  1.
       -3    1    3    3    0  502  0.19608626890E+03 -0.65100667414E+03 -0.24644940079E+02  0.68034322066E+03  0.10100000352E+00 0. -1.
</event>
<event>
 5   0  0.4310348E-04  0.1416199E+04  0.7818609E-02  0.8942176E-01
        2   -1    0    0  501    0  0.00000000000E+00  0.00000000000E+00  0.19399242831E+04  0.19399242831E+04  0.25500000920E-02 0. -1.
       -2   -1    0    0    0  501  0.00000000000E+00  0.00000000000E+00 -0.25846623553E+03  0.25846623554E+03  0.25500000920E-02 0.  1.
    10030    2    1    2    0    0  0.00000000000E+00  0.00000000000E+00  0.16814580475E+04  0.21983905186E+04  0.14161990350E+04 0.  0.
        1    1    3    3  502    0  0.19823579716E+03  0.64546564982E+03  0.11717826650E+04  0.13524045069E+04  0.50400001928E-02 0.  1.
       -1    1    3    3    0  502 -0.19823579716E+03 -0.64546564982E+03  0.50967538257E+03  0.84598601170E+03  0.50400001928E-02 0. -1.
</event>
<event>
 5   0  0.3975164E-04  0.1403665E+04  0.7818609E-02  0.8951170E-01
       -2   -1    0    0    0  501  0.00000000000E+00  0.00000000000E+00  0.15902124409E+04  0.15902124409E+04  0.25500000920E-02 0.  1.
        2   -1    0    0  501    0  0.00000000000E+00  0.00000000000E+00 -0.30975028128E+03  0.30975028129E+03  0.25500000920E-02 0. -1.
    10030    2    1    2    0    0  0.00000000000E+00  0.00000000000E+00  0.12804621596E+04  0.18999627222E+04  0.14036648473E+04 0.  0.
        5    1    3    3  502    0 -0.16943182224E+03 -0.40933571526E+03 -0.96545144025E+02  0.45343789542E+03  0.46999998093E+01 0. -1.
       -5    1    3    3    0  502  0.16943182224E+03  0.40933571526E+03  0.13770073037E+04  0.14465248268E+04  0.46999998093E+01 0.  1.
</event>
<event>
 5   0  0.2215876E-04  0.1400193E+04  0.7818609E-02  0.8953679E-01
        1   -1    0    0  501    0  0.00000000000E+00  0.00000000000E+00  0.28982884419E+03  0.28982884423E+03  0.50400001928E-02 0. -1.
       -1   -1    0    0    0  501  0.00000000000E+00  0.00000000000E+00 -0.16911191699E+04  0.16911191699E+04  0.50400001928E-02 0.  1.
    10030    2    1    2    0    0  0.00000000000E+00  0.00000000000E+00 -0.14012903257E+04  0.19809480141E+04  0.14001930073E+04 0.  0.
        3    1    3    3  502    0  0.37488836689E+03  0.25649230773E+03  0.53049756341E+02  0.45732251027E+03  0.10100000352E+00 0. -1.
       -3    1    3    3    0  502 -0.37488836689E+03 -0.25649230773E+03 -0.14543400820E+04  0.15236255038E+04  0.10100000352E+00 0.  1.
</event>
<event>
 5   0  0.1497625E-04  0.1398890E+04  0.7818609E-02  0.8954622E-01
        4   -1    0    0  501    0  0.00000000000E+00  0.00000000000E+00  0.16106425988E+04  0.16106430995E+04  0.12699999809E+01 0. -1.
       -4   -1    0    0    0  501  0.00000000000E+00  0.00000000000E+00 -0.30374244776E+03  0.30374510280E+03  0.12699999809E+01 0.  1.
    10030    2    1    2    0    0  0.00000000000E+00  0.00000000000E+00  0.13069001510E+04  0.19143882023E+04  0.13988903403E+04 0.  0.
        3    1    3    3  502    0  0.16079990435E+03 -0.10077894859E+03  0.15747400261E+04  0.15861334009E+04  0.10100000352E+00 0. -1.
       -3    1    3    3    0  502 -0.16079990435E+03  0.10077894859E+03 -0.26783987506E+03  0.32825480132E+03  0.10100000352E+00 0.  1.
</event>
<event>
 5   0  0.2143942E-04  0.1399594E+04  0.7818609E-02  0.8954112E-01
       -1   -1    0    0    0  501  0.00000000000E+00  0.00000000000E+00  0.44991268230E+03  0.44991268233E+03  0.50400001928E-02 0. -1.
        1   -1    0    0  501    0  0.00000000000E+00  0.00000000000E+00 -0.10884688668E+04  0.10884688668E+04  0.50400001928E-02 0.  1.
    10030    2    1    2    0    0  0.00000000000E+00  0.00000000000E+00 -0.63855618446E+03  0.15383815491E+04  0.13995941519E+04 0.  0.
        4    1    3    3  502    0 -0.37156151910E+03 -0.35211846832E+03 -0.84373988081E+03  0.98688600030E+03  0.12699999809E+01 0.  1.
       -4    1    3    3    0  502  0.37156151910E+03  0.35211846832E+03  0.20518369636E+03  0.55149554881E+03  0.12699999809E+01 0. -1.
</event>
<event>
 5   0  0.2155352E-04  0.1411280E+04  0.7818609E-02  0.8945694E-01
       -1   -1    0    0    0  501  0.00000000000E+00  0.00000000000E+00  0.39240500157E+03  0.39240500160E+03  0.50400001928E-02 0.  1.
        1   -1    0    0  501    0  0.00000000000E+00  0.00000000000E+00 -0.12689123506E+04  0.12689123506E+04  0.50400001928E-02 0. -1.
    10030    2    1    2    0    0  0.00000000000E+00  0.00000000000E+00 -0.87650734905E+03  0.16613173522E+04  0.14112796363E+04 0.  0.
        2    1    3    3  502    0 -0.41935351664E+03 -0.26121995154E+03 -0.10313356084E+04  0.11435673885E+04  0.25500000920E-02 0. -1.
       -2    1    3    3    0  502  0.41935351664E+03  0.26121995154E+03  0.15482825934E+03  0.51774996369E+03  0.25500000920E-02 0.  1.
</event>
<event>
 5   0  0.2223112E-04  0.1397138E+04  0.7818609E-02  0.8955893E-01
       -1   -1    0    0    0  501  0.00000000000E+00  0.00000000000E+00  0.10116465149E+04  0.10116465149E+04  0.50400001928E-02 0. -1.
        1   -1    0    0  501    0  0.00000000000E+00  0.00000000000E+00 -0.48238077526E+03  0.48238077529E+03  0.50400001928E-02 0.  1.
    10030    2    1    2    0    0  0.00000000000E+00  0.00000000000E+00  0.52926573964E+03  0.14940272902E+04  0.13971382611E+04 0.  0.
        1    1    3    3  502    0  0.47176772656E+03  0.51085083964E+03  0.33609111418E+03  0.77232804250E+03  0.50400001928E-02 0. -1.
       -1    1    3    3    0  502 -0.47176772656E+03 -0.51085083964E+03  0.19317462546E+03  0.72169924770E+03  0.50400001928E-02 0.  1.
</event>
<event>
 5   0  0.2217251E-04  0.1398730E+04  0.7818609E-02  0.8954739E-01
       -1   -1    0    0    0  501  0.00000000000E+00  0.00000000000E+00  0.40475770152E+03  0.40475770155E+03  0.50400001928E-02 0. -1.
        1   -1    0    0  501    0  0.00000000000E+00  0.00000000000E+00 -0.12084050136E+04  0.12084050136E+04  0.50400001928E-02 0.  1.
    10030    2    1    2    0    0  0.00000000000E+00  0.00000000000E+00 -0.80364731204E+03  0.16131627151E+04  0.13987297606E+04 0.  0.
        5    1    3    3  502    0 -0.73378482916E+02 -0.27308297990E+03 -0.11395159580E+04  0.11740857823E+04  0.46999998093E+01 0.  1.
       -5    1    3    3    0  502  0.73378482916E+02  0.27308297990E+03  0.33586864592E+03  0.43907693287E+03  0.46999998093E+01 0. -1.
</event>
<event>
 5   0  0.3975164E-04  0.1365644E+04  0.7818609E-02  0.8979069E-01
        2   -1    0    0  501    0  0.00000000000E+00  0.00000000000E+00  0.80548613369E+03  0.80548613369E+03  0.25500000920E-02 0. -1.
       -2   -1    0    0    0  501  0.00000000000E+00  0.00000000000E+00 -0.57883806312E+03  0.57883806313E+03  0.25500000920E-02 0.  1.
    10030    2    1    2    0    0  0.00000000000E+00  0.00000000000E+00  0.22664807056E+03  0.13843241968E+04  0.13656442194E+04 0.  0.
        5    1    3    3  502    0  0.24492685712E+03 -0.62955531306E+03  0.21415771964E+03  0.70867106362E+03  0.46999998093E+01 0. -1.
       -5    1    3    3    0  502 -0.24492685712E+03  0.62955531306E+03  0.12490350922E+02  0.67565313320E+03  0.46999998093E+01 0.  1.
</event>
<event>
 5   0  0.4208622E-04  0.1403950E+04  0.7818609E-02  0.8950965E-01
        2   -1    0    0  501    0  0.00000000000E+00  0.00000000000E+00  0.11120083626E+04  0.11120083626E+04  0.25500000920E-02 0. -1.
       -2   -1    0    0    0  501  0.00000000000E+00  0.00000000000E+00 -0.44313398534E+03  0.44313398534E+03  0.25500000920E-02 0.  1.
    10030    2    1    2    0    0  0.00000000000E+00  0.00000000000E+00  0.66887437726E+03  0.15551423479E+04  0.14039497106E+04 0.  0.
        4    1    3    3  502    0  0.25117313616E+03 -0.57659225139E+03  0.67981748408E+03  0.92612093879E+03  0.12699999809E+01 0. -1.
       -4    1    3    3    0  502 -0.25117313616E+03  0.57659225139E+03 -0.10943106820E+02  0.62902140916E+03  0.12699999809E+01 0.  1.
</event>
<event>
 5   0  0.2217251E-04  0.1396287E+04  0.7818609E-02  0.8956511E-01
       -1   -1    0    0    0  501  0.00000000000E+00  0.00000000000E+00  0.66142146370E+03  0.66142146372E+03  0.50400001928E-02 0. -1.
        1   -1    0    0  501    0  0.00000000000E+00  0.00000000000E+00 -0.73690446731E+03  0.73690446732E+03  0.50400001928E-02 0.  1.
    10030    2    1    2    0    0  0.00000000000E+00  0.00000000000E+00 -0.75483003605E+02  0.13983259310E+04  0.13962871215E+04 0.  0.
        5    1    3    3  502    0 -0.40017076998E+03  0.47922092556E+03  0.27511343680E+03  0.68227474945E+03  0.46999998093E+01 0. -1.
       -5    1    3    3    0  502  0.40017076998E+03 -0.47922092556E+03 -0.35059644040E+03  0.71605118159E+03  0.46999998093E+01 0.  1.
</event>
<event>
 5   0  0.1497625E-04  0.1405362E+04  0.7818609E-02  0.8949947E-01
       -3   -1    0    0    0  501  0.00000000000E+00  0.00000000000E+00  0.15943280160E+04  0.15943280192E+04  0.10100000352E+00 0.  1.
        3   -1    0    0  501    0  0.00000000000E+00  0.00000000000E+00 -0.30969806926E+03  0.30969808573E+03  0.10100000352E+00 0. -1.
    10030    2    1    2    0    0  0.00000000000E+00  0.00000000000E+00  0.12846299468E+04  0.19040261050E+04  0.14053616290E+04 0.  0.
        1    1    3    3  502    0  0.15034099253E+03 -0.54846442202E+03  0.12014917263E+04  0.13292847718E+04  0.50400001928E-02 0.  1.
       -1    1    3    3    0  502 -0.15034099253E+03  0.54846442202E+03  0.83138220468E+02  0.57474133312E+03  0.50400001928E-02 0. -1.
</event>
<event>
 5   0  0.3917598E-04  0.1386695E+04  0.7818609E-02  0.8963506E-01
        2   -1    0    0  501    0  0.00000000000E+00  0.00000000000E+00  0.85355372764E+03  0.85355372764E+03  0.25500000920E-02 0.  1.
       -2   -1    0    0    0  501  0.00000000000E+00  0.00000000000E+00 -0.56321099263E+03  0.56321099264E+03  0.25500000920E-02 0. -1.
    10030    2    1    2    0    0  0.00000000000E+00  0.00000000000E+00  0.29034273501E+03  0.14167647203E+04  0.13866951247E+04 0.  0.
        3    1    3    3  502    0  0.20721593658E+03  0.65779872412E+03  0.21808575412E+03  0.72332496996E+03  0.10100000352E+00 0. -1.
       -3    1    3    3    0  502 -0.20721593658E+03 -0.65779872412E+03  0.72256980891E+02  0.69343975031E+03  0.10100000352E+00 0.  1.
</event>
<event>
 5   0  0.4208622E-04  0.1393335E+04  0.7818609E-02  0.8958657E-01
       -2   -1    0    0    0  501  0.00000000000E+00  0.00000000000E+00  0.50042780310E+03  0.50042780311E+03  0.25500000920E-02 0.  1.
        2   -1    0    0  501    0  0.00000000000E+00  0.00000000000E+00 -0.96986149403E+03  0.96986149403E+03  0.25500000920E-02 0. -1.
    10030    2    1    2    0    0  0.00000000000E+00  0.00000000000E+00 -0.46943369093E+03  0.14702892971E+04  0.13933350735E+04 0.  0.
        4    1    3    3  502    0 -0.36389373179E+03 -0.12163252920E+03 -0.84832295030E+03  0.93105669060E+03  0.12699999809E+01 0. -1.
       -4    1    3    3    0  502  0.36389373179E+03  0.12163252920E+03  0.37888925937E+03  0.53923260655E+03  0.12699999809E+01 0.  1.
</event>
<event>
 5   0  0.4208622E-04  0.1399844E+04  0.7818609E-02  0.8953931E-01
       -2   -1    0    0    0  501  0.00000000000E+00  0.00000000000E+00  0.58258128168E+03  0.58258128168E+03  0.25500000920E-02 0.  1.
        2   -1    0    0  501    0  0.00000000000E+00  0.00000000000E+00 -0.84089713118E+03  0.84089713119E+03  0.25500000920E-02 0. -1.
    10030    2    1    2    0    0  0.00000000000E+00  0.00000000000E+00 -0.25831584951E+03  0.14234784129E+04  0.13998441748E+04 0.  0.
        4    1    3    3  502    0  0.47995314460E+03 -0.44882607330E+03 -0.37424467034E+03  0.75621461984E+03  0.12699999809E+01 0. -1.
       -4    1    3    3    0  502 -0.47995314460E+03  0.44882607330E+03  0.11592882084E+03  0.66726379303E+03  0.12699999809E+01 0.  1.
</event>
<event>
 5   0  0.2223112E-04  0.1401992E+04  0.7818609E-02  0.8952378E-01
       -1   -1    0    0    0  501  0.00000000000E+00  0.00000000000E+00  0.88339591183E+03  0.88339591185E+03  0.50400001928E-02 0.  1.
        1   -1    0    0  501    0  0.00000000000E+00  0.00000000000E+00 -0.55625707943E+03  0.55625707945E+03  0.50400001928E-02 0. -1.
    10030    2    1    2    0    0  0.00000000000E+00  0.00000000000E+00  0.32713883241E+03  0.14396529913E+04  0.14019917688E+04 0.  0.
        1    1    3    3  502    0 -0.10944489680E+03  0.44105878564E+03  0.71165267377E+03  0.84436992245E+03  0.50400001928E-02 0.  1.
       -1    1    3    3    0  502  0.10944489680E+03 -0.44105878564E+03 -0.38451384137E+03  0.59528306884E+03  0.50400001928E-02 0. -1.
</event>
<event>
 5   0  0.2215876E-04  0.1399940E+04  0.7818609E-02  0.8953862E-01
       -1   -1    0    0    0  501  0.00000000000E+00  0.00000000000E+00  0.12444427286E+04  0.12444427286E+04  0.50400001928E-02 0.  1.
        1   -1    0    0  501    0  0.00000000000E+00  0.00000000000E+00 -0.39371704540E+03  0.39371704544E+03  0.50400001928E-02 0. -1.
    10030    2    1    2    0    0  0.00000000000E+00  0.00000000000E+00  0.85072568316E+03  0.16381597740E+04  0.13999404477E+04 0.  0.
        3    1    3    3  502    0 -0.37357157967E+03 -0.50547475335E+03  0.78583762415E+03  0.10062808918E+04  0.10100000352E+00 0.  1.
       -3    1    3    3    0  502  0.37357157967E+03  0.50547475335E+03  0.64888059004E+02  0.63187888223E+03  0.10100000352E+00 0. -1.
</event>
<event>
 5   0  0.2215876E-04  0.1407868E+04  0.7818609E-02  0.8948143E-01
        1   -1    0    0  501    0  0.00000000000E+00  0.00000000000E+00  0.12685882781E+04  0.12685882781E+04  0.50400001928E-02 0. -1.
       -1   -1    0    0    0  501  0.00000000000E+00  0.00000000000E+00 -0.39061005699E+03  0.39061005702E+03  0.50400001928E-02 0.  1.
    10030    2    1    2    0    0  0.00000000000E+00  0.00000000000E+00  0.87797822108E+03  0.16591983351E+04  0.14078683740E+04 0.  0.
        3    1    3    3  502    0 -0.10196404017E+03  0.55518960833E+03  0.93465532596E+03  0.10918849551E+04  0.10100000352E+00 0. -1.
       -3    1    3    3    0  502  0.10196404017E+03 -0.55518960833E+03 -0.56677104881E+02  0.56731337998E+03  0.10100000352E+00 0.  1.
</event>
<event>
 5   0  0.4310348E-04  0.1400682E+04  0.7818609E-02  0.8953325E-01
        2   -1    0    0  501    0  0.00000000000E+00  0.00000000000E+00  0.16555913991E+04  0.16555913991E+04  0.25500000920E-02 0.  1.
       -2   -1    0    0    0  501  0.00000000000E+00  0.00000000000E+00 -0.29625529638E+03  0.29625529639E+03  0.25500000920E-02 0. -1.
    10030    2    1    2    0    0  0.00000000000E+00  0.00000000000E+00  0.13593361027E+04  0.19518466955E+04  0.14006822918E+04 0.  0.
        1    1    3    3  502    0 -0.37791001582E+03 -0.36732921425E+03  0.13223875049E+04  0.14235362464E+04  0.50400001928E-02 0.  1.
       -1    1    3    3    0  502  0.37791001582E+03  0.36732921425E+03  0.36948597806E+02  0.52831044908E+03  0.50400001928E-02 0. -1.
</event>
<event>
 5   0  0.2143942E-04  0.1392882E+04  0.7818609E-02  0.8958987E-01
       -1   -1    0    0    0  501  0.00000000000E+00  0.00000000000E+00  0.29668739287E+03  0.29668739291E+03  0.50400001928E-02 0. -1.
        1   -1    0    0  501    0  0.00000000000E+00  0.00000000000E+00 -0.16348184878E+04  0.16348184878E+04  0.50400001928E-02 0.  1.
    10030    2    1    2    0    0  0.00000000000E+00  0.00000000000E+00 -0.13381310949E+04  0.19315058807E+04  0.13928819548E+04 0.  0.
        4    1    3    3  502    0  0.62095357361E+02 -0.27869109630E+03  0.21179177795E+03  0.35550236380E+03  0.12699999809E+01 0. -1.
       -4    1    3    3    0  502 -0.62095357361E+02  0.27869109630E+03 -0.15499228729E+04  0.15760035169E+04  0.12699999809E+01 0.  1.
</event>
<event>
 5   0  0.3917598E-04  0.1396803E+04  0.7818609E-02  0.8956136E-01
       -2   -1    0    0    0  501  0.00000000000E+00  0.00000000000E+00  0.62236902772E+03  0.62236902773E+03  0.25500000920E-02 0. -1.
        2   -1    0    0  501    0  0.00000000000E+00  0.00000000000E+00 -0.78372223106E+03  0.78372223107E+03  0.25500000920E-02 0.  1.
    10030    2    1    2    0    0  0.00000000000E+00  0.00000000000E+00 -0.16135320334E+03  0.14060912588E+04  0.13968026961E+04 0.  0.
        3    1    3    3  502    0 -0.22943745792E+03  0.46491155899E+03 -0.55174155708E+03  0.75710175062E+03  0.10100000352E+00 0.  1.
       -3    1    3    3    0  502  0.22943745792E+03 -0.46491155899E+03  0.39038835375E+03  0.64898950817E+03  0.10100000352E+00 0. -1.
</event>
<event>
 5   0  0.2217251E-04  0.1319306E+04  0.7818609E-02  0.9014394E-01
        1   -1    0    0  501    0  0.00000000000E+00  0.00000000000E+00  0.22010279264E+04  0.22010279264E+04  0.50400001928E-02 0.  1.
       -1   -1    0    0    0  501  0.00000000000E+00  0.00000000000E+00 -0.19769952622E+03  0.19769952628E+03  0.50400001928E-02 0. -1.
    10030    2    1    2    0    0  0.00000000000E+00  0.00000000000E+00  0.20033284002E+04  0.23987274527E+04  0.13193061484E+04 0.  0.
        5    1    3    3  502    0 -0.12801956053E+03  0.41282696545E+03  0.95664546844E+02  0.44270634375E+03  0.46999998093E+01 0. -1.
       -5    1    3    3    0  502  0.12801956053E+03 -0.41282696545E+03  0.19076638533E+04  0.19560211089E+04  0.46999998093E+01 0.  1.
</event>
<event>
 5   0  0.3917598E-04  0.1372964E+04  0.7818609E-02  0.8973625E-01
       -2   -1    0    0    0  501  0.00000000000E+00  0.00000000000E+00  0.27790454392E+03  0.27790454393E+03  0.25500000920E-02 0.  1.
        2   -1    0    0  501    0  0.00000000000E+00  0.00000000000E+00 -0.16957521931E+04  0.16957521931E+04  0.25500000920E-02 0. -1.
    10030    2    1    2    0    0  0.00000000000E+00  0.00000000000E+00 -0.14178476491E+04  0.19736567370E+04  0.13729635681E+04 0.  0.
        3    1    3    3  502    0 -0.53308935001E+03  0.38931800915E+03 -0.97978956483E+03  0.11814145627E+04  0.10100000352E+00 0. -1.
       -3    1    3    3    0  502  0.53308935001E+03 -0.38931800915E+03 -0.43805808431E+03  0.79224217432E+03  0.10100000352E+00 0.  1.
</event>
<event>
 5   0  0.4310348E-04  0.1390799E+04  0.7818609E-02  0.8960506E-01
       -2   -1    0    0    0  501  0.00000000000E+00  0.00000000000E+00  0.29962994529E+03  0.29962994530E+03  0.25500000920E-02 0. -1.
        2   -1    0    0  501    0  0.00000000000E+00  0.00000000000E+00 -0.16139261597E+04  0.16139261597E+04  0.25500000920E-02 0.  1.
    10030    2    1    2    0    0  0.00000000000E+00  0.00000000000E+00 -0.13142962144E+04  0.19135561050E+04  0.13907992047E+04 0.  0.
        1    1    3    3  502    0  0.61302294429E+03 -0.23810977234E+03 -0.96812840273E+03  0.11703700262E+04  0.50400001928E-02 0.  1.
       -1    1    3    3    0  502 -0.61302294429E+03  0.23810977234E+03 -0.34616781165E+03  0.74318607882E+03  0.50400001928E-02 0. -1.
</event>
<event>
 5   0  0.2217251E-04  0.1401132E+04  0.7818609E-02  0.8953000E-01
        1   -1    0    0  501    0  0.00000000000E+00  0.00000000000E+00  0.49175298979E+03  0.49175298981E+03  0.50400001928E-02 0. -1.
       -1   -1    0    0    0  501  0.00000000000E+00  0.00000000000E+00 -0.99804708512E+03  0.99804708513E+03  0.50400001928E-02 0.  1.
    10030    2    1    2    0    0  0.00000000000E+00  0.00000000000E+00 -0.50629409533E+03  0.14898000749E+04  0.14011318826E+04 0.  0.
        5    1    3    3  502    0 -0.43285790689E+03 -0.51105002165E+03 -0.34636631104E+02  0.67064139329E+03  0.46999998093E+01 0. -1.
       -5    1    3    3    0  502  0.43285790689E+03  0.51105002165E+03 -0.47165746423E+03  0.81915868166E+03  0.46999998093E+01 0.  1.
</event>
<event>
 5   0  0.2155352E-04  0.1406394E+04  0.7818609E-02  0.8949203E-01
       -1   -1    0    0    0  501  0.00000000000E+00  0.00000000000E+00  0.81877768049E+03  0.81877768050E+03  0.50400001928E-02 0.  1.
        1   -1    0    0  501    0  0.00000000000E+00  0.00000000000E+00 -0.60393206906E+03  0.60393206908E+03  0.50400001928E-02 0. -1.
    10030    2    1    2    0    0  0.00000000000E+00  0.00000000000E+00  0.21484561143E+03  0.14227097496E+04  0.14063941108E+04 0.  0.
        2    1    3    3  502    0  0.55412708526E+03  0.43132958397E+03  0.14505738388E+03  0.71703813096E+03  0.25500000920E-02 0. -1.
       -2    1    3    3    0  502 -0.55412708526E+03 -0.43132958397E+03  0.69788227547E+02  0.70567161863E+03  0.25500000920E-02 0.  1.
</event>
<event>
 5   0  0.3932568E-04  0.1396671E+04  0.7818609E-02  0.8956232E-01
       -2   -1    0    0    0  501  0.00000000000E+00  0.00000000000E+00  0.49377460706E+03  0.49377460707E+03  0.25500000920E-02 0. -1.
        2   -1    0    0  501    0  0.00000000000E+00  0.00000000000E+00 -0.98764178935E+03  0.98764178935E+03  0.25500000920E-02 0.  1.
    10030    2    1    2    0    0  0.00000000000E+00  0.00000000000E+00 -0.49386718228E+03  0.14814163964E+04  0.13966709512E+04 0.  0.
        2    1    3    3  502    0 -0.27886046889E+03 -0.28069657689E+03 -0.85727790852E+03  0.94418173136E+03  0.25500000920E-02 0.  1.
       -2    1    3    3    0  502  0.27886046889E+03  0.28069657689E+03  0.36341072624E+03  0.53723466506E+03  0.25500000920E-02 0. -1.
</event>
<event>
 5   0  0.3932568E-04  0.1400419E+04  0.7818609E-02  0.8953515E-01
       -2   -1    0    0    0  501  0.00000000000E+00  0.00000000000E+00  0.50935921658E+03  0.50935921658E+03  0.25500000920E-02 0. -1.
        2   -1    0    0  501    0  0.00000000000E+00  0.00000000000E+00 -0.96256927121E+03  0.96256927121E+03  0.25500000920E-02 0.  1.
    10030    2    1    2    0    0  0.00000000000E+00  0.00000000000E+00 -0.45321005463E+03  0.14719284878E+04  0.14004192656E+04 0.  0.
        2    1    3    3  502    0 -0.10581018928E+03 -0.17030326130E+02 -0.95389767585E+03  0.95989926772E+03  0.25500000920E-02 0.  1.
       -2    1    3    3    0  502  0.10581018928E+03  0.17030326130E+02  0.50068762122E+03  0.51202922008E+03  0.25500000920E-02 0. -1.
</event>
<event>
 5   0  0.2215876E-04  0.1397959E+04  0.7818609E-02  0.8955297E-01
       -1   -1    0    0    0  501  0.00000000000E+00  0.00000000000E+00  0.17211127214E+04  0.17211127214E+04  0.50400001928E-02 0.  1.
        1   -1    0    0  501    0  0.00000000000E+00  0.00000000000E+00 -0.28387009309E+03  0.28387009314E+03  0.50400001928E-02 0. -1.
    10030    2    1    2    0    0  0.00000000000E+00  0.00000000000E+00  0.14372426283E+04  0.20049828145E+04  0.13979591246E+04 0.  0.
        3    1    3    3  502    0 -0.83083672599E+02  0.31381222714E+03 -0.16919692443E+03  0.36607187818E+03  0.10100000352E+00 0. -1.
       -3    1    3    3    0  502  0.83083672599E+02 -0.31381222714E+03  0.16064395527E+04  0.16389109364E+04  0.10100000352E+00 0.  1.
</event>
<event>
 5   0  0.2155352E-04  0.1399284E+04  0.7818609E-02  0.8954337E-01
        1   -1    0    0  501    0  0.00000000000E+00  0.00000000000E+00  0.11063817581E+04  0.11063817581E+04  0.50400001928E-02 0.  1.
       -1   -1    0    0    0  501  0.00000000000E+00  0.00000000000E+00 -0.44243250353E+03  0.44243250356E+03  0.50400001928E-02 0. -1.
    10030    2    1    2    0    0  0.00000000000E+00  0.00000000000E+00  0.66394925455E+03  0.15488142616E+04  0.13992844616E+04 0.  0.
        2    1    3    3  502    0  0.52711796475E+03  0.73047581888E+02 -0.17077692211E+03  0.55888644206E+03  0.25500000920E-02 0. -1.
       -2    1    3    3    0  502 -0.52711796475E+03 -0.73047581888E+02  0.83472617666E+03  0.98992781959E+03  0.25500000920E-02 0.  1.
</event>
<event>
 5   0  0.4310348E-04  0.1391102E+04  0.7818609E-02  0.8960284E-01
       -2   -1    0    0    0  501  0.00000000000E+00  0.00000000000E+00  0.34958274718E+03  0.34958274719E+03  0.25500000920E-02 0. -1.
        2   -1    0    0  501    0  0.00000000000E+00  0.00000000000E+00 -0.13839112802E+04  0.13839112802E+04  0.25500000920E-02 0.  1.
    10030    2    1    2    0    0  0.00000000000E+00  0.00000000000E+00 -0.10343285330E+04  0.17334940274E+04  0.13911024509E+04 0.  0.
        1    1    3    3  502    0 -0.77958466424E+02 -0.29534862893E+03 -0.12958539039E+04  0.13313698492E+04  0.50400001928E-02 0.  1.
       -1    1    3    3    0  502  0.77958466424E+02  0.29534862893E+03  0.26152537084E+03  0.40212417822E+03  0.50400001928E-02 0. -1.
</event>
<event>
 5   0  0.2143942E-04  0.1401446E+04  0.7818609E-02  0.8952772E-01
        1   -1    0    0  501    0  0.00000000000E+00  0.00000000000E+00  0.17671223032E+04  0.17671223032E+04  0.50400001928E-02 0.  1.
       -1   -1    0    0    0  501  0.00000000000E+00  0.00000000000E+00 -0.27786016503E+03  0.27786016507E+03  0.50400001928E-02 0. -1.
    10030    2    1    2    0    0  0.00000000000E+00  0.00000000000E+00  0.14892621382E+04  0.20449824683E+04  0.14014462456E+04 0.  0.
        4    1    3    3  502    0  0.50050121160E+03 -0.48816774404E+03  0.67615655135E+03  0.97262454419E+03  0.12699999809E+01 0. -1.
       -4    1    3    3    0  502 -0.50050121160E+03  0.48816774404E+03  0.81310558684E+03  0.10723579241E+04  0.12699999809E+01 0.  1.
</event>
<event>
 5   0  0.4310348E-04  0.1403901E+04  0.7818609E-02  0.8951000E-01
        2   -1    0    0  501    0  0.00000000000E+00  0.00000000000E+00  0.64351834357E+03  0.64351834357E+03  0.25500000920E-02 0.  1.
       -2   -1    0    0    0  501  0.00000000000E+00  0.00000000000E+00 -0.76568798538E+03  0.76568798538E+03  0.25500000920E-02 0. -1.
    10030    2    1    2    0    0  0.00000000000E+00  0.00000000000E+00 -0.12216964181E+03  0.14092063290E+04  0.14039006575E+04 0.  0.
        1    1    3    3  502    0 -0.38134744886E+03  0.58317156256E+03  0.24202845246E+02  0.69720924109E+03  0.50400001928E-02 0. -1.
       -1    1    3    3    0  502  0.38134744886E+03 -0.58317156256E+03 -0.14637248706E+03  0.71199708786E+03  0.50400001928E-02 0.  1.
</event>
<event>
 5   0  0.2223112E-04  0.1376145E+04  0.7818609E-02  0.8971269E-01
       -1   -1    0    0    0  501  0.00000000000E+00  0.00000000000E+00  0.97111420570E+03  0.97111420571E+03  0.50400001928E-02 0. -1.
        1   -1    0    0  501    0  0.00000000000E+00  0.00000000000E+00 -0.48752665635E+03  0.48752665638E+03  0.50400001928E-02 0.  1.
    10030    2    1    2    0    0  0.00000000000E+00  0.00000000000E+00  0.48358754935E+03  0.14586408621E+04  0.13761454308E+04 0.  0.
        1    1    3    3  502    0 -0.28678470134E+03  0.61849734198E+03  0.34042940602E+03  0.76202139567E+03  0.50400001928E-02 0.  1.
       -1    1    3    3    0  502  0.28678470134E+03 -0.61849734198E+03  0.14315814333E+03  0.69661946641E+03  0.50400001928E-02 0. -1.
</event>
<event>
 5   0  0.4208622E-04  0.1396040E+04  0.7818609E-02  0.8956690E-01
       -2   -1    0    0    0  501  0.00000000000E+00  0.00000000000E+00  0.11631638508E+04  0.11631638508E+04  0.25500000920E-02 0.  1.
        2   -1    0    0  501    0  0.00000000000E+00  0.00000000000E+00 -0.41888497513E+03  0.41888497514E+03  0.25500000920E-02 0. -1.
    10030    2    1    2    0    0  0.00000000000E+00  0.00000000000E+00  0.74427887564E+03  0.15820488259E+04  0.13960399145E+04 0.  0.
        4    1    3    3  502    0 -0.12109173593E+03 -0.13855432034E+03  0.11351812071E+04  0.11499993452E+04  0.12699999809E+01 0.  1.
       -4    1    3    3    0  502  0.12109173593E+03  0.13855432034E+03 -0.39090233141E+03  0.43204948072E+03  0.12699999809E+01 0. -1.
</event>
<event>
 5   0  0.1497625E-04  0.1410336E+04  0.7818609E-02  0.8946371E-01
        3   -1    0    0  501    0  0.00000000000E+00  0.00000000000E+00  0.88228786256E+03  0.88228786834E+03  0.10100000352E+00 0. -1.
       -3   -1    0    0    0  501  0.00000000000E+00  0.00000000000E+00 -0.56360515672E+03  0.56360516576E+03  0.10100000352E+00 0.  1.
    10030    2    1    2    0    0  0.00000000000E+00  0.00000000000E+00  0.31868270585E+03  0.14458930341E+04  0.14103361298E+04 0.  0.
        1    1    3    3  502    0 -0.63156106489E+03  0.21419845598E+03 -0.75590192234E+02  0.67116632396E+03  0.50400001928E-02 0. -1.
       -1    1    3    3    0  502  0.63156106489E+03 -0.21419845598E+03  0.39427289808E+03  0.77472671015E+03  0.50400001928E-02 0.  1.
</event>
<event>
 5   0  0.3917598E-04  0.1395640E+04  0.7818609E-02  0.8956981E-01
       -2   -1    0    0    0  501  0.00000000000E+00  0.00000000000E+00  0.57622117072E+03  0.57622117073E+03  0.25500000920E-02 0. -1.
        2   -1    0    0  501    0  0.00000000000E+00  0.00000000000E+00 -0.84507910468E+03  0.84507910468E+03  0.25500000920E-02 0.  1.
    10030    2    1    2    0    0  0.00000000000E+00  0.00000000000E+00 -0.26885793396E+03  0.14213002754E+04  0.13956395968E+04 0.  0.
        3    1    3    3  502    0 -0.11770094072E+03 -0.53513513047E+03  0.30563807128E+03  0.62740557865E+03  0.10100000352E+00 0. -1.
       -3    1    3    3    0  502  0.11770094072E+03  0.53513513047E+03 -0.57449600524E+03  0.79389469676E+03  0.10100000352E+00 0.  1.
</event>
<event>
 5   0  0.3932568E-04  0.1403013E+04  0.7818609E-02  0.8951640E-01
       -2   -1    0    0    0  501  0.00000000000E+00  0.00000000000E+00  0.77744120779E+03  0.77744120779E+03  0.25500000920E-02 0. -1.
        2   -1    0    0  501    0  0.00000000000E+00  0.00000000000E+00 -0.63298872702E+03  0.63298872703E+03  0.25500000920E-02 0.  1.
    10030    2    1    2    0    0  0.00000000000E+00  0.00000000000E+00  0.14445248077E+03  0.14104299348E+04  0.14030132151E+04 0.  0.
        2    1    3    3  502    0  0.28544719094E+03 -0.46611934715E+03  0.51428272256E+03  0.75048921600E+03  0.25500000920E-02 0. -1.
       -2    1    3    3    0  502 -0.28544719094E+03  0.46611934715E+03 -0.36983024179E+03  0.65994071882E+03  0.25500000920E-02 0.  1.
</event>
<event>
 5   0  0.4310348E-04  0.1404061E+04  0.7818609E-02  0.8950884E-01
       -2   -1    0    0    0  501  0.00000000000E+00  0.00000000000E+00  0.29351193712E+03  0.29351193714E+03  0.25500000920E-02 0. -1.
        2   -1    0    0  501    0  0.00000000000E+00  0.00000000000E+00 -0.16791366650E+04  0.16791366650E+04  0.25500000920E-02 0.  1.
    10030    2    1    2    0    0  0.00000000000E+00  0.00000000000E+00 -0.13856247279E+04  0.19726486021E+04  0.14040607612E+04 0.  0.
        1    1    3    3  502    0  0.43840454398E+02  0.25920731691E+03 -0.16073711561E+04  0.16287272492E+04  0.50400001928E-02 0.  1.
       -1    1    3    3    0  502 -0.43840454398E+02 -0.25920731691E+03  0.22174642824E+03  0.34392135299E+03  0.50400001928E-02 0. -1.
</event>
<event>
 5   0  0.2143942E-04  0.1405199E+04  0.7818609E-02  0.8950064E-01
        1   -1    0    0  501    0  0.00000000000E+00  0.00000000000E+00  0.17790206479E+04  0.17790206479E+04  0.50400001928E-02 0.  1.
       -1   -1    0    0    0  501  0.00000000000E+00  0.00000000000E+00 -0.27748180579E+03  0.27748180584E+03  0.50400001928E-02 0. -1.
    10030    2    1    2    0    0  0.00000000000E+00  0.00000000000E+00  0.15015388421E+04  0.20565024537E+04  0.14051987218E+04 0.  0.
        4    1    3    3  502    0  0.25620436138E+03  0.59315355710E+03  0.11546848071E+04  0.13231668201E+04  0.12699999809E+01 0.  1.
       -4    1    3    3    0  502 -0.25620436138E+03 -0.59315355710E+03  0.34685403496E+03  0.73333563363E+03  0.12699999809E+01 0. -1.
</event>
<event>
 5   0  0.3932568E-04  0.1456096E+04  0.7818609E-02  0.8914185E-01
       -2   -1    0    0    0  501  0.00000000000E+00  0.00000000000E+00  0.43402924530E+03  0.43402924531E+03  0.25500000920E-02 0. -1.
        2   -1    0    0  501    0  0.00000000000E+00  0.00000000000E+00 -0.12212400185E+04  0.12212400185E+04  0.25500000920E-02 0.  1.
    10030    2    1    2    0    0  0.00000000000E+00  0.00000000000E+00 -0.78721077321E+03  0.16552692638E+04  0.14560959908E+04 0.  0.
        2    1    3    3  502    0 -0.69026908107E+03 -0.18058985653E+03 -0.22898803406E+03  0.74934612852E+03  0.25500000920E-02 0. -1.
       -2    1    3    3    0  502  0.69026908107E+03  0.18058985653E+03 -0.55822273915E+03  0.90592313530E+03  0.25500000920E-02 0.  1.
</event>
<event>
 5   0  0.2215876E-04  0.1405457E+04  0.7818609E-02  0.8949878E-01
        1   -1    0    0  501    0  0.00000000000E+00  0.00000000000E+00  0.54366778635E+03  0.54366778638E+03  0.50400001928E-02 0. -1.
       -1   -1    0    0    0  501  0.00000000000E+00  0.00000000000E+00 -0.90832597150E+03  0.90832597151E+03  0.50400001928E-02 0.  1.
    10030    2    1    2    0    0  0.00000000000E+00  0.00000000000E+00 -0.36465818514E+03  0.14519937579E+04  0.14054573209E+04 0.  0.
        3    1    3    3  502    0 -0.23587289213E+03  0.62363551695E+03  0.46989678627E+02  0.66840505634E+03  0.10100000352E+00 0.  1.
       -3    1    3    3    0  502  0.23587289213E+03 -0.62363551695E+03 -0.41164786377E+03  0.78358870155E+03  0.10100000352E+00 0. -1.
</event>
<event>
 5   0  0.2143942E-04  0.1400806E+04  0.7818609E-02  0.8953236E-01
       -1   -1    0    0    0  501  0.00000000000E+00  0.00000000000E+00  0.32223069871E+03  0.32223069875E+03  0.50400001928E-02 0. -1.
        1   -1    0    0  501    0  0.00000000000E+00  0.00000000000E+00 -0.15224004014E+04  0.15224004014E+04  0.50400001928E-02 0.  1.
    10030    2    1    2    0    0  0.00000000000E+00  0.00000000000E+00 -0.12001697027E+04  0.18446311002E+04  0.14008056897E+04 0.  0.
        4    1    3    3  502    0  0.44312558832E+03  0.25049554506E+03  0.33440776242E+02  0.51012567426E+03  0.12699999809E+01 0. -1.
       -4    1    3    3    0  502 -0.44312558832E+03 -0.25049554506E+03 -0.12336104789E+04  0.13345054259E+04  0.12699999809E+01 0.  1.
</event>
<event>
 5   0  0.2155352E-04  0.1385343E+04  0.7818609E-02  0.8964497E-01
        1   -1    0    0  501    0  0.00000000000E+00  0.00000000000E+00  0.12253822561E+04  0.12253822561E+04  0.50400001928E-02 0. -1.
       -1   -1    0    0    0  501  0.00000000000E+00  0.00000000000E+00 -0.39154637583E+03  0.39154637587E+03  0.50400001928E-02 0.  1.
    10030    2    1    2    0    0  0.00000000000E+00  0.00000000000E+00  0.83383588028E+03  0.16169286320E+04  0.13853432519E+04 0.  0.
        2    1    3    3  502    0  0.18917000133E+03  0.19061535881E+03  0.11621477508E+04  0.11927727777E+04  0.25500000920E-02 0. -1.
       -2    1    3    3    0  502 -0.18917000133E+03 -0.19061535881E+03 -0.32831187054E+03  0.42415585432E+03  0.25500000920E-02 0.  1.
</event>
<event>
 5   0  0.2217251E-04  0.1402691E+04  0.7818609E-02  0.8951873E-01
       -1   -1    0    0    0  501  0.00000000000E+00  0.00000000000E+00  0.99648743275E+03  0.99648743277E+03  0.50400001928E-02 0.  1.
        1   -1    0    0  501    0  0.00000000000E+00  0.00000000000E+00 -0.49361914377E+03  0.49361914380E+03  0.50400001928E-02 0. -1.
    10030    2    1    2    0    0  0.00000000000E+00  0.00000000000E+00  0.50286828898E+03  0.14901065766E+04  0.14026906621E+04 0.  0.
        5    1    3    3  502    0  0.18725041456E+03 -0.50399828192E+03  0.72981591457E+03  0.90649343356E+03  0.46999998093E+01 0.  1.
       -5    1    3    3    0  502 -0.18725041456E+03  0.50399828192E+03 -0.22694762559E+03  0.58361314301E+03  0.46999998093E+01 0. -1.
</event>
<event>
 5   0  0.3917598E-04  0.1395888E+04  0.7818609E-02  0.8956800E-01
        2   -1    0    0  501    0  0.00000000000E+00  0.00000000000E+00  0.13528857898E+04  0.13528857898E+04  0.25500000920E-02 0. -1.
       -2   -1    0    0    0  501  0.00000000000E+00  0.00000000000E+00 -0.36006436164E+03  0.36006436165E+03  0.25500000920E-02 0.  1.
    10030    2    1    2    0    0  0.00000000000E+00  0.00000000000E+00  0.99282142815E+03  0.17129501514E+04  0.13958881879E+04 0.  0.
        3    1    3    3  502    0 -0.27808008254E+03 -0.56671008252E+03  0.13106681683E+03  0.64472270831E+03  0.10100000352E+00 0. -1.
       -3    1    3    3    0  502  0.27808008254E+03  0.56671008252E+03  0.86175461132E+03  0.10682274431E+04  0.10100000352E+00 0.  1.
</event>
<event>
 5   0  0.4208622E-04  0.1396716E+04  0.7818609E-02  0.8956199E-01
       -2   -1    0    0    0  501  0.00000000000E+00  0.00000000000E+00  0.62150712139E+03  0.62150712139E+03  0.25500000920E-02 0.  1.
        2   -1    0    0  501    0  0.00000000000E+00  0.00000000000E+00 -0.78471145475E+03  0.78471145475E+03  0.25500000920E-02 0. -1.
    10030    2    1    2    0    0  0.00000000000E+00  0.00000000000E+00 -0.16320433336E+03  0.14062185761E+04  0.13967158013E+04 0.  0.
        4    1    3    3  502    0  0.31833093822E+02 -0.36710169364E+03  0.51566677730E+03  0.63379084676E+03  0.12699999809E+01 0.  1.
       -4    1    3    3    0  502 -0.31833093822E+02  0.36710169364E+03 -0.67887111066E+03  0.77242772938E+03  0.12699999809E+01 0. -1.
</event>
<event>
 5   0  0.3975164E-04  0.1421181E+04  0.7818609E-02  0.8938628E-01
        2   -1    0    0  501    0  0.00000000000E+00  0.00000000000E+00  0.11616838818E+04  0.11616838818E+04  0.25500000920E-02 0.  1.
       -2   -1    0    0    0  501  0.00000000000E+00  0.00000000000E+00 -0.43466109472E+03  0.43466109473E+03  0.25500000920E-02 0. -1.
    10030    2    1    2    0    0  0.00000000000E+00  0.00000000000E+00  0.72702278711E+03  0.15963449766E+04  0.14211809002E+04 0.  0.
        5    1    3    3  502    0 -0.24520161426E+03 -0.38703565149E+03  0.97358979581E+03  0.10760202636E+04  0.46999998093E+01 0.  1.
       -5    1    3    3    0  502  0.24520161426E+03  0.38703565149E+03 -0.24656700869E+03  0.52032471298E+03  0.46999998093E+01 0. -1.
</event>
<event>
 5   0  0.2155352E-04  0.1400634E+04  0.7818609E-02  0.8953360E-01
        1   -1    0    0  501    0  0.00000000000E+00  0.00000000000E+00  0.37195385051E+03  0.37195385054E+03  0.50400001928E-02 0.  1.
       -1   -1    0    0    0  501  0.00000000000E+00  0.00000000000E+00 -0.13185605152E+04  0.13185605152E+04  0.50400001928E-02 0. -1.
    10030    2    1    2    0    0  0.00000000000E+00  0.00000000000E+00 -0.94660666472E+03  0.16905143658E+04  0.14006336577E+04 0.  0.
        2    1    3    3  502    0  0.66483048893E+03 -0.15194762120E+03 -0.66549506307E+03  0.95287530012E+03  0.25500000920E-02 0. -1.
       -2    1    3    3    0  502 -0.66483048893E+03  0.15194762120E+03 -0.28111160164E+03  0.73763906565E+03  0.25500000920E-02 0.  1.
</event>
<event>
 5   0  0.2155352E-04  0.1397603E+04  0.7818609E-02  0.8955556E-01
        1   -1    0    0  501    0  0.00000000000E+00  0.00000000000E+00  0.51317489542E+03  0.51317489544E+03  0.50400001928E-02 0. -1.
       -1   -1    0    0    0  501  0.00000000000E+00  0.00000000000E+00 -0.95157275573E+03  0.95157275575E+03  0.50400001928E-02 0.  1.
    10030    2    1    2    0    0  0.00000000000E+00  0.00000000000E+00 -0.43839786031E+03  0.14647476512E+04  0.13976025893E+04 0.  0.
        2    1    3    3  502    0  0.44645715063E+03 -0.12693773577E+03 -0.76668087295E+03  0.89623475555E+03  0.25500000920E-02 0.  1.
       -2    1    3    3    0  502 -0.44645715063E+03  0.12693773577E+03  0.32828301263E+03  0.56851289563E+03  0.25500000920E-02 0. -1.
</event>
<event>
 5   0  0.1497625E-04  0.1397587E+04  0.7818609E-02  0.8955567E-01
       -3   -1    0    0    0  501  0.00000000000E+00  0.00000000000E+00  0.12299432218E+04  0.12299432260E+04  0.10100000352E+00 0.  1.
        3   -1    0    0  501    0  0.00000000000E+00  0.00000000000E+00 -0.39702005280E+03  0.39702006564E+03  0.10100000352E+00 0. -1.
    10030    2    1    2    0    0  0.00000000000E+00  0.00000000000E+00  0.83292316903E+03  0.16269632916E+04  0.13975866867E+04 0.  0.
        3    1    3    3  502    0  0.50027349107E+03  0.44721141567E+03  0.18941123930E+03  0.69724331761E+03  0.10100000352E+00 0.  1.
       -3    1    3    3    0  502 -0.50027349107E+03 -0.44721141567E+03  0.64351192973E+03  0.92971997402E+03  0.10100000352E+00 0. -1.
</event>
<event>
 5   0  0.1497625E-04  0.1406604E+04  0.7818609E-02  0.8949052E-01
       -3   -1    0    0    0  501  0.00000000000E+00  0.00000000000E+00  0.96919348952E+03  0.96919349479E+03  0.10100000352E+00 0. -1.
        3   -1    0    0  501    0  0.00000000000E+00  0.00000000000E+00 -0.51035580775E+03  0.51035581774E+03  0.10100000352E+00 0.  1.
    10030    2    1    2    0    0  0.00000000000E+00  0.00000000000E+00  0.45883768177E+03  0.14795493125E+04  0.14066037644E+04 0.  0.
        1    1    3    3  502    0 -0.24549566934E+03  0.10453428986E+03 -0.45504826555E+03  0.52750778708E+03  0.50400001928E-02 0.  1.
       -1    1    3    3    0  502  0.24549566934E+03 -0.10453428986E+03  0.91388594733E+03  0.95204152545E+03  0.50400001928E-02 0. -1.
</event>
<event>
 5   0  0.2143942E-04  0.1335979E+04  0.7818609E-02  0.9001510E-01
       -1   -1    0    0    0  501  0.00000000000E+00  0.00000000000E+00  0.21286822760E+03  0.21286822766E+03  0.50400001928E-02 0. -1.
        1   -1    0    0  501    0  0.00000000000E+00  0.00000000000E+00 -0.20961797179E+04  0.20961797179E+04  0.50400001928E-02 0.  1.
    10030    2    1    2    0    0  0.00000000000E+00  0.00000000000E+00 -0.18833114903E+04  0.23090479456E+04  0.13359791336E+04 0.  0.
        4    1    3    3  502    0  0.33955432011E+02  0.54182383845E+03 -0.16143448161E+04  0.17031843239E+04  0.12699999809E+01 0.  1.
       -4    1    3    3    0  502 -0.33955432011E+02 -0.54182383845E+03 -0.26896667425E+03  0.60586362165E+03  0.12699999809E+01 0. -1.
</event>
<event>
 5   0  0.2223112E-04  0.1385275E+04  0.7818609E-02  0.8964547E-01
       -1   -1    0    0    0  501  0.00000000000E+00  0.00000000000E+00  0.28282300813E+03  0.28282300818E+03  0.50400001928E-02 0.  1.
        1   -1    0    0  501    0  0.00000000000E+00  0.00000000000E+00 -0.16962794705E+04  0.16962794705E+04  0.50400001928E-02 0. -1.
    10030    2    1    2    0    0  0.00000000000E+00  0.00000000000E+00 -0.14134564624E+04  0.19791024787E+04  0.13852752254E+04 0.  0.
        1    1    3    3  502    0  0.47452386918E+03 -0.42710794884E+02 -0.14249814504E+04  0.15025209644E+04  0.50400001928E-02 0. -1.
       -1    1    3    3    0  502 -0.47452386918E+03  0.42710794884E+02  0.11524988002E+02  0.47658151432E+03  0.50400001928E-02 0.  1.
</event>
<event>
 5   0  0.4208622E-04  0.1412756E+04  0.7818609E-02  0.8944637E-01
       -2   -1    0    0    0  501  0.00000000000E+00  0.00000000000E+00  0.54486166241E+03  0.54486166241E+03  0.25500000920E-02 0.  1.
        2   -1    0    0  501    0  0.00000000000E+00  0.00000000000E+00 -0.91577345344E+03  0.91577345344E+03  0.25500000920E-02 0. -1.
    10030    2    1    2    0    0  0.00000000000E+00  0.00000000000E+00 -0.37091179103E+03  0.14606351159E+04  0.14127559538E+04 0.  0.
        4    1    3    3  502    0  0.12995156114E+03  0.56336434216E+03 -0.60504412196E+03  0.83686724914E+03  0.12699999809E+01 0. -1.
       -4    1    3    3    0  502 -0.12995156114E+03 -0.56336434216E+03  0.23413233093E+03  0.62376786672E+03  0.12699999809E+01 0.  1.
</event>
<event>
 5   0  0.3975164E-04  0.1398225E+04  0.7818609E-02  0.8955104E-01
        2   -1    0    0  501    0  0.00000000000E+00  0.00000000000E+00  0.77764094066E+03  0.77764094066E+03  0.25500000920E-02 0.  1.
       -2   -1    0    0    0  501  0.00000000000E+00  0.00000000000E+00 -0.62851419549E+03  0.62851419550E+03  0.25500000920E-02 0. -1.
    10030    2    1    2    0    0  0.00000000000E+00  0.00000000000E+00  0.14912674516E+03  0.14061551362E+04  0.13982251181E+04 0.  0.
        5    1    3    3  502    0  0.14687862071E+03 -0.52036367570E+03  0.52022972641E+03  0.75034175043E+03  0.46999998093E+01 0.  1.
       -5    1    3    3    0  502 -0.14687862071E+03  0.52036367570E+03 -0.37110298125E+03  0.65581338573E+03  0.46999998093E+01 0. -1.
</event>
<event>
 5   0  0.2217251E-04  0.1400967E+04  0.7818609E-02  0.8953119E-01
       -1   -1    0    0    0  501  0.00000000000E+00  0.00000000000E+00  0.18539539706E+03  0.18539539713E+03  0.50400001928E-02 0. -1.
        1   -1    0    0  501    0  0.00000000000E+00  0.00000000000E+00 -0.26466530477E+04  0.26466530477E+04  0.50400001928E-02 0.  1.
    10030    2    1    2    0    0  0.00000000000E+00  0.00000000000E+00 -0.24612576506E+04  0.28320484448E+04  0.14009672269E+04 0.  0.
        5    1    3    3  502    0  0.27685160494E+03 -0.35458637634E+03 -0.23159983390E+04  0.23592898731E+04  0.46999998093E+01 0.  1.
       -5    1    3    3    0  502 -0.27685160494E+03  0.35458637634E+03 -0.14525931164E+03  0.47275857164E+03  0.46999998093E+01 0. -1.
</event>
<event>
 5   0  0.4310348E-04  0.1380911E+04  0.7818609E-02  0.8967753E-01
       -2   -1    0    0    0  501  0.00000000000E+00  0.00000000000E+00  0.59189834216E+03  0.59189834217E+03  0.25500000920E-02 0.  1.
        2   -1    0    0  501    0  0.00000000000E+00  0.00000000000E+00 -0.80542369141E+03  0.80542369142E+03  0.25500000920E-02 0. -1.
    10030    2    1    2    0    0  0.00000000000E+00  0.00000000000E+00 -0.21352534925E+03  0.13973220336E+04  0.13809112176E+04 0.  0.
        1    1    3    3  502    0  0.51378685871E+03  0.41585080280E+03  0.95158581385E+02  0.66780534740E+03  0.50400001928E-02 0.  1.
       -1    1    3    3    0  502 -0.51378685871E+03 -0.41585080280E+03 -0.30868393063E+03  0.72951668619E+03  0.50400001928E-02 0. -1.
</event>
<event>
 5   0  0.3932568E-04  0.1397685E+04  0.7818609E-02  0.8955496E-01
        2   -1    0    0  501    0  0.00000000000E+00  0.00000000000E+00  0.51913783382E+03  0.51913783383E+03  0.25500000920E-02 0.  1.
       -2   -1    0    0    0  501  0.00000000000E+00  0.00000000000E+00 -0.94075374096E+03  0.94075374097E+03  0.25500000920E-02 0. -1.
    10030    2    1    2    0    0  0.00000000000E+00  0.00000000000E+00 -0.42161590714E+03  0.14598915748E+04  0.13976850278E+04 0.  0.
        2    1    3    3  502    0  0.93753430476E+02 -0.67461451843E+03 -0.47362139033E+02  0.68274272345E+03  0.25500000920E-02 0. -1.
       -2    1    3    3    0  502 -0.93753430476E+02  0.67461451843E+03 -0.37425376811E+03  0.77714885135E+03  0.25500000920E-02 0.  1.
</event>
<event>
 5   0  0.3932568E-04  0.1407261E+04  0.7818609E-02  0.8948579E-01
       -2   -1    0    0    0  501  0.00000000000E+00  0.00000000000E+00  0.35589026193E+03  0.35589026194E+03  0.25500000920E-02 0.  1.
        2   -1    0    0  501    0  0.00000000000E+00  0.00000000000E+00 -0.13911475302E+04  0.13911475302E+04  0.25500000920E-02 0. -1.
    10030    2    1    2    0    0  0.00000000000E+00  0.00000000000E+00 -0.10352572683E+04  0.17470377921E+04  0.14072609693E+04 0.  0.
        2    1    3    3  502    0  0.33597952065E+03  0.25157071314E+02 -0.12844971033E+04  0.13279487659E+04  0.25500000920E-02 0. -1.
       -2    1    3    3    0  502 -0.33597952065E+03 -0.25157071314E+02  0.24923983502E+03  0.41908902623E+03  0.25500000920E-02 0.  1.
</event>
<event>
 5   0  0.2143942E-04  0.1406586E+04  0.7818609E-02  0.8949065E-01
        1   -1    0    0  501    0  0.00000000000E+00  0.00000000000E+00  0.64285730769E+03  0.64285730771E+03  0.50400001928E-02 0.  1.
       -1   -1    0    0    0  501  0.00000000000E+00  0.00000000000E+00 -0.76941007601E+03  0.76941007603E+03  0.50400001928E-02 0. -1.
    10030    2    1    2    0    0  0.00000000000E+00  0.00000000000E+00 -0.12655276833E+03  0.14122673837E+04  0.14065857812E+04 0.  0.
        4    1    3    3  502    0 -0.23482768910E+03  0.64750952605E+03  0.79447887637E+02  0.69334422161E+03  0.12699999809E+01 0.  1.
       -4    1    3    3    0  502  0.23482768910E+03 -0.64750952605E+03 -0.20600065596E+03  0.71892316213E+03  0.12699999809E+01 0. -1.
</event>
<event>
 5   0  0.2223112E-04  0.1395579E+04  0.7818609E-02  0.8957025E-01
       -1   -1    0    0    0  501  0.00000000000E+00  0.00000000000E+00  0.35490419993E+03  0.35490419996E+03  0.50400001928E-02 0. -1.
        1   -1    0    0  501    0  0.00000000000E+00  0.00000000000E+00 -0.13719476462E+04  0.13719476462E+04  0.50400001928E-02 0.  1.
    10030    2    1    2    0    0  0.00000000000E+00  0.00000000000E+00 -0.10170434462E+04  0.17268518461E+04  0.13955787068E+04 0.  0.
        1    1    3    3  502    0 -0.24315719542E+03 -0.65290642577E+03 -0.46063426931E+03  0.83522221749E+03  0.50400001928E-02 0. -1.
       -1    1    3    3    0  502  0.24315719542E+03  0.65290642577E+03 -0.55640917692E+03  0.89162962865E+03  0.50400001928E-02 0.  1.
</event>
<event>
 5   0  0.3975164E-04  0.1384113E+04  0.7818609E-02  0.8965400E-01
        2   -1    0    0  501    0  0.00000000000E+00  0.00000000000E+00  0.60051992137E+03  0.60051992137E+03  0.25500000920E-02 0. -1.
       -2   -1    0    0    0  501  0.00000000000E+00  0.00000000000E+00 -0.79754556779E+03  0.79754556779E+03  0.25500000920E-02 0.  1.
    10030    2    1    2    0    0  0.00000000000E+00  0.00000000000E+00 -0.19702564642E+03  0.13980654892E+04  0.13841127146E+04 0.  0.
        5    1    3    3  502    0 -0.40263867807E+03 -0.35573112407E+03  0.34206923386E+03  0.63694268852E+03  0.46999998093E+01 0. -1.
       -5    1    3    3    0  502  0.40263867807E+03  0.35573112407E+03 -0.53909488028E+03  0.76112280064E+03  0.46999998093E+01 0.  1.
</event>
<event>
 5   0  0.2217251E-04  0.1393758E+04  0.7818609E-02  0.8958349E-01
        1   -1    0    0  501    0  0.00000000000E+00  0.00000000000E+00  0.10382260160E+04  0.10382260160E+04  0.50400001928E-02 0. -1.
       -1   -1    0    0    0  501  0.00000000000E+00  0.00000000000E+00 -0.46775976390E+03  0.46775976393E+03  0.50400001928E-02 0.  1.
    10030    2    1    2    0    0  0.00000000000E+00  0.00000000000E+00  0.57046625211E+03  0.15059857800E+04  0.13937580223E+04 0.  0.
        5    1    3    3  502    0 -0.24065467252E+03 -0.35760742355E+03 -0.30641592380E+03  0.52887668614E+03  0.46999998093E+01 0.  1.
       -5    1    3    3    0  502  0.24065467252E+03  0.35760742355E+03  0.87688217592E+03  0.97710909382E+03  0.46999998093E+01 0. -1.
</event>
<event>
 5   0  0.3932568E-04  0.1426821E+04  0.7818609E-02  0.8934629E-01
        2   -1    0    0  501    0  0.00000000000E+00  0.00000000000E+00  0.10822870401E+04  0.10822870401E+04  0.25500000920E-02 0.  1.
       -2   -1    0    0    0  501  0.00000000000E+00  0.00000000000E+00 -0.47025869944E+03  0.47025869945E+03  0.25500000920E-02 0. -1.
    10030    2    1    2    0    0  0.00000000000E+00  0.00000000000E+00  0.61202834068E+03  0.15525457396E+04  0.14268214968E+04 0.  0.
        2    1    3    3  502    0 -0.31239631215E+03 -0.31843638026E+03 -0.29978515486E+03  0.53746099691E+03  0.25500000920E-02 0. -1.
       -2    1    3    3    0  502  0.31239631215E+03  0.31843638026E+03  0.91181349555E+03  0.10150847427E+04  0.25500000920E-02 0.  1.
</event>
<event>
 5   0  0.4208622E-04  0.1396970E+04  0.7818609E-02  0.8956015E-01
        2   -1    0    0  501    0  0.00000000000E+00  0.00000000000E+00  0.13509146690E+04  0.13509146690E+04  0.25500000920E-02 0.  1.
       -2   -1    0    0    0  501  0.00000000000E+00  0.00000000000E+00 -0.36114894555E+03  0.36114894556E+03  0.25500000920E-02 0. -1.
    10030    2    1    2    0    0  0.00000000000E+00  0.00000000000E+00  0.98976572348E+03  0.17120636146E+04  0.13969701618E+04 0.  0.
        4    1    3    3  502    0  0.66008315458E+02  0.37353766729E+03 -0.22391559127E+03  0.44048529091E+03  0.12699999809E+01 0. -1.
       -4    1    3    3    0  502 -0.66008315458E+02 -0.37353766729E+03  0.12136813147E+04  0.12715783237E+04  0.12699999809E+01 0.  1.
</event>
<event>
 5   0  0.2143942E-04  0.1395007E+04  0.7818609E-02  0.8957441E-01
        1   -1    0    0  501    0  0.00000000000E+00  0.00000000000E+00  0.99567800140E+03  0.99567800141E+03  0.50400001928E-02 0. -1.
       -1   -1    0    0    0  501  0.00000000000E+00  0.00000000000E+00 -0.48862270754E+03  0.48862270756E+03  0.50400001928E-02 0.  1.
    10030    2    1    2    0    0  0.00000000000E+00  0.00000000000E+00  0.50705529387E+03  0.14843007090E+04  0.13950066393E+04 0.  0.
        4    1    3    3  502    0 -0.53303331038E+03  0.44748119002E+03  0.20424500859E+03  0.72531480188E+03  0.12699999809E+01 0. -1.
       -4    1    3    3    0  502  0.53303331038E+03 -0.44748119002E+03  0.30281028528E+03  0.75898590709E+03  0.12699999809E+01 0.  1.
</event>
<event>
 5   0  0.3975164E-04  0.1398756E+04  0.7818609E-02  0.8954719E-01
       -2   -1    0    0    0  501  0.00000000000E+00  0.00000000000E+00  0.48619154396E+03  0.48619154396E+03  0.25500000920E-02 0.  1.
        2   -1    0    0  501    0  0.00000000000E+00  0.00000000000E+00 -0.10060436741E+04  0.10060436741E+04  0.25500000920E-02 0. -1.
    10030    2    1    2    0    0  0.00000000000E+00  0.00000000000E+00 -0.51985213010E+03  0.14922352180E+04  0.13987564866E+04 0.  0.
        5    1    3    3  502    0 -0.11451620984E+03  0.36602309996E+03  0.36398334527E+03  0.52876538999E+03  0.46999998093E+01 0.  1.
       -5    1    3    3    0  502  0.11451620984E+03 -0.36602309996E+03 -0.88383547537E+03  0.96346982804E+03  0.46999998093E+01 0. -1.
</event>
<event>
 5   0  0.3917598E-04  0.1395715E+04  0.7818609E-02  0.8956926E-01
       -2   -1    0    0    0  501  0.00000000000E+00  0.00000000000E+00  0.35691199789E+03  0.35691199790E+03  0.25500000920E-02 0.  1.
        2   -1    0    0  501    0  0.00000000000E+00  0.00000000000E+00 -0.13644968624E+04  0.13644968624E+04  0.25500000920E-02 0. -1.
    10030    2    1    2    0    0  0.00000000000E+00  0.00000000000E+00 -0.10075848645E+04  0.17214088603E+04  0.13957153023E+04 0.  0.
        3    1    3    3  502    0  0.31357768971E+03  0.11334648220E+03 -0.12598957157E+04  0.13032711218E+04  0.10100000352E+00 0. -1.
       -3    1    3    3    0  502 -0.31357768971E+03 -0.11334648220E+03  0.25231085115E+03  0.41813773845E+03  0.10100000352E+00 0.  1.
</event>
<event>
 5   0  0.4208622E-04  0.1401468E+04  0.7818609E-02  0.8952757E-01
       -2   -1    0    0    0  501  0.00000000000E+00  0.00000000000E+00  0.34641420630E+03  0.34641420631E+03  0.25500000920E-02 0. -1.
        2   -1    0    0  501    0  0.00000000000E+00  0.00000000000E+00 -0.14174591508E+04  0.14174591508E+04  0.25500000920E-02 0.  1.
    10030    2    1    2    0    0  0.00000000000E+00  0.00000000000E+00 -0.10710449445E+04  0.17638733572E+04  0.14014677830E+04 0.  0.
        4    1    3    3  502    0  0.35140644086E+02  0.12005802962E+03  0.33224552336E+03  0.35501759962E+03  0.12699999809E+01 0. -1.
       -4    1    3    3    0  502 -0.35140644086E+02 -0.12005802962E+03 -0.14032904679E+04  0.14088557575E+04  0.12699999809E+01 0.  1.
</event>
<event>
 5   0  0.2155352E-04  0.1392216E+04  0.7818609E-02  0.8959472E-01
        1   -1    0    0  501    0  0.00000000000E+00  0.00000000000E+00  0.18997266020E+04  0.18997266020E+04  0.50400001928E-02 0.  1.
       -1   -1    0    0    0  501  0.00000000000E+00  0.00000000000E+00 -0.25507160544E+03  0.25507160549E+03  0.50400001928E-02 0. -1.
    10030    2    1    2    0    0  0.00000000000E+00  0.00000000000E+00  0.16446549966E+04  0.21547982075E+04  0.13922159521E+04 0.  0.
        2    1    3    3  502    0 -0.17100140822E+03 -0.27325274064E+03 -0.13259329662E+03  0.34855347394E+03  0.25500000920E-02 0. -1.
       -2    1    3    3    0  502  0.17100140822E+03  0.27325274064E+03  0.17772482932E+04  0.18062447336E+04  0.25500000920E-02 0.  1.
</event>
<event>
 5   0  0.3975164E-04  0.1400255E+04  0.7818609E-02  0.8953634E-01
        2   -1    0    0  501    0  0.00000000000E+00  0.00000000000E+00  0.10586421987E+04  0.10586421987E+04  0.25500000920E-02 0.  1.
       -2   -1    0    0    0  501  0.00000000000E+00  0.00000000000E+00 -0.46302535403E+03  0.46302535404E+03  0.25500000920E-02 0. -1.
    10030    2    1    2    0    0  0.00000000000E+00  0.00000000000E+00  0.59561684463E+03  0.15216675527E+04  0.14002545181E+04 0.  0.
        5    1    3    3  502    0  0.49825781613E+03  0.18122257054E+03  0.79467712394E+03  0.95531999493E+03  0.46999998093E+01 0.  1.
       -5    1    3    3    0  502 -0.49825781613E+03 -0.18122257054E+03 -0.19906027930E+03  0.56634755778E+03  0.46999998093E+01 0. -1.
</event>
<event>
 5   0  0.2217251E-04  0.1394798E+04  0.7818609E-02  0.8957593E-01
       -1   -1    0    0    0  501  0.00000000000E+00  0.00000000000E+00  0.31786674049E+03  0.31786674053E+03  0.50400001928E-02 0.  1.
        1   -1    0    0  501    0  0.00000000000E+00  0.00000000000E+00 -0.15300913269E+04  0.15300913269E+04  0.50400001928E-02 0. -1.
    10030    2    1    2    0    0  0.00000000000E+00  0.00000000000E+00 -0.12122245864E+04  0.18479580674E+04  0.13947976811E+04 0.  0.
        5    1    3    3  502    0 -0.27898177561E+03 -0.61354851332E+03 -0.36884745712E+03  0.76833791131E+03  0.46999998093E+01 0.  1.
       -5    1    3    3    0  502  0.27898177561E+03  0.61354851332E+03 -0.84337712926E+03  0.10796201561E+04  0.46999998093E+01 0. -1.
</event>
<event>
 5   0  0.4208622E-04  0.1333892E+04  0.7818609E-02  0.9003112E-01
       -2   -1    0    0    0  501  0.00000000000E+00  0.00000000000E+00  0.21406930042E+03  0.21406930043E+03  0.25500000920E-02 0. -1.
        2   -1    0    0  501    0  0.00000000000E+00  0.00000000000E+00 -0.20779112988E+04  0.20779112988E+04  0.25500000920E-02 0.  1.
    10030    2    1    2    0    0  0.00000000000E+00  0.00000000000E+00 -0.18638419983E+04  0.22919805992E+04  0.13338920767E+04 0.  0.
        4    1    3    3  502    0  0.97419399134E+02  0.19526251831E+02 -0.20651213815E+04  0.20675105192E+04  0.12699999809E+01 0.  1.
       -4    1    3    3    0  502 -0.97419399134E+02 -0.19526251831E+02  0.20127938314E+03  0.22447008000E+03  0.12699999809E+01 0. -1.
</event>
<event>
 5   0  0.2223112E-04  0.1400431E+04  0.7818609E-02  0.8953506E-01
       -1   -1    0    0    0  501  0.00000000000E+00  0.00000000000E+00  0.34176497504E+03  0.34176497508E+03  0.50400001928E-02 0.  1.
        1   -1    0    0  501    0  0.00000000000E+00  0.00000000000E+00 -0.14346173577E+04  0.14346173578E+04  0.50400001928E-02 0. -1.
    10030    2    1    2    0    0  0.00000000000E+00  0.00000000000E+00 -0.10928523827E+04  0.17763823328E+04  0.14004313129E+04 0.  0.
        1    1    3    3  502    0  0.35083741316E+03  0.59995986433E+03 -0.43832270101E+03  0.82168456206E+03  0.50400001928E-02 0. -1.
       -1    1    3    3    0  502 -0.35083741316E+03 -0.59995986433E+03 -0.65452968169E+03  0.95469777077E+03  0.50400001928E-02 0.  1.
</event>
<event>
 5   0  0.3975164E-04  0.1394408E+04  0.7818609E-02  0.8957876E-01
        2   -1    0    0  501    0  0.00000000000E+00  0.00000000000E+00  0.28951839746E+04  0.28951839746E+04  0.25500000920E-02 0.  1.
       -2   -1    0    0    0  501  0.00000000000E+00  0.00000000000E+00 -0.16789724668E+03  0.16789724670E+03  0.25500000920E-02 0. -1.
    10030    2    1    2    0    0  0.00000000000E+00  0.00000000000E+00  0.27272867279E+04  0.30630812213E+04  0.13944080005E+04 0.  0.
        5    1    3    3  502    0 -0.11040156817E+03 -0.59844039585E+03  0.21110083339E+04  0.21969746675E+04  0.46999998093E+01 0. -1.
       -5    1    3    3    0  502  0.11040156817E+03  0.59844039585E+03  0.61627839394E+03  0.86610655376E+03  0.46999998093E+01 0.  1.
</event>
<event>
 5   0  0.2217251E-04  0.1416233E+04  0.7818609E-02  0.8942151E-01
        1   -1    0    0  501    0  0.00000000000E+00  0.00000000000E+00  0.18051242212E+04  0.18051242213E+04  0.50400001928E-02 0. -1.
       -1   -1    0    0    0  501  0.00000000000E+00  0.00000000000E+00 -0.27778094312E+03  0.27778094317E+03  0.50400001928E-02 0.  1.
    10030    2    1    2    0    0  0.00000000000E+00  0.00000000000E+00  0.15273432781E+04  0.20829051644E+04  0.14162331852E+04 0.  0.
        5    1    3    3  502    0 -0.21143148765E+03  0.67558495057E+03  0.78866200538E+03  0.10597774050E+04  0.46999998093E+01 0. -1.
       -5    1    3    3    0  502  0.21143148765E+03 -0.67558495057E+03  0.73868127274E+03  0.10231277594E+04  0.46999998093E+01 0.  1.
</event>
<event>
 5   0  0.2217251E-04  0.1394703E+04  0.7818609E-02  0.8957661E-01
        1   -1    0    0  501    0  0.00000000000E+00  0.00000000000E+00  0.12993376071E+04  0.12993376071E+04  0.50400001928E-02 0.  1.
       -1   -1    0    0    0  501  0.00000000000E+00  0.00000000000E+00 -0.37426719797E+03  0.37426719800E+03  0.50400001928E-02 0. -1.
    10030    2    1    2    0    0  0.00000000000E+00  0.00000000000E+00  0.92507040914E+03  0.16736048051E+04  0.13947034745E+04 0.  0.
        5    1    3    3  502    0 -0.13517226727E+03  0.64138386806E+03  0.74809961438E+03  0.99464563091E+03  0.46999998093E+01 0.  1.
       -5    1    3    3    0  502  0.13517226727E+03 -0.64138386806E+03  0.17697079476E+03  0.67895917421E+03  0.46999998093E+01 0. -1.
</event>
<event>
 5   0  0.3975164E-04  0.1389559E+04  0.7818609E-02  0.8961411E-01
        2   -1    0    0  501    0  0.00000000000E+00  0.00000000000E+00  0.71457327357E+03  0.71457327357E+03  0.25500000920E-02 0. -1.
       -2   -1    0    0    0  501  0.00000000000E+00  0.00000000000E+00 -0.67553398557E+03  0.67553398557E+03  0.25500000920E-02 0.  1.
    10030    2    1    2    0    0  0.00000000000E+00  0.00000000000E+00  0.39039288000E+02  0.13901072591E+04  0.13895589681E+04 0.  0.
        5    1    3    3  502    0 -0.43255782523E+03  0.32713866745E+03 -0.41489870607E+03  0.68285357597E+03  0.46999998093E+01 0.  1.
       -5    1    3    3    0  502  0.43255782523E+03 -0.32713866745E+03  0.45393799407E+03  0.70725368318E+03  0.46999998093E+01 0. -1.
</event>
<event>
 5   0  0.2143942E-04  0.1391654E+04  0.7818609E-02  0.8959882E-01
       -1   -1    0    0    0  501  0.00000000000E+00  0.00000000000E+00  0.53167413445E+03  0.53167413447E+03  0.50400001928E-02 0. -1.
        1   -1    0    0  501    0  0.00000000000E+00  0.00000000000E+00 -0.91066181445E+03  0.91066181447E+03  0.50400001928E-02 0.  1.
    10030    2    1    2    0    0  0.00000000000E+00  0.00000000000E+00 -0.37898768000E+03  0.14423359489E+04  0.13916541697E+04 0.  0.
        4    1    3    3  502    0  0.38183347524E+03  0.20843274456E+03  0.37336121593E+03  0.57327238053E+03  0.12699999809E+01 0. -1.
       -4    1    3    3    0  502 -0.38183347524E+03 -0.20843274456E+03 -0.75234889593E+03  0.86906356841E+03  0.12699999809E+01 0.  1.
</event>
<event>
 5   0  0.2143942E-04  0.1325190E+04  0.7818609E-02  0.9009824E-01
        1   -1    0    0  501    0  0.00000000000E+00  0.00000000000E+00  0.54534228993E+03  0.54534228995E+03  0.50400001928E-02 0. -1.
       -1   -1    0    0    0  501  0.00000000000E+00  0.00000000000E+00 -0.80505804059E+03  0.80505804060E+03  0.50400001928E-02 0.  1.
    10030    2    1    2    0    0  0.00000000000E+00  0.00000000000E+00 -0.25971575066E+03  0.13504003306E+04  0.13251900926E+04 0.  0.
        4    1    3    3  502    0 -0.35528091319E+03 -0.47855534159E+03  0.16511537112E+03  0.61846943410E+03  0.12699999809E+01 0. -1.
       -4    1    3    3    0  502  0.35528091319E+03  0.47855534159E+03 -0.42483112178E+03  0.73193089645E+03  0.12699999809E+01 0.  1.
</event>
<event>
 5   0  0.2217251E-04  0.1382381E+04  0.7818609E-02  0.8966671E-01
        1   -1    0    0  501    0  0.00000000000E+00  0.00000000000E+00  0.55475380283E+03  0.55475380286E+03  0.50400001928E-02 0. -1.
       -1   -1    0    0    0  501  0.00000000000E+00  0.00000000000E+00 -0.86118305221E+03  0.86118305223E+03  0.50400001928E-02 0.  1.
    10030    2    1    2    0    0  0.00000000000E+00  0.00000000000E+00 -0.30642924938E+03  0.14159368551E+04  0.13823813847E+04 0.  0.
        5    1    3    3  502    0  0.35599368373E+02 -0.17115791203E+03  0.53171752143E+03  0.55973918790E+03  0.46999998093E+01 0. -1.
       -5    1    3    3    0  502 -0.35599368373E+02  0.17115791203E+03 -0.83814677081E+03  0.85619766719E+03  0.46999998093E+01 0.  1.
</event>
<event>
 5   0  0.2143942E-04  0.1398830E+04  0.7818609E-02  0.8954666E-01
        1   -1    0    0  501    0  0.00000000000E+00  0.00000000000E+00  0.89987386789E+03  0.89987386791E+03  0.50400001928E-02 0. -1.
       -1   -1    0    0    0  501  0.00000000000E+00  0.00000000000E+00 -0.54361135452E+03  0.54361135455E+03  0.50400001928E-02 0.  1.
    10030    2    1    2    0    0  0.00000000000E+00  0.00000000000E+00  0.35626251337E+03  0.14434852225E+04  0.13988304433E+04 0.  0.
        4    1    3    3  502    0  0.62728817543E+03  0.30105325015E+03  0.25151051899E+03  0.73985313984E+03  0.12699999809E+01 0. -1.
       -4    1    3    3    0  502 -0.62728817543E+03 -0.30105325015E+03  0.10475199438E+03  0.70363208262E+03  0.12699999809E+01 0.  1.
</event>
<event>
 5   0  0.2143942E-04  0.1405945E+04  0.7818609E-02  0.8949526E-01
        1   -1    0    0  501    0  0.00000000000E+00  0.00000000000E+00  0.13106644924E+04  0.13106644924E+04  0.50400001928E-02 0. -1.
       -1   -1    0    0    0  501  0.00000000000E+00  0.00000000000E+00 -0.37703827789E+03  0.37703827793E+03  0.50400001928E-02 0.  1.
    10030    2    1    2    0    0  0.00000000000E+00  0.00000000000E+00  0.93362621452E+03  0.16877027704E+04  0.14059454942E+04 0.  0.
        4    1    3    3  502    0  0.56353430324E+03 -0.32436623521E+03  0.78753607577E+03  0.10212732489E+04  0.12699999809E+01 0. -1.
       -4    1    3    3    0  502 -0.56353430324E+03  0.32436623521E+03  0.14609013875E+03  0.66642952141E+03  0.12699999809E+01 0.  1.
</event>
<event>
 5   0  0.2143942E-04  0.1415063E+04  0.7818609E-02  0.8942987E-01
        1   -1    0    0  501    0  0.00000000000E+00  0.00000000000E+00  0.85568047880E+03  0.85568047881E+03  0.50400001928E-02 0.  1.
       -1   -1    0    0    0  501  0.00000000000E+00  0.00000000000E+00 -0.58503205798E+03  0.58503205801E+03  0.50400001928E-02 0. -1.
    10030    2    1    2    0    0  0.00000000000E+00  0.00000000000E+00  0.27064842081E+03  0.14407125368E+04  0.14150625591E+04 0.  0.
        4    1    3    3  502    0  0.22990801448E+02 -0.68944819274E+03  0.29543736800E+03  0.75043469984E+03  0.12699999809E+01 0.  1.
       -4    1    3    3    0  502 -0.22990801448E+02  0.68944819274E+03 -0.24788947182E+02  0.69027783698E+03  0.12699999809E+01 0. -1.
</event>
<event>
 5   0  0.2223112E-04  0.1394085E+04  0.7818609E-02  0.8958111E-01
       -1   -1    0    0    0  501  0.00000000000E+00  0.00000000000E+00  0.50906787172E+03  0.50906787174E+03  0.50400001928E-02 0.  1.
        1   -1    0    0  501    0  0.00000000000E+00  0.00000000000E+00 -0.95442765067E+03  0.95442765068E+03  0.50400001928E-02 0. -1.
    10030    2    1    2    0    0  0.00000000000E+00  0.00000000000E+00 -0.44535977895E+03  0.14634955224E+04  0.13940852956E+04 0.  0.
        1    1    3    3  502    0  0.24125611643E+03 -0.31875090418E+03  0.37676879661E+03  0.54932811575E+03  0.50400001928E-02 0.  1.
       -1    1    3    3    0  502 -0.24125611643E+03  0.31875090418E+03 -0.82212857556E+03  0.91416740667E+03  0.50400001928E-02 0. -1.
</event>
<event>
 5   0  0.3932568E-04  0.1404849E+04  0.7818609E-02  0.8950316E-01
        2   -1    0    0  501    0  0.00000000000E+00  0.00000000000E+00  0.12090055773E+04  0.12090055773E+04  0.25500000920E-02 0. -1.
       -2   -1    0    0    0  501  0.00000000000E+00  0.00000000000E+00 -0.40810441395E+03  0.40810441396E+03  0.25500000920E-02 0.  1.
    10030    2    1    2    0    0  0.00000000000E+00  0.00000000000E+00  0.80090116334E+03  0.16171099913E+04  0.14048494761E+04 0.  0.
        2    1    3    3  502    0 -0.32277743975E+03 -0.42862087817E+03  0.92226373757E+03  0.10669918155E+04  0.25500000920E-02 0. -1.
       -2    1    3    3    0  502  0.32277743975E+03  0.42862087817E+03 -0.12136257423E+03  0.55011817571E+03  0.25500000920E-02 0.  1.
</event>
<event>
 5   0  0.2223112E-04  0.1398187E+04  0.7818609E-02  0.8955132E-01
       -1   -1    0    0    0  501  0.00000000000E+00  0.00000000000E+00  0.12886464499E+04  0.12886464499E+04  0.50400001928E-02 0.  1.
        1   -1    0    0  501    0  0.00000000000E+00  0.00000000000E+00 -0.37925972643E+03  0.37925972646E+03  0.50400001928E-02 0. -1.
    10030    2    1    2    0    0  0.00000000000E+00  0.00000000000E+00  0.90938672347E+03  0.16679061764E+04  0.13981869690E+04 0.  0.
        1    1    3    3  502    0 -0.54825426209E+03  0.21430567065E+03  0.48204702213E+01  0.58867044544E+03  0.50400001928E-02 0. -1.
       -1    1    3    3    0  502  0.54825426209E+03 -0.21430567065E+03  0.90456625325E+03  0.10792357309E+04  0.50400001928E-02 0.  1.
</event>
<event>
 5   0  0.2223112E-04  0.1416718E+04  0.7818609E-02  0.8941805E-01
        1   -1    0    0  501    0  0.00000000000E+00  0.00000000000E+00  0.70081841668E+03  0.70081841670E+03  0.50400001928E-02 0. -1.
       -1   -1    0    0    0  501  0.00000000000E+00  0.00000000000E+00 -0.71598120090E+03  0.71598120092E+03  0.50400001928E-02 0.  1.
    10030    2    1    2    0    0  0.00000000000E+00  0.00000000000E+00 -0.15162784222E+02  0.14167996176E+04  0.14167184782E+04 0.  0.
        1    1    3    3  502    0  0.34405417920E+03  0.18143842520E+03 -0.59962850026E+03  0.71473597833E+03  0.50400001928E-02 0.  1.
       -1    1    3    3    0  502 -0.34405417920E+03 -0.18143842520E+03  0.58446571604E+03  0.70206363929E+03  0.50400001928E-02 0. -1.
</event>
<event>
 5   0  0.1497625E-04  0.1402863E+04  0.7818609E-02  0.8951749E-01
        4   -1    0    0  501    0  0.00000000000E+00  0.00000000000E+00  0.48374196502E+03  0.48374363212E+03  0.12699999809E+01 0.  1.
       -4   -1    0    0    0  501  0.00000000000E+00  0.00000000000E+00 -0.10170799573E+04  0.10170807502E+04  0.12699999809E+01 0. -1.
    10030    2    1    2    0    0  0.00000000000E+00  0.00000000000E+00 -0.53333799228E+03  0.15008243823E+04  0.14028629343E+04 0.  0.
        2    1    3    3  502    0 -0.45405497192E+03  0.88140737117E+02 -0.83081666065E+03  0.95088959964E+03  0.25500000920E-02 0. -1.
       -2    1    3    3    0  502  0.45405497192E+03 -0.88140737117E+02  0.29747866837E+03  0.54993478269E+03  0.25500000920E-02 0.  1.
</event>
<event>
 5   0  0.1497625E-04  0.1401351E+04  0.7818609E-02  0.8952841E-01
        4   -1    0    0  501    0  0.00000000000E+00  0.00000000000E+00  0.23995763606E+03  0.23996099684E+03  0.12699999809E+01 0.  1.
       -4   -1    0    0    0  501  0.00000000000E+00  0.00000000000E+00 -0.20459525993E+04  0.20459529934E+04  0.12699999809E+01 0. -1.
    10030    2    1    2    0    0  0.00000000000E+00  0.00000000000E+00 -0.18059949632E+04  0.22859139903E+04  0.14013511208E+04 0.  0.
        5    1    3    3  502    0  0.42616094822E+03  0.54070357270E+03 -0.69062119784E+03  0.97516831174E+03  0.46999998093E+01 0.  1.
       -5    1    3    3    0  502 -0.42616094822E+03 -0.54070357270E+03 -0.11153737654E+04  0.13107456785E+04  0.46999998093E+01 0. -1.
</event>
<event>
 5   0  0.2215876E-04  0.1399777E+04  0.7818609E-02  0.8953980E-01
       -1   -1    0    0    0  501  0.00000000000E+00  0.00000000000E+00  0.48700211868E+03  0.48700211870E+03  0.50400001928E-02 0.  1.
        1   -1    0    0  501    0  0.00000000000E+00  0.00000000000E+00 -0.10058350006E+04  0.10058350006E+04  0.50400001928E-02 0. -1.
    10030    2    1    2    0    0  0.00000000000E+00  0.00000000000E+00 -0.51883288189E+03  0.14928371193E+04  0.13997768056E+04 0.  0.
        3    1    3    3  502    0 -0.15720592591E+03 -0.50464768413E+03  0.22984300363E+03  0.57637731111E+03  0.10100000352E+00 0.  1.
       -3    1    3    3    0  502  0.15720592591E+03  0.50464768413E+03 -0.74867588552E+03  0.91645980817E+03  0.10100000352E+00 0. -1.
</event>
<event>
 5   0  0.2143942E-04  0.1400591E+04  0.7818609E-02  0.8953391E-01
        1   -1    0    0  501    0  0.00000000000E+00  0.00000000000E+00  0.17287795806E+04  0.17287795806E+04  0.50400001928E-02 0.  1.
       -1   -1    0    0    0  501  0.00000000000E+00  0.00000000000E+00 -0.28367636333E+03  0.28367636337E+03  0.50400001928E-02 0. -1.
    10030    2    1    2    0    0  0.00000000000E+00  0.00000000000E+00  0.14451032173E+04  0.20124559440E+04  0.14005911673E+04 0.  0.
        4    1    3    3  502    0  0.56395624443E+03 -0.38454080703E+03  0.49767464096E+03  0.84474844721E+03  0.12699999809E+01 0.  1.
       -4    1    3    3    0  502 -0.56395624443E+03  0.38454080703E+03  0.94742857635E+03  0.11677074968E+04  0.12699999809E+01 0. -1.
</event>
<event>
 5   0  0.2143942E-04  0.1403689E+04  0.7818609E-02  0.8951153E-01
       -1   -1    0    0    0  501  0.00000000000E+00  0.00000000000E+00  0.81500173082E+03  0.81500173084E+03  0.50400001928E-02 0. -1.
        1   -1    0    0  501    0  0.00000000000E+00  0.00000000000E+00 -0.60439828960E+03  0.60439828962E+03  0.50400001928E-02 0.  1.
    10030    2    1    2    0    0  0.00000000000E+00  0.00000000000E+00  0.21060344122E+03  0.14194000205E+04  0.14036889287E+04 0.  0.
        4    1    3    3  502    0  0.10837888027E+03  0.26025771470E+03  0.75522728792E+03  0.80613269942E+03  0.12699999809E+01 0. -1.
       -4    1    3    3    0  502 -0.10837888027E+03 -0.26025771470E+03 -0.54462384670E+03  0.61326732103E+03  0.12699999809E+01 0.  1.
</event>
<event>
 5   0  0.4208622E-04  0.1400742E+04  0.7818609E-02  0.8953282E-01
        2   -1    0    0  501    0  0.00000000000E+00  0.00000000000E+00  0.47310563457E+03  0.47310563458E+03  0.25500000920E-02 0. -1.
       -2   -1    0    0    0  501  0.00000000000E+00  0.00000000000E+00 -0.10368074789E+04  0.10368074789E+04  0.25500000920E-02 0.  1.
    10030    2    1    2    0    0  0.00000000000E+00  0.00000000000E+00 -0.56370184432E+03  0.15099131135E+04  0.14007418895E+04 0.  0.
        4    1    3    3  502    0 -0.32972476928E+03 -0.34170438376E+03 -0.83679284512E+03  0.96213522329E+03  0.12699999809E+01 0.  1.
       -4    1    3    3    0  502  0.32972476928E+03  0.34170438376E+03  0.27309100079E+03  0.54777789018E+03  0.12699999809E+01 0. -1.
</event>
<event>
 5   0  0.1497625E-04  0.1393059E+04  0.7818609E-02  0.8958858E-01
       -3   -1    0    0    0  501  0.00000000000E+00  0.00000000000E+00  0.58740920634E+03  0.58740921502E+03  0.10100000352E+00 0.  1.
        3   -1    0    0  501    0  0.00000000000E+00  0.00000000000E+00 -0.82592082258E+03  0.82592082875E+03  0.10100000352E+00 0. -1.
    10030    2    1    2    0    0  0.00000000000E+00  0.00000000000E+00 -0.23851161624E+03  0.14133300438E+04  0.13930592312E+04 0.  0.
        3    1    3    3  502    0 -0.18638996708E+03 -0.63083451473E+03  0.11311872263E+03  0.66744981865E+03  0.10100000352E+00 0.  1.
       -3    1    3    3    0  502  0.18638996708E+03  0.63083451473E+03 -0.35163033887E+03  0.74588022512E+03  0.10100000352E+00 0. -1.
</event>
<event>
 5   0  0.2215876E-04  0.1397857E+04  0.7818609E-02  0.8955371E-01
        1   -1    0    0  501    0  0.00000000000E+00  0.00000000000E+00  0.79938203548E+03  0.79938203549E+03  0.50400001928E-02 0.  1.
       -1   -1    0    0    0  501  0.00000000000E+00  0.00000000000E+00 -0.61109805377E+03  0.61109805379E+03  0.50400001928E-02 0. -1.
    10030    2    1    2    0    0  0.00000000000E+00  0.00000000000E+00  0.18828398170E+03  0.14104800893E+04  0.13978566538E+04 0.  0.
        3    1    3    3  502    0  0.23975281872E+03  0.37298210412E+03 -0.45101821333E+03  0.63246699759E+03  0.10100000352E+00 0. -1.
       -3    1    3    3    0  502 -0.23975281872E+03 -0.37298210412E+03  0.63930219503E+03  0.77801309170E+03  0.10100000352E+00 0.  1.
</event>
<event>
 5   0  0.3932568E-04  0.1396872E+04  0.7818609E-02  0.8956086E-01
        2   -1    0    0  501    0  0.00000000000E+00  0.00000000000E+00  0.72173147884E+03  0.72173147884E+03  0.25500000920E-02 0.  1.
       -2   -1    0    0    0  501  0.00000000000E+00  0.00000000000E+00 -0.67589208155E+03  0.67589208155E+03  0.25500000920E-02 0. -1.
    10030    2    1    2    0    0  0.00000000000E+00  0.00000000000E+00  0.45839397289E+02  0.13976235604E+04  0.13968716356E+04 0.  0.
        2    1    3    3  502    0 -0.41743663202E+03 -0.63269764782E+02  0.57959692972E+03  0.71706973569E+03  0.25500000920E-02 0.  1.
       -2    1    3    3    0  502  0.41743663202E+03  0.63269764782E+02 -0.53375753243E+03  0.68055382471E+03  0.25500000920E-02 0. -1.
</event>
<event>
 5   0  0.3975164E-04  0.1390403E+04  0.7818609E-02  0.8960795E-01
        2   -1    0    0  501    0  0.00000000000E+00  0.00000000000E+00  0.67801669891E+03  0.67801669891E+03  0.25500000920E-02 0.  1.
       -2   -1    0    0    0  501  0.00000000000E+00  0.00000000000E+00 -0.71282176834E+03  0.71282176834E+03  0.25500000920E-02 0. -1.
    10030    2    1    2    0    0  0.00000000000E+00  0.00000000000E+00 -0.34805069429E+02  0.13908384673E+04  0.13904029089E+04 0.  0.
        5    1    3    3  502    0 -0.38556257526E+03 -0.52110439167E+03  0.23382288127E+03  0.68913243739E+03  0.46999998093E+01 0. -1.
       -5    1    3    3    0  502  0.38556257526E+03  0.52110439167E+03 -0.26862795070E+03  0.70170602987E+03  0.46999998093E+01 0.  1.
</event>
<event>
 5   0  0.3917598E-04  0.1398340E+04  0.7818609E-02  0.8955021E-01
        2   -1    0    0  501    0  0.00000000000E+00  0.00000000000E+00  0.77760042320E+03  0.77760042320E+03  0.25500000920E-02 0.  1.
       -2   -1    0    0    0  501  0.00000000000E+00  0.00000000000E+00 -0.62865051388E+03  0.62865051389E+03  0.25500000920E-02 0. -1.
    10030    2    1    2    0    0  0.00000000000E+00  0.00000000000E+00  0.14894990931E+03  0.14062509371E+04  0.13983403100E+04 0.  0.
        3    1    3    3  502    0  0.17772214997E+03 -0.16426900731E+03 -0.58518510732E+03  0.63325436388E+03  0.10100000352E+00 0. -1.
       -3    1    3    3    0  502 -0.17772214997E+03  0.16426900731E+03  0.73413501663E+03  0.77299657321E+03  0.10100000352E+00 0.  1.
</event>
<event>
 5   0  0.2155352E-04  0.1382776E+04  0.7818609E-02  0.8966381E-01
       -1   -1    0    0    0  501  0.00000000000E+00  0.00000000000E+00  0.60691605505E+03  0.60691605507E+03  0.50400001928E-02 0.  1.
        1   -1    0    0  501    0  0.00000000000E+00  0.00000000000E+00 -0.78761673533E+03  0.78761673534E+03  0.50400001928E-02 0. -1.
    10030    2    1    2    0    0  0.00000000000E+00  0.00000000000E+00 -0.18070068027E+03  0.13945327904E+04  0.13827758198E+04 0.  0.
        2    1    3    3  502    0 -0.10399337495E+03 -0.24552485565E+02 -0.77923930185E+03  0.78653120481E+03  0.25500000920E-02 0. -1.
       -2    1    3    3    0  502  0.10399337495E+03  0.24552485565E+02  0.59853862158E+03  0.60800158561E+03  0.25500000920E-02 0.  1.
</event>
<event>
 5   0  0.3917598E-04  0.1403600E+04  0.7818609E-02  0.8951217E-01
       -2   -1    0    0    0  501  0.00000000000E+00  0.00000000000E+00  0.62123947372E+03  0.62123947373E+03  0.25500000920E-02 0. -1.
        2   -1    0    0  501    0  0.00000000000E+00  0.00000000000E+00 -0.79280773329E+03  0.79280773329E+03  0.25500000920E-02 0.  1.
    10030    2    1    2    0    0  0.00000000000E+00  0.00000000000E+00 -0.17156825957E+03  0.14140472070E+04  0.14036003120E+04 0.  0.
        3    1    3    3  502    0  0.30590957796E+03 -0.75145380735E+02  0.54601669676E+03  0.63036635496E+03  0.10100000352E+00 0. -1.
       -3    1    3    3    0  502 -0.30590957796E+03  0.75145380735E+02 -0.71758495632E+03  0.78368085205E+03  0.10100000352E+00 0.  1.
</event>
<event>
 5   0  0.2217251E-04  0.1394318E+04  0.7818609E-02  0.8957942E-01
       -1   -1    0    0    0  501  0.00000000000E+00  0.00000000000E+00  0.73345400141E+03  0.73345400143E+03  0.50400001928E-02 0.  1.
        1   -1    0    0  501    0  0.00000000000E+00  0.00000000000E+00 -0.66266029852E+03  0.66266029854E+03  0.50400001928E-02 0. -1.
    10030    2    1    2    0    0  0.00000000000E+00  0.00000000000E+00  0.70793702893E+02  0.13961143000E+04  0.13943182528E+04 0.  0.
        5    1    3    3  502    0 -0.20471701824E+03 -0.62610010866E+02  0.69971185511E+03  0.73174301582E+03  0.46999998093E+01 0.  1.
       -5    1    3    3    0  502  0.20471701824E+03  0.62610010866E+02 -0.62891815222E+03  0.66437128415E+03  0.46999998093E+01 0. -1.
</event>
<event>
 5   0  0.2215876E-04  0.1400023E+04  0.7818609E-02  0.8953802E-01
       -1   -1    0    0    0  501  0.00000000000E+00  0.00000000000E+00  0.45465606344E+03  0.45465606347E+03  0.50400001928E-02 0.  1.
        1   -1    0    0  501    0  0.00000000000E+00  0.00000000000E+00 -0.10777725905E+04  0.10777725905E+04  0.50400001928E-02 0. -1.
    10030    2    1    2    0    0  0.00000000000E+00  0.00000000000E+00 -0.62311652706E+03  0.15324286540E+04  0.14000226331E+04 0.  0.
        3    1    3    3  502    0  0.19320294002E+03  0.24006988022E+03 -0.99953529472E+03  0.10459597215E+04  0.10100000352E+00 0. -1.
       -3    1    3    3    0  502 -0.19320294002E+03 -0.24006988022E+03  0.37641876766E+03  0.48646893248E+03  0.10100000352E+00 0.  1.
</event>
<event>
 5   0  0.2143942E-04  0.1404732E+04  0.7818609E-02  0.8950401E-01
        1   -1    0    0  501    0  0.00000000000E+00  0.00000000000E+00  0.81086559738E+03  0.81086559740E+03  0.50400001928E-02 0. -1.
       -1   -1    0    0    0  501  0.00000000000E+00  0.00000000000E+00 -0.60838426429E+03  0.60838426431E+03  0.50400001928E-02 0.  1.
    10030    2    1    2    0    0  0.00000000000E+00  0.00000000000E+00  0.20248133309E+03  0.14192498617E+04  0.14047318177E+04 0.  0.
        4    1    3    3  502    0 -0.62627594128E+03  0.31326310781E+03  0.46263881134E+02  0.70178151082E+03  0.12699999809E+01 0. -1.
       -4    1    3    3    0  502  0.62627594128E+03 -0.31326310781E+03  0.15621745196E+03  0.71746835089E+03  0.12699999809E+01 0.  1.
</event>
<event>
 5   0  0.4208622E-04  0.1397875E+04  0.7818609E-02  0.8955359E-01
        2   -1    0    0  501    0  0.00000000000E+00  0.00000000000E+00  0.62305073855E+03  0.62305073856E+03  0.25500000920E-02 0.  1.
       -2   -1    0    0    0  501  0.00000000000E+00  0.00000000000E+00 -0.78406663188E+03  0.78406663189E+03  0.25500000920E-02 0. -1.
    10030    2    1    2    0    0  0.00000000000E+00  0.00000000000E+00 -0.16101589333E+03  0.14071173704E+04  0.13978745209E+04 0.  0.
        4    1    3    3  502    0 -0.53726176692E+03 -0.44539307812E+03 -0.11931778274E+03  0.70799967967E+03  0.12699999809E+01 0. -1.
       -4    1    3    3    0  502  0.53726176692E+03  0.44539307812E+03 -0.41698110587E+02  0.69911769078E+03  0.12699999809E+01 0.  1.
</event>
<event>
 5   0  0.2143942E-04  0.1394804E+04  0.7818609E-02  0.8957589E-01
       -1   -1    0    0    0  501  0.00000000000E+00  0.00000000000E+00  0.43228722678E+03  0.43228722681E+03  0.50400001928E-02 0.  1.
        1   -1    0    0  501    0  0.00000000000E+00  0.00000000000E+00 -0.11251067689E+04  0.11251067689E+04  0.50400001928E-02 0. -1.
    10030    2    1    2    0    0  0.00000000000E+00  0.00000000000E+00 -0.69281954215E+03  0.15573939957E+04  0.13948036206E+04 0.  0.
        4    1    3    3  502    0 -0.34479583333E+02 -0.16240117635E+03 -0.11027189192E+04  0.11151473497E+04  0.12699999809E+01 0. -1.
       -4    1    3    3    0  502  0.34479583333E+02  0.16240117635E+03  0.40989937707E+03  0.44224664608E+03  0.12699999809E+01 0.  1.
</event>
<event>
 5   0  0.1497625E-04  0.1392029E+04  0.7818609E-02  0.8959609E-01
        4   -1    0    0  501    0  0.00000000000E+00  0.00000000000E+00  0.76409684445E+03  0.76409789988E+03  0.12699999809E+01 0. -1.
       -4   -1    0    0    0  501  0.00000000000E+00  0.00000000000E+00 -0.63399625054E+03  0.63399752255E+03  0.12699999809E+01 0.  1.
    10030    2    1    2    0    0  0.00000000000E+00  0.00000000000E+00  0.13010059391E+03  0.13980954224E+04  0.13920289673E+04 0.  0.
        1    1    3    3  502    0 -0.18987070263E+03  0.15721489121E+03  0.71878533089E+03  0.75988141026E+03  0.50400001928E-02 0. -1.
       -1    1    3    3    0  502  0.18987070263E+03 -0.15721489121E+03 -0.58868473698E+03  0.63821401216E+03  0.50400001928E-02 0.  1.
</event>
<event>
 5   0  0.2215876E-04  0.1398703E+04  0.7818609E-02  0.8954758E-01
        1   -1    0    0  501    0  0.00000000000E+00  0.00000000000E+00  0.94876347364E+03  0.94876347365E+03  0.50400001928E-02 0.  1.
       -1   -1    0    0    0  501  0.00000000000E+00  0.00000000000E+00 -0.51550525445E+03  0.51550525448E+03  0.50400001928E-02 0. -1.
    10030    2    1    2    0    0  0.00000000000E+00  0.00000000000E+00  0.43325821919E+03  0.14642687281E+04  0.13987030506E+04 0.  0.
        3    1    3    3  502    0  0.58525201945E+03  0.12468220474E+03  0.59557361112E+03  0.84425915151E+03  0.10100000352E+00 0.  1.
       -3    1    3    3    0  502 -0.58525201945E+03 -0.12468220474E+03 -0.16231539194E+03  0.62000957662E+03  0.10100000352E+00 0. -1.
</event>
<event>
 5   0  0.3932568E-04  0.1397538E+04  0.7818609E-02  0.8955603E-01
        2   -1    0    0  501    0  0.00000000000E+00  0.00000000000E+00  0.16755906829E+04  0.16755906829E+04  0.25500000920E-02 0.  1.
       -2   -1    0    0    0  501  0.00000000000E+00  0.00000000000E+00 -0.29140644957E+03  0.29140644959E+03  0.25500000920E-02 0. -1.
    10030    2    1    2    0    0  0.00000000000E+00  0.00000000000E+00  0.13841842333E+04  0.19669971324E+04  0.13975377374E+04 0.  0.
        2    1    3    3  502    0  0.32244960230E+03 -0.39468892111E+03  0.19259725292E+02  0.51002355582E+03  0.25500000920E-02 0. -1.
       -2    1    3    3    0  502 -0.32244960230E+03  0.39468892111E+03  0.13649245080E+04  0.14569735766E+04  0.25500000920E-02 0.  1.
</event>
<event>
 5   0  0.4208622E-04  0.1404900E+04  0.7818609E-02  0.8950279E-01
        2   -1    0    0  501    0  0.00000000000E+00  0.00000000000E+00  0.74595226155E+03  0.74595226156E+03  0.25500000920E-02 0. -1.
       -2   -1    0    0    0  501  0.00000000000E+00  0.00000000000E+00 -0.66148498609E+03  0.66148498610E+03  0.25500000920E-02 0.  1.
    10030    2    1    2    0    0  0.00000000000E+00  0.00000000000E+00  0.84467275461E+02  0.14074372477E+04  0.14049003116E+04 0.  0.
        4    1    3    3  502    0  0.39019356310E+03  0.57630608583E+03  0.13756264145E+03  0.70943978918E+03  0.12699999809E+01 0. -1.
       -4    1    3    3    0  502 -0.39019356310E+03 -0.57630608583E+03 -0.53095365985E+02  0.69799745848E+03  0.12699999809E+01 0.  1.
</event>
<event>
 5   0  0.3932568E-04  0.1400773E+04  0.7818609E-02  0.8953259E-01
       -2   -1    0    0    0  501  0.00000000000E+00  0.00000000000E+00  0.25611863242E+03  0.25611863244E+03  0.25500000920E-02 0.  1.
        2   -1    0    0  501    0  0.00000000000E+00  0.00000000000E+00 -0.19152887206E+04  0.19152887206E+04  0.25500000920E-02 0. -1.
    10030    2    1    2    0    0  0.00000000000E+00  0.00000000000E+00 -0.16591700882E+04  0.21714073530E+04  0.14007728264E+04 0.  0.
        2    1    3    3  502    0 -0.13934316125E+03 -0.23583139704E+03 -0.18288102395E+04  0.18492106036E+04  0.25500000920E-02 0. -1.
       -2    1    3    3    0  502  0.13934316125E+03  0.23583139704E+03  0.16964015129E+03  0.32219674945E+03  0.25500000920E-02 0.  1.
</event>
<event>
 5   0  0.2143942E-04  0.1322111E+04  0.7818609E-02  0.9012213E-01
        1   -1    0    0  501    0  0.00000000000E+00  0.00000000000E+00  0.64596418320E+03  0.64596418322E+03  0.50400001928E-02 0.  1.
       -1   -1    0    0    0  501  0.00000000000E+00  0.00000000000E+00 -0.67649898081E+03  0.67649898083E+03  0.50400001928E-02 0. -1.
    10030    2    1    2    0    0  0.00000000000E+00  0.00000000000E+00 -0.30534797615E+02  0.13224631640E+04  0.13221106029E+04 0.  0.
        4    1    3    3  502    0 -0.27372022745E+03 -0.48852287536E+03  0.33613118669E+03  0.65311802167E+03  0.12699999809E+01 0.  1.
       -4    1    3    3    0  502  0.27372022745E+03  0.48852287536E+03 -0.36666598430E+03  0.66934514237E+03  0.12699999809E+01 0. -1.
</event>
<event>
 5   0  0.3975164E-04  0.1391071E+04  0.7818609E-02  0.8960307E-01
        2   -1    0    0  501    0  0.00000000000E+00  0.00000000000E+00  0.14942356129E+04  0.14942356129E+04  0.25500000920E-02 0. -1.
       -2   -1    0    0    0  501  0.00000000000E+00  0.00000000000E+00 -0.32375722880E+03  0.32375722881E+03  0.25500000920E-02 0.  1.
    10030    2    1    2    0    0  0.00000000000E+00  0.00000000000E+00  0.11704783841E+04  0.18179928417E+04  0.13910709273E+04 0.  0.
        5    1    3    3  502    0  0.38485692367E+03  0.35300867598E+03 -0.15107533261E+02  0.52247517126E+03  0.46999998093E+01 0.  1.
       -5    1    3    3    0  502 -0.38485692367E+03 -0.35300867598E+03  0.11855859173E+04  0.12955176704E+04  0.46999998093E+01 0. -1.
</event>
<event>
 5   0  0.2155352E-04  0.1429921E+04  0.7818609E-02  0.8932440E-01
       -1   -1    0    0    0  501  0.00000000000E+00  0.00000000000E+00  0.45143474585E+03  0.45143474588E+03  0.50400001928E-02 0. -1.
        1   -1    0    0  501    0  0.00000000000E+00  0.00000000000E+00 -0.11323206016E+04  0.11323206016E+04  0.50400001928E-02 0.  1.
    10030    2    1    2    0    0  0.00000000000E+00  0.00000000000E+00 -0.68088585570E+03  0.15837553475E+04  0.14299214846E+04 0.  0.
        2    1    3    3  502    0 -0.42298784608E+03 -0.31815447431E+03 -0.87280621137E+03  0.10207505425E+04  0.25500000920E-02 0.  1.
       -2    1    3    3    0  502  0.42298784608E+03  0.31815447431E+03  0.19192035566E+03  0.56300480493E+03  0.25500000920E-02 0. -1.
</event>
<event>
 5   0  0.2223112E-04  0.1399913E+04  0.7818609E-02  0.8953882E-01
        1   -1    0    0  501    0  0.00000000000E+00  0.00000000000E+00  0.57726850260E+03  0.57726850262E+03  0.50400001928E-02 0. -1.
       -1   -1    0    0    0  501  0.00000000000E+00  0.00000000000E+00 -0.84871928215E+03  0.84871928217E+03  0.50400001928E-02 0.  1.
    10030    2    1    2    0    0  0.00000000000E+00  0.00000000000E+00 -0.27145077956E+03  0.14259877848E+04  0.13999127247E+04 0.  0.
        1    1    3    3  502    0 -0.49464343442E+03  0.37037914983E+03 -0.47061347927E+03  0.77674312919E+03  0.50400001928E-02 0.  1.
       -1    1    3    3    0  502  0.49464343442E+03 -0.37037914983E+03  0.19916269971E+03  0.64924465560E+03  0.50400001928E-02 0. -1.
</event>
<event>
 5   0  0.2217251E-04  0.1305372E+04  0.7818609E-02  0.9025316E-01
        1   -1    0    0  501    0  0.00000000000E+00  0.00000000000E+00  0.35503652747E+03  0.35503652751E+03  0.50400001928E-02 0.  1.
       -1   -1    0    0    0  501  0.00000000000E+00  0.00000000000E+00 -0.11998737474E+04  0.11998737474E+04  0.50400001928E-02 0. -1.
    10030    2    1    2    0    0  0.00000000000E+00  0.00000000000E+00 -0.84483721988E+03  0.15549102749E+04  0.13053719910E+04 0.  0.
        5    1    3    3  502    0 -0.13165555708E+03 -0.46554069152E+02 -0.11818503405E+04  0.11900809990E+04  0.46999998093E+01 0. -1.
       -5    1    3    3    0  502  0.13165555708E+03  0.46554069152E+02  0.33701312057E+03  0.36482927583E+03  0.46999998093E+01 0.  1.
</event>
<event>
 5   0  0.2143942E-04  0.1303350E+04  0.7818609E-02  0.9026912E-01
       -1   -1    0    0    0  501  0.00000000000E+00  0.00000000000E+00  0.36467682985E+03  0.36467682988E+03  0.50400001928E-02 0.  1.
        1   -1    0    0  501    0  0.00000000000E+00  0.00000000000E+00 -0.11645394543E+04  0.11645394544E+04  0.50400001928E-02 0. -1.
    10030    2    1    2    0    0  0.00000000000E+00  0.00000000000E+00 -0.79986262450E+03  0.15292162842E+04  0.13033503849E+04 0.  0.
        4    1    3    3  502    0 -0.23070122092E+03 -0.58664705472E+03 -0.20606694646E+03  0.66320661899E+03  0.12699999809E+01 0.  1.
       -4    1    3    3    0  502  0.23070122092E+03  0.58664705472E+03 -0.59379567804E+03  0.86600966525E+03  0.12699999809E+01 0. -1.
</event>
<event>
 5   0  0.4310348E-04  0.1390556E+04  0.7818609E-02  0.8960683E-01
       -2   -1    0    0    0  501  0.00000000000E+00  0.00000000000E+00  0.47668013830E+03  0.47668013830E+03  0.25500000920E-02 0. -1.
        2   -1    0    0  501    0  0.00000000000E+00  0.00000000000E+00 -0.10141214718E+04  0.10141214718E+04  0.25500000920E-02 0.  1.
    10030    2    1    2    0    0  0.00000000000E+00  0.00000000000E+00 -0.53744133347E+03  0.14908016101E+04  0.13905560951E+04 0.  0.
        1    1    3    3  502    0  0.51049992183E+03 -0.23988245771E+03  0.16710451822E+03  0.58828367625E+03  0.50400001928E-02 0. -1.
       -1    1    3    3    0  502 -0.51049992183E+03  0.23988245771E+03 -0.70454585169E+03  0.90251793382E+03  0.50400001928E-02 0.  1.
</event>
<event>
 5   0  0.2223112E-04  0.1399930E+04  0.7818609E-02  0.8953869E-01
       -1   -1    0    0    0  501  0.00000000000E+00  0.00000000000E+00  0.50061707183E+03  0.50061707185E+03  0.50400001928E-02 0. -1.
        1   -1    0    0  501    0  0.00000000000E+00  0.00000000000E+00 -0.97869475340E+03  0.97869475341E+03  0.50400001928E-02 0.  1.
    10030    2    1    2    0    0  0.00000000000E+00  0.00000000000E+00 -0.47807768157E+03  0.14793118253E+04  0.13999304292E+04 0.  0.
        1    1    3    3  502    0  0.12533209735E+03  0.36958406654E+03  0.37498771910E+03  0.54121742984E+03  0.50400001928E-02 0. -1.
       -1    1    3    3    0  502 -0.12533209735E+03 -0.36958406654E+03 -0.85306540067E+03  0.93809439542E+03  0.50400001928E-02 0.  1.
</event>
<event>
 5   0  0.3917598E-04  0.1385748E+04  0.7818609E-02  0.8964200E-01
       -2   -1    0    0    0  501  0.00000000000E+00  0.00000000000E+00  0.33331008469E+03  0.33331008470E+03  0.25500000920E-02 0. -1.
        2   -1    0    0  501    0  0.00000000000E+00  0.00000000000E+00 -0.14403230162E+04  0.14403230162E+04  0.25500000920E-02 0.  1.
    10030    2    1    2    0    0  0.00000000000E+00  0.00000000000E+00 -0.11070129316E+04  0.17736331009E+04  0.13857477210E+04 0.  0.
        3    1    3    3  502    0  0.46537802199E+03 -0.91070824038E+02  0.93074613465E+02  0.48325303125E+03  0.10100000352E+00 0. -1.
       -3    1    3    3    0  502 -0.46537802199E+03  0.91070824038E+02 -0.12000875450E+04  0.12903800697E+04  0.10100000352E+00 0.  1.
</event>
<event>
 5   0  0.3917598E-04  0.1401991E+04  0.7818609E-02  0.8952379E-01
       -2   -1    0    0    0  501  0.00000000000E+00  0.00000000000E+00  0.45711716799E+03  0.45711716800E+03  0.25500000920E-02 0.  1.
        2   -1    0    0  501    0  0.00000000000E+00  0.00000000000E+00 -0.10749861428E+04  0.10749861428E+04  0.25500000920E-02 0. -1.
    10030    2    1    2    0    0  0.00000000000E+00  0.00000000000E+00 -0.61786897481E+03  0.15321033108E+04  0.14019909004E+04 0.  0.
        3    1    3    3  502    0 -0.61564427381E+03 -0.29091251745E+03 -0.12690233447E+03  0.69264144936E+03  0.10100000352E+00 0.  1.
       -3    1    3    3    0  502  0.61564427381E+03  0.29091251745E+03 -0.49096664034E+03  0.83946186144E+03  0.10100000352E+00 0. -1.
</event>
<event>
 5   0  0.4310348E-04  0.1405857E+04  0.7818609E-02  0.8949590E-01
        2   -1    0    0  501    0  0.00000000000E+00  0.00000000000E+00  0.18858580096E+04  0.18858580096E+04  0.25500000920E-02 0.  1.
       -2   -1    0    0    0  501  0.00000000000E+00  0.00000000000E+00 -0.26200714937E+03  0.26200714938E+03  0.25500000920E-02 0. -1.
    10030    2    1    2    0    0  0.00000000000E+00  0.00000000000E+00  0.16238508602E+04  0.21478651590E+04  0.14058567227E+04 0.  0.
        1    1    3    3  502    0  0.78679131980E+02 -0.43153564782E+03  0.16510953475E+04  0.17083703544E+04  0.50400001928E-02 0.  1.
       -1    1    3    3    0  502 -0.78679131980E+02  0.43153564782E+03 -0.27244487279E+02  0.43949480459E+03  0.50400001928E-02 0. -1.
</event>
<event>
 5   0  0.3975164E-04  0.1410347E+04  0.7818609E-02  0.8946363E-01
        2   -1    0    0  501    0  0.00000000000E+00  0.00000000000E+00  0.41812188295E+03  0.41812188296E+03  0.25500000920E-02 0.  1.
       -2   -1    0    0    0  501  0.00000000000E+00  0.00000000000E+00 -0.11892931226E+04  0.11892931227E+04  0.25500000920E-02 0. -1.
    10030    2    1    2    0    0  0.00000000000E+00  0.00000000000E+00 -0.77117123970E+03  0.16074150056E+04  0.14103467373E+04 0.  0.
        5    1    3    3  502    0  0.13862899586E+03  0.35706754231E+03  0.28920036772E+03  0.47997309399E+03  0.46999998093E+01 0.  1.
       -5    1    3    3    0  502 -0.13862899586E+03 -0.35706754231E+03 -0.10603716074E+04  0.11274419116E+04  0.46999998093E+01 0. -1.
</event>
<event>
 5   0  0.2217251E-04  0.1404292E+04  0.7818609E-02  0.8950718E-01
        1   -1    0    0  501    0  0.00000000000E+00  0.00000000000E+00  0.12154886416E+04  0.12154886416E+04  0.50400001928E-02 0. -1.
       -1   -1    0    0    0  501  0.00000000000E+00  0.00000000000E+00 -0.40560540022E+03  0.40560540025E+03  0.50400001928E-02 0.  1.
    10030    2    1    2    0    0  0.00000000000E+00  0.00000000000E+00  0.80988324140E+03  0.16210940419E+04  0.14042916463E+04 0.  0.
        5    1    3    3  502    0  0.39755908210E+03 -0.31400566289E+03  0.96613675389E+03  0.10909147984E+04  0.46999998093E+01 0. -1.
       -5    1    3    3    0  502 -0.39755908210E+03  0.31400566289E+03 -0.15625351249E+03  0.53017924351E+03  0.46999998093E+01 0.  1.
</event>
<event>
 5   0  0.3917598E-04  0.1401628E+04  0.7818609E-02  0.8952641E-01
       -2   -1    0    0    0  501  0.00000000000E+00  0.00000000000E+00  0.35755818223E+03  0.35755818224E+03  0.25500000920E-02 0.  1.
        2   -1    0    0  501    0  0.00000000000E+00  0.00000000000E+00 -0.13735963143E+04  0.13735963143E+04  0.25500000920E-02 0. -1.
    10030    2    1    2    0    0  0.00000000000E+00  0.00000000000E+00 -0.10160381321E+04  0.17311544966E+04  0.14016284833E+04 0.  0.
        3    1    3    3  502    0  0.23153254604E+03  0.43801806223E+03  0.10416500424E+03  0.50627808665E+03  0.10100000352E+00 0.  1.
       -3    1    3    3    0  502 -0.23153254604E+03 -0.43801806223E+03 -0.11202031363E+04  0.12248764099E+04  0.10100000352E+00 0. -1.
</event>
<event>
 5   0  0.2155352E-04  0.1343407E+04  0.7818609E-02  0.8995834E-01
        1   -1    0    0  501    0  0.00000000000E+00  0.00000000000E+00  0.11527258264E+04  0.11527258264E+04  0.50400001928E-02 0. -1.
       -1   -1    0    0    0  501  0.00000000000E+00  0.00000000000E+00 -0.39140777737E+03  0.39140777740E+03  0.50400001928E-02 0.  1.
    10030    2    1    2    0    0  0.00000000000E+00  0.00000000000E+00  0.76131804900E+03  0.15441336038E+04  0.13434073897E+04 0.  0.
        2    1    3    3  502    0  0.44608526435E+03  0.40153232419E+03  0.33989475468E+02  0.60114520283E+03  0.25500000920E-02 0.  1.
       -2    1    3    3    0  502 -0.44608526435E+03 -0.40153232419E+03  0.72732857354E+03  0.94298840095E+03  0.25500000920E-02 0. -1.
</event>
<event>
 5   0  0.2223112E-04  0.1399803E+04  0.7818609E-02  0.8953961E-01
       -1   -1    0    0    0  501  0.00000000000E+00  0.00000000000E+00  0.75079641500E+03  0.75079641502E+03  0.50400001928E-02 0. -1.
        1   -1    0    0  501    0  0.00000000000E+00  0.00000000000E+00 -0.65245647005E+03  0.65245647007E+03  0.50400001928E-02 0.  1.
    10030    2    1    2    0    0  0.00000000000E+00  0.00000000000E+00  0.98339944946E+02  0.14032528851E+04  0.13998028128E+04 0.  0.
        1    1    3    3  502    0 -0.19640809066E+03  0.30422605245E+03  0.64958887032E+03  0.74370379153E+03  0.50400001928E-02 0. -1.
       -1    1    3    3    0  502  0.19640809066E+03 -0.30422605245E+03 -0.55124892537E+03  0.65954909356E+03  0.50400001928E-02 0.  1.
</event>
<event>
 5   0  0.2215876E-04  0.1413423E+04  0.7818609E-02  0.8944159E-01
       -1   -1    0    0    0  501  0.00000000000E+00  0.00000000000E+00  0.59500546154E+03  0.59500546156E+03  0.50400001928E-02 0. -1.
        1   -1    0    0  501    0  0.00000000000E+00  0.00000000000E+00 -0.83938915170E+03  0.83938915172E+03  0.50400001928E-02 0.  1.
    10030    2    1    2    0    0  0.00000000000E+00  0.00000000000E+00 -0.24438369016E+03  0.14343946133E+04  0.14134229794E+04 0.  0.
        3    1    3    3  502    0  0.16783967463E+03  0.15463374332E+03 -0.80096516923E+03  0.83284270031E+03  0.10100000352E+00 0.  1.
       -3    1    3    3    0  502 -0.16783967463E+03 -0.15463374332E+03  0.55658147907E+03  0.60155191297E+03  0.10100000352E+00 0. -1.
</event>
<event>
 5   0  0.2215876E-04  0.1407858E+04  0.7818609E-02  0.8948150E-01
        1   -1    0    0  501    0  0.00000000000E+00  0.00000000000E+00  0.51326730769E+03  0.51326730771E+03  0.50400001928E-02 0. -1.
       -1   -1    0    0    0  501  0.00000000000E+00  0.00000000000E+00 -0.96541561503E+03  0.96541561505E+03  0.50400001928E-02 0.  1.
    10030    2    1    2    0    0  0.00000000000E+00  0.00000000000E+00 -0.45214830735E+03  0.14786829228E+04  0.14078583360E+04 0.  0.
        3    1    3    3  502    0  0.66312024025E+03  0.21531050601E+03 -0.32806317864E+03  0.77052743391E+03  0.10100000352E+00 0. -1.
       -3    1    3    3    0  502 -0.66312024025E+03 -0.21531050601E+03 -0.12408512871E+03  0.70815548885E+03  0.10100000352E+00 0.  1.
</event>
<event>
 5   0  0.3932568E-04  0.1403465E+04  0.7818609E-02  0.8951314E-01
        2   -1    0    0  501    0  0.00000000000E+00  0.00000000000E+00  0.67562202253E+03  0.67562202253E+03  0.25500000920E-02 0.  1.
       -2   -1    0    0    0  501  0.00000000000E+00  0.00000000000E+00 -0.72885218857E+03  0.72885218857E+03  0.25500000920E-02 0. -1.
    10030    2    1    2    0    0  0.00000000000E+00  0.00000000000E+00 -0.53230166042E+02  0.14044742111E+04  0.14034651257E+04 0.  0.
        2    1    3    3  502    0 -0.16963096380E+03 -0.35607216596E+03  0.55420427259E+03  0.68022380656E+03  0.25500000920E-02 0.  1.
       -2    1    3    3    0  502  0.16963096380E+03  0.35607216596E+03 -0.60743443863E+03  0.72425040455E+03  0.25500000920E-02 0. -1.
</event>
<event>
 5   0  0.2217251E-04  0.1392898E+04  0.7818609E-02  0.8958975E-01
        1   -1    0    0  501    0  0.00000000000E+00  0.00000000000E+00  0.17678385584E+04  0.17678385584E+04  0.50400001928E-02 0. -1.
       -1   -1    0    0    0  501  0.00000000000E+00  0.00000000000E+00 -0.27436982278E+03  0.27436982283E+03  0.50400001928E-02 0.  1.
    10030    2    1    2    0    0  0.00000000000E+00  0.00000000000E+00  0.14934687357E+04  0.20422083813E+04  0.13928984917E+04 0.  0.
        5    1    3    3  502    0 -0.18750328636E+03  0.19879083290E+03  0.16859271093E+04  0.17079366457E+04  0.46999998093E+01 0. -1.
       -5    1    3    3    0  502  0.18750328636E+03 -0.19879083290E+03 -0.19245837366E+03  0.33427173561E+03  0.46999998093E+01 0.  1.
</event>
<event>
 5   0  0.3975164E-04  0.1387016E+04  0.7818609E-02  0.8963271E-01
        2   -1    0    0  501    0  0.00000000000E+00  0.00000000000E+00  0.95949711010E+03  0.95949711010E+03  0.25500000920E-02 0.  1.
       -2   -1    0    0    0  501  0.00000000000E+00  0.00000000000E+00 -0.50125561096E+03  0.50125561097E+03  0.25500000920E-02 0. -1.
    10030    2    1    2    0    0  0.00000000000E+00  0.00000000000E+00  0.45824149914E+03  0.14607527211E+04  0.13870159482E+04 0.  0.
        5    1    3    3  502    0 -0.59681766892E+03  0.31119960324E+03  0.40501679463E+03  0.78555535574E+03  0.46999998093E+01 0.  1.
       -5    1    3    3    0  502  0.59681766892E+03 -0.31119960324E+03  0.53224704505E+02  0.67519736534E+03  0.46999998093E+01 0. -1.
</event>
<event>
 5   0  0.2155352E-04  0.1398503E+04  0.7818609E-02  0.8954903E-01
        1   -1    0    0  501    0  0.00000000000E+00  0.00000000000E+00  0.69120380158E+03  0.69120380160E+03  0.50400001928E-02 0.  1.
       -1   -1    0    0    0  501  0.00000000000E+00  0.00000000000E+00 -0.70739266887E+03  0.70739266889E+03  0.50400001928E-02 0. -1.
    10030    2    1    2    0    0  0.00000000000E+00  0.00000000000E+00 -0.16188867288E+02  0.13985964705E+04  0.13985027736E+04 0.  0.
        2    1    3    3  502    0 -0.47214074264E+03 -0.28995702099E+03  0.41850248367E+03  0.69436034141E+03  0.25500000920E-02 0.  1.
       -2    1    3    3    0  502  0.47214074264E+03  0.28995702099E+03 -0.43469135096E+03  0.70423612907E+03  0.25500000920E-02 0. -1.
</event>
<event>
 5   0  0.2155352E-04  0.1375697E+04  0.7818609E-02  0.8971600E-01
        1   -1    0    0  501    0  0.00000000000E+00  0.00000000000E+00  0.14296666126E+04  0.14296666126E+04  0.50400001928E-02 0. -1.
       -1   -1    0    0    0  501  0.00000000000E+00  0.00000000000E+00 -0.33094137307E+03  0.33094137311E+03  0.50400001928E-02 0.  1.
    10030    2    1    2    0    0  0.00000000000E+00  0.00000000000E+00  0.10987252395E+04  0.17606079857E+04  0.13756973968E+04 0.  0.
        2    1    3    3  502    0 -0.20039837585E+03 -0.58622613596E+03  0.16688807403E+03  0.64161688007E+03  0.25500000920E-02 0.  1.
       -2    1    3    3    0  502  0.20039837585E+03  0.58622613596E+03  0.93183716551E+03  0.11189911057E+04  0.25500000920E-02 0. -1.
</event>
<event>
 5   0  0.2223112E-04  0.1398709E+04  0.7818609E-02  0.8954754E-01
        1   -1    0    0  501    0  0.00000000000E+00  0.00000000000E+00  0.58177115138E+03  0.58177115140E+03  0.50400001928E-02 0.  1.
       -1   -1    0    0    0  501  0.00000000000E+00  0.00000000000E+00 -0.84070304322E+03  0.84070304324E+03  0.50400001928E-02 0. -1.
    10030    2    1    2    0    0  0.00000000000E+00  0.00000000000E+00 -0.25893189184E+03  0.14224741946E+04  0.13987090869E+04 0.  0.
        1    1    3    3  502    0 -0.55820660106E+03 -0.20372801713E+02 -0.55743314447E+03  0.78913963979E+03  0.50400001928E-02 0. -1.
       -1    1    3    3    0  502  0.55820660106E+03  0.20372801713E+02  0.29850125263E+03  0.63333455484E+03  0.50400001928E-02 0.  1.
</event>
<event>
 5   0  0.2155352E-04  0.1404369E+04  0.7818609E-02  0.8950662E-01
       -1   -1    0    0    0  501  0.00000000000E+00  0.00000000000E+00  0.44538349383E+03  0.44538349386E+03  0.50400001928E-02 0.  1.
        1   -1    0    0  501    0  0.00000000000E+00  0.00000000000E+00 -0.11070526047E+04  0.11070526047E+04  0.50400001928E-02 0. -1.
    10030    2    1    2    0    0  0.00000000000E+00  0.00000000000E+00 -0.66166911091E+03  0.15524360986E+04  0.14043688361E+04 0.  0.
        2    1    3    3  502    0  0.18033227492E+01 -0.52658123664E+03  0.18265308931E+03  0.55736272014E+03  0.25500000920E-02 0.  1.
       -2    1    3    3    0  502 -0.18033227492E+01  0.52658123664E+03 -0.84432220022E+03  0.99507337847E+03  0.25500000920E-02 0. -1.
</event>
<event>
 5   0  0.4310348E-04  0.1401016E+04  0.7818609E-02  0.8953084E-01
        2   -1    0    0  501    0  0.00000000000E+00  0.00000000000E+00  0.18311669969E+04  0.18311669969E+04  0.25500000920E-02 0.  1.
       -2   -1    0    0    0  501  0.00000000000E+00  0.00000000000E+00 -0.26797726087E+03  0.26797726088E+03  0.25500000920E-02 0. -1.
    10030    2    1    2    0    0  0.00000000000E+00  0.00000000000E+00  0.15631897360E+04  0.20991442578E+04  0.14010155117E+04 0.  0.
        1    1    3    3  502    0 -0.33845624089E+03 -0.51197223966E+03  0.27561469872E+03  0.67277905983E+03  0.50400001928E-02 0. -1.
       -1    1    3    3    0  502  0.33845624089E+03  0.51197223966E+03  0.12875750373E+04  0.14263651979E+04  0.50400001928E-02 0.  1.
</event>
<event>
 5   0  0.4310348E-04  0.1401679E+04  0.7818609E-02  0.8952604E-01
       -2   -1    0    0    0  501  0.00000000000E+00  0.00000000000E+00  0.49022204463E+03  0.49022204464E+03  0.25500000920E-02 0.  1.
        2   -1    0    0  501    0  0.00000000000E+00  0.00000000000E+00 -0.10019462002E+04  0.10019462002E+04  0.25500000920E-02 0. -1.
    10030    2    1    2    0    0  0.00000000000E+00  0.00000000000E+00 -0.51172415556E+03  0.14921682448E+04  0.14016791571E+04 0.  0.
        1    1    3    3  502    0 -0.33487642467E+03  0.48322518111E+03  0.15024582686E+03  0.60681348368E+03  0.50400001928E-02 0.  1.
       -1    1    3    3    0  502  0.33487642467E+03 -0.48322518111E+03 -0.66196998242E+03  0.88535476116E+03  0.50400001928E-02 0. -1.
</event>
<event>
 5   0  0.1497625E-04  0.1403601E+04  0.7818609E-02  0.8951216E-01
        3   -1    0    0  501    0  0.00000000000E+00  0.00000000000E+00  0.54952391013E+03  0.54952391941E+03  0.10100000352E+00 0. -1.
       -3   -1    0    0    0  501  0.00000000000E+00  0.00000000000E+00 -0.89627338146E+03  0.89627338715E+03  0.10100000352E+00 0.  1.
    10030    2    1    2    0    0  0.00000000000E+00  0.00000000000E+00 -0.34674947133E+03  0.14457973066E+04  0.14036006041E+04 0.  0.
        3    1    3    3  502    0  0.16715595102E+03 -0.26688435100E+03 -0.81941020042E+03  0.87783908293E+03  0.10100000352E+00 0.  1.
       -3    1    3    3    0  502 -0.16715595102E+03  0.26688435100E+03  0.47266072908E+03  0.56795822363E+03  0.10100000352E+00 0. -1.
</event>
<event>
 5   0  0.2143942E-04  0.1390913E+04  0.7818609E-02  0.8960422E-01
        1   -1    0    0  501    0  0.00000000000E+00  0.00000000000E+00  0.52572584137E+03  0.52572584140E+03  0.50400001928E-02 0.  1.
       -1   -1    0    0    0  501  0.00000000000E+00  0.00000000000E+00 -0.91998503507E+03  0.91998503508E+03  0.50400001928E-02 0. -1.
    10030    2    1    2    0    0  0.00000000000E+00  0.00000000000E+00 -0.39425919370E+03  0.14457108765E+04  0.13909132347E+04 0.  0.
        4    1    3    3  502    0  0.65180503951E+03 -0.16052783391E+03 -0.38605781096E+03  0.77437797056E+03  0.12699999809E+01 0. -1.
       -4    1    3    3    0  502 -0.65180503951E+03  0.16052783391E+03 -0.82013827391E+01  0.67133290592E+03  0.12699999809E+01 0.  1.
</event>
<event>
 5   0  0.3975164E-04  0.1400855E+04  0.7818609E-02  0.8953200E-01
        2   -1    0    0  501    0  0.00000000000E+00  0.00000000000E+00  0.63087983851E+03  0.63087983852E+03  0.25500000920E-02 0. -1.
       -2   -1    0    0    0  501  0.00000000000E+00  0.00000000000E+00 -0.77764151743E+03  0.77764151744E+03  0.25500000920E-02 0.  1.
    10030    2    1    2    0    0  0.00000000000E+00  0.00000000000E+00 -0.14676167892E+03  0.14085213560E+04  0.14008545320E+04 0.  0.
        5    1    3    3  502    0  0.66054507700E+03 -0.18709767347E+02  0.16006740102E+03  0.67993640659E+03  0.46999998093E+01 0. -1.
       -5    1    3    3    0  502 -0.66054507700E+03  0.18709767347E+02 -0.30682907994E+03  0.72858494936E+03  0.46999998093E+01 0.  1.
</event>
<event>
 5   0  0.2217251E-04  0.1397256E+04  0.7818609E-02  0.8955807E-01
       -1   -1    0    0    0  501  0.00000000000E+00  0.00000000000E+00  0.27522871649E+03  0.27522871654E+03  0.50400001928E-02 0. -1.
        1   -1    0    0  501    0  0.00000000000E+00  0.00000000000E+00 -0.17733658624E+04  0.17733658625E+04  0.50400001928E-02 0.  1.
    10030    2    1    2    0    0  0.00000000000E+00  0.00000000000E+00 -0.14981371460E+04  0.20485945790E+04  0.13972561830E+04 0.  0.
        5    1    3    3  502    0 -0.54507729251E+02  0.11217841617E+03 -0.17568880282E+04  0.17613156228E+04  0.46999998093E+01 0.  1.
       -5    1    3    3    0  502  0.54507729251E+02 -0.11217841617E+03  0.25875088224E+03  0.28727895617E+03  0.46999998093E+01 0. -1.
</event>
<event>
 5   0  0.2155352E-04  0.1399425E+04  0.7818609E-02  0.8954235E-01
        1   -1    0    0  501    0  0.00000000000E+00  0.00000000000E+00  0.84121482603E+03  0.84121482604E+03  0.50400001928E-02 0.  1.
       -1   -1    0    0    0  501  0.00000000000E+00  0.00000000000E+00 -0.58201220374E+03  0.58201220376E+03  0.50400001928E-02 0. -1.
    10030    2    1    2    0    0  0.00000000000E+00  0.00000000000E+00  0.25920262229E+03  0.14232270298E+04  0.13994245885E+04 0.  0.
        2    1    3    3  502    0 -0.30916063470E+03  0.34039552616E+03  0.66596894327E+03  0.80929848985E+03  0.25500000920E-02 0.  1.
       -2    1    3    3    0  502  0.30916063470E+03 -0.34039552616E+03 -0.40676632098E+03  0.61392853995E+03  0.25500000920E-02 0. -1.
</event>
<event>
 5   0  0.3975164E-04  0.1400074E+04  0.7818609E-02  0.8953765E-01
       -2   -1    0    0    0  501  0.00000000000E+00  0.00000000000E+00  0.23539457310E+03  0.23539457312E+03  0.25500000920E-02 0.  1.
        2   -1    0    0  501    0  0.00000000000E+00  0.00000000000E+00 -0.20818301956E+04  0.20818301956E+04  0.25500000920E-02 0. -1.
    10030    2    1    2    0    0  0.00000000000E+00  0.00000000000E+00 -0.18464356225E+04  0.23172247687E+04  0.14000736126E+04 0.  0.
        5    1    3    3  502    0  0.19545946467E+03 -0.66667652087E+03 -0.10652791879E+04  0.12718112376E+04  0.46999998093E+01 0. -1.
       -5    1    3    3    0  502 -0.19545946467E+03  0.66667652087E+03 -0.78115643454E+03  0.10454135311E+04  0.46999998093E+01 0.  1.
</event>
<event>
 5   0  0.4310348E-04  0.1401869E+04  0.7818609E-02  0.8952467E-01
       -2   -1    0    0    0  501  0.00000000000E+00  0.00000000000E+00  0.14660114565E+04  0.14660114565E+04  0.25500000920E-02 0.  1.
        2   -1    0    0  501    0  0.00000000000E+00  0.00000000000E+00 -0.33513322750E+03  0.33513322750E+03  0.25500000920E-02 0. -1.
    10030    2    1    2    0    0  0.00000000000E+00  0.00000000000E+00  0.11308782290E+04  0.18011446841E+04  0.14018689682E+04 0.  0.
        1    1    3    3  502    0  0.16766723412E+02 -0.62502064109E+03  0.15837879102E+03  0.64499284203E+03  0.50400001928E-02 0. -1.
       -1    1    3    3    0  502 -0.16766723412E+02  0.62502064109E+03  0.97249943803E+03  0.11561518420E+04  0.50400001928E-02 0.  1.
</event>
<event>
 5   0  0.2155352E-04  0.1407699E+04  0.7818609E-02  0.8948264E-01
       -1   -1    0    0    0  501  0.00000000000E+00  0.00000000000E+00  0.86160440978E+03  0.86160440979E+03  0.50400001928E-02 0. -1.
        1   -1    0    0  501    0  0.00000000000E+00  0.00000000000E+00 -0.57497872097E+03  0.57497872099E+03  0.50400001928E-02 0.  1.
    10030    2    1    2    0    0  0.00000000000E+00  0.00000000000E+00  0.28662568881E+03  0.14365831308E+04  0.14076991178E+04 0.  0.
        2    1    3    3  502    0 -0.40278046008E+03 -0.31108788057E+03 -0.35286958778E+03  0.61929372228E+03  0.25500000920E-02 0.  1.
       -2    1    3    3    0  502  0.40278046008E+03  0.31108788057E+03  0.63949527659E+03  0.81728940850E+03  0.25500000920E-02 0. -1.
</event>
<event>
 5   0  0.1497625E-04  0.1397820E+04  0.7818609E-02  0.8955398E-01
       -3   -1    0    0    0  501  0.00000000000E+00  0.00000000000E+00  0.46433737645E+03  0.46433738743E+03  0.10100000352E+00 0.  1.
        3   -1    0    0  501    0  0.00000000000E+00  0.00000000000E+00 -0.10519840639E+04  0.10519840687E+04  0.10100000352E+00 0. -1.
    10030    2    1    2    0    0  0.00000000000E+00  0.00000000000E+00 -0.58764668742E+03  0.15163214561E+04  0.13978204925E+04 0.  0.
        2    1    3    3  502    0  0.98339056939E+02 -0.65768096301E+03 -0.52714015835E+03  0.84858209136E+03  0.25500000920E-02 0. -1.
       -2    1    3    3    0  502 -0.98339056939E+02  0.65768096301E+03 -0.60506529071E+02  0.66773936479E+03  0.25500000920E-02 0.  1.
</event>
<event>
 5   0  0.2215876E-04  0.1398933E+04  0.7818609E-02  0.8954591E-01
        1   -1    0    0  501    0  0.00000000000E+00  0.00000000000E+00  0.10807981418E+04  0.10807981419E+04  0.50400001928E-02 0.  1.
       -1   -1    0    0    0  501  0.00000000000E+00  0.00000000000E+00 -0.45267767412E+03  0.45267767414E+03  0.50400001928E-02 0. -1.
    10030    2    1    2    0    0  0.00000000000E+00  0.00000000000E+00  0.62812046773E+03  0.15334758160E+04  0.13989327204E+04 0.  0.
        3    1    3    3  502    0  0.37684490211E+03  0.31598411168E+03  0.85928513787E+03  0.99006514808E+03  0.10100000352E+00 0.  1.
       -3    1    3    3    0  502 -0.37684490211E+03 -0.31598411168E+03 -0.23116467014E+03  0.54341066792E+03  0.10100000352E+00 0. -1.
</event>
<event>
 5   0  0.2215876E-04  0.1398054E+04  0.7818609E-02  0.8955228E-01
       -1   -1    0    0    0  501  0.00000000000E+00  0.00000000000E+00  0.81797265334E+03  0.81797265336E+03  0.50400001928E-02 0.  1.
        1   -1    0    0  501    0  0.00000000000E+00  0.00000000000E+00 -0.59737785817E+03  0.59737785819E+03  0.50400001928E-02 0. -1.
    10030    2    1    2    0    0  0.00000000000E+00  0.00000000000E+00  0.22059479517E+03  0.14153505115E+04  0.13980540071E+04 0.  0.
        3    1    3    3  502    0 -0.43726363204E+03 -0.27660727818E+03 -0.36554716931E+03  0.63351070507E+03  0.10100000352E+00 0. -1.
       -3    1    3    3    0  502  0.43726363204E+03  0.27660727818E+03  0.58614196448E+03  0.78183980647E+03  0.10100000352E+00 0.  1.
</event>
<event>
 5   0  0.2217251E-04  0.1403532E+04  0.7818609E-02  0.8951266E-01
       -1   -1    0    0    0  501  0.00000000000E+00  0.00000000000E+00  0.47754319708E+03  0.47754319710E+03  0.50400001928E-02 0.  1.
        1   -1    0    0  501    0  0.00000000000E+00  0.00000000000E+00 -0.10312686745E+04  0.10312686745E+04  0.50400001928E-02 0. -1.
    10030    2    1    2    0    0  0.00000000000E+00  0.00000000000E+00 -0.55372547743E+03  0.15088118716E+04  0.14035317451E+04 0.  0.
        5    1    3    3  502    0  0.34809164859E+03 -0.51489879831E+03 -0.62713269108E+03  0.88295303983E+03  0.46999998093E+01 0. -1.
       -5    1    3    3    0  502 -0.34809164859E+03  0.51489879831E+03  0.73407213655E+02  0.62585883179E+03  0.46999998093E+01 0.  1.
</event>
<event>
 5   0  0.2143942E-04  0.1404644E+04  0.7818609E-02  0.8950464E-01
       -1   -1    0    0    0  501  0.00000000000E+00  0.00000000000E+00  0.53380860257E+03  0.53380860259E+03  0.50400001928E-02 0.  1.
        1   -1    0    0  501    0  0.00000000000E+00  0.00000000000E+00 -0.92403155762E+03  0.92403155763E+03  0.50400001928E-02 0. -1.
    10030    2    1    2    0    0  0.00000000000E+00  0.00000000000E+00 -0.39022295505E+03  0.14578401602E+04  0.14046437193E+04 0.  0.
        4    1    3    3  502    0  0.17769780996E+03 -0.26166046628E+03  0.45570258403E+03  0.55471539484E+03  0.12699999809E+01 0.  1.
       -4    1    3    3    0  502 -0.17769780996E+03  0.26166046628E+03 -0.84592553908E+03  0.90312476538E+03  0.12699999809E+01 0. -1.
</event>
<event>
 5   0  0.2217251E-04  0.1404580E+04  0.7818609E-02  0.8950510E-01
        1   -1    0    0  501    0  0.00000000000E+00  0.00000000000E+00  0.12075350028E+04  0.12075350028E+04  0.50400001928E-02 0.  1.
       -1   -1    0    0    0  501  0.00000000000E+00  0.00000000000E+00 -0.40844462221E+03  0.40844462224E+03  0.50400001928E-02 0. -1.
    10030    2    1    2    0    0  0.00000000000E+00  0.00000000000E+00  0.79909038055E+03  0.16159796250E+04  0.14045799059E+04 0.  0.
        5    1    3    3  502    0 -0.40474196027E+03  0.57337103463E+03  0.37092806000E+03  0.79383884602E+03  0.46999998093E+01 0. -1.
       -5    1    3    3    0  502  0.40474196027E+03 -0.57337103463E+03  0.42816232056E+03  0.82214077900E+03  0.46999998093E+01 0.  1.
</event>
<event>
 5   0  0.4208622E-04  0.1400179E+04  0.7818609E-02  0.8953689E-01
        2   -1    0    0  501    0  0.00000000000E+00  0.00000000000E+00  0.11935242276E+04  0.11935242276E+04  0.25500000920E-02 0.  1.
       -2   -1    0    0    0  501  0.00000000000E+00  0.00000000000E+00 -0.41065396876E+03  0.41065396877E+03  0.25500000920E-02 0. -1.
    10030    2    1    2    0    0  0.00000000000E+00  0.00000000000E+00  0.78287025882E+03  0.16041781963E+04  0.14001792183E+04 0.  0.
        4    1    3    3  502    0 -0.20886415732E+03  0.50437331271E+03 -0.11072331751E+03  0.55702597850E+03  0.12699999809E+01 0. -1.
       -4    1    3    3    0  502  0.20886415732E+03 -0.50437331271E+03  0.89359357633E+03  0.10471522178E+04  0.12699999809E+01 0.  1.
</event>
<event>
 5   0  0.2217251E-04  0.1402138E+04  0.7818609E-02  0.8952273E-01
       -1   -1    0    0    0  501  0.00000000000E+00  0.00000000000E+00  0.15854975082E+04  0.15854975082E+04  0.50400001928E-02 0. -1.
        1   -1    0    0  501    0  0.00000000000E+00  0.00000000000E+00 -0.30999576799E+03  0.30999576803E+03  0.50400001928E-02 0.  1.
    10030    2    1    2    0    0  0.00000000000E+00  0.00000000000E+00  0.12755017402E+04  0.18954932763E+04  0.14021376791E+04 0.  0.
        5    1    3    3  502    0 -0.17675566480E+03 -0.66870733481E+03  0.48323998257E+03  0.84377427990E+03  0.46999998093E+01 0.  1.
       -5    1    3    3    0  502  0.17675566480E+03  0.66870733481E+03  0.79226175768E+03  0.10517189964E+04  0.46999998093E+01 0. -1.
</event>
<event>
 5   0  0.3917598E-04  0.1397885E+04  0.7818609E-02  0.8955351E-01
        2   -1    0    0  501    0  0.00000000000E+00  0.00000000000E+00  0.15495310788E+04  0.15495310788E+04  0.25500000920E-02 0.  1.
       -2   -1    0    0    0  501  0.00000000000E+00  0.00000000000E+00 -0.31526985723E+03  0.31526985724E+03  0.25500000920E-02 0. -1.
    10030    2    1    2    0    0  0.00000000000E+00  0.00000000000E+00  0.12342612216E+04  0.18648009360E+04  0.13978847477E+04 0.  0.
        3    1    3    3  502    0 -0.52524378675E+03 -0.45775377325E+03  0.69141602449E+03  0.98156797094E+03  0.10100000352E+00 0.  1.
       -3    1    3    3    0  502  0.52524378675E+03  0.45775377325E+03  0.54284519708E+03  0.88323296510E+03  0.10100000352E+00 0. -1.
</event>
<event>
 5   0  0.3975164E-04  0.1393384E+04  0.7818609E-02  0.8958621E-01
       -2   -1    0    0    0  501  0.00000000000E+00  0.00000000000E+00  0.10558015667E+04  0.10558015667E+04  0.25500000920E-02 0. -1.
        2   -1    0    0  501    0  0.00000000000E+00  0.00000000000E+00 -0.45972662177E+03  0.45972662177E+03  0.25500000920E-02 0.  1.
    10030    2    1    2    0    0  0.00000000000E+00  0.00000000000E+00  0.59607494489E+03  0.15155281884E+04  0.13933844947E+04 0.  0.
        5    1    3    3  502    0 -0.25869327897E+03  0.27982982246E+03  0.93236884100E+03  0.10072540334E+04  0.46999998093E+01 0. -1.
       -5    1    3    3    0  502  0.25869327897E+03 -0.27982982246E+03 -0.33629389611E+03  0.50827415504E+03  0.46999998093E+01 0.  1.
</event>
<event>
 5   0  0.2155352E-04  0.1401845E+04  0.7818609E-02  0.8952484E-01
        1   -1    0    0  501    0  0.00000000000E+00  0.00000000000E+00  0.84667264166E+03  0.84667264167E+03  0.50400001928E-02 0. -1.
       -1   -1    0    0    0  501  0.00000000000E+00  0.00000000000E+00 -0.58026273782E+03  0.58026273784E+03  0.50400001928E-02 0.  1.
    10030    2    1    2    0    0  0.00000000000E+00  0.00000000000E+00  0.26640990384E+03  0.14269353795E+04  0.14018453340E+04 0.  0.
        2    1    3    3  502    0  0.61852743608E+03  0.17180439327E+03 -0.15325626123E+03  0.65998516676E+03  0.25500000920E-02 0.  1.
       -2    1    3    3    0  502 -0.61852743608E+03 -0.17180439327E+03  0.41966616507E+03  0.76695021275E+03  0.25500000920E-02 0. -1.
</event>
<event>
 5   0  0.3975164E-04  0.1402049E+04  0.7818609E-02  0.8952337E-01
       -2   -1    0    0    0  501  0.00000000000E+00  0.00000000000E+00  0.66665039655E+03  0.66665039656E+03  0.25500000920E-02 0.  1.
        2   -1    0    0  501    0  0.00000000000E+00  0.00000000000E+00 -0.73717093773E+03  0.73717093773E+03  0.25500000920E-02 0. -1.
    10030    2    1    2    0    0  0.00000000000E+00  0.00000000000E+00 -0.70520541176E+02  0.14038213343E+04  0.14020489264E+04 0.  0.
        5    1    3    3  502    0 -0.67784399490E+03  0.10617237804E+03 -0.17920623700E+03  0.70914174934E+03  0.46999998093E+01 0. -1.
       -5    1    3    3    0  502  0.67784399490E+03 -0.10617237804E+03  0.10868569583E+03  0.69467958495E+03  0.46999998093E+01 0.  1.
</event>
<event>
 5   0  0.2217251E-04  0.1398723E+04  0.7818609E-02  0.8954743E-01
       -1   -1    0    0    0  501  0.00000000000E+00  0.00000000000E+00  0.80822930052E+03  0.80822930054E+03  0.50400001928E-02 0.  1.
        1   -1    0    0  501    0  0.00000000000E+00  0.00000000000E+00 -0.60515849586E+03  0.60515849588E+03  0.50400001928E-02 0. -1.
    10030    2    1    2    0    0  0.00000000000E+00  0.00000000000E+00  0.20307080466E+03  0.14133877964E+04  0.13987234578E+04 0.  0.
        5    1    3    3  502    0 -0.49500568411E+03  0.44795732833E+03  0.31201790978E+03  0.73693531692E+03  0.46999998093E+01 0.  1.
       -5    1    3    3    0  502  0.49500568411E+03 -0.44795732833E+03 -0.10894710511E+03  0.67645247950E+03  0.46999998093E+01 0. -1.
</event>
<event>
 5   0  0.2155352E-04  0.1402862E+04  0.7818609E-02  0.8951749E-01
        1   -1    0    0  501    0  0.00000000000E+00  0.00000000000E+00  0.74765221585E+03  0.74765221587E+03  0.50400001928E-02 0. -1.
       -1   -1    0    0    0  501  0.00000000000E+00  0.00000000000E+00 -0.65806744383E+03  0.65806744385E+03  0.50400001928E-02 0.  1.
    10030    2    1    2    0    0  0.00000000000E+00  0.00000000000E+00  0.89584772026E+02  0.14057196597E+04  0.14028621922E+04 0.  0.
        2    1    3    3  502    0 -0.38008477617E+02  0.56368179662E+03  0.46135994515E+03  0.72940716421E+03  0.25500000920E-02 0. -1.
       -2    1    3    3    0  502  0.38008477617E+02 -0.56368179662E+03 -0.37177517313E+03  0.67631249550E+03  0.25500000920E-02 0.  1.
</event>
<event>
 5   0  0.3975164E-04  0.1455190E+04  0.7818609E-02  0.8914811E-01
        2   -1    0    0  501    0  0.00000000000E+00  0.00000000000E+00  0.20806328151E+04  0.20806328151E+04  0.25500000920E-02 0.  1.
       -2   -1    0    0    0  501  0.00000000000E+00  0.00000000000E+00 -0.25443903590E+03  0.25443903591E+03  0.25500000920E-02 0. -1.
    10030    2    1    2    0    0  0.00000000000E+00  0.00000000000E+00  0.18261937792E+04  0.23350718511E+04  0.14551896200E+04 0.  0.
        5    1    3    3  502    0 -0.70169696816E+03 -0.17547910269E+03  0.78674074641E+03  0.10687163528E+04  0.46999998093E+01 0. -1.
       -5    1    3    3    0  502  0.70169696816E+03  0.17547910269E+03  0.10394530328E+04  0.12663554983E+04  0.46999998093E+01 0.  1.
</event>
<event>
 5   0  0.4310348E-04  0.1402870E+04  0.7818609E-02  0.8951744E-01
       -2   -1    0    0    0  501  0.00000000000E+00  0.00000000000E+00  0.33229901959E+03  0.33229901960E+03  0.25500000920E-02 0. -1.
        2   -1    0    0  501    0  0.00000000000E+00  0.00000000000E+00 -0.14806269514E+04  0.14806269514E+04  0.25500000920E-02 0.  1.
    10030    2    1    2    0    0  0.00000000000E+00  0.00000000000E+00 -0.11483279318E+04  0.18129259710E+04  0.14028697507E+04 0.  0.
        1    1    3    3  502    0  0.23190127621E+03  0.11846463134E+03  0.26751688055E+03  0.37333276335E+03  0.50400001928E-02 0. -1.
       -1    1    3    3    0  502 -0.23190127621E+03 -0.11846463134E+03 -0.14158448124E+04  0.14395932077E+04  0.50400001928E-02 0.  1.
</event>
<event>
 5   0  0.2155352E-04  0.1400705E+04  0.7818609E-02  0.8953308E-01
       -1   -1    0    0    0  501  0.00000000000E+00  0.00000000000E+00  0.62579696974E+03  0.62579696976E+03  0.50400001928E-02 0. -1.
        1   -1    0    0  501    0  0.00000000000E+00  0.00000000000E+00 -0.78379080271E+03  0.78379080272E+03  0.50400001928E-02 0.  1.
    10030    2    1    2    0    0  0.00000000000E+00  0.00000000000E+00 -0.15799383297E+03  0.14095877725E+04  0.14007054070E+04 0.  0.
        2    1    3    3  502    0 -0.28757313172E+02 -0.20636416534E+03 -0.75187798205E+03  0.78021384998E+03  0.25500000920E-02 0.  1.
       -2    1    3    3    0  502  0.28757313172E+02  0.20636416534E+03  0.59388414908E+03  0.62937392251E+03  0.25500000920E-02 0. -1.
</event>
<event>
 5   0  0.3917598E-04  0.1467344E+04  0.7818609E-02  0.8906464E-01
       -2   -1    0    0    0  501  0.00000000000E+00  0.00000000000E+00  0.54732891620E+03  0.54732891621E+03  0.25500000920E-02 0. -1.
        2   -1    0    0  501    0  0.00000000000E+00  0.00000000000E+00 -0.98345787332E+03  0.98345787333E+03  0.25500000920E-02 0.  1.
    10030    2    1    2    0    0  0.00000000000E+00  0.00000000000E+00 -0.43612895712E+03  0.15307867895E+04  0.14673444476E+04 0.  0.
        3    1    3    3  502    0  0.54972724634E+02 -0.40431558474E+03  0.41803745044E+03  0.58416471366E+03  0.10100000352E+00 0. -1.
       -3    1    3    3    0  502 -0.54972724634E+02  0.40431558474E+03 -0.85416640757E+03  0.94662207587E+03  0.10100000352E+00 0.  1.
</event>
<event>
 5   0  0.2143942E-04  0.1370298E+04  0.7818609E-02  0.8975604E-01
        1   -1    0    0  501    0  0.00000000000E+00  0.00000000000E+00  0.74167750697E+03  0.74167750699E+03  0.50400001928E-02 0.  1.
       -1   -1    0    0    0  501  0.00000000000E+00  0.00000000000E+00 -0.63292855583E+03  0.63292855585E+03  0.50400001928E-02 0. -1.
    10030    2    1    2    0    0  0.00000000000E+00  0.00000000000E+00  0.10874895114E+03  0.13746060628E+04  0.13702975931E+04 0.  0.
        4    1    3    3  502    0  0.74452539132E+02 -0.30857870098E+03  0.66346002058E+03  0.73548950169E+03  0.12699999809E+01 0.  1.
       -4    1    3    3    0  502 -0.74452539132E+02  0.30857870098E+03 -0.55471106944E+03  0.63911656115E+03  0.12699999809E+01 0. -1.
</event>
<event>
 5   0  0.3917598E-04  0.1403330E+04  0.7818609E-02  0.8951412E-01
       -2   -1    0    0    0  501  0.00000000000E+00  0.00000000000E+00  0.35953402222E+03  0.35953402223E+03  0.25500000920E-02 0.  1.
        2   -1    0    0  501    0  0.00000000000E+00  0.00000000000E+00 -0.13693663658E+04  0.13693663658E+04  0.25500000920E-02 0. -1.
    10030    2    1    2    0    0  0.00000000000E+00  0.00000000000E+00 -0.10098323436E+04  0.17289003880E+04  0.14033300359E+04 0.  0.
        3    1    3    3  502    0 -0.35835319235E+03  0.52142198057E+03 -0.13115965743E+03  0.64614298590E+03  0.10100000352E+00 0. -1.
       -3    1    3    3    0  502  0.35835319235E+03 -0.52142198057E+03 -0.87867268614E+03  0.10827574021E+04  0.10100000352E+00 0.  1.
</event>
<event>
 5   0  0.2143942E-04  0.1387785E+04  0.7818609E-02  0.8962708E-01
        1   -1    0    0  501    0  0.00000000000E+00  0.00000000000E+00  0.64460068439E+03  0.64460068441E+03  0.50400001928E-02 0. -1.
       -1   -1    0    0    0  501  0.00000000000E+00  0.00000000000E+00 -0.74695387943E+03  0.74695387945E+03  0.50400001928E-02 0.  1.
    10030    2    1    2    0    0  0.00000000000E+00  0.00000000000E+00 -0.10235319504E+03  0.13915545639E+04  0.13877852599E+04 0.  0.
        4    1    3    3  502    0  0.66803599295E+03  0.12266711249E+03 -0.19356955297E+03  0.70625072963E+03  0.12699999809E+01 0. -1.
       -4    1    3    3    0  502 -0.66803599295E+03 -0.12266711249E+03  0.91216357934E+02  0.68530383423E+03  0.12699999809E+01 0.  1.
</event>
<event>
 5   0  0.3917598E-04  0.1383392E+04  0.7818609E-02  0.8965929E-01
        2   -1    0    0  501    0  0.00000000000E+00  0.00000000000E+00  0.56155705331E+03  0.56155705332E+03  0.25500000920E-02 0.  1.
       -2   -1    0    0    0  501  0.00000000000E+00  0.00000000000E+00 -0.85199391322E+03  0.85199391323E+03  0.25500000920E-02 0. -1.
    10030    2    1    2    0    0  0.00000000000E+00  0.00000000000E+00 -0.29043685992E+03  0.14135509665E+04  0.13833917614E+04 0.  0.
        3    1    3    3  502    0 -0.64834326934E+02  0.39509482016E+03  0.43111693734E+03  0.58835808036E+03  0.10100000352E+00 0.  1.
       -3    1    3    3    0  502  0.64834326934E+02 -0.39509482016E+03 -0.72155379726E+03  0.82519288618E+03  0.10100000352E+00 0. -1.
</event>
<event>
 5   0  0.4208622E-04  0.1394374E+04  0.7818609E-02  0.8957901E-01
       -2   -1    0    0    0  501  0.00000000000E+00  0.00000000000E+00  0.53952093248E+03  0.53952093248E+03  0.25500000920E-02 0. -1.
        2   -1    0    0  501    0  0.00000000000E+00  0.00000000000E+00 -0.90092786115E+03  0.90092786115E+03  0.25500000920E-02 0.  1.
    10030    2    1    2    0    0  0.00000000000E+00  0.00000000000E+00 -0.36140692867E+03  0.14404487936E+04  0.13943736081E+04 0.  0.
        4    1    3    3  502    0  0.48700523102E+03 -0.26314675326E+03  0.25715049464E+03  0.61036734725E+03  0.12699999809E+01 0. -1.
       -4    1    3    3    0  502 -0.48700523102E+03  0.26314675326E+03 -0.61855742332E+03  0.83008144639E+03  0.12699999809E+01 0.  1.
</event>
<event>
 5   0  0.3932568E-04  0.1392456E+04  0.7818609E-02  0.8959297E-01
       -2   -1    0    0    0  501  0.00000000000E+00  0.00000000000E+00  0.94002699404E+03  0.94002699404E+03  0.25500000920E-02 0.  1.
        2   -1    0    0  501    0  0.00000000000E+00  0.00000000000E+00 -0.51565911680E+03  0.51565911681E+03  0.25500000920E-02 0. -1.
    10030    2    1    2    0    0  0.00000000000E+00  0.00000000000E+00  0.42436787723E+03  0.14556861109E+04  0.13924560884E+04 0.  0.
        2    1    3    3  502    0  0.12118953250E+03  0.11256662233E+02 -0.50445126161E+03  0.51892647897E+03  0.25500000920E-02 0. -1.
       -2    1    3    3    0  502 -0.12118953250E+03 -0.11256662233E+02  0.92881913884E+03  0.93675963188E+03  0.25500000920E-02 0.  1.
</event>
<event>
 5   0  0.3932568E-04  0.1396264E+04  0.7818609E-02  0.8956527E-01
       -2   -1    0    0    0  501  0.00000000000E+00  0.00000000000E+00  0.50321671595E+03  0.50321671596E+03  0.25500000920E-02 0. -1.
        2   -1    0    0  501    0  0.00000000000E+00  0.00000000000E+00 -0.96854571861E+03  0.96854571861E+03  0.25500000920E-02 0.  1.
    10030    2    1    2    0    0  0.00000000000E+00  0.00000000000E+00 -0.46532900266E+03  0.14717624346E+04  0.13962641523E+04 0.  0.
        2    1    3    3  502    0 -0.38332623379E+03 -0.57247450560E+03 -0.11377225459E+03  0.69829090427E+03  0.25500000920E-02 0. -1.
       -2    1    3    3    0  502  0.38332623379E+03  0.57247450560E+03 -0.35155674806E+03  0.77347153030E+03  0.25500000920E-02 0.  1.
</event>
<event>
 5   0  0.2143942E-04  0.1300891E+04  0.7818609E-02  0.9028859E-01
        1   -1    0    0  501    0  0.00000000000E+00  0.00000000000E+00  0.19111168234E+04  0.19111168234E+04  0.50400001928E-02 0.  1.
       -1   -1    0    0    0  501  0.00000000000E+00  0.00000000000E+00 -0.22137796682E+03  0.22137796687E+03  0.50400001928E-02 0. -1.
    10030    2    1    2    0    0  0.00000000000E+00  0.00000000000E+00  0.16897388566E+04  0.21324947903E+04  0.13008907053E+04 0.  0.
        4    1    3    3  502    0  0.39166106685E+03  0.41742363126E+03  0.13512823687E+04  0.14675171318E+04  0.12699999809E+01 0.  1.
       -4    1    3    3    0  502 -0.39166106685E+03 -0.41742363126E+03  0.33845648790E+03  0.66497765851E+03  0.12699999809E+01 0. -1.
</event>
<event>
 5   0  0.3932568E-04  0.1392499E+04  0.7818609E-02  0.8959266E-01
       -2   -1    0    0    0  501  0.00000000000E+00  0.00000000000E+00  0.83709667008E+03  0.83709667009E+03  0.25500000920E-02 0. -1.
        2   -1    0    0  501    0  0.00000000000E+00  0.00000000000E+00 -0.57910051734E+03  0.57910051734E+03  0.25500000920E-02 0.  1.
    10030    2    1    2    0    0  0.00000000000E+00  0.00000000000E+00  0.25799615275E+03  0.14161971874E+04  0.13924986387E+04 0.  0.
        2    1    3    3  502    0  0.31971281563E+03  0.58977142985E+03  0.31849268481E+03  0.74261983156E+03  0.25500000920E-02 0. -1.
       -2    1    3    3    0  502 -0.31971281563E+03 -0.58977142985E+03 -0.60496532061E+02  0.67357735587E+03  0.25500000920E-02 0.  1.
</event>
<event>
 5   0  0.1497625E-04  0.1385187E+04  0.7818609E-02  0.8964611E-01
       -4   -1    0    0    0  501  0.00000000000E+00  0.00000000000E+00  0.94745697814E+03  0.94745782931E+03  0.12699999809E+01 0. -1.
        4   -1    0    0  501    0  0.00000000000E+00  0.00000000000E+00 -0.50628563971E+03  0.50628723258E+03  0.12699999809E+01 0.  1.
    10030    2    1    2    0    0  0.00000000000E+00  0.00000000000E+00  0.44117133843E+03  0.14537450619E+04  0.13851868304E+04 0.  0.
        2    1    3    3  502    0 -0.14973376086E+03  0.66800307537E+03  0.33084413135E+03  0.76033291860E+03  0.25500000920E-02 0.  1.
       -2    1    3    3    0  502  0.14973376086E+03 -0.66800307537E+03  0.11032720708E+03  0.69341214330E+03  0.25500000920E-02 0. -1.
</event>
<event>
 5   0  0.3975164E-04  0.1402052E+04  0.7818609E-02  0.8952334E-01
        2   -1    0    0  501    0  0.00000000000E+00  0.00000000000E+00  0.11050860038E+04  0.11050860038E+04  0.25500000920E-02 0. -1.
       -2   -1    0    0    0  501  0.00000000000E+00  0.00000000000E+00 -0.44470542188E+03  0.44470542189E+03  0.25500000920E-02 0.  1.
    10030    2    1    2    0    0  0.00000000000E+00  0.00000000000E+00  0.66038058190E+03  0.15497914257E+04  0.14020524063E+04 0.  0.
        5    1    3    3  502    0 -0.57795362935E+03 -0.35223184013E+03  0.12842412450E+03  0.68892126737E+03  0.46999998093E+01 0. -1.
       -5    1    3    3    0  502  0.57795362935E+03  0.35223184013E+03  0.53195645741E+03  0.86087015830E+03  0.46999998093E+01 0.  1.
</event>
<event>
 5   0  0.3917598E-04  0.1400621E+04  0.7818609E-02  0.8953369E-01
        2   -1    0    0  501    0  0.00000000000E+00  0.00000000000E+00  0.14482993666E+04  0.14482993666E+04  0.25500000920E-02 0.  1.
       -2   -1    0    0    0  501  0.00000000000E+00  0.00000000000E+00 -0.33862818665E+03  0.33862818666E+03  0.25500000920E-02 0. -1.
    10030    2    1    2    0    0  0.00000000000E+00  0.00000000000E+00  0.11096711799E+04  0.17869275532E+04  0.14006212739E+04 0.  0.
        3    1    3    3  502    0 -0.33243958251E+03  0.59854488946E+03  0.74261358513E+03  0.10100727735E+04  0.10100000352E+00 0.  1.
       -3    1    3    3    0  502  0.33243958251E+03 -0.59854488946E+03  0.36705759481E+03  0.77685477976E+03  0.10100000352E+00 0. -1.
</event>
<event>
 5   0  0.2217251E-04  0.1394578E+04  0.7818609E-02  0.8957753E-01
       -1   -1    0    0    0  501  0.00000000000E+00  0.00000000000E+00  0.11890014048E+04  0.11890014048E+04  0.50400001928E-02 0.  1.
        1   -1    0    0  501    0  0.00000000000E+00  0.00000000000E+00 -0.40892440734E+03  0.40892440737E+03  0.50400001928E-02 0. -1.
    10030    2    1    2    0    0  0.00000000000E+00  0.00000000000E+00  0.78007699749E+03  0.15979258122E+04  0.13945776347E+04 0.  0.
        5    1    3    3  502    0 -0.68540004356E+03  0.12802281661E+03  0.38413521945E+03  0.79608103740E+03  0.46999998093E+01 0. -1.
       -5    1    3    3    0  502  0.68540004356E+03 -0.12802281661E+03  0.39594177803E+03  0.80184477480E+03  0.46999998093E+01 0.  1.
</event>
<event>
 5   0  0.2223112E-04  0.1400386E+04  0.7818609E-02  0.8953539E-01
        1   -1    0    0  501    0  0.00000000000E+00  0.00000000000E+00  0.10336516604E+04  0.10336516604E+04  0.50400001928E-02 0. -1.
       -1   -1    0    0    0  501  0.00000000000E+00  0.00000000000E+00 -0.47430880123E+03  0.47430880126E+03  0.50400001928E-02 0.  1.
    10030    2    1    2    0    0  0.00000000000E+00  0.00000000000E+00  0.55934285915E+03  0.15079604617E+04  0.14003857754E+04 0.  0.
        1    1    3    3  502    0  0.29699216201E+02  0.58251345446E+03  0.69681310301E+03  0.90870923216E+03  0.50400001928E-02 0.  1.
       -1    1    3    3    0  502 -0.29699216201E+02 -0.58251345446E+03 -0.13747024386E+03  0.59925122949E+03  0.50400001928E-02 0. -1.
</event>
<event>
 5   0  0.3917598E-04  0.1402887E+04  0.7818609E-02  0.8951732E-01
       -2   -1    0    0    0  501  0.00000000000E+00  0.00000000000E+00  0.20047820567E+03  0.20047820569E+03  0.25500000920E-02 0. -1.
        2   -1    0    0  501    0  0.00000000000E+00  0.00000000000E+00 -0.24542451309E+04  0.24542451309E+04  0.25500000920E-02 0.  1.
    10030    2    1    2    0    0  0.00000000000E+00  0.00000000000E+00 -0.22537669252E+04  0.26547233366E+04  0.14028865387E+04 0.  0.
        3    1    3    3  502    0  0.50845653097E+03 -0.15497291809E+03 -0.26078766836E+03  0.59207674114E+03  0.10100000352E+00 0. -1.
       -3    1    3    3    0  502 -0.50845653097E+03  0.15497291809E+03 -0.19929792569E+04  0.20626465955E+04  0.10100000352E+00 0.  1.
</event>
<event>
 5   0  0.2155352E-04  0.1400242E+04  0.7818609E-02  0.8953644E-01
       -1   -1    0    0    0  501  0.00000000000E+00  0.00000000000E+00  0.14552113106E+04  0.14552113106E+04  0.50400001928E-02 0. -1.
        1   -1    0    0  501    0  0.00000000000E+00  0.00000000000E+00 -0.33683718029E+03  0.33683718033E+03  0.50400001928E-02 0.  1.
    10030    2    1    2    0    0  0.00000000000E+00  0.00000000000E+00  0.11183741303E+04  0.17920484909E+04  0.14002418000E+04 0.  0.
        2    1    3    3  502    0 -0.21757530849E+03 -0.30953865544E+03 -0.19472643308E+03  0.42552506133E+03  0.25500000920E-02 0.  1.
       -2    1    3    3    0  502  0.21757530849E+03  0.30953865544E+03  0.13131005634E+04  0.13665234296E+04  0.25500000920E-02 0. -1.
</event>
<event>
 5   0  0.4208622E-04  0.1397364E+04  0.7818609E-02  0.8955729E-01
        2   -1    0    0  501    0  0.00000000000E+00  0.00000000000E+00  0.19302772077E+04  0.19302772077E+04  0.25500000920E-02 0. -1.
       -2   -1    0    0    0  501  0.00000000000E+00  0.00000000000E+00 -0.25289468162E+03  0.25289468163E+03  0.25500000920E-02 0.  1.
    10030    2    1    2    0    0  0.00000000000E+00  0.00000000000E+00  0.16773825261E+04  0.21831718893E+04  0.13973644333E+04 0.  0.
        4    1    3    3  502    0  0.63149704142E+03  0.17737295823E+03  0.46273412820E+03  0.80272919838E+03  0.12699999809E+01 0. -1.
       -4    1    3    3    0  502 -0.63149704142E+03 -0.17737295823E+03  0.12146483979E+04  0.13804426909E+04  0.12699999809E+01 0.  1.
</event>
<event>
 5   0  0.2143942E-04  0.1419278E+04  0.7818609E-02  0.8939981E-01
       -1   -1    0    0    0  501  0.00000000000E+00  0.00000000000E+00  0.81489801757E+03  0.81489801758E+03  0.50400001928E-02 0. -1.
        1   -1    0    0  501    0  0.00000000000E+00  0.00000000000E+00 -0.61797647592E+03  0.61797647594E+03  0.50400001928E-02 0.  1.
    10030    2    1    2    0    0  0.00000000000E+00  0.00000000000E+00  0.19692154165E+03  0.14328744935E+04  0.14192784155E+04 0.  0.
        4    1    3    3  502    0  0.48367630585E+03 -0.70206261009E+02  0.61789363401E+03  0.78782348517E+03  0.12699999809E+01 0. -1.
       -4    1    3    3    0  502 -0.48367630585E+03  0.70206261009E+02 -0.42097209237E+03  0.64505100835E+03  0.12699999809E+01 0.  1.
</event>
<event>
 5   0  0.4208622E-04  0.1398794E+04  0.7818609E-02  0.8954692E-01
        2   -1    0    0  501    0  0.00000000000E+00  0.00000000000E+00  0.11206035628E+04  0.11206035628E+04  0.25500000920E-02 0. -1.
       -2   -1    0    0    0  501  0.00000000000E+00  0.00000000000E+00 -0.43651164665E+03  0.43651164666E+03  0.25500000920E-02 0.  1.
    10030    2    1    2    0    0  0.00000000000E+00  0.00000000000E+00  0.68409191611E+03  0.15571152094E+04  0.13987944902E+04 0.  0.
        4    1    3    3  502    0 -0.30626562605E+03 -0.38631251966E+03  0.89430052224E+03  0.10211811952E+04  0.12699999809E+01 0. -1.
       -4    1    3    3    0  502  0.30626562605E+03  0.38631251966E+03 -0.21020860613E+03  0.53593401417E+03  0.12699999809E+01 0.  1.
</event>
<event>
 5   0  0.4310348E-04  0.1400857E+04  0.7818609E-02  0.8953199E-01
       -2   -1    0    0    0  501  0.00000000000E+00  0.00000000000E+00  0.33565762387E+03  0.33565762388E+03  0.25500000920E-02 0.  1.
        2   -1    0    0  501    0  0.00000000000E+00  0.00000000000E+00 -0.14616080095E+04  0.14616080095E+04  0.25500000920E-02 0. -1.
    10030    2    1    2    0    0  0.00000000000E+00  0.00000000000E+00 -0.11259503856E+04  0.17972656333E+04  0.14008566971E+04 0.  0.
        1    1    3    3  502    0 -0.32404053686E+02  0.36367666076E+03 -0.13298570514E+04  0.13790687124E+04  0.50400001928E-02 0. -1.
       -1    1    3    3    0  502  0.32404053686E+02 -0.36367666076E+03  0.20390666584E+03  0.41819692093E+03  0.50400001928E-02 0.  1.
</event>
<event>
 5   0  0.3932568E-04  0.1400505E+04  0.7818609E-02  0.8953453E-01
        2   -1    0    0  501    0  0.00000000000E+00  0.00000000000E+00  0.13937981502E+04  0.13937981502E+04  0.25500000920E-02 0.  1.
       -2   -1    0    0    0  501  0.00000000000E+00  0.00000000000E+00 -0.35181078955E+03  0.35181078956E+03  0.25500000920E-02 0. -1.
    10030    2    1    2    0    0  0.00000000000E+00  0.00000000000E+00  0.10419873607E+04  0.17456089398E+04  0.14005045201E+04 0.  0.
        2    1    3    3  502    0 -0.18584511255E+03 -0.21060723908E+03  0.13205074420E+04  0.13500495248E+04  0.25500000920E-02 0.  1.
       -2    1    3    3    0  502  0.18584511255E+03  0.21060723908E+03 -0.27852008138E+03  0.39555941494E+03  0.25500000920E-02 0. -1.
</event>
<event>
 5   0  0.2215876E-04  0.1402155E+04  0.7818609E-02  0.8952260E-01
        1   -1    0    0  501    0  0.00000000000E+00  0.00000000000E+00  0.70726796036E+03  0.70726796037E+03  0.50400001928E-02 0. -1.
       -1   -1    0    0    0  501  0.00000000000E+00  0.00000000000E+00 -0.69494134134E+03  0.69494134136E+03  0.50400001928E-02 0.  1.
    10030    2    1    2    0    0  0.00000000000E+00  0.00000000000E+00  0.12326619019E+02  0.14022093017E+04  0.14021551199E+04 0.  0.
        3    1    3    3  502    0  0.48985989150E+03 -0.27250810898E+01  0.50771992224E+03  0.70551376245E+03  0.10100000352E+00 0. -1.
       -3    1    3    3    0  502 -0.48985989150E+03  0.27250810898E+01 -0.49539330322E+03  0.69669553928E+03  0.10100000352E+00 0.  1.
</event>
<event>
 5   0  0.2223112E-04  0.1395722E+04  0.7818609E-02  0.8956921E-01
        1   -1    0    0  501    0  0.00000000000E+00  0.00000000000E+00  0.11538912519E+04  0.11538912519E+04  0.50400001928E-02 0. -1.
       -1   -1    0    0    0  501  0.00000000000E+00  0.00000000000E+00 -0.42205863005E+03  0.42205863008E+03  0.50400001928E-02 0.  1.
    10030    2    1    2    0    0  0.00000000000E+00  0.00000000000E+00  0.73183262184E+03  0.15759498820E+04  0.13957216929E+04 0.  0.
        1    1    3    3  502    0  0.30000251075E+03 -0.27799128118E+03  0.10043777280E+04  0.10844608243E+04  0.50400001928E-02 0. -1.
       -1    1    3    3    0  502 -0.30000251075E+03  0.27799128118E+03 -0.27254510619E+03  0.49148905767E+03  0.50400001928E-02 0.  1.
</event>
<event>
 5   0  0.2155352E-04  0.1397865E+04  0.7818609E-02  0.8955365E-01
       -1   -1    0    0    0  501  0.00000000000E+00  0.00000000000E+00  0.47746162604E+03  0.47746162606E+03  0.50400001928E-02 0. -1.
        1   -1    0    0  501    0  0.00000000000E+00  0.00000000000E+00 -0.10231333759E+04  0.10231333759E+04  0.50400001928E-02 0.  1.
    10030    2    1    2    0    0  0.00000000000E+00  0.00000000000E+00 -0.54567174987E+03  0.15005950020E+04  0.13978654089E+04 0.  0.
        2    1    3    3  502    0  0.15618933200E+03  0.32626738697E+03  0.36916287100E+03  0.51684305216E+03  0.25500000920E-02 0. -1.
       -2    1    3    3    0  502 -0.15618933200E+03 -0.32626738697E+03 -0.91483462087E+03  0.98375194983E+03  0.25500000920E-02 0.  1.
</event>
<event>
 5   0  0.3932568E-04  0.1399550E+04  0.7818609E-02  0.8954144E-01
       -2   -1    0    0    0  501  0.00000000000E+00  0.00000000000E+00  0.65562090745E+03  0.65562090745E+03  0.25500000920E-02 0.  1.
        2   -1    0    0  501    0  0.00000000000E+00  0.00000000000E+00 -0.74690299396E+03  0.74690299397E+03  0.25500000920E-02 0. -1.
    10030    2    1    2    0    0  0.00000000000E+00  0.00000000000E+00 -0.91282086518E+02  0.14025239014E+04  0.13995502402E+04 0.  0.
        2    1    3    3  502    0 -0.48434814505E+03 -0.36434928768E+03 -0.39615798601E+03  0.72407505062E+03  0.25500000920E-02 0. -1.
       -2    1    3    3    0  502  0.48434814505E+03  0.36434928768E+03  0.30487589949E+03  0.67844885080E+03  0.25500000920E-02 0.  1.
</event>
<event>
 5   0  0.3975164E-04  0.1421326E+04  0.7818609E-02  0.8938525E-01
        2   -1    0    0  501    0  0.00000000000E+00  0.00000000000E+00  0.12446496702E+04  0.12446496702E+04  0.25500000920E-02 0.  1.
       -2   -1    0    0    0  501  0.00000000000E+00  0.00000000000E+00 -0.40577021290E+03  0.40577021291E+03  0.25500000920E-02 0. -1.
    10030    2    1    2    0    0  0.00000000000E+00  0.00000000000E+00  0.83887945730E+03  0.16504198831E+04  0.14213258060E+04 0.  0.
        5    1    3    3  502    0  0.11208264034E+03 -0.39102489656E+03  0.10960786064E+04  0.11691336063E+04  0.46999998093E+01 0.  1.
       -5    1    3    3    0  502 -0.11208264034E+03  0.39102489656E+03 -0.25719914906E+03  0.48128627684E+03  0.46999998093E+01 0. -1.
</event>
<event>
 5   0  0.2223112E-04  0.1398532E+04  0.7818609E-02  0.8954882E-01
       -1   -1    0    0    0  501  0.00000000000E+00  0.00000000000E+00  0.19233059099E+03  0.19233059105E+03  0.50400001928E-02 0. -1.
        1   -1    0    0  501    0  0.00000000000E+00  0.00000000000E+00 -0.25423581489E+04  0.25423581489E+04  0.50400001928E-02 0.  1.
    10030    2    1    2    0    0  0.00000000000E+00  0.00000000000E+00 -0.23500275579E+04  0.27346887400E+04  0.13985324385E+04 0.  0.
        1    1    3    3  502    0 -0.68165538631E+03  0.15499613771E+03 -0.11414072489E+04  0.13384649328E+04  0.50400001928E-02 0. -1.
       -1    1    3    3    0  502  0.68165538631E+03 -0.15499613771E+03 -0.12086203090E+04  0.13962238072E+04  0.50400001928E-02 0.  1.
</event>
<event>
 5   0  0.4310348E-04  0.1388347E+04  0.7818609E-02  0.8962297E-01
       -2   -1    0    0    0  501  0.00000000000E+00  0.00000000000E+00  0.40236319946E+03  0.40236319947E+03  0.25500000920E-02 0. -1.
        2   -1    0    0  501    0  0.00000000000E+00  0.00000000000E+00 -0.11976170567E+04  0.11976170567E+04  0.25500000920E-02 0.  1.
    10030    2    1    2    0    0  0.00000000000E+00  0.00000000000E+00 -0.79525385721E+03  0.15999802561E+04  0.13883472630E+04 0.  0.
        1    1    3    3  502    0 -0.10718818671E+03 -0.36473874468E+02  0.39165016994E+03  0.40768800145E+03  0.50400001928E-02 0. -1.
       -1    1    3    3    0  502  0.10718818671E+03  0.36473874468E+02 -0.11869040272E+04  0.11922922547E+04  0.50400001928E-02 0.  1.
</event>
<event>
 5   0  0.2223112E-04  0.1396680E+04  0.7818609E-02  0.8956226E-01
       -1   -1    0    0    0  501  0.00000000000E+00  0.00000000000E+00  0.47534279780E+03  0.47534279783E+03  0.50400001928E-02 0.  1.
        1   -1    0    0  501    0  0.00000000000E+00  0.00000000000E+00 -0.10259511270E+04  0.10259511270E+04  0.50400001928E-02 0. -1.
    10030    2    1    2    0    0  0.00000000000E+00  0.00000000000E+00 -0.55060832922E+03  0.15012939249E+04  0.13966796041E+04 0.  0.
        1    1    3    3  502    0  0.87152729227E+02  0.24176428629E+03 -0.97327325028E+03  0.10066312076E+04  0.50400001928E-02 0. -1.
       -1    1    3    3    0  502 -0.87152729227E+02 -0.24176428629E+03  0.42266492107E+03  0.49466271728E+03  0.50400001928E-02 0.  1.
</event>
<event>
 5   0  0.3975164E-04  0.1395239E+04  0.7818609E-02  0.8957272E-01
        2   -1    0    0  501    0  0.00000000000E+00  0.00000000000E+00  0.91192365070E+03  0.91192365070E+03  0.25500000920E-02 0.  1.
       -2   -1    0    0    0  501  0.00000000000E+00  0.00000000000E+00 -0.53367737033E+03  0.53367737033E+03  0.25500000920E-02 0. -1.
    10030    2    1    2    0    0  0.00000000000E+00  0.00000000000E+00  0.37824628037E+03  0.14456010210E+04  0.13952390703E+04 0.  0.
        5    1    3    3  502    0  0.40704294490E+03 -0.43243773304E+03 -0.19009997432E+03  0.62357553045E+03  0.46999998093E+01 0. -1.
       -5    1    3    3    0  502 -0.40704294490E+03  0.43243773304E+03  0.56834625469E+03  0.82202549058E+03  0.46999998093E+01 0.  1.
</event>
<event>
 5   0  0.4310348E-04  0.1389463E+04  0.7818609E-02  0.8961481E-01
        2   -1    0    0  501    0  0.00000000000E+00  0.00000000000E+00  0.15954977055E+04  0.15954977055E+04  0.25500000920E-02 0.  1.
       -2   -1    0    0    0  501  0.00000000000E+00  0.00000000000E+00 -0.30250866392E+03  0.30250866393E+03  0.25500000920E-02 0. -1.
    10030    2    1    2    0    0  0.00000000000E+00  0.00000000000E+00  0.12929890415E+04  0.18980063694E+04  0.13894630318E+04 0.  0.
        1    1    3    3  502    0  0.21122554851E+03 -0.57431572922E+03  0.10958173236E+04  0.12550977635E+04  0.50400001928E-02 0.  1.
       -1    1    3    3    0  502 -0.21122554851E+03  0.57431572922E+03  0.19717171793E+03  0.64290860591E+03  0.50400001928E-02 0. -1.
</event>
<event>
 5   0  0.3975164E-04  0.1396388E+04  0.7818609E-02  0.8956437E-01
       -2   -1    0    0    0  501  0.00000000000E+00  0.00000000000E+00  0.12906691370E+04  0.12906691370E+04  0.25500000920E-02 0.  1.
        2   -1    0    0  501    0  0.00000000000E+00  0.00000000000E+00 -0.37769166874E+03  0.37769166875E+03  0.25500000920E-02 0. -1.
    10030    2    1    2    0    0  0.00000000000E+00  0.00000000000E+00  0.91297746829E+03  0.16683608058E+04  0.13963881698E+04 0.  0.
        5    1    3    3  502    0 -0.20377480225E+03  0.18861828386E+03 -0.30886467769E+03  0.41535587893E+03  0.46999998093E+01 0. -1.
       -5    1    3    3    0  502  0.20377480225E+03 -0.18861828386E+03  0.12218421460E+04  0.12530049269E+04  0.46999998093E+01 0.  1.
</event>
<event>
 5   0  0.3975164E-04  0.1394484E+04  0.7818609E-02  0.8957821E-01
        2   -1    0    0  501    0  0.00000000000E+00  0.00000000000E+00  0.18956391623E+04  0.18956391623E+04  0.25500000920E-02 0. -1.
       -2   -1    0    0    0  501  0.00000000000E+00  0.00000000000E+00 -0.25645521814E+03  0.25645521816E+03  0.25500000920E-02 0.  1.
    10030    2    1    2    0    0  0.00000000000E+00  0.00000000000E+00  0.16391839441E+04  0.21520943804E+04  0.13944842127E+04 0.  0.
        5    1    3    3  502    0 -0.44551603702E+03  0.53518696926E+03  0.76580140691E+03  0.10350765750E+04  0.46999998093E+01 0. -1.
       -5    1    3    3    0  502  0.44551603702E+03 -0.53518696926E+03  0.87338253722E+03  0.11170178054E+04  0.46999998093E+01 0.  1.
</event>
<event>
 5   0  0.2155352E-04  0.1405550E+04  0.7818609E-02  0.8949811E-01
        1   -1    0    0  501    0  0.00000000000E+00  0.00000000000E+00  0.13360030517E+04  0.13360030517E+04  0.50400001928E-02 0.  1.
       -1   -1    0    0    0  501  0.00000000000E+00  0.00000000000E+00 -0.36967943899E+03  0.36967943902E+03  0.50400001928E-02 0. -1.
    10030    2    1    2    0    0  0.00000000000E+00  0.00000000000E+00  0.96632361271E+03  0.17056824907E+04  0.14055502249E+04 0.  0.
        2    1    3    3  502    0 -0.27199555351E+03 -0.21825745278E+03  0.12235913452E+04  0.12723182294E+04  0.25500000920E-02 0.  1.
       -2    1    3    3    0  502  0.27199555351E+03  0.21825745278E+03 -0.25726773248E+03  0.43336426134E+03  0.25500000920E-02 0. -1.
</event>
<event>
 5   0  0.3917598E-04  0.1400120E+04  0.7818609E-02  0.8953732E-01
        2   -1    0    0  501    0  0.00000000000E+00  0.00000000000E+00  0.10807977098E+04  0.10807977099E+04  0.25500000920E-02 0. -1.
       -2   -1    0    0    0  501  0.00000000000E+00  0.00000000000E+00 -0.45344648333E+03  0.45344648334E+03  0.25500000920E-02 0.  1.
    10030    2    1    2    0    0  0.00000000000E+00  0.00000000000E+00  0.62735122652E+03  0.15342441932E+04  0.14001198816E+04 0.  0.
        3    1    3    3  502    0 -0.17824496466E+02 -0.17042543328E+03 -0.43011114775E+03  0.46298828344E+03  0.10100000352E+00 0.  1.
       -3    1    3    3    0  502  0.17824496466E+02  0.17042543328E+03  0.10574623743E+04  0.10712559097E+04  0.10100000352E+00 0. -1.
</event>
<event>
 5   0  0.2155352E-04  0.1396964E+04  0.7818609E-02  0.8956019E-01
       -1   -1    0    0    0  501  0.00000000000E+00  0.00000000000E+00  0.52897939715E+03  0.52897939717E+03  0.50400001928E-02 0. -1.
        1   -1    0    0  501    0  0.00000000000E+00  0.00000000000E+00 -0.92229951786E+03  0.92229951788E+03  0.50400001928E-02 0.  1.
    10030    2    1    2    0    0  0.00000000000E+00  0.00000000000E+00 -0.39332012072E+03  0.14512789150E+04  0.13969644848E+04 0.  0.
        2    1    3    3  502    0  0.32312127872E+03 -0.46471369562E+03 -0.62185445197E+03  0.84087403284E+03  0.25500000920E-02 0.  1.
       -2    1    3    3    0  502 -0.32312127872E+03  0.46471369562E+03  0.22853433125E+03  0.61040488221E+03  0.25500000920E-02 0. -1.
</event>
<event>
 5   0  0.4208622E-04  0.1411650E+04  0.7818609E-02  0.8945429E-01
        2   -1    0    0  501    0  0.00000000000E+00  0.00000000000E+00  0.47612707009E+03  0.47612707009E+03  0.25500000920E-02 0.  1.
       -2   -1    0    0    0  501  0.00000000000E+00  0.00000000000E+00 -0.10463362127E+04  0.10463362127E+04  0.25500000920E-02 0. -1.
    10030    2    1    2    0    0  0.00000000000E+00  0.00000000000E+00 -0.57020914264E+03  0.15224632828E+04  0.14116500916E+04 0.  0.
        4    1    3    3  502    0  0.33094545846E+03 -0.43309621672E+02 -0.95584667415E+03  0.10124451082E+04  0.12699999809E+01 0. -1.
       -4    1    3    3    0  502 -0.33094545846E+03  0.43309621672E+02  0.38563753151E+03  0.51001817459E+03  0.12699999809E+01 0.  1.
</event>
<event>
 5   0  0.2215876E-04  0.1401121E+04  0.7818609E-02  0.8953007E-01
        1   -1    0    0  501    0  0.00000000000E+00  0.00000000000E+00  0.77791584498E+03  0.77791584500E+03  0.50400001928E-02 0.  1.
       -1   -1    0    0    0  501  0.00000000000E+00  0.00000000000E+00 -0.63089772604E+03  0.63089772606E+03  0.50400001928E-02 0. -1.
    10030    2    1    2    0    0  0.00000000000E+00  0.00000000000E+00  0.14701811894E+03  0.14088135711E+04  0.14011214618E+04 0.  0.
        3    1    3    3  502    0  0.28094021974E+03  0.59129932454E+03 -0.17730583089E+03  0.67823275219E+03  0.10100000352E+00 0. -1.
       -3    1    3    3    0  502 -0.28094021974E+03 -0.59129932454E+03  0.32432394982E+03  0.73058081887E+03  0.10100000352E+00 0.  1.
</event>
<event>
 5   0  0.3917598E-04  0.1397021E+04  0.7818609E-02  0.8955978E-01
        2   -1    0    0  501    0  0.00000000000E+00  0.00000000000E+00  0.10567574272E+04  0.10567574272E+04  0.25500000920E-02 0.  1.
       -2   -1    0    0    0  501  0.00000000000E+00  0.00000000000E+00 -0.46171139601E+03  0.46171139601E+03  0.25500000920E-02 0. -1.
    10030    2    1    2    0    0  0.00000000000E+00  0.00000000000E+00  0.59504603123E+03  0.15184688233E+04  0.13970210406E+04 0.  0.
        3    1    3    3  502    0 -0.49826900476E+03  0.31910568206E+03  0.70103230714E+03  0.91735856855E+03  0.10100000352E+00 0.  1.
       -3    1    3    3    0  502  0.49826900476E+03 -0.31910568206E+03 -0.10598627591E+03  0.60111025471E+03  0.10100000352E+00 0. -1.
</event>
<event>
 5   0  0.2143942E-04  0.1410780E+04  0.7818609E-02  0.8946052E-01
       -1   -1    0    0    0  501  0.00000000000E+00  0.00000000000E+00  0.27457135947E+03  0.27457135952E+03  0.50400001928E-02 0.  1.
        1   -1    0    0  501    0  0.00000000000E+00  0.00000000000E+00 -0.18121880442E+04  0.18121880442E+04  0.50400001928E-02 0. -1.
    10030    2    1    2    0    0  0.00000000000E+00  0.00000000000E+00 -0.15376166848E+04  0.20867594038E+04  0.14107798340E+04 0.  0.
        4    1    3    3  502    0  0.68959457491E+02 -0.16033329924E+03 -0.17797433884E+04  0.17882813859E+04  0.12699999809E+01 0. -1.
       -4    1    3    3    0  502 -0.68959457491E+02  0.16033329924E+03  0.24212670366E+03  0.29847801786E+03  0.12699999809E+01 0.  1.
</event>
<event>
 5   0  0.4310348E-04  0.1401913E+04  0.7818609E-02  0.8952435E-01
        2   -1    0    0  501    0  0.00000000000E+00  0.00000000000E+00  0.91886127169E+03  0.91886127169E+03  0.25500000920E-02 0. -1.
       -2   -1    0    0    0  501  0.00000000000E+00  0.00000000000E+00 -0.53472681024E+03  0.53472681025E+03  0.25500000920E-02 0.  1.
    10030    2    1    2    0    0  0.00000000000E+00  0.00000000000E+00  0.38413446145E+03  0.14535880819E+04  0.14019126319E+04 0.  0.
        1    1    3    3  502    0  0.94468816786E+02  0.20568646696E+03  0.87992757270E+03  0.90857240397E+03  0.50400001928E-02 0. -1.
       -1    1    3    3    0  502 -0.94468816786E+02 -0.20568646696E+03 -0.49579311125E+03  0.54501567797E+03  0.50400001928E-02 0.  1.
</event>
<event>
 5   0  0.2217251E-04  0.1397755E+04  0.7818609E-02  0.8955445E-01
       -1   -1    0    0    0  501  0.00000000000E+00  0.00000000000E+00  0.73500855022E+03  0.73500855024E+03  0.50400001928E-02 0.  1.
        1   -1    0    0  501    0  0.00000000000E+00  0.00000000000E+00 -0.66452281869E+03  0.66452281871E+03  0.50400001928E-02 0. -1.
    10030    2    1    2    0    0  0.00000000000E+00  0.00000000000E+00  0.70485731529E+02  0.13995313689E+04  0.13977552770E+04 0.  0.
        5    1    3    3  502    0 -0.22068007018E+03  0.22557511130E+03 -0.58910703993E+03  0.66832104464E+03  0.46999998093E+01 0. -1.
       -5    1    3    3    0  502  0.22068007018E+03 -0.22557511130E+03  0.65959277146E+03  0.73121032431E+03  0.46999998093E+01 0.  1.
</event>
<event>
 5   0  0.2143942E-04  0.1413771E+04  0.7818609E-02  0.8943910E-01
        1   -1    0    0  501    0  0.00000000000E+00  0.00000000000E+00  0.10821093630E+04  0.10821093631E+04  0.50400001928E-02 0. -1.
       -1   -1    0    0    0  501  0.00000000000E+00  0.00000000000E+00 -0.46177168182E+03  0.46177168184E+03  0.50400001928E-02 0.  1.
    10030    2    1    2    0    0  0.00000000000E+00  0.00000000000E+00  0.62033768123E+03  0.15438810449E+04  0.14137714957E+04 0.  0.
        4    1    3    3  502    0  0.47028810664E+03  0.47199204460E+03  0.56798615137E+03  0.87553256619E+03  0.12699999809E+01 0. -1.
       -4    1    3    3    0  502 -0.47028810664E+03 -0.47199204460E+03  0.52351529855E+02  0.66834847871E+03  0.12699999809E+01 0.  1.
</event>
<event>
 5   0  0.3917598E-04  0.1398666E+04  0.7818609E-02  0.8954785E-01
        2   -1    0    0  501    0  0.00000000000E+00  0.00000000000E+00  0.95638840890E+03  0.95638840890E+03  0.25500000920E-02 0. -1.
       -2   -1    0    0    0  501  0.00000000000E+00  0.00000000000E+00 -0.51136802327E+03  0.51136802328E+03  0.25500000920E-02 0.  1.
    10030    2    1    2    0    0  0.00000000000E+00  0.00000000000E+00  0.44502038563E+03  0.14677564322E+04  0.13986657215E+04 0.  0.
        3    1    3    3  502    0  0.84566168667E+02  0.88186987818E+02  0.94510106184E+03  0.95296611115E+03  0.10100000352E+00 0. -1.
       -3    1    3    3    0  502 -0.84566168667E+02 -0.88186987818E+02 -0.50008067621E+03  0.51479032103E+03  0.10100000352E+00 0.  1.
</event>
<event>
 5   0  0.2217251E-04  0.1388802E+04  0.7818609E-02  0.8961965E-01
        1   -1    0    0  501    0  0.00000000000E+00  0.00000000000E+00  0.86051914342E+03  0.86051914344E+03  0.50400001928E-02 0.  1.
       -1   -1    0    0    0  501  0.00000000000E+00  0.00000000000E+00 -0.56035070252E+03  0.56035070254E+03  0.50400001928E-02 0. -1.
    10030    2    1    2    0    0  0.00000000000E+00  0.00000000000E+00  0.30016844091E+03  0.14208698460E+04  0.13888016512E+04 0.  0.
        5    1    3    3  502    0 -0.63063001042E+03 -0.13256910774E+03  0.41471018237E+03  0.76633896137E+03  0.46999998093E+01 0.  1.
       -5    1    3    3    0  502  0.63063001042E+03  0.13256910774E+03 -0.11454174146E+03  0.65453088460E+03  0.46999998093E+01 0. -1.
</event>
<event>
 5   0  0.2215876E-04  0.1401088E+04  0.7818609E-02  0.8953031E-01
       -1   -1    0    0    0  501  0.00000000000E+00  0.00000000000E+00  0.10659618228E+04  0.10659618228E+04  0.50400001928E-02 0.  1.
        1   -1    0    0  501    0  0.00000000000E+00  0.00000000000E+00 -0.46039372536E+03  0.46039372538E+03  0.50400001928E-02 0. -1.
    10030    2    1    2    0    0  0.00000000000E+00  0.00000000000E+00  0.60556809747E+03  0.15263555482E+04  0.14010883409E+04 0.  0.
        3    1    3    3  502    0 -0.15145226493E+03  0.65756945505E+03  0.50783218827E+03  0.84452881443E+03  0.10100000352E+00 0.  1.
       -3    1    3    3    0  502  0.15145226493E+03 -0.65756945505E+03  0.97735909197E+02  0.68182673379E+03  0.10100000352E+00 0. -1.
</event>
<event>
 5   0  0.2155352E-04  0.1401782E+04  0.7818609E-02  0.8952529E-01
       -1   -1    0    0    0  501  0.00000000000E+00  0.00000000000E+00  0.70295512398E+03  0.70295512399E+03  0.50400001928E-02 0.  1.
        1   -1    0    0  501    0  0.00000000000E+00  0.00000000000E+00 -0.69883324151E+03  0.69883324153E+03  0.50400001928E-02 0. -1.
    10030    2    1    2    0    0  0.00000000000E+00  0.00000000000E+00  0.41218824633E+01  0.14017883655E+04  0.14017823054E+04 0.  0.
        2    1    3    3  502    0  0.15703230502E+03  0.21733597222E+03 -0.64551759776E+03  0.69899001328E+03  0.25500000920E-02 0. -1.
       -2    1    3    3    0  502 -0.15703230502E+03 -0.21733597222E+03  0.64963948022E+03  0.70279835224E+03  0.25500000920E-02 0.  1.
</event>
<event>
 5   0  0.3932568E-04  0.1389659E+04  0.7818609E-02  0.8961338E-01
       -2   -1    0    0    0  501  0.00000000000E+00  0.00000000000E+00  0.23056307053E+03  0.23056307054E+03  0.25500000920E-02 0. -1.
        2   -1    0    0  501    0  0.00000000000E+00  0.00000000000E+00 -0.20939513735E+04  0.20939513735E+04  0.25500000920E-02 0.  1.
    10030    2    1    2    0    0  0.00000000000E+00  0.00000000000E+00 -0.18633883030E+04  0.23245144440E+04  0.13896587469E+04 0.  0.
        2    1    3    3  502    0  0.35030280051E+03  0.33243152953E+01  0.72030036689E+02  0.35764707368E+03  0.25500000920E-02 0. -1.
       -2    1    3    3    0  502 -0.35030280051E+03 -0.33243152953E+01 -0.19354183396E+04  0.19668673704E+04  0.25500000920E-02 0.  1.
</event>
<event>
 5   0  0.2155352E-04  0.1431616E+04  0.7818609E-02  0.8931246E-01
       -1   -1    0    0    0  501  0.00000000000E+00  0.00000000000E+00  0.40737479967E+03  0.40737479971E+03  0.50400001928E-02 0.  1.
        1   -1    0    0  501    0  0.00000000000E+00  0.00000000000E+00 -0.12577636265E+04  0.12577636265E+04  0.50400001928E-02 0. -1.
    10030    2    1    2    0    0  0.00000000000E+00  0.00000000000E+00 -0.85038882684E+03  0.16651384262E+04  0.14316161572E+04 0.  0.
        2    1    3    3  502    0  0.51727241078E+03 -0.45314989076E+03 -0.19412987500E+03  0.71456418803E+03  0.25500000920E-02 0.  1.
       -2    1    3    3    0  502 -0.51727241078E+03  0.45314989076E+03 -0.65625895184E+03  0.95057423820E+03  0.25500000920E-02 0. -1.
</event>
<event>
 5   0  0.2155352E-04  0.1457257E+04  0.7818609E-02  0.8913385E-01
        1   -1    0    0  501    0  0.00000000000E+00  0.00000000000E+00  0.15542165261E+04  0.15542165261E+04  0.50400001928E-02 0.  1.
       -1   -1    0    0    0  501  0.00000000000E+00  0.00000000000E+00 -0.34158661450E+03  0.34158661453E+03  0.50400001928E-02 0. -1.
    10030    2    1    2    0    0  0.00000000000E+00  0.00000000000E+00  0.12126299116E+04  0.18958031407E+04  0.14572570966E+04 0.  0.
        2    1    3    3  502    0 -0.63606083338E+03 -0.35249352869E+03  0.54706163180E+03  0.91000082446E+03  0.25500000920E-02 0. -1.
       -2    1    3    3    0  502  0.63606083338E+03  0.35249352869E+03  0.66556827983E+03  0.98580231621E+03  0.25500000920E-02 0.  1.
</event>
<event>
 5   0  0.2215876E-04  0.1395452E+04  0.7818609E-02  0.8957117E-01
        1   -1    0    0  501    0  0.00000000000E+00  0.00000000000E+00  0.84193295602E+03  0.84193295604E+03  0.50400001928E-02 0. -1.
       -1   -1    0    0    0  501  0.00000000000E+00  0.00000000000E+00 -0.57821894013E+03  0.57821894015E+03  0.50400001928E-02 0.  1.
    10030    2    1    2    0    0  0.00000000000E+00  0.00000000000E+00  0.26371401590E+03  0.14201518962E+04  0.13954520150E+04 0.  0.
        3    1    3    3  502    0  0.48874168250E+03  0.31303744559E+03 -0.26224497105E+03  0.63689348372E+03  0.10100000352E+00 0.  1.
       -3    1    3    3    0  502 -0.48874168250E+03 -0.31303744559E+03  0.52595898694E+03  0.78325841247E+03  0.10100000352E+00 0. -1.
</event>
<event>
 5   0  0.4310348E-04  0.1398325E+04  0.7818609E-02  0.8955032E-01
       -2   -1    0    0    0  501  0.00000000000E+00  0.00000000000E+00  0.37687489990E+03  0.37687489991E+03  0.25500000920E-02 0. -1.
        2   -1    0    0  501    0  0.00000000000E+00  0.00000000000E+00 -0.12970560743E+04  0.12970560743E+04  0.25500000920E-02 0.  1.
    10030    2    1    2    0    0  0.00000000000E+00  0.00000000000E+00 -0.92018117445E+03  0.16739309743E+04  0.13983245377E+04 0.  0.
        1    1    3    3  502    0  0.54810678943E+03 -0.21462071014E+03 -0.91173883956E+03  0.10852422833E+04  0.50400001928E-02 0.  1.
       -1    1    3    3    0  502 -0.54810678943E+03  0.21462071014E+03 -0.84423348864E+01  0.58868869098E+03  0.50400001928E-02 0. -1.
</event>
<event>
 5   0  0.4208622E-04  0.1414861E+04  0.7818609E-02  0.8943131E-01
       -2   -1    0    0    0  501  0.00000000000E+00  0.00000000000E+00  0.30846208865E+03  0.30846208867E+03  0.25500000920E-02 0. -1.
        2   -1    0    0  501    0  0.00000000000E+00  0.00000000000E+00 -0.16224284918E+04  0.16224284918E+04  0.25500000920E-02 0.  1.
    10030    2    1    2    0    0  0.00000000000E+00  0.00000000000E+00 -0.13139664032E+04  0.19308905805E+04  0.14148606734E+04 0.  0.
        4    1    3    3  502    0  0.31177139073E+03 -0.37813198165E+03  0.39253275068E+02  0.49165803983E+03  0.12699999809E+01 0. -1.
       -4    1    3    3    0  502 -0.31177139073E+03  0.37813198165E+03 -0.13532196782E+04  0.14392325407E+04  0.12699999809E+01 0.  1.
</event>
<event>
 5   0  0.2223112E-04  0.1394638E+04  0.7818609E-02  0.8957709E-01
       -1   -1    0    0    0  501  0.00000000000E+00  0.00000000000E+00  0.85094831448E+03  0.85094831450E+03  0.50400001928E-02 0.  1.
        1   -1    0    0  501    0  0.00000000000E+00  0.00000000000E+00 -0.57142590723E+03  0.57142590725E+03  0.50400001928E-02 0. -1.
    10030    2    1    2    0    0  0.00000000000E+00  0.00000000000E+00  0.27952240725E+03  0.14223742218E+04  0.13946381791E+04 0.  0.
        1    1    3    3  502    0  0.64292261040E+03 -0.26408528710E+03  0.82398614534E+02  0.69991431871E+03  0.50400001928E-02 0. -1.
       -1    1    3    3    0  502 -0.64292261040E+03  0.26408528710E+03  0.19712379272E+03  0.72245990305E+03  0.50400001928E-02 0.  1.
</event>
<event>
 5   0  0.4310348E-04  0.1397449E+04  0.7818609E-02  0.8955667E-01
       -2   -1    0    0    0  501  0.00000000000E+00  0.00000000000E+00  0.87113086223E+03  0.87113086223E+03  0.25500000920E-02 0. -1.
        2   -1    0    0  501    0  0.00000000000E+00  0.00000000000E+00 -0.56043897124E+03  0.56043897125E+03  0.25500000920E-02 0.  1.
    10030    2    1    2    0    0  0.00000000000E+00  0.00000000000E+00  0.31069189099E+03  0.14315698335E+04  0.13974486527E+04 0.  0.
        1    1    3    3  502    0 -0.38892677150E+03 -0.28250767412E+03 -0.36412635847E+03  0.60304446311E+03  0.50400001928E-02 0.  1.
       -1    1    3    3    0  502  0.38892677150E+03  0.28250767412E+03  0.67481824946E+03  0.82852537037E+03  0.50400001928E-02 0. -1.
</event>
<event>
 5   0  0.4208622E-04  0.1408774E+04  0.7818609E-02  0.8947492E-01
        2   -1    0    0  501    0  0.00000000000E+00  0.00000000000E+00  0.45252841772E+03  0.45252841773E+03  0.25500000920E-02 0. -1.
       -2   -1    0    0    0  501  0.00000000000E+00  0.00000000000E+00 -0.10964194394E+04  0.10964194394E+04  0.25500000920E-02 0.  1.
    10030    2    1    2    0    0  0.00000000000E+00  0.00000000000E+00 -0.64389102164E+03  0.15489478571E+04  0.14087738698E+04 0.  0.
        4    1    3    3  502    0  0.26853200212E+03  0.64690808329E+03 -0.40392902519E+03  0.80855412601E+03  0.12699999809E+01 0.  1.
       -4    1    3    3    0  502 -0.26853200212E+03 -0.64690808329E+03 -0.23996199645E+03  0.74039373109E+03  0.12699999809E+01 0. -1.
</event>
<event>
 5   0  0.3975164E-04  0.1396593E+04  0.7818609E-02  0.8956289E-01
       -2   -1    0    0    0  501  0.00000000000E+00  0.00000000000E+00  0.36603353989E+03  0.36603353990E+03  0.25500000920E-02 0.  1.
        2   -1    0    0  501    0  0.00000000000E+00  0.00000000000E+00 -0.13321669730E+04  0.13321669730E+04  0.25500000920E-02 0. -1.
    10030    2    1    2    0    0  0.00000000000E+00  0.00000000000E+00 -0.96613343310E+03  0.16982005129E+04  0.13965927006E+04 0.  0.
        5    1    3    3  502    0 -0.63293130346E+03  0.27470763099E+03 -0.35250306759E+03  0.77482050830E+03  0.46999998093E+01 0. -1.
       -5    1    3    3    0  502  0.63293130346E+03 -0.27470763099E+03 -0.61363036551E+03  0.92338000460E+03  0.46999998093E+01 0.  1.
</event>
<event>
 5   0  0.4310348E-04  0.1401673E+04  0.7818609E-02  0.8952608E-01
       -2   -1    0    0    0  501  0.00000000000E+00  0.00000000000E+00  0.10050373375E+04  0.10050373375E+04  0.25500000920E-02 0. -1.
        2   -1    0    0  501    0  0.00000000000E+00  0.00000000000E+00 -0.48871024471E+03  0.48871024472E+03  0.25500000920E-02 0.  1.
    10030    2    1    2    0    0  0.00000000000E+00  0.00000000000E+00  0.51632709277E+03  0.14937475822E+04  0.14016733473E+04 0.  0.
        1    1    3    3  502    0 -0.48493575481E+03 -0.19846364863E+02  0.79695906436E+03  0.93311323792E+03  0.50400001928E-02 0. -1.
       -1    1    3    3    0  502  0.48493575481E+03  0.19846364863E+02 -0.28063197159E+03  0.56063434428E+03  0.50400001928E-02 0.  1.
</event>
<event>
 5   0  0.3975164E-04  0.1360180E+04  0.7818609E-02  0.8983158E-01
       -2   -1    0    0    0  501  0.00000000000E+00  0.00000000000E+00  0.63393240284E+03  0.63393240285E+03  0.25500000920E-02 0. -1.
        2   -1    0    0  501    0  0.00000000000E+00  0.00000000000E+00 -0.72960836337E+03  0.72960836338E+03  0.25500000920E-02 0.  1.
    10030    2    1    2    0    0  0.00000000000E+00  0.00000000000E+00 -0.95675960532E+02  0.13635407662E+04  0.13601799630E+04 0.  0.
        5    1    3    3  502    0  0.38244625379E+03 -0.45134502377E+03 -0.38411103427E+03  0.70536575205E+03  0.46999998093E+01 0.  1.
       -5    1    3    3    0  502 -0.38244625379E+03  0.45134502377E+03  0.28843507374E+03  0.65817501417E+03  0.46999998093E+01 0. -1.
</event>
<event>
 5   0  0.4310348E-04  0.1404083E+04  0.7818609E-02  0.8950868E-01
       -2   -1    0    0    0  501  0.00000000000E+00  0.00000000000E+00  0.87661198029E+03  0.87661198029E+03  0.25500000920E-02 0.  1.
        2   -1    0    0  501    0  0.00000000000E+00  0.00000000000E+00 -0.56223551397E+03  0.56223551397E+03  0.25500000920E-02 0. -1.
    10030    2    1    2    0    0  0.00000000000E+00  0.00000000000E+00  0.31437646632E+03  0.14388474943E+04  0.14040831703E+04 0.  0.
        1    1    3    3  502    0 -0.40639417911E+03  0.21085171004E+03 -0.38819921468E+03  0.60026102884E+03  0.50400001928E-02 0. -1.
       -1    1    3    3    0  502  0.40639417911E+03 -0.21085171004E+03  0.70257568100E+03  0.83858646543E+03  0.50400001928E-02 0.  1.
</event>
<event>
 5   0  0.2143942E-04  0.1382077E+04  0.7818609E-02  0.8966896E-01
        1   -1    0    0  501    0  0.00000000000E+00  0.00000000000E+00  0.42651128262E+03  0.42651128265E+03  0.50400001928E-02 0. -1.
       -1   -1    0    0    0  501  0.00000000000E+00  0.00000000000E+00 -0.11196279160E+04  0.11196279160E+04  0.50400001928E-02 0.  1.
    10030    2    1    2    0    0  0.00000000000E+00  0.00000000000E+00 -0.69311663341E+03  0.15461391987E+04  0.13820766094E+04 0.  0.
        4    1    3    3  502    0  0.52710591745E+03 -0.28241590135E+03  0.40864957236E+02  0.59939214808E+03  0.12699999809E+01 0. -1.
       -4    1    3    3    0  502 -0.52710591745E+03  0.28241590135E+03 -0.73398159064E+03  0.94674705062E+03  0.12699999809E+01 0.  1.
</event>
<event>
 5   0  0.2215876E-04  0.1395910E+04  0.7818609E-02  0.8956785E-01
       -1   -1    0    0    0  501  0.00000000000E+00  0.00000000000E+00  0.66178784681E+03  0.66178784683E+03  0.50400001928E-02 0. -1.
        1   -1    0    0  501    0  0.00000000000E+00  0.00000000000E+00 -0.73609855836E+03  0.73609855837E+03  0.50400001928E-02 0.  1.
    10030    2    1    2    0    0  0.00000000000E+00  0.00000000000E+00 -0.74310711547E+02  0.13978864052E+04  0.13959098538E+04 0.  0.
        3    1    3    3  502    0 -0.66011778453E+03 -0.54318966977E+02 -0.25754657913E+03  0.71065905345E+03  0.10100000352E+00 0.  1.
       -3    1    3    3    0  502  0.66011778453E+03  0.54318966977E+02  0.18323586758E+03  0.68722735175E+03  0.10100000352E+00 0. -1.
</event>
<event>
 5   0  0.4310348E-04  0.1403121E+04  0.7818609E-02  0.8951562E-01
       -2   -1    0    0    0  501  0.00000000000E+00  0.00000000000E+00  0.18570517302E+03  0.18570517304E+03  0.25500000920E-02 0. -1.
        2   -1    0    0  501    0  0.00000000000E+00  0.00000000000E+00 -0.26503699399E+04  0.26503699399E+04  0.25500000920E-02 0.  1.
    10030    2    1    2    0    0  0.00000000000E+00  0.00000000000E+00 -0.24646647668E+04  0.28360751129E+04  0.14031213893E+04 0.  0.
        1    1    3    3  502    0 -0.30849874389E+03 -0.40805593743E+03 -0.26190315266E+03  0.57469503604E+03  0.50400001928E-02 0. -1.
       -1    1    3    3    0  502  0.30849874389E+03  0.40805593743E+03 -0.22027616142E+04  0.22613800769E+04  0.50400001928E-02 0.  1.
</event>
<event>
 5   0  0.2155352E-04  0.1382663E+04  0.7818609E-02  0.8966465E-01
        1   -1    0    0  501    0  0.00000000000E+00  0.00000000000E+00  0.84543207978E+03  0.84543207980E+03  0.50400001928E-02 0. -1.
       -1   -1    0    0    0  501  0.00000000000E+00  0.00000000000E+00 -0.56531910473E+03  0.56531910475E+03  0.50400001928E-02 0.  1.
    10030    2    1    2    0    0  0.00000000000E+00  0.00000000000E+00  0.28011297505E+03  0.14107511845E+04  0.13826625134E+04 0.  0.
        2    1    3    3  502    0 -0.41633379295E+03  0.49481926136E+02  0.70091109345E+03  0.81673658488E+03  0.25500000920E-02 0. -1.
       -2    1    3    3    0  502  0.41633379295E+03 -0.49481926136E+02 -0.42079811839E+03  0.59401459966E+03  0.25500000920E-02 0.  1.
</event>
<event>
 5   0  0.3932568E-04  0.1404871E+04  0.7818609E-02  0.8950300E-01
       -2   -1    0    0    0  501  0.00000000000E+00  0.00000000000E+00  0.10900215897E+04  0.10900215897E+04  0.25500000920E-02 0.  1.
        2   -1    0    0  501    0  0.00000000000E+00  0.00000000000E+00 -0.45266584955E+03  0.45266584956E+03  0.25500000920E-02 0. -1.
    10030    2    1    2    0    0  0.00000000000E+00  0.00000000000E+00  0.63735574010E+03  0.15426874392E+04  0.14048708822E+04 0.  0.
        2    1    3    3  502    0  0.63545919386E+03  0.25735104898E+03  0.15078142964E+03  0.70197791204E+03  0.25500000920E-02 0. -1.
       -2    1    3    3    0  502 -0.63545919386E+03 -0.25735104898E+03  0.48657431046E+03  0.84070952717E+03  0.25500000920E-02 0.  1.
</event>
<event>
 5   0  0.2143942E-04  0.1403152E+04  0.7818609E-02  0.8951540E-01
        1   -1    0    0  501    0  0.00000000000E+00  0.00000000000E+00  0.10368869631E+04  0.10368869631E+04  0.50400001928E-02 0. -1.
       -1   -1    0    0    0  501  0.00000000000E+00  0.00000000000E+00 -0.47469874543E+03  0.47469874545E+03  0.50400001928E-02 0.  1.
    10030    2    1    2    0    0  0.00000000000E+00  0.00000000000E+00  0.56218821771E+03  0.15115857086E+04  0.14031520810E+04 0.  0.
        4    1    3    3  502    0  0.27808696750E+03  0.26994067999E+03 -0.34891311197E+03  0.52148087675E+03  0.12699999809E+01 0.  1.
       -4    1    3    3    0  502 -0.27808696750E+03 -0.26994067999E+03  0.91110132968E+03  0.99010483185E+03  0.12699999809E+01 0. -1.
</event>
<event>
 5   0  0.3975164E-04  0.1417692E+04  0.7818609E-02  0.8941111E-01
        2   -1    0    0  501    0  0.00000000000E+00  0.00000000000E+00  0.54368015796E+03  0.54368015797E+03  0.25500000920E-02 0.  1.
       -2   -1    0    0    0  501  0.00000000000E+00  0.00000000000E+00 -0.92418730777E+03  0.92418730777E+03  0.25500000920E-02 0. -1.
    10030    2    1    2    0    0  0.00000000000E+00  0.00000000000E+00 -0.38050714981E+03  0.14678674657E+04  0.14176915059E+04 0.  0.
        5    1    3    3  502    0  0.51682406767E+03  0.81328513299E+02 -0.68542549439E+03  0.86229440585E+03  0.46999998093E+01 0. -1.
       -5    1    3    3    0  502 -0.51682406767E+03 -0.81328513299E+02  0.30491834458E+03  0.60557305989E+03  0.46999998093E+01 0.  1.
</event>
<event>
 5   0  0.2143942E-04  0.1401640E+04  0.7818609E-02  0.8952633E-01
        1   -1    0    0  501    0  0.00000000000E+00  0.00000000000E+00  0.13674488692E+04  0.13674488692E+04  0.50400001928E-02 0.  1.
       -1   -1    0    0    0  501  0.00000000000E+00  0.00000000000E+00 -0.35917127094E+03  0.35917127097E+03  0.50400001928E-02 0. -1.
    10030    2    1    2    0    0  0.00000000000E+00  0.00000000000E+00  0.10082775983E+04  0.17266201402E+04  0.14016395376E+04 0.  0.
        4    1    3    3  502    0  0.65818691869E+03 -0.20894551393E+03  0.65133668379E+03  0.94926778955E+03  0.12699999809E+01 0.  1.
       -4    1    3    3    0  502 -0.65818691869E+03  0.20894551393E+03  0.35694091450E+03  0.77735235066E+03  0.12699999809E+01 0. -1.
</event>
<event>
 5   0  0.4310348E-04  0.1402194E+04  0.7818609E-02  0.8952232E-01
        2   -1    0    0  501    0  0.00000000000E+00  0.00000000000E+00  0.10879731672E+04  0.10879731672E+04  0.25500000920E-02 0.  1.
       -2   -1    0    0    0  501  0.00000000000E+00  0.00000000000E+00 -0.45179157255E+03  0.45179157256E+03  0.25500000920E-02 0. -1.
    10030    2    1    2    0    0  0.00000000000E+00  0.00000000000E+00  0.63618159460E+03  0.15397647397E+04  0.14021941493E+04 0.  0.
        1    1    3    3  502    0  0.66925093789E+03  0.17881309724E+03  0.43669779254E+03  0.81888699077E+03  0.50400001928E-02 0. -1.
       -1    1    3    3    0  502 -0.66925093789E+03 -0.17881309724E+03  0.19948380206E+03  0.72087774894E+03  0.50400001928E-02 0.  1.
</event>
<event>
 5   0  0.2155352E-04  0.1400626E+04  0.7818609E-02  0.8953366E-01
        1   -1    0    0  501    0  0.00000000000E+00  0.00000000000E+00  0.70290336091E+03  0.70290336092E+03  0.50400001928E-02 0.  1.
       -1   -1    0    0    0  501  0.00000000000E+00  0.00000000000E+00 -0.69773206385E+03  0.69773206387E+03  0.50400001928E-02 0. -1.
    10030    2    1    2    0    0  0.00000000000E+00  0.00000000000E+00  0.51712970533E+01  0.14006354248E+04  0.14006258783E+04 0.  0.
        2    1    3    3  502    0  0.50312355705E+02 -0.36081434410E+03  0.60068661413E+03  0.70252596567E+03  0.25500000920E-02 0.  1.
       -2    1    3    3    0  502 -0.50312355705E+02  0.36081434410E+03 -0.59551531707E+03  0.69810945912E+03  0.25500000920E-02 0. -1.
</event>
<event>
 5   0  0.2155352E-04  0.1408426E+04  0.7818609E-02  0.8947742E-01
       -1   -1    0    0    0  501  0.00000000000E+00  0.00000000000E+00  0.70029055437E+03  0.70029055439E+03  0.50400001928E-02 0.  1.
        1   -1    0    0  501    0  0.00000000000E+00  0.00000000000E+00 -0.70815711135E+03  0.70815711137E+03  0.50400001928E-02 0. -1.
    10030    2    1    2    0    0  0.00000000000E+00  0.00000000000E+00 -0.78665569765E+01  0.14084476658E+04  0.14084256972E+04 0.  0.
        2    1    3    3  502    0  0.92950857881E+02  0.59210669583E+03 -0.37364911389E+03  0.70628879472E+03  0.25500000920E-02 0. -1.
       -2    1    3    3    0  502 -0.92950857881E+02 -0.59210669583E+03  0.36578255691E+03  0.70215887104E+03  0.25500000920E-02 0.  1.
</event>
<event>
 5   0  0.2217251E-04  0.1395815E+04  0.7818609E-02  0.8956853E-01
       -1   -1    0    0    0  501  0.00000000000E+00  0.00000000000E+00  0.54110666892E+03  0.54110666894E+03  0.50400001928E-02 0.  1.
        1   -1    0    0  501    0  0.00000000000E+00  0.00000000000E+00 -0.90014592410E+03  0.90014592412E+03  0.50400001928E-02 0. -1.
    10030    2    1    2    0    0  0.00000000000E+00  0.00000000000E+00 -0.35903925518E+03  0.14412525931E+04  0.13958151204E+04 0.  0.
        5    1    3    3  502    0 -0.50047590072E+03 -0.95627973426E+02  0.31290302443E+03  0.59795587563E+03  0.46999998093E+01 0.  1.
       -5    1    3    3    0  502  0.50047590072E+03  0.95627973426E+02 -0.67194227961E+03  0.84329671743E+03  0.46999998093E+01 0. -1.
</event>
<event>
 5   0  0.2217251E-04  0.1400262E+04  0.7818609E-02  0.8953629E-01
        1   -1    0    0  501    0  0.00000000000E+00  0.00000000000E+00  0.74188327308E+03  0.74188327310E+03  0.50400001928E-02 0.  1.
       -1   -1    0    0    0  501  0.00000000000E+00  0.00000000000E+00 -0.66072811829E+03  0.66072811831E+03  0.50400001928E-02 0. -1.
    10030    2    1    2    0    0  0.00000000000E+00  0.00000000000E+00  0.81155154787E+02  0.14026113914E+04  0.14002616028E+04 0.  0.
        5    1    3    3  502    0 -0.33160034295E+03 -0.58250279353E+03  0.24313649997E+03  0.71302576358E+03  0.46999998093E+01 0.  1.
       -5    1    3    3    0  502  0.33160034295E+03  0.58250279353E+03 -0.16198134519E+03  0.68958562782E+03  0.46999998093E+01 0. -1.
</event>
<event>
 5   0  0.2143942E-04  0.1399768E+04  0.7818609E-02  0.8953986E-01
        1   -1    0    0  501    0  0.00000000000E+00  0.00000000000E+00  0.13706004667E+04  0.13706004667E+04  0.50400001928E-02 0.  1.
       -1   -1    0    0    0  501  0.00000000000E+00  0.00000000000E+00 -0.35738929255E+03  0.35738929258E+03  0.50400001928E-02 0. -1.
    10030    2    1    2    0    0  0.00000000000E+00  0.00000000000E+00  0.10132111741E+04  0.17279897593E+04  0.13997684540E+04 0.  0.
        4    1    3    3  502    0 -0.79295797999E+02 -0.15007218215E+03 -0.33159520150E+03  0.37251372323E+03  0.12699999809E+01 0. -1.
       -4    1    3    3    0  502  0.79295797999E+02  0.15007218215E+03  0.13448063757E+04  0.13554760361E+04  0.12699999809E+01 0.  1.
</event>
<event>
 5   0  0.4208622E-04  0.1401065E+04  0.7818609E-02  0.8953048E-01
       -2   -1    0    0    0  501  0.00000000000E+00  0.00000000000E+00  0.65964385795E+03  0.65964385796E+03  0.25500000920E-02 0. -1.
        2   -1    0    0  501    0  0.00000000000E+00  0.00000000000E+00 -0.74395597652E+03  0.74395597652E+03  0.25500000920E-02 0.  1.
    10030    2    1    2    0    0  0.00000000000E+00  0.00000000000E+00 -0.84312118564E+02  0.14035998345E+04  0.14010652954E+04 0.  0.
        4    1    3    3  502    0  0.15797224644E+03 -0.67423789127E+03  0.63829524175E+02  0.69543352359E+03  0.12699999809E+01 0. -1.
       -4    1    3    3    0  502 -0.15797224644E+03  0.67423789127E+03 -0.14814164274E+03  0.70816631089E+03  0.12699999809E+01 0.  1.
</event>
<event>
 5   0  0.4310348E-04  0.1395238E+04  0.7818609E-02  0.8957273E-01
       -2   -1    0    0    0  501  0.00000000000E+00  0.00000000000E+00  0.36247165558E+03  0.36247165559E+03  0.25500000920E-02 0.  1.
        2   -1    0    0  501    0  0.00000000000E+00  0.00000000000E+00 -0.13426489118E+04  0.13426489118E+04  0.25500000920E-02 0. -1.
    10030    2    1    2    0    0  0.00000000000E+00  0.00000000000E+00 -0.98017725625E+03  0.17051205674E+04  0.13952378635E+04 0.  0.
        1    1    3    3  502    0  0.31301459818E+03  0.62098741164E+03 -0.42238967996E+03  0.81364399208E+03  0.50400001928E-02 0. -1.
       -1    1    3    3    0  502 -0.31301459818E+03 -0.62098741164E+03 -0.55778757629E+03  0.89147657534E+03  0.50400001928E-02 0.  1.
</event>
<event>
 5   0  0.3975164E-04  0.1420711E+04  0.7818609E-02  0.8938962E-01
       -2   -1    0    0    0  501  0.00000000000E+00  0.00000000000E+00  0.37839006387E+03  0.37839006388E+03  0.25500000920E-02 0. -1.
        2   -1    0    0  501    0  0.00000000000E+00  0.00000000000E+00 -0.13335582560E+04  0.13335582560E+04  0.25500000920E-02 0.  1.
    10030    2    1    2    0    0  0.00000000000E+00  0.00000000000E+00 -0.95516819218E+03  0.17119483199E+04  0.14207113622E+04 0.  0.
        5    1    3    3  502    0 -0.25520979105E+03  0.53872611236E+02  0.31857745365E+03  0.41176204252E+03  0.46999998093E+01 0. -1.
       -5    1    3    3    0  502  0.25520979105E+03 -0.53872611236E+02 -0.12737456458E+04  0.13001862774E+04  0.46999998093E+01 0.  1.
</event>
<event>
 5   0  0.3932568E-04  0.1399164E+04  0.7818609E-02  0.8954424E-01
       -2   -1    0    0    0  501  0.00000000000E+00  0.00000000000E+00  0.89681244650E+03  0.89681244650E+03  0.25500000920E-02 0.  1.
        2   -1    0    0  501    0  0.00000000000E+00  0.00000000000E+00 -0.54572719499E+03  0.54572719499E+03  0.25500000920E-02 0. -1.
    10030    2    1    2    0    0  0.00000000000E+00  0.00000000000E+00  0.35108525151E+03  0.14425396415E+04  0.13991639516E+04 0.  0.
        2    1    3    3  502    0 -0.34234549117E+03  0.24344339779E+03  0.75230444177E+03  0.86164209296E+03  0.25500000920E-02 0.  1.
       -2    1    3    3    0  502  0.34234549117E+03 -0.24344339779E+03 -0.40121919026E+03  0.58089754853E+03  0.25500000920E-02 0. -1.
</event>
<event>
 5   0  0.2155352E-04  0.1408091E+04  0.7818609E-02  0.8947983E-01
        1   -1    0    0  501    0  0.00000000000E+00  0.00000000000E+00  0.43497945827E+03  0.43497945830E+03  0.50400001928E-02 0. -1.
       -1   -1    0    0    0  501  0.00000000000E+00  0.00000000000E+00 -0.11395480825E+04  0.11395480825E+04  0.50400001928E-02 0.  1.
    10030    2    1    2    0    0  0.00000000000E+00  0.00000000000E+00 -0.70456862426E+03  0.15745275408E+04  0.14080909170E+04 0.  0.
        2    1    3    3  502    0  0.32065026701E+03  0.47387740255E+03  0.10645535453E+03  0.58198722400E+03  0.25500000920E-02 0.  1.
       -2    1    3    3    0  502 -0.32065026701E+03 -0.47387740255E+03 -0.81102397878E+03  0.99254031684E+03  0.25500000920E-02 0. -1.
</event>
<event>
 5   0  0.2223112E-04  0.1402883E+04  0.7818609E-02  0.8951734E-01
       -1   -1    0    0    0  501  0.00000000000E+00  0.00000000000E+00  0.34165103613E+03  0.34165103617E+03  0.50400001928E-02 0. -1.
        1   -1    0    0  501    0  0.00000000000E+00  0.00000000000E+00 -0.14401251520E+04  0.14401251520E+04  0.50400001928E-02 0.  1.
    10030    2    1    2    0    0  0.00000000000E+00  0.00000000000E+00 -0.10984741158E+04  0.17817761881E+04  0.14028831033E+04 0.  0.
        1    1    3    3  502    0  0.46881571329E+02 -0.19786924154E+02  0.33930366076E+03  0.34309820507E+03  0.50400001928E-02 0. -1.
       -1    1    3    3    0  502 -0.46881571329E+02  0.19786924154E+02 -0.14377777766E+04  0.14386779831E+04  0.50400001928E-02 0.  1.
</event>
<event>
 5   0  0.3975164E-04  0.1391896E+04  0.7818609E-02  0.8959706E-01
       -2   -1    0    0    0  501  0.00000000000E+00  0.00000000000E+00  0.19415187448E+03  0.19415187449E+03  0.25500000920E-02 0.  1.
        2   -1    0    0  501    0  0.00000000000E+00  0.00000000000E+00 -0.24946625504E+04  0.24946625504E+04  0.25500000920E-02 0. -1.
    10030    2    1    2    0    0  0.00000000000E+00  0.00000000000E+00 -0.23005106759E+04  0.26888144249E+04  0.13918957006E+04 0.  0.
        5    1    3    3  502    0 -0.60836796570E+03  0.29692116949E+03 -0.14620277200E+04  0.16111551467E+04  0.46999998093E+01 0.  1.
       -5    1    3    3    0  502  0.60836796570E+03 -0.29692116949E+03 -0.83848295590E+03  0.10776592782E+04  0.46999998093E+01 0. -1.
</event>
<event>
 5   0  0.4310348E-04  0.1399840E+04  0.7818609E-02  0.8953935E-01
       -2   -1    0    0    0  501  0.00000000000E+00  0.00000000000E+00  0.55139821191E+03  0.55139821191E+03  0.25500000920E-02 0.  1.
        2   -1    0    0  501    0  0.00000000000E+00  0.00000000000E+00 -0.88844631134E+03  0.88844631134E+03  0.25500000920E-02 0. -1.
    10030    2    1    2    0    0  0.00000000000E+00  0.00000000000E+00 -0.33704809943E+03  0.14398445233E+04  0.13998395729E+04 0.  0.
        1    1    3    3  502    0  0.60185703797E+03 -0.22443644555E+02  0.19825041680E+03  0.63406532717E+03  0.50400001928E-02 0.  1.
       -1    1    3    3    0  502 -0.60185703797E+03  0.22443644555E+02 -0.53529851623E+03  0.80577919608E+03  0.50400001928E-02 0. -1.
</event>
<event>
 5   0  0.2217251E-04  0.1400135E+04  0.7818609E-02  0.8953721E-01
       -1   -1    0    0    0  501  0.00000000000E+00  0.00000000000E+00  0.89294404089E+03  0.89294404091E+03  0.50400001928E-02 0. -1.
        1   -1    0    0  501    0  0.00000000000E+00  0.00000000000E+00 -0.54885208015E+03  0.54885208018E+03  0.50400001928E-02 0.  1.
    10030    2    1    2    0    0  0.00000000000E+00  0.00000000000E+00  0.34409196074E+03  0.14417961211E+04  0.14001345569E+04 0.  0.
        5    1    3    3  502    0 -0.55303725885E+03  0.24571816787E+03 -0.19034084402E+03  0.63441260596E+03  0.46999998093E+01 0.  1.
       -5    1    3    3    0  502  0.55303725885E+03 -0.24571816787E+03  0.53443280476E+03  0.80738351513E+03  0.46999998093E+01 0. -1.
</event>
<event>
 5   0  0.2215876E-04  0.1405546E+04  0.7818609E-02  0.8949814E-01
       -1   -1    0    0    0  501  0.00000000000E+00  0.00000000000E+00  0.29189626498E+03  0.29189626502E+03  0.50400001928E-02 0.  1.
        1   -1    0    0  501    0  0.00000000000E+00  0.00000000000E+00 -0.16920048751E+04  0.16920048751E+04  0.50400001928E-02 0. -1.
    10030    2    1    2    0    0  0.00000000000E+00  0.00000000000E+00 -0.14001086101E+04  0.19839011401E+04  0.14055460198E+04 0.  0.
        3    1    3    3  502    0  0.20594129873E+03  0.61497197885E+03 -0.10821657355E+04  0.12616200072E+04  0.10100000352E+00 0. -1.
       -3    1    3    3    0  502 -0.20594129873E+03 -0.61497197885E+03 -0.31794287467E+03  0.72228113297E+03  0.10100000352E+00 0.  1.
</event>
<event>
 5   0  0.3975164E-04  0.1410477E+04  0.7818609E-02  0.8946270E-01
        2   -1    0    0  501    0  0.00000000000E+00  0.00000000000E+00  0.77993281981E+03  0.77993281981E+03  0.25500000920E-02 0. -1.
       -2   -1    0    0    0  501  0.00000000000E+00  0.00000000000E+00 -0.63769721835E+03  0.63769721835E+03  0.25500000920E-02 0.  1.
    10030    2    1    2    0    0  0.00000000000E+00  0.00000000000E+00  0.14223560146E+03  0.14176300382E+04  0.14104765006E+04 0.  0.
        5    1    3    3  502    0  0.54460740463E+02  0.53365362581E+03  0.53124610386E+03  0.75498124312E+03  0.46999998093E+01 0. -1.
       -5    1    3    3    0  502 -0.54460740463E+02 -0.53365362581E+03 -0.38901050240E+03  0.66264879504E+03  0.46999998093E+01 0.  1.
</event>
<event>
 5   0  0.2215876E-04  0.1393347E+04  0.7818609E-02  0.8958649E-01
       -1   -1    0    0    0  501  0.00000000000E+00  0.00000000000E+00  0.18198258005E+03  0.18198258012E+03  0.50400001928E-02 0.  1.
        1   -1    0    0  501    0  0.00000000000E+00  0.00000000000E+00 -0.26670340331E+04  0.26670340331E+04  0.50400001928E-02 0. -1.
    10030    2    1    2    0    0  0.00000000000E+00  0.00000000000E+00 -0.24850514530E+04  0.28490166132E+04  0.13933466683E+04 0.  0.
        3    1    3    3  502    0 -0.15344619547E+03 -0.34967124172E+03 -0.51064265914E+02  0.38525742257E+03  0.10100000352E+00 0.  1.
       -3    1    3    3    0  502  0.15344619547E+03  0.34967124172E+03 -0.24339871871E+04  0.24637591906E+04  0.10100000352E+00 0. -1.
</event>
<event>
 5   0  0.3975164E-04  0.1414715E+04  0.7818609E-02  0.8943235E-01
        2   -1    0    0  501    0  0.00000000000E+00  0.00000000000E+00  0.11213193308E+04  0.11213193308E+04  0.25500000920E-02 0.  1.
       -2   -1    0    0    0  501  0.00000000000E+00  0.00000000000E+00 -0.44621979016E+03  0.44621979017E+03  0.25500000920E-02 0. -1.
    10030    2    1    2    0    0  0.00000000000E+00  0.00000000000E+00  0.67509954061E+03  0.15675391209E+04  0.14147153445E+04 0.  0.
        5    1    3    3  502    0  0.11780728712E+03 -0.63671075779E+03  0.22096098295E+02  0.64791162480E+03  0.46999998093E+01 0.  1.
       -5    1    3    3    0  502 -0.11780728712E+03  0.63671075779E+03  0.65300344232E+03  0.91962749614E+03  0.46999998093E+01 0. -1.
</event>
<event>
 5   0  0.2155352E-04  0.1358951E+04  0.7818609E-02  0.8984080E-01
       -1   -1    0    0    0  501  0.00000000000E+00  0.00000000000E+00  0.72748169643E+03  0.72748169645E+03  0.50400001928E-02 0. -1.
        1   -1    0    0  501    0  0.00000000000E+00  0.00000000000E+00 -0.63463703092E+03  0.63463703094E+03  0.50400001928E-02 0.  1.
    10030    2    1    2    0    0  0.00000000000E+00  0.00000000000E+00  0.92844665516E+02  0.13621187274E+04  0.13589508069E+04 0.  0.
        2    1    3    3  502    0  0.23919481756E+03 -0.60942361252E+03  0.22871306623E+03  0.69348465514E+03  0.25500000920E-02 0. -1.
       -2    1    3    3    0  502 -0.23919481756E+03  0.60942361252E+03 -0.13586840072E+03  0.66863407224E+03  0.25500000920E-02 0.  1.
</event>
<event>
 5   0  0.4310348E-04  0.1402942E+04  0.7818609E-02  0.8951692E-01
       -2   -1    0    0    0  501  0.00000000000E+00  0.00000000000E+00  0.44478725165E+03  0.44478725166E+03  0.25500000920E-02 0. -1.
        2   -1    0    0  501    0  0.00000000000E+00  0.00000000000E+00 -0.11062854891E+04  0.11062854891E+04  0.25500000920E-02 0.  1.
    10030    2    1    2    0    0  0.00000000000E+00  0.00000000000E+00 -0.66149823743E+03  0.15510727408E+04  0.14029421688E+04 0.  0.
        1    1    3    3  502    0 -0.38382795897E+03  0.32304564972E+03 -0.87280107829E+03  0.10067095491E+04  0.50400001928E-02 0.  1.
       -1    1    3    3    0  502  0.38382795897E+03 -0.32304564972E+03  0.21130284085E+03  0.54436319169E+03  0.50400001928E-02 0. -1.
</event>
<event>
 5   0  0.2155352E-04  0.1391135E+04  0.7818609E-02  0.8960260E-01
        1   -1    0    0  501    0  0.00000000000E+00  0.00000000000E+00  0.57566985858E+03  0.57566985860E+03  0.50400001928E-02 0. -1.
       -1   -1    0    0    0  501  0.00000000000E+00  0.00000000000E+00 -0.84043717699E+03  0.84043717701E+03  0.50400001928E-02 0.  1.
    10030    2    1    2    0    0  0.00000000000E+00  0.00000000000E+00 -0.26476731841E+03  0.14161070356E+04  0.13911352930E+04 0.  0.
        2    1    3    3  502    0 -0.32922357468E+03 -0.32383327780E+03  0.39710548408E+03  0.60905576053E+03  0.25500000920E-02 0. -1.
       -2    1    3    3    0  502  0.32922357468E+03  0.32383327780E+03 -0.66187280249E+03  0.80705127509E+03  0.25500000920E-02 0.  1.
</event>
<event>
 5   0  0.4208622E-04  0.1389513E+04  0.7818609E-02  0.8961445E-01
        2   -1    0    0  501    0  0.00000000000E+00  0.00000000000E+00  0.12968968380E+04  0.12968968380E+04  0.25500000920E-02 0. -1.
       -2   -1    0    0    0  501  0.00000000000E+00  0.00000000000E+00 -0.37218584736E+03  0.37218584737E+03  0.25500000920E-02 0.  1.
    10030    2    1    2    0    0  0.00000000000E+00  0.00000000000E+00  0.92471099062E+03  0.16690826853E+04  0.13895130782E+04 0.  0.
        4    1    3    3  502    0 -0.16211918572E+03  0.60642884522E+03  0.10471563695E+03  0.63640046529E+03  0.12699999809E+01 0.  1.
       -4    1    3    3    0  502  0.16211918572E+03 -0.60642884522E+03  0.81999535367E+03  0.10326822201E+04  0.12699999809E+01 0. -1.
</event>
<event>
 5   0  0.2143942E-04  0.1377061E+04  0.7818609E-02  0.8970592E-01
       -1   -1    0    0    0  501  0.00000000000E+00  0.00000000000E+00  0.65090876700E+03  0.65090876701E+03  0.50400001928E-02 0.  1.
        1   -1    0    0  501    0  0.00000000000E+00  0.00000000000E+00 -0.72832717488E+03  0.72832717490E+03  0.50400001928E-02 0. -1.
    10030    2    1    2    0    0  0.00000000000E+00  0.00000000000E+00 -0.77418407883E+02  0.13792359419E+04  0.13770614269E+04 0.  0.
        4    1    3    3  502    0 -0.91246568880E+02  0.48698771610E+03  0.44015660234E+03  0.66273857550E+03  0.12699999809E+01 0.  1.
       -4    1    3    3    0  502  0.91246568880E+02 -0.48698771610E+03 -0.51757501022E+03  0.71649736641E+03  0.12699999809E+01 0. -1.
</event>
<event>
 5   0  0.2155352E-04  0.1396350E+04  0.7818609E-02  0.8956465E-01
       -1   -1    0    0    0  501  0.00000000000E+00  0.00000000000E+00  0.30426366350E+03  0.30426366354E+03  0.50400001928E-02 0. -1.
        1   -1    0    0  501    0  0.00000000000E+00  0.00000000000E+00 -0.16020585245E+04  0.16020585245E+04  0.50400001928E-02 0.  1.
    10030    2    1    2    0    0  0.00000000000E+00  0.00000000000E+00 -0.12977948610E+04  0.19063221881E+04  0.13963498070E+04 0.  0.
        2    1    3    3  502    0  0.55712750440E+03 -0.18460997030E+03 -0.11651165649E+04  0.13045951506E+04  0.25500000920E-02 0.  1.
       -2    1    3    3    0  502 -0.55712750440E+03  0.18460997030E+03 -0.13267829613E+03  0.60172703742E+03  0.25500000920E-02 0. -1.
</event>
<event>
 5   0  0.2217251E-04  0.1397684E+04  0.7818609E-02  0.8955497E-01
        1   -1    0    0  501    0  0.00000000000E+00  0.00000000000E+00  0.13250332280E+04  0.13250332280E+04  0.50400001928E-02 0.  1.
       -1   -1    0    0    0  501  0.00000000000E+00  0.00000000000E+00 -0.36857945314E+03  0.36857945317E+03  0.50400001928E-02 0. -1.
    10030    2    1    2    0    0  0.00000000000E+00  0.00000000000E+00  0.95645377489E+03  0.16936126812E+04  0.13976838306E+04 0.  0.
        5    1    3    3  502    0  0.78012578017E+02 -0.14577679685E+03 -0.34451868760E+03  0.38216757180E+03  0.46999998093E+01 0. -1.
       -5    1    3    3    0  502 -0.78012578017E+02  0.14577679685E+03  0.13009724625E+04  0.13114451094E+04  0.46999998093E+01 0.  1.
</event>
<event>
 5   0  0.2155352E-04  0.1404256E+04  0.7818609E-02  0.8950743E-01
       -1   -1    0    0    0  501  0.00000000000E+00  0.00000000000E+00  0.52531756143E+03  0.52531756145E+03  0.50400001928E-02 0. -1.
        1   -1    0    0  501    0  0.00000000000E+00  0.00000000000E+00 -0.93844944014E+03  0.93844944015E+03  0.50400001928E-02 0.  1.
    10030    2    1    2    0    0  0.00000000000E+00  0.00000000000E+00 -0.41313187871E+03  0.14637670016E+04  0.14042563462E+04 0.  0.
        2    1    3    3  502    0  0.28948296262E+03 -0.25905376430E+03  0.40309174967E+03  0.55981443095E+03  0.25500000920E-02 0. -1.
       -2    1    3    3    0  502 -0.28948296262E+03  0.25905376430E+03 -0.81622362839E+03  0.90395257065E+03  0.25500000920E-02 0.  1.
</event>
<event>
 5   0  0.2215876E-04  0.1401865E+04  0.7818609E-02  0.8952470E-01
       -1   -1    0    0    0  501  0.00000000000E+00  0.00000000000E+00  0.73281868389E+03  0.73281868391E+03  0.50400001928E-02 0. -1.
        1   -1    0    0  501    0  0.00000000000E+00  0.00000000000E+00 -0.67043360549E+03  0.67043360551E+03  0.50400001928E-02 0.  1.
    10030    2    1    2    0    0  0.00000000000E+00  0.00000000000E+00  0.62385078399E+02  0.14032522894E+04  0.14018648614E+04 0.  0.
        3    1    3    3  502    0  0.20390898836E+03  0.28813524808E+03  0.63735397209E+03  0.72857456218E+03  0.10100000352E+00 0. -1.
       -3    1    3    3    0  502 -0.20390898836E+03 -0.28813524808E+03 -0.57496889369E+03  0.67467772724E+03  0.10100000352E+00 0.  1.
</event>
<event>
 5   0  0.2217251E-04  0.1399334E+04  0.7818609E-02  0.8954301E-01
        1   -1    0    0  501    0  0.00000000000E+00  0.00000000000E+00  0.11078756697E+04  0.11078756697E+04  0.50400001928E-02 0.  1.
       -1   -1    0    0    0  501  0.00000000000E+00  0.00000000000E+00 -0.44186710624E+03  0.44186710627E+03  0.50400001928E-02 0. -1.
    10030    2    1    2    0    0  0.00000000000E+00  0.00000000000E+00  0.66600856346E+03  0.15497427760E+04  0.13993338648E+04 0.  0.
        5    1    3    3  502    0  0.34892436920E+03  0.28699664250E+03  0.92465112323E+03  0.10291341399E+04  0.46999998093E+01 0.  1.
       -5    1    3    3    0  502 -0.34892436920E+03 -0.28699664250E+03 -0.25864255977E+03  0.52060863607E+03  0.46999998093E+01 0. -1.
</event>
<event>
 5   0  0.2217251E-04  0.1405419E+04  0.7818609E-02  0.8949905E-01
        1   -1    0    0  501    0  0.00000000000E+00  0.00000000000E+00  0.89320161423E+03  0.89320161424E+03  0.50400001928E-02 0. -1.
       -1   -1    0    0    0  501  0.00000000000E+00  0.00000000000E+00 -0.55284328784E+03  0.55284328786E+03  0.50400001928E-02 0.  1.
    10030    2    1    2    0    0  0.00000000000E+00  0.00000000000E+00  0.34035832639E+03  0.14460449021E+04  0.14054188232E+04 0.  0.
        5    1    3    3  502    0  0.62750135311E+03 -0.29474298717E+02  0.49416512527E+03  0.79927964034E+03  0.46999998093E+01 0. -1.
       -5    1    3    3    0  502 -0.62750135311E+03  0.29474298717E+02 -0.15380679887E+03  0.64676526176E+03  0.46999998093E+01 0.  1.
</event>
<event>
 5   0  0.2217251E-04  0.1396290E+04  0.7818609E-02  0.8956509E-01
       -1   -1    0    0    0  501  0.00000000000E+00  0.00000000000E+00  0.45536117141E+03  0.45536117144E+03  0.50400001928E-02 0. -1.
        1   -1    0    0  501    0  0.00000000000E+00  0.00000000000E+00 -0.10703729811E+04  0.10703729811E+04  0.50400001928E-02 0.  1.
    10030    2    1    2    0    0  0.00000000000E+00  0.00000000000E+00 -0.61501180968E+03  0.15257341525E+04  0.13962897902E+04 0.  0.
        5    1    3    3  502    0 -0.98738480645E+02  0.49668385789E+03  0.21760730622E+03  0.55119794263E+03  0.46999998093E+01 0. -1.
       -5    1    3    3    0  502  0.98738480645E+02 -0.49668385789E+03 -0.83261911590E+03  0.97453620990E+03  0.46999998093E+01 0.  1.
</event>
<event>
 5   0  0.4208622E-04  0.1423098E+04  0.7818609E-02  0.8937267E-01
        2   -1    0    0  501    0  0.00000000000E+00  0.00000000000E+00  0.67688053549E+03  0.67688053550E+03  0.25500000920E-02 0.  1.
       -2   -1    0    0    0  501  0.00000000000E+00  0.00000000000E+00 -0.74799301844E+03  0.74799301844E+03  0.25500000920E-02 0. -1.
    10030    2    1    2    0    0  0.00000000000E+00  0.00000000000E+00 -0.71112482945E+02  0.14248735539E+04  0.14230979093E+04 0.  0.
        4    1    3    3  502    0 -0.37032313230E+03 -0.50233753233E+03  0.30665682144E+03  0.69535763298E+03  0.12699999809E+01 0.  1.
       -4    1    3    3    0  502  0.37032313230E+03  0.50233753233E+03 -0.37776930438E+03  0.72951592096E+03  0.12699999809E+01 0. -1.
</event>
<event>
 5   0  0.2143942E-04  0.1367364E+04  0.7818609E-02  0.8977787E-01
        1   -1    0    0  501    0  0.00000000000E+00  0.00000000000E+00  0.47869675113E+03  0.47869675115E+03  0.50400001928E-02 0. -1.
       -1   -1    0    0    0  501  0.00000000000E+00  0.00000000000E+00 -0.97644452020E+03  0.97644452021E+03  0.50400001928E-02 0.  1.
    10030    2    1    2    0    0  0.00000000000E+00  0.00000000000E+00 -0.49774776907E+03  0.14551412714E+04  0.13673636232E+04 0.  0.
        4    1    3    3  502    0  0.53635336672E+03 -0.38938949302E+03 -0.70418551566E+02  0.66652794133E+03  0.12699999809E+01 0.  1.
       -4    1    3    3    0  502 -0.53635336672E+03  0.38938949302E+03 -0.42732921750E+03  0.78861333003E+03  0.12699999809E+01 0. -1.
</event>
<event>
 5   0  0.3917598E-04  0.1409229E+04  0.7818609E-02  0.8947165E-01
       -2   -1    0    0    0  501  0.00000000000E+00  0.00000000000E+00  0.14269489040E+04  0.14269489040E+04  0.25500000920E-02 0. -1.
        2   -1    0    0  501    0  0.00000000000E+00  0.00000000000E+00 -0.34793246596E+03  0.34793246597E+03  0.25500000920E-02 0.  1.
    10030    2    1    2    0    0  0.00000000000E+00  0.00000000000E+00  0.10790164380E+04  0.17748813699E+04  0.14092293652E+04 0.  0.
        3    1    3    3  502    0 -0.14895942278E+03  0.67248338237E+03  0.35244824590E+03  0.77371996578E+03  0.10100000352E+00 0. -1.
       -3    1    3    3    0  502  0.14895942278E+03 -0.67248338237E+03  0.72656819210E+03  0.10011614042E+04  0.10100000352E+00 0.  1.
</event>
<event>
 5   0  0.4310348E-04  0.1406660E+04  0.7818609E-02  0.8949012E-01
       -2   -1    0    0    0  501  0.00000000000E+00  0.00000000000E+00  0.46609957676E+03  0.46609957676E+03  0.25500000920E-02 0. -1.
        2   -1    0    0  501    0  0.00000000000E+00  0.00000000000E+00 -0.10613029770E+04  0.10613029770E+04  0.25500000920E-02 0.  1.
    10030    2    1    2    0    0  0.00000000000E+00  0.00000000000E+00 -0.59520340025E+03  0.15274025538E+04  0.14066596865E+04 0.  0.
        1    1    3    3  502    0 -0.68547710001E+03  0.12163564814E+03 -0.18902464973E+03  0.72139060416E+03  0.50400001928E-02 0. -1.
       -1    1    3    3    0  502  0.68547710001E+03 -0.12163564814E+03 -0.40617875053E+03  0.80601194963E+03  0.50400001928E-02 0.  1.
</event>
<event>
 5   0  0.2143942E-04  0.1402550E+04  0.7818609E-02  0.8951975E-01
        1   -1    0    0  501    0  0.00000000000E+00  0.00000000000E+00  0.66340197136E+03  0.66340197138E+03  0.50400001928E-02 0.  1.
       -1   -1    0    0    0  501  0.00000000000E+00  0.00000000000E+00 -0.74131052613E+03  0.74131052615E+03  0.50400001928E-02 0. -1.
    10030    2    1    2    0    0  0.00000000000E+00  0.00000000000E+00 -0.77908554770E+02  0.14047124975E+04  0.14025503406E+04 0.  0.
        4    1    3    3  502    0  0.29995842599E+03 -0.88038123537E+02  0.58975501592E+03  0.66748659928E+03  0.12699999809E+01 0.  1.
       -4    1    3    3    0  502 -0.29995842599E+03  0.88038123537E+02 -0.66766357069E+03  0.73722589824E+03  0.12699999809E+01 0. -1.
</event>
<event>
 5   0  0.4310348E-04  0.1337660E+04  0.7818609E-02  0.9000222E-01
       -2   -1    0    0    0  501  0.00000000000E+00  0.00000000000E+00  0.35210330239E+03  0.35210330240E+03  0.25500000920E-02 0.  1.
        2   -1    0    0  501    0  0.00000000000E+00  0.00000000000E+00 -0.12704611109E+04  0.12704611109E+04  0.25500000920E-02 0. -1.
    10030    2    1    2    0    0  0.00000000000E+00  0.00000000000E+00 -0.91835780852E+03  0.16225644133E+04  0.13376599758E+04 0.  0.
        1    1    3    3  502    0 -0.41731079858E+03  0.24136247121E+03  0.10316777477E+03  0.49299871693E+03  0.50400001928E-02 0.  1.
       -1    1    3    3    0  502  0.41731079858E+03 -0.24136247121E+03 -0.10215255833E+04  0.11295656964E+04  0.50400001928E-02 0. -1.
</event>
<event>
 5   0  0.3917598E-04  0.1399020E+04  0.7818609E-02  0.8954528E-01
       -2   -1    0    0    0  501  0.00000000000E+00  0.00000000000E+00  0.50934740415E+03  0.50934740416E+03  0.25500000920E-02 0. -1.
        2   -1    0    0  501    0  0.00000000000E+00  0.00000000000E+00 -0.96066954544E+03  0.96066954544E+03  0.25500000920E-02 0.  1.
    10030    2    1    2    0    0  0.00000000000E+00  0.00000000000E+00 -0.45132214129E+03  0.14700169496E+04  0.13990204276E+04 0.  0.
        3    1    3    3  502    0  0.60722715016E+03  0.30565698933E+03 -0.52483626313E+02  0.68183982595E+03  0.10100000352E+00 0. -1.
       -3    1    3    3    0  502 -0.60722715016E+03 -0.30565698933E+03 -0.39883851498E+03  0.78817712365E+03  0.10100000352E+00 0.  1.
</event>
<event>
 5   0  0.2155352E-04  0.1398442E+04  0.7818609E-02  0.8954947E-01
       -1   -1    0    0    0  501  0.00000000000E+00  0.00000000000E+00  0.47014793387E+03  0.47014793390E+03  0.50400001928E-02 0.  1.
        1   -1    0    0  501    0  0.00000000000E+00  0.00000000000E+00 -0.10399074677E+04  0.10399074677E+04  0.50400001928E-02 0. -1.
    10030    2    1    2    0    0  0.00000000000E+00  0.00000000000E+00 -0.56975953384E+03  0.15100554016E+04  0.13984424870E+04 0.  0.
        2    1    3    3  502    0 -0.37323737767E+03 -0.56975820840E+03 -0.45554406288E+03  0.81942110625E+03  0.25500000920E-02 0. -1.
       -2    1    3    3    0  502  0.37323737767E+03  0.56975820840E+03 -0.11421547096E+03  0.69063429537E+03  0.25500000920E-02 0.  1.
</event>
<event>
 5   0  0.3917598E-04  0.1402233E+04  0.7818609E-02  0.8952204E-01
       -2   -1    0    0    0  501  0.00000000000E+00  0.00000000000E+00  0.21302534282E+03  0.21302534284E+03  0.25500000920E-02 0. -1.
        2   -1    0    0  501    0  0.00000000000E+00  0.00000000000E+00 -0.23075382199E+04  0.23075382199E+04  0.25500000920E-02 0.  1.
    10030    2    1    2    0    0  0.00000000000E+00  0.00000000000E+00 -0.20945128771E+04  0.25205635627E+04  0.14022326774E+04 0.  0.
        3    1    3    3  502    0  0.21594133889E+03  0.51007329921E+02  0.14824912833E+03  0.26685243825E+03  0.10100000352E+00 0. -1.
       -3    1    3    3    0  502 -0.21594133889E+03 -0.51007329921E+02 -0.22427620054E+04  0.22537111245E+04  0.10100000352E+00 0.  1.
</event>
<event>
 5   0  0.2143942E-04  0.1396552E+04  0.7818609E-02  0.8956318E-01
       -1   -1    0    0    0  501  0.00000000000E+00  0.00000000000E+00  0.39026822972E+03  0.39026822975E+03  0.50400001928E-02 0.  1.
        1   -1    0    0  501    0  0.00000000000E+00  0.00000000000E+00 -0.12493699346E+04  0.12493699346E+04  0.50400001928E-02 0. -1.
    10030    2    1    2    0    0  0.00000000000E+00  0.00000000000E+00 -0.85910170491E+03  0.16396381644E+04  0.13965520294E+04 0.  0.
        4    1    3    3  502    0 -0.12048820208E+03  0.50131636436E+03  0.12332158696E+03  0.53013708673E+03  0.12699999809E+01 0.  1.
       -4    1    3    3    0  502  0.12048820208E+03 -0.50131636436E+03 -0.98242329187E+03  0.11095010777E+04  0.12699999809E+01 0. -1.
</event>
<event>
 5   0  0.2155352E-04  0.1396296E+04  0.7818609E-02  0.8956504E-01
       -1   -1    0    0    0  501  0.00000000000E+00  0.00000000000E+00  0.45771811529E+03  0.45771811532E+03  0.50400001928E-02 0.  1.
        1   -1    0    0  501    0  0.00000000000E+00  0.00000000000E+00 -0.10648712973E+04  0.10648712973E+04  0.50400001928E-02 0. -1.
    10030    2    1    2    0    0  0.00000000000E+00  0.00000000000E+00 -0.60715318198E+03  0.15225894126E+04  0.13962963629E+04 0.  0.
        2    1    3    3  502    0 -0.29680729801E+02  0.19379746669E+03 -0.10342361313E+04  0.10526551093E+04  0.25500000920E-02 0. -1.
       -2    1    3    3    0  502  0.29680729801E+02 -0.19379746669E+03  0.42708294932E+03  0.46993430331E+03  0.25500000920E-02 0.  1.
</event>
<event>
 5   0  0.2223112E-04  0.1406262E+04  0.7818609E-02  0.8949298E-01
       -1   -1    0    0    0  501  0.00000000000E+00  0.00000000000E+00  0.50212588224E+03  0.50212588226E+03  0.50400001928E-02 0. -1.
        1   -1    0    0  501    0  0.00000000000E+00  0.00000000000E+00 -0.98460069636E+03  0.98460069637E+03  0.50400001928E-02 0.  1.
    10030    2    1    2    0    0  0.00000000000E+00  0.00000000000E+00 -0.48247481412E+03  0.14867265786E+04  0.14062624127E+04 0.  0.
        1    1    3    3  502    0  0.14018375130E+02 -0.26885109857E+03 -0.92795435819E+03  0.96621773889E+03  0.50400001928E-02 0.  1.
       -1    1    3    3    0  502 -0.14018375130E+02  0.26885109857E+03  0.44547954407E+03  0.52050883974E+03  0.50400001928E-02 0. -1.
</event>
<event>
 5   0  0.4310348E-04  0.1410770E+04  0.7818609E-02  0.8946060E-01
       -2   -1    0    0    0  501  0.00000000000E+00  0.00000000000E+00  0.51613867299E+03  0.51613867299E+03  0.25500000920E-02 0. -1.
        2   -1    0    0  501    0  0.00000000000E+00  0.00000000000E+00 -0.96401964918E+03  0.96401964919E+03  0.25500000920E-02 0.  1.
    10030    2    1    2    0    0  0.00000000000E+00  0.00000000000E+00 -0.44788097620E+03  0.14801583222E+04  0.14107697508E+04 0.  0.
        1    1    3    3  502    0 -0.56468703853E+03  0.16803975453E+03 -0.63090930611E+03  0.86322381985E+03  0.50400001928E-02 0.  1.
       -1    1    3    3    0  502  0.56468703853E+03 -0.16803975453E+03  0.18302832992E+03  0.61693450233E+03  0.50400001928E-02 0. -1.
</event>
<event>
 5   0  0.2223112E-04  0.1400086E+04  0.7818609E-02  0.8953756E-01
        1   -1    0    0  501    0  0.00000000000E+00  0.00000000000E+00  0.98555835050E+03  0.98555835051E+03  0.50400001928E-02 0. -1.
       -1   -1    0    0    0  501  0.00000000000E+00  0.00000000000E+00 -0.49724150012E+03  0.49724150014E+03  0.50400001928E-02 0.  1.
    10030    2    1    2    0    0  0.00000000000E+00  0.00000000000E+00  0.48831685038E+03  0.14827998507E+04  0.14000864440E+04 0.  0.
        1    1    3    3  502    0  0.58319619579E+02 -0.64068150876E+03  0.53648399526E+03  0.83766881934E+03  0.50400001928E-02 0. -1.
       -1    1    3    3    0  502 -0.58319619579E+02  0.64068150876E+03 -0.48167144875E+02  0.64513103132E+03  0.50400001928E-02 0.  1.
</event>
<event>
 5   0  0.2143942E-04  0.1397332E+04  0.7818609E-02  0.8955752E-01
        1   -1    0    0  501    0  0.00000000000E+00  0.00000000000E+00  0.13145968516E+04  0.13145968516E+04  0.50400001928E-02 0. -1.
       -1   -1    0    0    0  501  0.00000000000E+00  0.00000000000E+00 -0.37131841722E+03  0.37131841726E+03  0.50400001928E-02 0.  1.
    10030    2    1    2    0    0  0.00000000000E+00  0.00000000000E+00  0.94327843436E+03  0.16859152688E+04  0.13973317749E+04 0.  0.
        4    1    3    3  502    0  0.48060447695E+03  0.29692065977E+03  0.96762193299E+03  0.11204625650E+04  0.12699999809E+01 0. -1.
       -4    1    3    3    0  502 -0.48060447695E+03 -0.29692065977E+03 -0.24343498632E+02  0.56545270385E+03  0.12699999809E+01 0.  1.
</event>
<event>
 5   0  0.3932568E-04  0.1398251E+04  0.7818609E-02  0.8955085E-01
       -2   -1    0    0    0  501  0.00000000000E+00  0.00000000000E+00  0.36833915003E+03  0.36833915004E+03  0.25500000920E-02 0. -1.
        2   -1    0    0  501    0  0.00000000000E+00  0.00000000000E+00 -0.13269744985E+04  0.13269744985E+04  0.25500000920E-02 0.  1.
    10030    2    1    2    0    0  0.00000000000E+00  0.00000000000E+00 -0.95863534846E+03  0.16953136485E+04  0.13982512777E+04 0.  0.
        2    1    3    3  502    0 -0.15256167241E+03 -0.63043344867E+03 -0.79561512238E+03  0.10265109936E+04  0.25500000920E-02 0.  1.
       -2    1    3    3    0  502  0.15256167241E+03  0.63043344867E+03 -0.16302022608E+03  0.66880265490E+03  0.25500000920E-02 0. -1.
</event>
<event>
 5   0  0.3932568E-04  0.1403268E+04  0.7818609E-02  0.8951456E-01
        2   -1    0    0  501    0  0.00000000000E+00  0.00000000000E+00  0.20203280687E+04  0.20203280687E+04  0.25500000920E-02 0.  1.
       -2   -1    0    0    0  501  0.00000000000E+00  0.00000000000E+00 -0.24366863189E+03  0.24366863190E+03  0.25500000920E-02 0. -1.
    10030    2    1    2    0    0  0.00000000000E+00  0.00000000000E+00  0.17766594368E+04  0.22639967006E+04  0.14032684369E+04 0.  0.
        2    1    3    3  502    0 -0.49068297942E+03  0.35906707856E+03  0.32343771025E+03  0.68870233455E+03  0.25500000920E-02 0. -1.
       -2    1    3    3    0  502  0.49068297942E+03 -0.35906707856E+03  0.14532217266E+04  0.15752943661E+04  0.25500000920E-02 0.  1.
</event>
<event>
 5   0  0.1497625E-04  0.1399417E+04  0.7818609E-02  0.8954241E-01
       -4   -1    0    0    0  501  0.00000000000E+00  0.00000000000E+00  0.56417981028E+03  0.56418123970E+03  0.12699999809E+01 0.  1.
        4   -1    0    0  501    0  0.00000000000E+00  0.00000000000E+00 -0.86779103684E+03  0.86779196615E+03  0.12699999809E+01 0. -1.
    10030    2    1    2    0    0  0.00000000000E+00  0.00000000000E+00 -0.30361122656E+03  0.14319732059E+04  0.13994168376E+04 0.  0.
        3    1    3    3  502    0 -0.15204026567E+03  0.66470612800E+03 -0.31243327190E+03  0.75004335780E+03  0.10100000352E+00 0.  1.
       -3    1    3    3    0  502  0.15204026567E+03 -0.66470612800E+03  0.88220453454E+01  0.68192984805E+03  0.10100000352E+00 0. -1.
</event>
<event>
 5   0  0.4310348E-04  0.1395688E+04  0.7818609E-02  0.8956946E-01
       -2   -1    0    0    0  501  0.00000000000E+00  0.00000000000E+00  0.47130294241E+03  0.47130294242E+03  0.25500000920E-02 0.  1.
        2   -1    0    0  501    0  0.00000000000E+00  0.00000000000E+00 -0.10332765937E+04  0.10332765937E+04  0.25500000920E-02 0. -1.
    10030    2    1    2    0    0  0.00000000000E+00  0.00000000000E+00 -0.56197365125E+03  0.15045795361E+04  0.13956880725E+04 0.  0.
        1    1    3    3  502    0 -0.17089058150E+03 -0.26580121356E+03  0.38975680365E+03  0.50176114037E+03  0.50400001928E-02 0.  1.
       -1    1    3    3    0  502  0.17089058150E+03  0.26580121356E+03 -0.95173045489E+03  0.10028183957E+04  0.50400001928E-02 0. -1.
</event>
<event>
 5   0  0.2215876E-04  0.1426491E+04  0.7818609E-02  0.8934863E-01
        1   -1    0    0  501    0  0.00000000000E+00  0.00000000000E+00  0.19116858234E+04  0.19116858234E+04  0.50400001928E-02 0. -1.
       -1   -1    0    0    0  501  0.00000000000E+00  0.00000000000E+00 -0.26611034693E+03  0.26611034697E+03  0.50400001928E-02 0.  1.
    10030    2    1    2    0    0  0.00000000000E+00  0.00000000000E+00  0.16455754764E+04  0.21777961704E+04  0.14264913287E+04 0.  0.
        3    1    3    3  502    0  0.31964662585E+03 -0.51526591133E+03  0.13961500763E+04  0.15221392744E+04  0.10100000352E+00 0. -1.
       -3    1    3    3    0  502 -0.31964662585E+03  0.51526591133E+03  0.24942540010E+03  0.65565689595E+03  0.10100000352E+00 0.  1.
</event>
<event>
 5   0  0.4208622E-04  0.1401476E+04  0.7818609E-02  0.8952751E-01
       -2   -1    0    0    0  501  0.00000000000E+00  0.00000000000E+00  0.62354606036E+03  0.62354606037E+03  0.25500000920E-02 0.  1.
        2   -1    0    0  501    0  0.00000000000E+00  0.00000000000E+00 -0.78748632832E+03  0.78748632833E+03  0.25500000920E-02 0. -1.
    10030    2    1    2    0    0  0.00000000000E+00  0.00000000000E+00 -0.16394026796E+03  0.14110323887E+04  0.14014763610E+04 0.  0.
        4    1    3    3  502    0 -0.36533568795E+03  0.41779047297E+03  0.34874742797E+03  0.65547343623E+03  0.12699999809E+01 0.  1.
       -4    1    3    3    0  502  0.36533568795E+03 -0.41779047297E+03 -0.51268769593E+03  0.75555895246E+03  0.12699999809E+01 0. -1.
</event>
<event>
 5   0  0.1497625E-04  0.1400332E+04  0.7818609E-02  0.8953578E-01
       -4   -1    0    0    0  501  0.00000000000E+00  0.00000000000E+00  0.71367565077E+03  0.71367678076E+03  0.12699999809E+01 0.  1.
        4   -1    0    0  501    0  0.00000000000E+00  0.00000000000E+00 -0.68690972988E+03  0.68691090391E+03  0.12699999809E+01 0. -1.
    10030    2    1    2    0    0  0.00000000000E+00  0.00000000000E+00  0.26765920884E+02  0.14005876847E+04  0.14003319063E+04 0.  0.
        2    1    3    3  502    0  0.59816585796E+03  0.36245900304E+03  0.45845620972E+02  0.70091421977E+03  0.25500000920E-02 0. -1.
       -2    1    3    3    0  502 -0.59816585796E+03 -0.36245900304E+03 -0.19079700088E+02  0.69967346489E+03  0.25500000920E-02 0.  1.
</event>
<event>
 5   0  0.3917598E-04  0.1380300E+04  0.7818609E-02  0.8968203E-01
       -2   -1    0    0    0  501  0.00000000000E+00  0.00000000000E+00  0.89398745494E+03  0.89398745495E+03  0.25500000920E-02 0.  1.
        2   -1    0    0  501    0  0.00000000000E+00  0.00000000000E+00 -0.53278915798E+03  0.53278915799E+03  0.25500000920E-02 0. -1.
    10030    2    1    2    0    0  0.00000000000E+00  0.00000000000E+00  0.36119829696E+03  0.14267766129E+04  0.13802997115E+04 0.  0.
        3    1    3    3  502    0 -0.50575381933E+03 -0.46847002153E+03  0.14701315023E+03  0.70488578038E+03  0.10100000352E+00 0.  1.
       -3    1    3    3    0  502  0.50575381933E+03  0.46847002153E+03  0.21418514673E+03  0.72189083255E+03  0.10100000352E+00 0. -1.
</event>
<event>
 5   0  0.2223112E-04  0.1397849E+04  0.7818609E-02  0.8955377E-01
        1   -1    0    0  501    0  0.00000000000E+00  0.00000000000E+00  0.14517464226E+04  0.14517464226E+04  0.50400001928E-02 0. -1.
       -1   -1    0    0    0  501  0.00000000000E+00  0.00000000000E+00 -0.33648816525E+03  0.33648816528E+03  0.50400001928E-02 0.  1.
    10030    2    1    2    0    0  0.00000000000E+00  0.00000000000E+00  0.11152582574E+04  0.17882345879E+04  0.13978490479E+04 0.  0.
        1    1    3    3  502    0  0.24849341816E+03  0.55270486233E+03  0.11214741090E+03  0.61628620422E+03  0.50400001928E-02 0.  1.
       -1    1    3    3    0  502 -0.24849341816E+03 -0.55270486233E+03  0.10031108465E+04  0.11719483837E+04  0.50400001928E-02 0. -1.
</event>
<event>
 5   0  0.2155352E-04  0.1396324E+04  0.7818609E-02  0.8956483E-01
        1   -1    0    0  501    0  0.00000000000E+00  0.00000000000E+00  0.11573838729E+04  0.11573838729E+04  0.50400001928E-02 0. -1.
       -1   -1    0    0    0  501  0.00000000000E+00  0.00000000000E+00 -0.42114847550E+03  0.42114847553E+03  0.50400001928E-02 0.  1.
    10030    2    1    2    0    0  0.00000000000E+00  0.00000000000E+00  0.73623539741E+03  0.15785323484E+04  0.13963243945E+04 0.  0.
        2    1    3    3  502    0 -0.53903741276E+03 -0.23722995109E+02 -0.13276303237E+03  0.55565289131E+03  0.25500000920E-02 0.  1.
       -2    1    3    3    0  502  0.53903741276E+03  0.23722995109E+02  0.86899842977E+03  0.10228794571E+04  0.25500000920E-02 0. -1.
</event>
<event>
 5   0  0.2155352E-04  0.1388134E+04  0.7818609E-02  0.8962453E-01
        1   -1    0    0  501    0  0.00000000000E+00  0.00000000000E+00  0.13496037920E+04  0.13496037920E+04  0.50400001928E-02 0. -1.
       -1   -1    0    0    0  501  0.00000000000E+00  0.00000000000E+00 -0.35694120931E+03  0.35694120934E+03  0.50400001928E-02 0.  1.
    10030    2    1    2    0    0  0.00000000000E+00  0.00000000000E+00  0.99266258268E+03  0.17065450013E+04  0.13881343013E+04 0.  0.
        2    1    3    3  502    0 -0.71301710916E+02  0.68244994115E+03  0.62472565317E+03  0.92795689441E+03  0.25500000920E-02 0. -1.
       -2    1    3    3    0  502  0.71301710916E+02 -0.68244994115E+03  0.36793692951E+03  0.77858810693E+03  0.25500000920E-02 0.  1.
</event>
<event>
 5   0  0.3932568E-04  0.1397756E+04  0.7818609E-02  0.8955445E-01
       -2   -1    0    0    0  501  0.00000000000E+00  0.00000000000E+00  0.67652828287E+03  0.67652828287E+03  0.25500000920E-02 0. -1.
        2   -1    0    0  501    0  0.00000000000E+00  0.00000000000E+00 -0.72196570946E+03  0.72196570946E+03  0.25500000920E-02 0.  1.
    10030    2    1    2    0    0  0.00000000000E+00  0.00000000000E+00 -0.45437426588E+02  0.13984939923E+04  0.13977556606E+04 0.  0.
        2    1    3    3  502    0 -0.27358530205E+03  0.13702430735E+03  0.60594880395E+03  0.67882142815E+03  0.25500000920E-02 0. -1.
       -2    1    3    3    0  502  0.27358530205E+03 -0.13702430735E+03 -0.65138623054E+03  0.71967256419E+03  0.25500000920E-02 0.  1.
</event>
<event>
 5   0  0.4208622E-04  0.1401067E+04  0.7818609E-02  0.8953047E-01
       -2   -1    0    0    0  501  0.00000000000E+00  0.00000000000E+00  0.98893225908E+03  0.98893225909E+03  0.25500000920E-02 0.  1.
        2   -1    0    0  501    0  0.00000000000E+00  0.00000000000E+00 -0.49623946345E+03  0.49623946346E+03  0.25500000920E-02 0. -1.
    10030    2    1    2    0    0  0.00000000000E+00  0.00000000000E+00  0.49269279563E+03  0.14851717225E+04  0.14010670414E+04 0.  0.
        4    1    3    3  502    0 -0.68665956226E+02 -0.61177783648E+03  0.60071723194E+03  0.86014530191E+03  0.12699999809E+01 0.  1.
       -4    1    3    3    0  502  0.68665956226E+02  0.61177783648E+03 -0.10802443631E+03  0.62502642063E+03  0.12699999809E+01 0. -1.
</event>
<event>
 5   0  0.3975164E-04  0.1398555E+04  0.7818609E-02  0.8954865E-01
        2   -1    0    0  501    0  0.00000000000E+00  0.00000000000E+00  0.17182888473E+04  0.17182888473E+04  0.25500000920E-02 0. -1.
       -2   -1    0    0    0  501  0.00000000000E+00  0.00000000000E+00 -0.28457922610E+03  0.28457922612E+03  0.25500000920E-02 0.  1.
    10030    2    1    2    0    0  0.00000000000E+00  0.00000000000E+00  0.14337096212E+04  0.20028680734E+04  0.13985554124E+04 0.  0.
        5    1    3    3  502    0 -0.26113737760E+03  0.37263199245E+03 -0.43533659634E+02  0.45712646094E+03  0.46999998093E+01 0.  1.
       -5    1    3    3    0  502  0.26113737760E+03 -0.37263199245E+03  0.14772432808E+04  0.15457416124E+04  0.46999998093E+01 0. -1.
</event>
<event>
 5   0  0.2223112E-04  0.1407307E+04  0.7818609E-02  0.8948546E-01
       -1   -1    0    0    0  501  0.00000000000E+00  0.00000000000E+00  0.46352807554E+03  0.46352807556E+03  0.50400001928E-02 0.  1.
        1   -1    0    0  501    0  0.00000000000E+00  0.00000000000E+00 -0.10681730162E+04  0.10681730163E+04  0.50400001928E-02 0. -1.
    10030    2    1    2    0    0  0.00000000000E+00  0.00000000000E+00 -0.60464494070E+03  0.15317010918E+04  0.14073069070E+04 0.  0.
        1    1    3    3  502    0 -0.94885021331E+02  0.30757938474E+03  0.37870110134E+03  0.49701385230E+03  0.50400001928E-02 0.  1.
       -1    1    3    3    0  502  0.94885021331E+02 -0.30757938474E+03 -0.98334604205E+03  0.10346872395E+04  0.50400001928E-02 0. -1.
</event>
<event>
 5   0  0.2143942E-04  0.1402318E+04  0.7818609E-02  0.8952142E-01
       -1   -1    0    0    0  501  0.00000000000E+00  0.00000000000E+00  0.10065751037E+04  0.10065751037E+04  0.50400001928E-02 0. -1.
        1   -1    0    0  501    0  0.00000000000E+00  0.00000000000E+00 -0.48841282728E+03  0.48841282731E+03  0.50400001928E-02 0.  1.
    10030    2    1    2    0    0  0.00000000000E+00  0.00000000000E+00  0.51816227639E+03  0.14949879310E+04  0.14023183551E+04 0.  0.
        4    1    3    3  502    0  0.44852468989E+03 -0.21792091261E+03  0.78456242876E+03  0.92962559082E+03  0.12699999809E+01 0. -1.
       -4    1    3    3    0  502 -0.44852468989E+03  0.21792091261E+03 -0.26640015237E+03  0.56536234017E+03  0.12699999809E+01 0.  1.
</event>
<event>
 5   0  0.3932568E-04  0.1405091E+04  0.7818609E-02  0.8950142E-01
        2   -1    0    0  501    0  0.00000000000E+00  0.00000000000E+00  0.74622200532E+03  0.74622200532E+03  0.25500000920E-02 0.  1.
       -2   -1    0    0    0  501  0.00000000000E+00  0.00000000000E+00 -0.66142538420E+03  0.66142538421E+03  0.25500000920E-02 0. -1.
    10030    2    1    2    0    0  0.00000000000E+00  0.00000000000E+00  0.84796621117E+02  0.14076473895E+04  0.14050909957E+04 0.  0.
        2    1    3    3  502    0 -0.51416520621E+02  0.12011118932E+03  0.73394387340E+03  0.74548237116E+03  0.25500000920E-02 0.  1.
       -2    1    3    3    0  502  0.51416520621E+02 -0.12011118932E+03 -0.64914725229E+03  0.66216501837E+03  0.25500000920E-02 0. -1.
</event>
<event>
 5   0  0.4310348E-04  0.1390898E+04  0.7818609E-02  0.8960434E-01
       -2   -1    0    0    0  501  0.00000000000E+00  0.00000000000E+00  0.23170181409E+03  0.23170181410E+03  0.25500000920E-02 0.  1.
        2   -1    0    0  501    0  0.00000000000E+00  0.00000000000E+00 -0.20873767032E+04  0.20873767032E+04  0.25500000920E-02 0. -1.
    10030    2    1    2    0    0  0.00000000000E+00  0.00000000000E+00 -0.18556748891E+04  0.23190785173E+04  0.13908975071E+04 0.  0.
        1    1    3    3  502    0 -0.10171024026E+03  0.43614357210E+03 -0.40728311772E+02  0.44969432269E+03  0.50400001928E-02 0. -1.
       -1    1    3    3    0  502  0.10171024026E+03 -0.43614357210E+03 -0.18149465773E+04  0.18693841946E+04  0.50400001928E-02 0.  1.
</event>
<event>
 5   0  0.4310348E-04  0.1402086E+04  0.7818609E-02  0.8952310E-01
        2   -1    0    0  501    0  0.00000000000E+00  0.00000000000E+00  0.86063485289E+03  0.86063485289E+03  0.25500000920E-02 0. -1.
       -2   -1    0    0    0  501  0.00000000000E+00  0.00000000000E+00 -0.57104497238E+03  0.57104497238E+03  0.25500000920E-02 0.  1.
    10030    2    1    2    0    0  0.00000000000E+00  0.00000000000E+00  0.28958988051E+03  0.14316798253E+04  0.14020858830E+04 0.  0.
        1    1    3    3  502    0  0.60154586057E+03  0.33411976895E+03  0.79217788044E+01  0.68815419564E+03  0.50400001928E-02 0. -1.
       -1    1    3    3    0  502 -0.60154586057E+03 -0.33411976895E+03  0.28166810170E+03  0.74352562963E+03  0.50400001928E-02 0.  1.
</event>
<event>
 5   0  0.2155352E-04  0.1404406E+04  0.7818609E-02  0.8950635E-01
        1   -1    0    0  501    0  0.00000000000E+00  0.00000000000E+00  0.10320498760E+04  0.10320498760E+04  0.50400001928E-02 0.  1.
       -1   -1    0    0    0  501  0.00000000000E+00  0.00000000000E+00 -0.47777667986E+03  0.47777667989E+03  0.50400001928E-02 0. -1.
    10030    2    1    2    0    0  0.00000000000E+00  0.00000000000E+00  0.55427319609E+03  0.15098265559E+04  0.14044064415E+04 0.  0.
        2    1    3    3  502    0  0.30404909455E+03 -0.47273103308E+03 -0.17537318091E+03  0.58879218245E+03  0.25500000920E-02 0. -1.
       -2    1    3    3    0  502 -0.30404909455E+03  0.47273103308E+03  0.72964637700E+03  0.92103437341E+03  0.25500000920E-02 0.  1.
</event>
<event>
 5   0  0.3975164E-04  0.1402233E+04  0.7818609E-02  0.8952204E-01
        2   -1    0    0  501    0  0.00000000000E+00  0.00000000000E+00  0.12344661928E+04  0.12344661928E+04  0.25500000920E-02 0.  1.
       -2   -1    0    0    0  501  0.00000000000E+00  0.00000000000E+00 -0.39819994355E+03  0.39819994355E+03  0.25500000920E-02 0. -1.
    10030    2    1    2    0    0  0.00000000000E+00  0.00000000000E+00  0.83626624922E+03  0.16326661363E+04  0.14022330310E+04 0.  0.
        5    1    3    3  502    0 -0.10108939559E+03  0.52257033734E+03  0.94946133143E+03  0.10884841447E+04  0.46999998093E+01 0.  1.
       -5    1    3    3    0  502  0.10108939559E+03 -0.52257033734E+03 -0.11319508221E+03  0.54418199162E+03  0.46999998093E+01 0. -1.
</event>
<event>
 5   0  0.2143942E-04  0.1402717E+04  0.7818609E-02  0.8951854E-01
        1   -1    0    0  501    0  0.00000000000E+00  0.00000000000E+00  0.14542511412E+04  0.14542511412E+04  0.50400001928E-02 0.  1.
       -1   -1    0    0    0  501  0.00000000000E+00  0.00000000000E+00 -0.33825245120E+03  0.33825245124E+03  0.50400001928E-02 0. -1.
    10030    2    1    2    0    0  0.00000000000E+00  0.00000000000E+00  0.11159986900E+04  0.17925035924E+04  0.14027173817E+04 0.  0.
        4    1    3    3  502    0 -0.53591788965E+02  0.61058046687E+03  0.99364529492E+03  0.11674815508E+04  0.12699999809E+01 0.  1.
       -4    1    3    3    0  502  0.53591788965E+02 -0.61058046687E+03  0.12235339506E+03  0.62502204166E+03  0.12699999809E+01 0. -1.
</event>
<event>
 5   0  0.2223112E-04  0.1406711E+04  0.7818609E-02  0.8948975E-01
       -1   -1    0    0    0  501  0.00000000000E+00  0.00000000000E+00  0.45667466299E+03  0.45667466301E+03  0.50400001928E-02 0. -1.
        1   -1    0    0  501    0  0.00000000000E+00  0.00000000000E+00 -0.10832860895E+04  0.10832860895E+04  0.50400001928E-02 0.  1.
    10030    2    1    2    0    0  0.00000000000E+00  0.00000000000E+00 -0.62661142650E+03  0.15399607525E+04  0.14067114983E+04 0.  0.
        1    1    3    3  502    0 -0.62840940151E+03  0.27634451387E+03 -0.48092594338E+03  0.83818519988E+03  0.50400001928E-02 0.  1.
       -1    1    3    3    0  502  0.62840940151E+03 -0.27634451387E+03 -0.14568548313E+03  0.70177555264E+03  0.50400001928E-02 0. -1.
</event>
<event>
 5   0  0.2223112E-04  0.1402239E+04  0.7818609E-02  0.8952200E-01
        1   -1    0    0  501    0  0.00000000000E+00  0.00000000000E+00  0.14307235938E+04  0.14307235938E+04  0.50400001928E-02 0. -1.
       -1   -1    0    0    0  501  0.00000000000E+00  0.00000000000E+00 -0.34358019550E+03  0.34358019554E+03  0.50400001928E-02 0.  1.
    10030    2    1    2    0    0  0.00000000000E+00  0.00000000000E+00  0.10871433983E+04  0.17743037893E+04  0.14022386275E+04 0.  0.
        1    1    3    3  502    0 -0.36961551862E+02  0.44677068900E+03  0.12256785780E+04  0.13050893385E+04  0.50400001928E-02 0. -1.
       -1    1    3    3    0  502  0.36961551862E+02 -0.44677068900E+03 -0.13853517968E+03  0.46921445087E+03  0.50400001928E-02 0.  1.
</event>
<event>
 5   0  0.2155352E-04  0.1406092E+04  0.7818609E-02  0.8949420E-01
       -1   -1    0    0    0  501  0.00000000000E+00  0.00000000000E+00  0.46489805699E+03  0.46489805702E+03  0.50400001928E-02 0. -1.
        1   -1    0    0  501    0  0.00000000000E+00  0.00000000000E+00 -0.10631879301E+04  0.10631879301E+04  0.50400001928E-02 0.  1.
    10030    2    1    2    0    0  0.00000000000E+00  0.00000000000E+00 -0.59828987314E+03  0.15280859872E+04  0.14060924621E+04 0.  0.
        2    1    3    3  502    0 -0.19485555634E+03  0.97805629132E+02 -0.10255201713E+04  0.10484399128E+04  0.25500000920E-02 0.  1.
       -2    1    3    3    0  502  0.19485555634E+03 -0.97805629132E+02  0.42723029820E+03  0.47964607435E+03  0.25500000920E-02 0. -1.
</event>
<event>
 5   0  0.2215876E-04  0.1406063E+04  0.7818609E-02  0.8949441E-01
       -1   -1    0    0    0  501  0.00000000000E+00  0.00000000000E+00  0.24449664687E+03  0.24449664692E+03  0.50400001928E-02 0. -1.
        1   -1    0    0  501    0  0.00000000000E+00  0.00000000000E+00 -0.20215139548E+04  0.20215139548E+04  0.50400001928E-02 0.  1.
    10030    2    1    2    0    0  0.00000000000E+00  0.00000000000E+00 -0.17770173079E+04  0.22660106017E+04  0.14060631332E+04 0.  0.
        3    1    3    3  502    0 -0.36343485474E+03 -0.48326637481E+03 -0.14664914326E+04  0.15862624041E+04  0.10100000352E+00 0.  1.
       -3    1    3    3    0  502  0.36343485474E+03  0.48326637481E+03 -0.31052587530E+03  0.67974819757E+03  0.10100000352E+00 0. -1.
</event>
<event>
 5   0  0.3917598E-04  0.1396921E+04  0.7818609E-02  0.8956050E-01
        2   -1    0    0  501    0  0.00000000000E+00  0.00000000000E+00  0.15389809781E+04  0.15389809781E+04  0.25500000920E-02 0.  1.
       -2   -1    0    0    0  501  0.00000000000E+00  0.00000000000E+00 -0.31699355059E+03  0.31699355060E+03  0.25500000920E-02 0. -1.
    10030    2    1    2    0    0  0.00000000000E+00  0.00000000000E+00  0.12219874275E+04  0.18559745287E+04  0.13969209635E+04 0.  0.
        3    1    3    3  502    0  0.31566196446E+03 -0.26832557421E+03 -0.13611739187E+03  0.43608375818E+03  0.10100000352E+00 0. -1.
       -3    1    3    3    0  502 -0.31566196446E+03  0.26832557421E+03  0.13581048194E+04  0.14198907706E+04  0.10100000352E+00 0.  1.
</event>
<event>
 5   0  0.2215876E-04  0.1405120E+04  0.7818609E-02  0.8950121E-01
        1   -1    0    0  501    0  0.00000000000E+00  0.00000000000E+00  0.90400785163E+03  0.90400785165E+03  0.50400001928E-02 0.  1.
       -1   -1    0    0    0  501  0.00000000000E+00  0.00000000000E+00 -0.54600260851E+03  0.54600260853E+03  0.50400001928E-02 0. -1.
    10030    2    1    2    0    0  0.00000000000E+00  0.00000000000E+00  0.35800524312E+03  0.14500104602E+04  0.14051201303E+04 0.  0.
        3    1    3    3  502    0  0.11225074961E+03 -0.24449716771E+03  0.84874504549E+03  0.89036355397E+03  0.10100000352E+00 0.  1.
       -3    1    3    3    0  502 -0.11225074961E+03  0.24449716771E+03 -0.49073980236E+03  0.55964690621E+03  0.10100000352E+00 0. -1.
</event>
<event>
 5   0  0.4208622E-04  0.1405178E+04  0.7818609E-02  0.8950079E-01
       -2   -1    0    0    0  501  0.00000000000E+00  0.00000000000E+00  0.68460597627E+03  0.68460597627E+03  0.25500000920E-02 0.  1.
        2   -1    0    0  501    0  0.00000000000E+00  0.00000000000E+00 -0.72104451633E+03  0.72104451634E+03  0.25500000920E-02 0. -1.
    10030    2    1    2    0    0  0.00000000000E+00  0.00000000000E+00 -0.36438540069E+02  0.14056504926E+04  0.14051781169E+04 0.  0.
        4    1    3    3  502    0 -0.18646023148E+02 -0.61432538109E+03 -0.35875465997E+03  0.71165291187E+03  0.12699999809E+01 0. -1.
       -4    1    3    3    0  502  0.18646023148E+02  0.61432538109E+03  0.32231611990E+03  0.69399758074E+03  0.12699999809E+01 0.  1.
</event>
<event>
 5   0  0.3917598E-04  0.1395857E+04  0.7818609E-02  0.8956823E-01
       -2   -1    0    0    0  501  0.00000000000E+00  0.00000000000E+00  0.32597074836E+03  0.32597074837E+03  0.25500000920E-02 0.  1.
        2   -1    0    0  501    0  0.00000000000E+00  0.00000000000E+00 -0.14943186971E+04  0.14943186971E+04  0.25500000920E-02 0. -1.
    10030    2    1    2    0    0  0.00000000000E+00  0.00000000000E+00 -0.11683479488E+04  0.18202894455E+04  0.13958569898E+04 0.  0.
        3    1    3    3  502    0  0.47303856016E+02 -0.48633583289E+02 -0.14900082844E+04  0.14915520702E+04  0.10100000352E+00 0. -1.
       -3    1    3    3    0  502 -0.47303856016E+02  0.48633583289E+02  0.32166033563E+03  0.32873737533E+03  0.10100000352E+00 0.  1.
</event>
<event>
 5   0  0.3932568E-04  0.1398922E+04  0.7818609E-02  0.8954599E-01
        2   -1    0    0  501    0  0.00000000000E+00  0.00000000000E+00  0.91150286764E+03  0.91150286764E+03  0.25500000920E-02 0. -1.
       -2   -1    0    0    0  501  0.00000000000E+00  0.00000000000E+00 -0.53674616270E+03  0.53674616270E+03  0.25500000920E-02 0.  1.
    10030    2    1    2    0    0  0.00000000000E+00  0.00000000000E+00  0.37475670494E+03  0.14482490303E+04  0.13989219657E+04 0.  0.
        2    1    3    3  502    0  0.63436977140E+03 -0.22312894544E+03  0.38660657020E+03  0.77567787985E+03  0.25500000920E-02 0.  1.
       -2    1    3    3    0  502 -0.63436977140E+03  0.22312894544E+03 -0.11849865266E+02  0.67257115049E+03  0.25500000920E-02 0. -1.
</event>
<event>
 5   0  0.2217251E-04  0.1332002E+04  0.7818609E-02  0.9004565E-01
        1   -1    0    0  501    0  0.00000000000E+00  0.00000000000E+00  0.49912741877E+03  0.49912741880E+03  0.50400001928E-02 0.  1.
       -1   -1    0    0    0  501  0.00000000000E+00  0.00000000000E+00 -0.88866535825E+03  0.88866535827E+03  0.50400001928E-02 0. -1.
    10030    2    1    2    0    0  0.00000000000E+00  0.00000000000E+00 -0.38953793948E+03  0.13877927771E+04  0.13320018715E+04 0.  0.
        5    1    3    3  502    0  0.36012561907E+03 -0.17197641268E+01 -0.77844940667E+03  0.85772897109E+03  0.46999998093E+01 0. -1.
       -5    1    3    3    0  502 -0.36012561907E+03  0.17197641268E+01  0.38891146719E+03  0.53006380598E+03  0.46999998093E+01 0.  1.
</event>
<event>
 5   0  0.2223112E-04  0.1403418E+04  0.7818609E-02  0.8951348E-01
       -1   -1    0    0    0  501  0.00000000000E+00  0.00000000000E+00  0.52332852501E+03  0.52332852503E+03  0.50400001928E-02 0.  1.
        1   -1    0    0  501    0  0.00000000000E+00  0.00000000000E+00 -0.94089239644E+03  0.94089239645E+03  0.50400001928E-02 0. -1.
    10030    2    1    2    0    0  0.00000000000E+00  0.00000000000E+00 -0.41756387143E+03  0.14642209215E+04  0.14034184409E+04 0.  0.
        1    1    3    3  502    0  0.34902054274E+03 -0.65774624674E+02  0.42262700869E+03  0.55204640114E+03  0.50400001928E-02 0.  1.
       -1    1    3    3    0  502 -0.34902054274E+03  0.65774624674E+02 -0.84019088012E+03  0.91217452035E+03  0.50400001928E-02 0. -1.
</event>
<event>
 5   0  0.4310348E-04  0.1343210E+04  0.7818609E-02  0.8995984E-01
        2   -1    0    0  501    0  0.00000000000E+00  0.00000000000E+00  0.64563357583E+03  0.64563357583E+03  0.25500000920E-02 0. -1.
       -2   -1    0    0    0  501  0.00000000000E+00  0.00000000000E+00 -0.69862130995E+03  0.69862130996E+03  0.25500000920E-02 0.  1.
    10030    2    1    2    0    0  0.00000000000E+00  0.00000000000E+00 -0.52987734128E+02  0.13442548858E+04  0.13432101466E+04 0.  0.
        1    1    3    3  502    0  0.65220510427E+03  0.77891113401E+02  0.11366809401E+03  0.66660254966E+03  0.50400001928E-02 0. -1.
       -1    1    3    3    0  502 -0.65220510427E+03 -0.77891113401E+02 -0.16665582814E+03  0.67765233613E+03  0.50400001928E-02 0.  1.
</event>
<event>
 5   0  0.4208622E-04  0.1423939E+04  0.7818609E-02  0.8936670E-01
        2   -1    0    0  501    0  0.00000000000E+00  0.00000000000E+00  0.15205661318E+04  0.15205661318E+04  0.25500000920E-02 0.  1.
       -2   -1    0    0    0  501  0.00000000000E+00  0.00000000000E+00 -0.33336296762E+03  0.33336296763E+03  0.25500000920E-02 0. -1.
    10030    2    1    2    0    0  0.00000000000E+00  0.00000000000E+00  0.11872031642E+04  0.18539290995E+04  0.14239388164E+04 0.  0.
        4    1    3    3  502    0  0.13740312425E+03  0.44833496432E+03  0.12911174054E+04  0.13736337307E+04  0.12699999809E+01 0.  1.
       -4    1    3    3    0  502 -0.13740312425E+03 -0.44833496432E+03 -0.10391424120E+03  0.48029536872E+03  0.12699999809E+01 0. -1.
</event>
<event>
 5   0  0.1497625E-04  0.1400978E+04  0.7818609E-02  0.8953111E-01
       -4   -1    0    0    0  501  0.00000000000E+00  0.00000000000E+00  0.71691060473E+03  0.71691172962E+03  0.12699999809E+01 0.  1.
        4   -1    0    0  501    0  0.00000000000E+00  0.00000000000E+00 -0.68444173689E+03  0.68444291515E+03  0.12699999809E+01 0. -1.
    10030    2    1    2    0    0  0.00000000000E+00  0.00000000000E+00  0.32468867832E+02  0.14013546448E+04  0.14009784485E+04 0.  0.
        4    1    3    3  502    0 -0.55738900171E+03  0.40368038237E+03 -0.11435019102E+03  0.69765172502E+03  0.12699999809E+01 0. -1.
       -4    1    3    3    0  502  0.55738900171E+03 -0.40368038237E+03  0.14681905885E+03  0.70370291976E+03  0.12699999809E+01 0.  1.
</event>
<event>
 5   0  0.3917598E-04  0.1400321E+04  0.7818609E-02  0.8953586E-01
        2   -1    0    0  501    0  0.00000000000E+00  0.00000000000E+00  0.13209286604E+04  0.13209286604E+04  0.25500000920E-02 0. -1.
       -2   -1    0    0    0  501  0.00000000000E+00  0.00000000000E+00 -0.37112146984E+03  0.37112146984E+03  0.25500000920E-02 0.  1.
    10030    2    1    2    0    0  0.00000000000E+00  0.00000000000E+00  0.94980719055E+03  0.16920501302E+04  0.14003213717E+04 0.  0.
        3    1    3    3  502    0  0.32698747455E+03 -0.52054092593E+03  0.87990381037E+03  0.10733659161E+04  0.10100000352E+00 0. -1.
       -3    1    3    3    0  502 -0.32698747455E+03  0.52054092593E+03  0.69903380180E+02  0.61868421416E+03  0.10100000352E+00 0.  1.
</event>
<event>
 5   0  0.4208622E-04  0.1399946E+04  0.7818609E-02  0.8953858E-01
        2   -1    0    0  501    0  0.00000000000E+00  0.00000000000E+00  0.83603036488E+03  0.83603036488E+03  0.25500000920E-02 0.  1.
       -2   -1    0    0    0  501  0.00000000000E+00  0.00000000000E+00 -0.58605805500E+03  0.58605805501E+03  0.25500000920E-02 0. -1.
    10030    2    1    2    0    0  0.00000000000E+00  0.00000000000E+00  0.24997230987E+03  0.14220884199E+04  0.13999461841E+04 0.  0.
        4    1    3    3  502    0  0.44426397395E+03 -0.48788819930E+03  0.36225127858E+03  0.75275027420E+03  0.12699999809E+01 0.  1.
       -4    1    3    3    0  502 -0.44426397395E+03  0.48788819930E+03 -0.11227896871E+03  0.66933814570E+03  0.12699999809E+01 0. -1.
</event>
<event>
 5   0  0.2217251E-04  0.1399075E+04  0.7818609E-02  0.8954489E-01
        1   -1    0    0  501    0  0.00000000000E+00  0.00000000000E+00  0.61455499386E+03  0.61455499388E+03  0.50400001928E-02 0.  1.
       -1   -1    0    0    0  501  0.00000000000E+00  0.00000000000E+00 -0.79627127528E+03  0.79627127530E+03  0.50400001928E-02 0. -1.
    10030    2    1    2    0    0  0.00000000000E+00  0.00000000000E+00 -0.18171628142E+03  0.14108262692E+04  0.13990746781E+04 0.  0.
        5    1    3    3  502    0  0.21604323323E+03 -0.14937451722E+03 -0.74464251614E+03  0.78962142313E+03  0.46999998093E+01 0. -1.
       -5    1    3    3    0  502 -0.21604323323E+03  0.14937451722E+03  0.56292623472E+03  0.62120484605E+03  0.46999998093E+01 0.  1.
</event>
<event>
 5   0  0.2155352E-04  0.1402593E+04  0.7818609E-02  0.8951944E-01
       -1   -1    0    0    0  501  0.00000000000E+00  0.00000000000E+00  0.29645494290E+03  0.29645494295E+03  0.50400001928E-02 0.  1.
        1   -1    0    0  501    0  0.00000000000E+00  0.00000000000E+00 -0.16589929107E+04  0.16589929107E+04  0.50400001928E-02 0. -1.
    10030    2    1    2    0    0  0.00000000000E+00  0.00000000000E+00 -0.13625379678E+04  0.19554478536E+04  0.14025928114E+04 0.  0.
        2    1    3    3  502    0  0.51348636640E+02 -0.39560325346E+03  0.12286180736E+03  0.41741303328E+03  0.25500000920E-02 0.  1.
       -2    1    3    3    0  502 -0.51348636640E+02  0.39560325346E+03 -0.14853997751E+04  0.15380348203E+04  0.25500000920E-02 0. -1.
</event>
<event>
 5   0  0.4208622E-04  0.1399370E+04  0.7818609E-02  0.8954274E-01
        2   -1    0    0  501    0  0.00000000000E+00  0.00000000000E+00  0.78871522214E+03  0.78871522214E+03  0.25500000920E-02 0. -1.
       -2   -1    0    0    0  501  0.00000000000E+00  0.00000000000E+00 -0.62070478716E+03  0.62070478716E+03  0.25500000920E-02 0.  1.
    10030    2    1    2    0    0  0.00000000000E+00  0.00000000000E+00  0.16801043498E+03  0.14094200093E+04  0.13993703071E+04 0.  0.
        4    1    3    3  502    0 -0.24945977562E+03 -0.28930904127E+03 -0.50640236209E+03  0.63433025014E+03  0.12699999809E+01 0.  1.
       -4    1    3    3    0  502  0.24945977562E+03  0.28930904127E+03  0.67441279707E+03  0.77508975917E+03  0.12699999809E+01 0. -1.
</event>
<event>
 5   0  0.3917598E-04  0.1397736E+04  0.7818609E-02  0.8955459E-01
       -2   -1    0    0    0  501  0.00000000000E+00  0.00000000000E+00  0.73284168178E+03  0.73284168178E+03  0.25500000920E-02 0. -1.
        2   -1    0    0  501    0  0.00000000000E+00  0.00000000000E+00 -0.66646933128E+03  0.66646933128E+03  0.25500000920E-02 0.  1.
    10030    2    1    2    0    0  0.00000000000E+00  0.00000000000E+00  0.66372350499E+02  0.13993110131E+04  0.13977360346E+04 0.  0.
        3    1    3    3  502    0 -0.58926806732E+03 -0.24194045663E+03  0.32098959650E+03  0.71330664582E+03  0.10100000352E+00 0. -1.
       -3    1    3    3    0  502  0.58926806732E+03  0.24194045663E+03 -0.25461724600E+03  0.68600436724E+03  0.10100000352E+00 0.  1.
</event>
<event>
 5   0  0.1497625E-04  0.1377634E+04  0.7818609E-02  0.8970169E-01
        3   -1    0    0  501    0  0.00000000000E+00  0.00000000000E+00  0.84266248802E+03  0.84266249407E+03  0.10100000352E+00 0.  1.
       -3   -1    0    0    0  501  0.00000000000E+00  0.00000000000E+00 -0.56305948725E+03  0.56305949631E+03  0.10100000352E+00 0. -1.
    10030    2    1    2    0    0  0.00000000000E+00  0.00000000000E+00  0.27960300077E+03  0.14057219904E+04  0.13776343768E+04 0.  0.
        1    1    3    3  502    0  0.55511440531E+03 -0.34401205737E+03  0.36329407239E+03  0.74731444631E+03  0.50400001928E-02 0.  1.
       -1    1    3    3    0  502 -0.55511440531E+03  0.34401205737E+03 -0.83691071627E+02  0.65840754408E+03  0.50400001928E-02 0. -1.
</event>
<event>
 5   0  0.3932568E-04  0.1473670E+04  0.7818609E-02  0.8902154E-01
       -2   -1    0    0    0  501  0.00000000000E+00  0.00000000000E+00  0.49327045630E+03  0.49327045630E+03  0.25500000920E-02 0. -1.
        2   -1    0    0  501    0  0.00000000000E+00  0.00000000000E+00 -0.11006651775E+04  0.11006651775E+04  0.25500000920E-02 0.  1.
    10030    2    1    2    0    0  0.00000000000E+00  0.00000000000E+00 -0.60739472124E+03  0.15939356338E+04  0.14736697247E+04 0.  0.
        2    1    3    3  502    0 -0.62551106796E+03  0.18990330964E+03 -0.67144191503E+03  0.93710277367E+03  0.25500000920E-02 0.  1.
       -2    1    3    3    0  502  0.62551106796E+03 -0.18990330964E+03  0.64047193790E+02  0.65683286017E+03  0.25500000920E-02 0. -1.
</event>
<event>
 5   0  0.4208622E-04  0.1402219E+04  0.7818609E-02  0.8952214E-01
        2   -1    0    0  501    0  0.00000000000E+00  0.00000000000E+00  0.12220911313E+04  0.12220911313E+04  0.25500000920E-02 0. -1.
       -2   -1    0    0    0  501  0.00000000000E+00  0.00000000000E+00 -0.40222413416E+03  0.40222413417E+03  0.25500000920E-02 0.  1.
    10030    2    1    2    0    0  0.00000000000E+00  0.00000000000E+00  0.81986699716E+03  0.16243152655E+04  0.14022190231E+04 0.  0.
        4    1    3    3  502    0 -0.18817081491E+03 -0.67350952837E+03  0.46819475858E+03  0.84156478375E+03  0.12699999809E+01 0.  1.
       -4    1    3    3    0  502  0.18817081491E+03  0.67350952837E+03  0.35167223858E+03  0.78275048175E+03  0.12699999809E+01 0. -1.
</event>
<event>
 5   0  0.2223112E-04  0.1401030E+04  0.7818609E-02  0.8953074E-01
        1   -1    0    0  501    0  0.00000000000E+00  0.00000000000E+00  0.12831006284E+04  0.12831006284E+04  0.50400001928E-02 0.  1.
       -1   -1    0    0    0  501  0.00000000000E+00  0.00000000000E+00 -0.38244930729E+03  0.38244930733E+03  0.50400001928E-02 0. -1.
    10030    2    1    2    0    0  0.00000000000E+00  0.00000000000E+00  0.90065132109E+03  0.16655499357E+04  0.14010295451E+04 0.  0.
        1    1    3    3  502    0 -0.47144085627E+03 -0.13338968794E+03  0.10455257391E+04  0.11546312662E+04  0.50400001928E-02 0.  1.
       -1    1    3    3    0  502  0.47144085627E+03  0.13338968794E+03 -0.14487441801E+03  0.51091866949E+03  0.50400001928E-02 0. -1.
</event>
<event>
 5   0  0.3932568E-04  0.1401349E+04  0.7818609E-02  0.8952842E-01
       -2   -1    0    0    0  501  0.00000000000E+00  0.00000000000E+00  0.18781902336E+03  0.18781902338E+03  0.25500000920E-02 0. -1.
        2   -1    0    0  501    0  0.00000000000E+00  0.00000000000E+00 -0.26139260310E+04  0.26139260310E+04  0.25500000920E-02 0.  1.
    10030    2    1    2    0    0  0.00000000000E+00  0.00000000000E+00 -0.24261070076E+04  0.28017450543E+04  0.14013493987E+04 0.  0.
        2    1    3    3  502    0 -0.40684066239E+01  0.49187124162E+03 -0.21541282260E+03  0.53698841181E+03  0.25500000920E-02 0. -1.
       -2    1    3    3    0  502  0.40684066239E+01 -0.49187124162E+03 -0.22106941850E+04  0.22647566425E+04  0.25500000920E-02 0.  1.
</event>
<event>
 5   0  0.2217251E-04  0.1393087E+04  0.7818609E-02  0.8958838E-01
        1   -1    0    0  501    0  0.00000000000E+00  0.00000000000E+00  0.97536124678E+03  0.97536124680E+03  0.50400001928E-02 0. -1.
       -1   -1    0    0    0  501  0.00000000000E+00  0.00000000000E+00 -0.49742863844E+03  0.49742863846E+03  0.50400001928E-02 0.  1.
    10030    2    1    2    0    0  0.00000000000E+00  0.00000000000E+00  0.47793260835E+03  0.14727898853E+04  0.13930866692E+04 0.  0.
        5    1    3    3  502    0 -0.22908607832E+03  0.21303457093E+03 -0.41896228968E+03  0.52289162344E+03  0.46999998093E+01 0.  1.
       -5    1    3    3    0  502  0.22908607832E+03 -0.21303457093E+03  0.89689489803E+03  0.94989826182E+03  0.46999998093E+01 0. -1.
</event>
<event>
 5   0  0.2215876E-04  0.1389594E+04  0.7818609E-02  0.8961385E-01
       -1   -1    0    0    0  501  0.00000000000E+00  0.00000000000E+00  0.24563542065E+03  0.24563542070E+03  0.50400001928E-02 0. -1.
        1   -1    0    0  501    0  0.00000000000E+00  0.00000000000E+00 -0.19652823327E+04  0.19652823327E+04  0.50400001928E-02 0.  1.
    10030    2    1    2    0    0  0.00000000000E+00  0.00000000000E+00 -0.17196469120E+04  0.22109177534E+04  0.13895941171E+04 0.  0.
        3    1    3    3  502    0  0.31621859440E+02 -0.53687363795E+03 -0.15992346667E+03  0.56107822138E+03  0.10100000352E+00 0. -1.
       -3    1    3    3    0  502 -0.31621859440E+02  0.53687363795E+03 -0.15597234454E+04  0.16498395320E+04  0.10100000352E+00 0.  1.
</event>
<event>
 5   0  0.3975164E-04  0.1411195E+04  0.7818609E-02  0.8945755E-01
        2   -1    0    0  501    0  0.00000000000E+00  0.00000000000E+00  0.48980944898E+03  0.48980944899E+03  0.25500000920E-02 0.  1.
       -2   -1    0    0    0  501  0.00000000000E+00  0.00000000000E+00 -0.10164514130E+04  0.10164514130E+04  0.25500000920E-02 0. -1.
    10030    2    1    2    0    0  0.00000000000E+00  0.00000000000E+00 -0.52664196402E+03  0.15062608620E+04  0.14111945387E+04 0.  0.
        5    1    3    3  502    0 -0.12533784308E+02 -0.69709715961E+03 -0.14765146085E+03  0.71268828359E+03  0.46999998093E+01 0. -1.
       -5    1    3    3    0  502  0.12533784308E+02  0.69709715961E+03 -0.37899050317E+03  0.79357257839E+03  0.46999998093E+01 0.  1.
</event>
<event>
 5   0  0.2217251E-04  0.1391477E+04  0.7818609E-02  0.8960011E-01
        1   -1    0    0  501    0  0.00000000000E+00  0.00000000000E+00  0.56255118354E+03  0.56255118357E+03  0.50400001928E-02 0.  1.
       -1   -1    0    0    0  501  0.00000000000E+00  0.00000000000E+00 -0.86045815117E+03  0.86045815119E+03  0.50400001928E-02 0. -1.
    10030    2    1    2    0    0  0.00000000000E+00  0.00000000000E+00 -0.29790696763E+03  0.14230093348E+04  0.13914765558E+04 0.  0.
        5    1    3    3  502    0 -0.14994791196E+03 -0.66342399959E+03 -0.29860446076E+03  0.74283409555E+03  0.46999998093E+01 0. -1.
       -5    1    3    3    0  502  0.14994791196E+03  0.66342399959E+03  0.69749313101E+00  0.68017523920E+03  0.46999998093E+01 0.  1.
</event>
<event>
 5   0  0.3917598E-04  0.1382973E+04  0.7818609E-02  0.8966237E-01
        2   -1    0    0  501    0  0.00000000000E+00  0.00000000000E+00  0.20893608039E+04  0.20893608039E+04  0.25500000920E-02 0.  1.
       -2   -1    0    0    0  501  0.00000000000E+00  0.00000000000E+00 -0.22885149710E+03  0.22885149712E+03  0.25500000920E-02 0. -1.
    10030    2    1    2    0    0  0.00000000000E+00  0.00000000000E+00  0.18605093068E+04  0.23182123011E+04  0.13829726649E+04 0.  0.
        3    1    3    3  502    0 -0.44136752810E+03  0.25648002088E+03  0.14838354551E+03  0.53160604092E+03  0.10100000352E+00 0. -1.
       -3    1    3    3    0  502  0.44136752810E+03 -0.25648002088E+03  0.17121257613E+04  0.17866062601E+04  0.10100000352E+00 0.  1.
</event>
<event>
 5   0  0.2223112E-04  0.1396161E+04  0.7818609E-02  0.8956602E-01
       -1   -1    0    0    0  501  0.00000000000E+00  0.00000000000E+00  0.12687118586E+04  0.12687118586E+04  0.50400001928E-02 0.  1.
        1   -1    0    0  501    0  0.00000000000E+00  0.00000000000E+00 -0.38410334662E+03  0.38410334665E+03  0.50400001928E-02 0. -1.
    10030    2    1    2    0    0  0.00000000000E+00  0.00000000000E+00  0.88460851202E+03  0.16528152053E+04  0.13961611237E+04 0.  0.
        1    1    3    3  502    0 -0.25926657195E+03 -0.35778586592E+03  0.10821047450E+04  0.11688372686E+04  0.50400001928E-02 0.  1.
       -1    1    3    3    0  502  0.25926657195E+03  0.35778586592E+03 -0.19749623299E+03  0.48397793674E+03  0.50400001928E-02 0. -1.
</event>
<event>
 5   0  0.2217251E-04  0.1394997E+04  0.7818609E-02  0.8957448E-01
       -1   -1    0    0    0  501  0.00000000000E+00  0.00000000000E+00  0.44438855238E+03  0.44438855241E+03  0.50400001928E-02 0. -1.
        1   -1    0    0  501    0  0.00000000000E+00  0.00000000000E+00 -0.10947716123E+04  0.10947716123E+04  0.50400001928E-02 0.  1.
    10030    2    1    2    0    0  0.00000000000E+00  0.00000000000E+00 -0.65038305992E+03  0.15391601647E+04  0.13949967341E+04 0.  0.
        5    1    3    3  502    0  0.40302510974E+03  0.11517357175E+03  0.28990394076E+03  0.50966712232E+03  0.46999998093E+01 0. -1.
       -5    1    3    3    0  502 -0.40302510974E+03 -0.11517357175E+03 -0.94028700068E+03  0.10294930424E+04  0.46999998093E+01 0.  1.
</event>
<event>
 5   0  0.3917598E-04  0.1401214E+04  0.7818609E-02  0.8952940E-01
       -2   -1    0    0    0  501  0.00000000000E+00  0.00000000000E+00  0.55817659635E+03  0.55817659636E+03  0.25500000920E-02 0. -1.
        2   -1    0    0  501    0  0.00000000000E+00  0.00000000000E+00 -0.87938108298E+03  0.87938108298E+03  0.25500000920E-02 0.  1.
    10030    2    1    2    0    0  0.00000000000E+00  0.00000000000E+00 -0.32120448663E+03  0.14375576793E+04  0.14012136736E+04 0.  0.
        3    1    3    3  502    0  0.22220019972E+03 -0.66256684959E+03 -0.21171587409E+03  0.73019954839E+03  0.10100000352E+00 0.  1.
       -3    1    3    3    0  502 -0.22220019972E+03  0.66256684959E+03 -0.10948861253E+03  0.70735813094E+03  0.10100000352E+00 0. -1.
</event>
<event>
 5   0  0.3975164E-04  0.1406262E+04  0.7818609E-02  0.8949298E-01
        2   -1    0    0  501    0  0.00000000000E+00  0.00000000000E+00  0.10559837298E+04  0.10559837298E+04  0.25500000920E-02 0.  1.
       -2   -1    0    0    0  501  0.00000000000E+00  0.00000000000E+00 -0.46818253653E+03  0.46818253654E+03  0.25500000920E-02 0. -1.
    10030    2    1    2    0    0  0.00000000000E+00  0.00000000000E+00  0.58780119326E+03  0.15241662663E+04  0.14062619118E+04 0.  0.
        5    1    3    3  502    0  0.25158107943E+03  0.18553605924E+02  0.10052297281E+04  0.10364102335E+04  0.46999998093E+01 0.  1.
       -5    1    3    3    0  502 -0.25158107943E+03 -0.18553605924E+02 -0.41742853488E+03  0.48775603281E+03  0.46999998093E+01 0. -1.
</event>
<event>
 5   0  0.3975164E-04  0.1399031E+04  0.7818609E-02  0.8954520E-01
        2   -1    0    0  501    0  0.00000000000E+00  0.00000000000E+00  0.33102401972E+03  0.33102401973E+03  0.25500000920E-02 0. -1.
       -2   -1    0    0    0  501  0.00000000000E+00  0.00000000000E+00 -0.14782062471E+04  0.14782062471E+04  0.25500000920E-02 0.  1.
    10030    2    1    2    0    0  0.00000000000E+00  0.00000000000E+00 -0.11471822274E+04  0.18092302669E+04  0.13990307701E+04 0.  0.
        5    1    3    3  502    0  0.56383518876E+03 -0.37850846804E+03 -0.35673023517E+03  0.76710972562E+03  0.46999998093E+01 0. -1.
       -5    1    3    3    0  502 -0.56383518876E+03  0.37850846804E+03 -0.79045199224E+03  0.10421205413E+04  0.46999998093E+01 0.  1.
</event>
<event>
 5   0  0.2143942E-04  0.1395772E+04  0.7818609E-02  0.8956885E-01
       -1   -1    0    0    0  501  0.00000000000E+00  0.00000000000E+00  0.11996068453E+04  0.11996068453E+04  0.50400001928E-02 0. -1.
        1   -1    0    0  501    0  0.00000000000E+00  0.00000000000E+00 -0.40600355944E+03  0.40600355947E+03  0.50400001928E-02 0.  1.
    10030    2    1    2    0    0  0.00000000000E+00  0.00000000000E+00  0.79360328586E+03  0.16056104048E+04  0.13957716850E+04 0.  0.
        4    1    3    3  502    0 -0.10426757819E+03 -0.56485778169E+02 -0.39432768379E+03  0.41177458166E+03  0.12699999809E+01 0.  1.
       -4    1    3    3    0  502  0.10426757819E+03  0.56485778169E+02  0.11879309697E+04  0.11938358231E+04  0.12699999809E+01 0. -1.
</event>
<event>
 5   0  0.1497625E-04  0.1397397E+04  0.7818609E-02  0.8955705E-01
        3   -1    0    0  501    0  0.00000000000E+00  0.00000000000E+00  0.46311536670E+03  0.46311537772E+03  0.10100000352E+00 0.  1.
       -3   -1    0    0    0  501  0.00000000000E+00  0.00000000000E+00 -0.10541208567E+04  0.10541208615E+04  0.10100000352E+00 0. -1.
    10030    2    1    2    0    0  0.00000000000E+00  0.00000000000E+00 -0.59100548996E+03  0.15172362392E+04  0.13973969788E+04 0.  0.
        4    1    3    3  502    0 -0.66326196596E+03  0.62825289839E+02 -0.52406599410E+03  0.84764982841E+03  0.12699999809E+01 0. -1.
       -4    1    3    3    0  502  0.66326196596E+03 -0.62825289839E+02 -0.66939495862E+02  0.66958641081E+03  0.12699999809E+01 0.  1.
</event>
<event>
 5   0  0.2143942E-04  0.1409210E+04  0.7818609E-02  0.8947179E-01
       -1   -1    0    0    0  501  0.00000000000E+00  0.00000000000E+00  0.37426845377E+03  0.37426845381E+03  0.50400001928E-02 0.  1.
        1   -1    0    0  501    0  0.00000000000E+00  0.00000000000E+00 -0.13265024842E+04  0.13265024842E+04  0.50400001928E-02 0. -1.
    10030    2    1    2    0    0  0.00000000000E+00  0.00000000000E+00 -0.95223403041E+03  0.17007709380E+04  0.14092097555E+04 0.  0.
        4    1    3    3  502    0 -0.44404666772E+02  0.40068258561E+03  0.22132752921E+03  0.45989759396E+03  0.12699999809E+01 0.  1.
       -4    1    3    3    0  502  0.44404666772E+02 -0.40068258561E+03 -0.11735615596E+04  0.12408733440E+04  0.12699999809E+01 0. -1.
</event>
<event>
 5   0  0.2215876E-04  0.1397337E+04  0.7818609E-02  0.8955749E-01
        1   -1    0    0  501    0  0.00000000000E+00  0.00000000000E+00  0.20914419670E+04  0.20914419670E+04  0.50400001928E-02 0. -1.
       -1   -1    0    0    0  501  0.00000000000E+00  0.00000000000E+00 -0.23339754803E+03  0.23339754808E+03  0.50400001928E-02 0.  1.
    10030    2    1    2    0    0  0.00000000000E+00  0.00000000000E+00  0.18580444190E+04  0.23248395151E+04  0.13973366481E+04 0.  0.
        3    1    3    3  502    0 -0.52005060231E+02  0.65423064459E+03  0.13276845361E+04  0.14810362926E+04  0.10100000352E+00 0. -1.
       -3    1    3    3    0  502  0.52005060231E+02 -0.65423064459E+03  0.53035988290E+03  0.84380322244E+03  0.10100000352E+00 0.  1.
</event>
<event>
 5   0  0.2143942E-04  0.1408760E+04  0.7818609E-02  0.8947502E-01
       -1   -1    0    0    0  501  0.00000000000E+00  0.00000000000E+00  0.99317933688E+03  0.99317933689E+03  0.50400001928E-02 0. -1.
        1   -1    0    0  501    0  0.00000000000E+00  0.00000000000E+00 -0.49955858676E+03  0.49955858679E+03  0.50400001928E-02 0.  1.
    10030    2    1    2    0    0  0.00000000000E+00  0.00000000000E+00  0.49362075012E+03  0.14927379237E+04  0.14087601158E+04 0.  0.
        4    1    3    3  502    0 -0.24791637111E+03 -0.62900008104E+03  0.37430504230E+02  0.67713092129E+03  0.12699999809E+01 0.  1.
       -4    1    3    3    0  502  0.24791637111E+03  0.62900008104E+03  0.45619024589E+03  0.81560700240E+03  0.12699999809E+01 0. -1.
</event>
<event>
 5   0  0.3975164E-04  0.1397582E+04  0.7818609E-02  0.8955570E-01
       -2   -1    0    0    0  501  0.00000000000E+00  0.00000000000E+00  0.48821376595E+03  0.48821376595E+03  0.25500000920E-02 0. -1.
        2   -1    0    0  501    0  0.00000000000E+00  0.00000000000E+00 -0.10001954526E+04  0.10001954527E+04  0.25500000920E-02 0.  1.
    10030    2    1    2    0    0  0.00000000000E+00  0.00000000000E+00 -0.51198168670E+03  0.14884092186E+04  0.13975824679E+04 0.  0.
        5    1    3    3  502    0 -0.11953746619E+03  0.20927291617E+03 -0.95451510186E+03  0.98448236598E+03  0.46999998093E+01 0.  1.
       -5    1    3    3    0  502  0.11953746619E+03 -0.20927291617E+03  0.44253341515E+03  0.50392685262E+03  0.46999998093E+01 0. -1.
</event>
<event>
 5   0  0.3975164E-04  0.1401479E+04  0.7818609E-02  0.8952749E-01
        2   -1    0    0  501    0  0.00000000000E+00  0.00000000000E+00  0.10015887055E+04  0.10015887055E+04  0.25500000920E-02 0. -1.
       -2   -1    0    0    0  501  0.00000000000E+00  0.00000000000E+00 -0.49025669033E+03  0.49025669034E+03  0.25500000920E-02 0.  1.
    10030    2    1    2    0    0  0.00000000000E+00  0.00000000000E+00  0.51133201519E+03  0.14918453959E+04  0.14014785961E+04 0.  0.
        5    1    3    3  502    0  0.14054071330E+03  0.37619102701E+03  0.86692399048E+03  0.95543219339E+03  0.46999998093E+01 0. -1.
       -5    1    3    3    0  502 -0.14054071330E+03 -0.37619102701E+03 -0.35559197529E+03  0.53641320247E+03  0.46999998093E+01 0.  1.
</event>
<event>
 5   0  0.1497625E-04  0.1415214E+04  0.7818609E-02  0.8942879E-01
        4   -1    0    0  501    0  0.00000000000E+00  0.00000000000E+00  0.50651570232E+03  0.50651729447E+03  0.12699999809E+01 0.  1.
       -4   -1    0    0    0  501  0.00000000000E+00  0.00000000000E+00 -0.98852938541E+03  0.98853020122E+03  0.12699999809E+01 0. -1.
    10030    2    1    2    0    0  0.00000000000E+00  0.00000000000E+00 -0.48201368309E+03  0.14950474957E+04  0.14152137025E+04 0.  0.
        2    1    3    3  502    0 -0.48620032963E+03 -0.47435044973E+03 -0.31559259410E+02  0.67999639452E+03  0.25500000920E-02 0.  1.
       -2    1    3    3    0  502  0.48620032963E+03  0.47435044973E+03 -0.45045442368E+03  0.81505110117E+03  0.25500000920E-02 0. -1.
</event>
<event>
 5   0  0.2223112E-04  0.1396711E+04  0.7818609E-02  0.8956202E-01
       -1   -1    0    0    0  501  0.00000000000E+00  0.00000000000E+00  0.32503846745E+03  0.32503846749E+03  0.50400001928E-02 0.  1.
        1   -1    0    0  501    0  0.00000000000E+00  0.00000000000E+00 -0.15004400923E+04  0.15004400923E+04  0.50400001928E-02 0. -1.
    10030    2    1    2    0    0  0.00000000000E+00  0.00000000000E+00 -0.11754016248E+04  0.18254785598E+04  0.13967114922E+04 0.  0.
        1    1    3    3  502    0  0.38470629699E+03  0.35816064538E+03  0.13259655465E+02  0.52578874211E+03  0.50400001928E-02 0.  1.
       -1    1    3    3    0  502 -0.38470629699E+03 -0.35816064538E+03 -0.11886612803E+04  0.12996898177E+04  0.50400001928E-02 0. -1.
</event>
<event>
 5   0  0.4310348E-04  0.1405172E+04  0.7818609E-02  0.8950083E-01
       -2   -1    0    0    0  501  0.00000000000E+00  0.00000000000E+00  0.96497545561E+03  0.96497545562E+03  0.25500000920E-02 0. -1.
        2   -1    0    0  501    0  0.00000000000E+00  0.00000000000E+00 -0.51154345761E+03  0.51154345762E+03  0.25500000920E-02 0.  1.
    10030    2    1    2    0    0  0.00000000000E+00  0.00000000000E+00  0.45343199800E+03  0.14765189132E+04  0.14051717064E+04 0.  0.
        1    1    3    3  502    0 -0.66797499240E+03  0.21245881458E+03  0.27708245740E+03  0.75372675857E+03  0.50400001928E-02 0. -1.
       -1    1    3    3    0  502  0.66797499240E+03 -0.21245881458E+03  0.17634954060E+03  0.72279215467E+03  0.50400001928E-02 0.  1.
</event>
<event>
 5   0  0.4310348E-04  0.1397877E+04  0.7818609E-02  0.8955357E-01
        2   -1    0    0  501    0  0.00000000000E+00  0.00000000000E+00  0.20559380668E+04  0.20559380668E+04  0.25500000920E-02 0.  1.
       -2   -1    0    0    0  501  0.00000000000E+00  0.00000000000E+00 -0.23761179168E+03  0.23761179169E+03  0.25500000920E-02 0. -1.
    10030    2    1    2    0    0  0.00000000000E+00  0.00000000000E+00  0.18183262751E+04  0.22935498585E+04  0.13978771443E+04 0.  0.
        1    1    3    3  502    0 -0.10288633835E+03 -0.60062255361E+03  0.34750794634E+03  0.70149470655E+03  0.50400001928E-02 0. -1.
       -1    1    3    3    0  502  0.10288633835E+03  0.60062255361E+03  0.14708183288E+04  0.15920551520E+04  0.50400001928E-02 0.  1.
</event>
<event>
 5   0  0.2215876E-04  0.1397505E+04  0.7818609E-02  0.8955626E-01
       -1   -1    0    0    0  501  0.00000000000E+00  0.00000000000E+00  0.14060606323E+04  0.14060606323E+04  0.50400001928E-02 0. -1.
        1   -1    0    0  501    0  0.00000000000E+00  0.00000000000E+00 -0.34725050787E+03  0.34725050791E+03  0.50400001928E-02 0.  1.
    10030    2    1    2    0    0  0.00000000000E+00  0.00000000000E+00  0.10588101244E+04  0.17533111402E+04  0.13975053040E+04 0.  0.
        3    1    3    3  502    0  0.59316258658E+03  0.33500141898E+03  0.33428559453E+03  0.75882453423E+03  0.10100000352E+00 0. -1.
       -3    1    3    3    0  502 -0.59316258658E+03 -0.33500141898E+03  0.72452452988E+03  0.99448660596E+03  0.10100000352E+00 0.  1.
</event>
<event>
 5   0  0.4208622E-04  0.1401014E+04  0.7818609E-02  0.8953085E-01
       -2   -1    0    0    0  501  0.00000000000E+00  0.00000000000E+00  0.82980548541E+03  0.82980548541E+03  0.25500000920E-02 0. -1.
        2   -1    0    0  501    0  0.00000000000E+00  0.00000000000E+00 -0.59135515425E+03  0.59135515425E+03  0.25500000920E-02 0.  1.
    10030    2    1    2    0    0  0.00000000000E+00  0.00000000000E+00  0.23845033116E+03  0.14211606397E+04  0.14010135629E+04 0.  0.
        4    1    3    3  502    0  0.56717611125E+03  0.32816980381E+03 -0.13197272371E+03  0.66843292409E+03  0.12699999809E+01 0.  1.
       -4    1    3    3    0  502 -0.56717611125E+03 -0.32816980381E+03  0.37042305487E+03  0.75272771557E+03  0.12699999809E+01 0. -1.
</event>
<event>
 5   0  0.2155352E-04  0.1413851E+04  0.7818609E-02  0.8943853E-01
        1   -1    0    0  501    0  0.00000000000E+00  0.00000000000E+00  0.81945364276E+03  0.81945364277E+03  0.50400001928E-02 0.  1.
       -1   -1    0    0    0  501  0.00000000000E+00  0.00000000000E+00 -0.60985013843E+03  0.60985013845E+03  0.50400001928E-02 0. -1.
    10030    2    1    2    0    0  0.00000000000E+00  0.00000000000E+00  0.20960350433E+03  0.14293037812E+04  0.14138513606E+04 0.  0.
        2    1    3    3  502    0 -0.97428505308E+02 -0.61549642860E+03 -0.23263632139E+03  0.66516751672E+03  0.25500000920E-02 0.  1.
       -2    1    3    3    0  502  0.97428505308E+02  0.61549642860E+03  0.44223982572E+03  0.76413626450E+03  0.25500000920E-02 0. -1.
</event>
<event>
 5   0  0.3932568E-04  0.1400640E+04  0.7818609E-02  0.8953356E-01
        2   -1    0    0  501    0  0.00000000000E+00  0.00000000000E+00  0.92710085939E+03  0.92710085940E+03  0.25500000920E-02 0.  1.
       -2   -1    0    0    0  501  0.00000000000E+00  0.00000000000E+00 -0.52901250497E+03  0.52901250498E+03  0.25500000920E-02 0. -1.
    10030    2    1    2    0    0  0.00000000000E+00  0.00000000000E+00  0.39808835442E+03  0.14561133644E+04  0.14006397795E+04 0.  0.
        2    1    3    3  502    0 -0.64665508125E+03  0.12131073749E+02  0.47826689683E+03  0.80439367331E+03  0.25500000920E-02 0.  1.
       -2    1    3    3    0  502  0.64665508125E+03 -0.12131073749E+02 -0.80178542415E+02  0.65171969107E+03  0.25500000920E-02 0. -1.
</event>
<event>
 5   0  0.2223112E-04  0.1434971E+04  0.7818609E-02  0.8928886E-01
       -1   -1    0    0    0  501  0.00000000000E+00  0.00000000000E+00  0.58294044287E+03  0.58294044289E+03  0.50400001928E-02 0.  1.
        1   -1    0    0  501    0  0.00000000000E+00  0.00000000000E+00 -0.88308434603E+03  0.88308434605E+03  0.50400001928E-02 0. -1.
    10030    2    1    2    0    0  0.00000000000E+00  0.00000000000E+00 -0.30014390317E+03  0.14660247889E+04  0.14349711911E+04 0.  0.
        1    1    3    3  502    0  0.32955527780E+03  0.35226513301E+03  0.39254152019E+03  0.62192141800E+03  0.50400001928E-02 0.  1.
       -1    1    3    3    0  502 -0.32955527780E+03 -0.35226513301E+03 -0.69268542336E+03  0.84410337093E+03  0.50400001928E-02 0. -1.
</event>
<event>
 5   0  0.3932568E-04  0.1441614E+04  0.7818609E-02  0.8924235E-01
       -2   -1    0    0    0  501  0.00000000000E+00  0.00000000000E+00  0.75939136318E+03  0.75939136319E+03  0.25500000920E-02 0. -1.
        2   -1    0    0  501    0  0.00000000000E+00  0.00000000000E+00 -0.68418308704E+03  0.68418308704E+03  0.25500000920E-02 0.  1.
    10030    2    1    2    0    0  0.00000000000E+00  0.00000000000E+00  0.75208276144E+02  0.14435744502E+04  0.14416139943E+04 0.  0.
        2    1    3    3  502    0  0.60978297661E+03  0.34636042568E+03 -0.12924148654E+03  0.71309479376E+03  0.25500000920E-02 0.  1.
       -2    1    3    3    0  502 -0.60978297661E+03 -0.34636042568E+03  0.20444976269E+03  0.73047965647E+03  0.25500000920E-02 0. -1.
</event>
<event>
 5   0  0.3975164E-04  0.1400059E+04  0.7818609E-02  0.8953776E-01
       -2   -1    0    0    0  501  0.00000000000E+00  0.00000000000E+00  0.25797909583E+03  0.25797909584E+03  0.25500000920E-02 0. -1.
        2   -1    0    0  501    0  0.00000000000E+00  0.00000000000E+00 -0.18995391484E+04  0.18995391484E+04  0.25500000920E-02 0.  1.
    10030    2    1    2    0    0  0.00000000000E+00  0.00000000000E+00 -0.16415600525E+04  0.21575182442E+04  0.14000591302E+04 0.  0.
        5    1    3    3  502    0  0.34025552747E+03  0.59155398020E+03 -0.10610474656E+04  0.12615679727E+04  0.46999998093E+01 0. -1.
       -5    1    3    3    0  502 -0.34025552747E+03 -0.59155398020E+03 -0.58051258696E+03  0.89595027154E+03  0.46999998093E+01 0.  1.
</event>
<event>
 5   0  0.3975164E-04  0.1396865E+04  0.7818609E-02  0.8956091E-01
       -2   -1    0    0    0  501  0.00000000000E+00  0.00000000000E+00  0.86197791043E+03  0.86197791044E+03  0.25500000920E-02 0. -1.
        2   -1    0    0  501    0  0.00000000000E+00  0.00000000000E+00 -0.56591678897E+03  0.56591678897E+03  0.25500000920E-02 0.  1.
    10030    2    1    2    0    0  0.00000000000E+00  0.00000000000E+00  0.29606112147E+03  0.14278946994E+04  0.13968647340E+04 0.  0.
        5    1    3    3  502    0 -0.39734369854E+03 -0.11210300586E+03  0.72387065261E+03  0.83334261286E+03  0.46999998093E+01 0. -1.
       -5    1    3    3    0  502  0.39734369854E+03  0.11210300586E+03 -0.42780953114E+03  0.59455208656E+03  0.46999998093E+01 0.  1.
</event>
<event>
 5   0  0.1497625E-04  0.1415299E+04  0.7818609E-02  0.8942818E-01
        4   -1    0    0  501    0  0.00000000000E+00  0.00000000000E+00  0.13883468566E+04  0.13883474375E+04  0.12699999809E+01 0.  1.
       -4   -1    0    0    0  501  0.00000000000E+00  0.00000000000E+00 -0.36069187892E+03  0.36069411476E+03  0.12699999809E+01 0. -1.
    10030    2    1    2    0    0  0.00000000000E+00  0.00000000000E+00  0.10276549777E+04  0.17490415522E+04  0.14152991197E+04 0.  0.
        3    1    3    3  502    0  0.26569935088E+03  0.24918239627E+03  0.12635886312E+04  0.13150453417E+04  0.10100000352E+00 0.  1.
       -3    1    3    3    0  502 -0.26569935088E+03 -0.24918239627E+03 -0.23593365353E+03  0.43399621051E+03  0.10100000352E+00 0. -1.
</event>
<event>
 5   0  0.2215876E-04  0.1397464E+04  0.7818609E-02  0.8955656E-01
       -1   -1    0    0    0  501  0.00000000000E+00  0.00000000000E+00  0.50473549580E+03  0.50473549583E+03  0.50400001928E-02 0. -1.
        1   -1    0    0  501    0  0.00000000000E+00  0.00000000000E+00 -0.96729176604E+03  0.96729176606E+03  0.50400001928E-02 0.  1.
    10030    2    1    2    0    0  0.00000000000E+00  0.00000000000E+00 -0.46255627024E+03  0.14720272619E+04  0.13974641164E+04 0.  0.
        3    1    3    3  502    0 -0.26865676078E+03  0.53948710702E+03 -0.60370122278E+03  0.85304042714E+03  0.10100000352E+00 0.  1.
       -3    1    3    3    0  502  0.26865676078E+03 -0.53948710702E+03  0.14114495254E+03  0.61898683474E+03  0.10100000352E+00 0. -1.
</event>
<event>
 5   0  0.2215876E-04  0.1401195E+04  0.7818609E-02  0.8952954E-01
        1   -1    0    0  501    0  0.00000000000E+00  0.00000000000E+00  0.12552854232E+04  0.12552854232E+04  0.50400001928E-02 0.  1.
       -1   -1    0    0    0  501  0.00000000000E+00  0.00000000000E+00 -0.39101600273E+03  0.39101600276E+03  0.50400001928E-02 0. -1.
    10030    2    1    2    0    0  0.00000000000E+00  0.00000000000E+00  0.86426942044E+03  0.16463014259E+04  0.14011947595E+04 0.  0.
        3    1    3    3  502    0 -0.51983385381E+03 -0.12855749850E+03 -0.98644176895E+02  0.54450431571E+03  0.10100000352E+00 0. -1.
       -3    1    3    3    0  502  0.51983385381E+03  0.12855749850E+03  0.96291359733E+03  0.11017971102E+04  0.10100000352E+00 0.  1.
</event>
<event>
 5   0  0.2215876E-04  0.1393975E+04  0.7818609E-02  0.8958191E-01
       -1   -1    0    0    0  501  0.00000000000E+00  0.00000000000E+00  0.31523951057E+03  0.31523951061E+03  0.50400001928E-02 0.  1.
        1   -1    0    0  501    0  0.00000000000E+00  0.00000000000E+00 -0.15410248436E+04  0.15410248436E+04  0.50400001928E-02 0. -1.
    10030    2    1    2    0    0  0.00000000000E+00  0.00000000000E+00 -0.12257853330E+04  0.18562643542E+04  0.13939754912E+04 0.  0.
        3    1    3    3  502    0  0.15869388211E+03  0.38464514135E+03  0.13169915408E+03  0.43644050038E+03  0.10100000352E+00 0.  1.
       -3    1    3    3    0  502 -0.15869388211E+03 -0.38464514135E+03 -0.13574844871E+04  0.14198238538E+04  0.10100000352E+00 0. -1.
</event>
<event>
 5   0  0.4310348E-04  0.1410291E+04  0.7818609E-02  0.8946403E-01
        2   -1    0    0  501    0  0.00000000000E+00  0.00000000000E+00  0.65337380300E+03  0.65337380301E+03  0.25500000920E-02 0. -1.
       -2   -1    0    0    0  501  0.00000000000E+00  0.00000000000E+00 -0.76101956826E+03  0.76101956826E+03  0.25500000920E-02 0.  1.
    10030    2    1    2    0    0  0.00000000000E+00  0.00000000000E+00 -0.10764576526E+03  0.14143933713E+04  0.14102911040E+04 0.  0.
        1    1    3    3  502    0 -0.33394079166E+03 -0.40994481848E+02 -0.67532964656E+03  0.75449793335E+03  0.50400001928E-02 0.  1.
       -1    1    3    3    0  502  0.33394079166E+03  0.40994481848E+02  0.56768388130E+03  0.65989543792E+03  0.50400001928E-02 0. -1.
</event>
<event>
 5   0  0.2217251E-04  0.1404690E+04  0.7818609E-02  0.8950431E-01
        1   -1    0    0  501    0  0.00000000000E+00  0.00000000000E+00  0.47804409245E+03  0.47804409247E+03  0.50400001928E-02 0. -1.
       -1   -1    0    0    0  501  0.00000000000E+00  0.00000000000E+00 -0.10318884758E+04  0.10318884758E+04  0.50400001928E-02 0.  1.
    10030    2    1    2    0    0  0.00000000000E+00  0.00000000000E+00 -0.55384438333E+03  0.15099325683E+04  0.14046895599E+04 0.  0.
        5    1    3    3  502    0 -0.41556455518E+03  0.42764432301E+03  0.12194874530E+03  0.60866012930E+03  0.46999998093E+01 0. -1.
       -5    1    3    3    0  502  0.41556455518E+03 -0.42764432301E+03 -0.67579312863E+03  0.90127243896E+03  0.46999998093E+01 0.  1.
</event>
<event>
 5   0  0.3917598E-04  0.1402835E+04  0.7818609E-02  0.8951769E-01
       -2   -1    0    0    0  501  0.00000000000E+00  0.00000000000E+00  0.70075174176E+03  0.70075174176E+03  0.25500000920E-02 0.  1.
        2   -1    0    0  501    0  0.00000000000E+00  0.00000000000E+00 -0.70208435171E+03  0.70208435172E+03  0.25500000920E-02 0. -1.
    10030    2    1    2    0    0  0.00000000000E+00  0.00000000000E+00 -0.13326099535E+01  0.14028360935E+04  0.14028354605E+04 0.  0.
        3    1    3    3  502    0 -0.12289018671E+03 -0.86512498569E+02 -0.68579463990E+03  0.70206887747E+03  0.10100000352E+00 0. -1.
       -3    1    3    3    0  502  0.12289018671E+03  0.86512498569E+02  0.68446202994E+03  0.70076721601E+03  0.10100000352E+00 0.  1.
</event>
<event>
 5   0  0.3917598E-04  0.1397560E+04  0.7818609E-02  0.8955587E-01
       -2   -1    0    0    0  501  0.00000000000E+00  0.00000000000E+00  0.68368259168E+03  0.68368259168E+03  0.25500000920E-02 0.  1.
        2   -1    0    0  501    0  0.00000000000E+00  0.00000000000E+00 -0.71421075716E+03  0.71421075717E+03  0.25500000920E-02 0. -1.
    10030    2    1    2    0    0  0.00000000000E+00  0.00000000000E+00 -0.30528165482E+02  0.13978933489E+04  0.13975599615E+04 0.  0.
        3    1    3    3  502    0 -0.11416448607E+03 -0.68161351017E+03 -0.11855024849E+03  0.70120230942E+03  0.10100000352E+00 0.  1.
       -3    1    3    3    0  502  0.11416448607E+03  0.68161351017E+03  0.88022083008E+02  0.69669103943E+03  0.10100000352E+00 0. -1.
</event>
<event>
 5   0  0.3932568E-04  0.1399395E+04  0.7818609E-02  0.8954256E-01
       -2   -1    0    0    0  501  0.00000000000E+00  0.00000000000E+00  0.51930211024E+03  0.51930211024E+03  0.25500000920E-02 0.  1.
        2   -1    0    0  501    0  0.00000000000E+00  0.00000000000E+00 -0.94275931375E+03  0.94275931375E+03  0.25500000920E-02 0. -1.
    10030    2    1    2    0    0  0.00000000000E+00  0.00000000000E+00 -0.42345720351E+03  0.14620614240E+04  0.13993954424E+04 0.  0.
        2    1    3    3  502    0 -0.15239885801E+03  0.60950900904E+03  0.11004056026E+03  0.63783663185E+03  0.25500000920E-02 0.  1.
       -2    1    3    3    0  502  0.15239885801E+03 -0.60950900904E+03 -0.53349776377E+03  0.82422479214E+03  0.25500000920E-02 0. -1.
</event>
<event>
 5   0  0.2155352E-04  0.1399224E+04  0.7818609E-02  0.8954380E-01
        1   -1    0    0  501    0  0.00000000000E+00  0.00000000000E+00  0.36125305529E+03  0.36125305532E+03  0.50400001928E-02 0.  1.
       -1   -1    0    0    0  501  0.00000000000E+00  0.00000000000E+00 -0.13548873764E+04  0.13548873764E+04  0.50400001928E-02 0. -1.
    10030    2    1    2    0    0  0.00000000000E+00  0.00000000000E+00 -0.99363432113E+03  0.17161404317E+04  0.13992243628E+04 0.  0.
        2    1    3    3  502    0  0.30232587559E+03  0.32503442439E+03  0.16640763223E+03  0.47406730763E+03  0.25500000920E-02 0.  1.
       -2    1    3    3    0  502 -0.30232587559E+03 -0.32503442439E+03 -0.11600419534E+04  0.12420731241E+04  0.25500000920E-02 0. -1.
</event>
<event>
 5   0  0.3975164E-04  0.1397380E+04  0.7818609E-02  0.8955717E-01
        2   -1    0    0  501    0  0.00000000000E+00  0.00000000000E+00  0.10324116238E+04  0.10324116238E+04  0.25500000920E-02 0.  1.
       -2   -1    0    0    0  501  0.00000000000E+00  0.00000000000E+00 -0.47284240320E+03  0.47284240320E+03  0.25500000920E-02 0. -1.
    10030    2    1    2    0    0  0.00000000000E+00  0.00000000000E+00  0.55956922062E+03  0.15052540270E+04  0.13973803967E+04 0.  0.
        5    1    3    3  502    0 -0.21839144374E+03  0.55134875750E+03 -0.11814548939E+03  0.60469886866E+03  0.46999998093E+01 0. -1.
       -5    1    3    3    0  502  0.21839144374E+03 -0.55134875750E+03  0.67771471001E+03  0.90055515837E+03  0.46999998093E+01 0.  1.
</event>
<event>
 5   0  0.1497625E-04  0.1400026E+04  0.7818609E-02  0.8953800E-01
        3   -1    0    0  501    0  0.00000000000E+00  0.00000000000E+00  0.30896763192E+03  0.30896764843E+03  0.10100000352E+00 0.  1.
       -3   -1    0    0    0  501  0.00000000000E+00  0.00000000000E+00 -0.15859848011E+04  0.15859848043E+04  0.10100000352E+00 0. -1.
    10030    2    1    2    0    0  0.00000000000E+00  0.00000000000E+00 -0.12770171692E+04  0.18949524527E+04  0.14000256954E+04 0.  0.
        3    1    3    3  502    0  0.47918035476E+03 -0.10624895325E+03  0.37049246505E+02  0.49221469840E+03  0.10100000352E+00 0. -1.
       -3    1    3    3    0  502 -0.47918035476E+03  0.10624895325E+03 -0.13140664157E+04  0.14027377543E+04  0.10100000352E+00 0.  1.
</event>
<event>
 5   0  0.3975164E-04  0.1405903E+04  0.7818609E-02  0.8949557E-01
        2   -1    0    0  501    0  0.00000000000E+00  0.00000000000E+00  0.41159085660E+03  0.41159085660E+03  0.25500000920E-02 0.  1.
       -2   -1    0    0    0  501  0.00000000000E+00  0.00000000000E+00 -0.12005632050E+04  0.12005632050E+04  0.25500000920E-02 0. -1.
    10030    2    1    2    0    0  0.00000000000E+00  0.00000000000E+00 -0.78897234839E+03  0.16121540616E+04  0.14059030378E+04 0.  0.
        5    1    3    3  502    0 -0.46803380175E+02 -0.68183391632E+03 -0.20595644851E+03  0.71381243651E+03  0.46999998093E+01 0.  1.
       -5    1    3    3    0  502  0.46803380175E+02  0.68183391632E+03 -0.58301589988E+03  0.89834162508E+03  0.46999998093E+01 0. -1.
</event>
<event>
 5   0  0.3917598E-04  0.1402543E+04  0.7818609E-02  0.8951980E-01
       -2   -1    0    0    0  501  0.00000000000E+00  0.00000000000E+00  0.43830768292E+03  0.43830768293E+03  0.25500000920E-02 0.  1.
        2   -1    0    0  501    0  0.00000000000E+00  0.00000000000E+00 -0.11220016057E+04  0.11220016057E+04  0.25500000920E-02 0. -1.
    10030    2    1    2    0    0  0.00000000000E+00  0.00000000000E+00 -0.68369392277E+03  0.15603092886E+04  0.14025432956E+04 0.  0.
        3    1    3    3  502    0 -0.10265140060E+03 -0.11351194640E+03 -0.11031966070E+04  0.11137616603E+04  0.10100000352E+00 0. -1.
       -3    1    3    3    0  502  0.10265140060E+03  0.11351194640E+03  0.41950268428E+03  0.44654762829E+03  0.10100000352E+00 0.  1.
</event>
<event>
 5   0  0.4208622E-04  0.1392833E+04  0.7818609E-02  0.8959022E-01
       -2   -1    0    0    0  501  0.00000000000E+00  0.00000000000E+00  0.30866998980E+03  0.30866998981E+03  0.25500000920E-02 0.  1.
        2   -1    0    0  501    0  0.00000000000E+00  0.00000000000E+00 -0.15712452680E+04  0.15712452680E+04  0.25500000920E-02 0. -1.
    10030    2    1    2    0    0  0.00000000000E+00  0.00000000000E+00 -0.12625752782E+04  0.18799152578E+04  0.13928334586E+04 0.  0.
        4    1    3    3  502    0  0.94838279007E+02 -0.67134133472E+03 -0.84597639910E+03  0.10841453628E+04  0.12699999809E+01 0. -1.
       -4    1    3    3    0  502 -0.94838279007E+02  0.67134133472E+03 -0.41659887908E+03  0.79576989502E+03  0.12699999809E+01 0.  1.
</event>
<event>
 5   0  0.2155352E-04  0.1407537E+04  0.7818609E-02  0.8948381E-01
        1   -1    0    0  501    0  0.00000000000E+00  0.00000000000E+00  0.87146342851E+03  0.87146342853E+03  0.50400001928E-02 0. -1.
       -1   -1    0    0    0  501  0.00000000000E+00  0.00000000000E+00 -0.56834266669E+03  0.56834266672E+03  0.50400001928E-02 0.  1.
    10030    2    1    2    0    0  0.00000000000E+00  0.00000000000E+00  0.30312076182E+03  0.14398060952E+04  0.14075366410E+04 0.  0.
        2    1    3    3  502    0 -0.14165242945E+03 -0.31917172343E+02 -0.55285316403E+03  0.57160365433E+03  0.25500000920E-02 0.  1.
       -2    1    3    3    0  502  0.14165242945E+03  0.31917172343E+02  0.85597392585E+03  0.86820244091E+03  0.25500000920E-02 0. -1.
</event>
<event>
 5   0  0.2155352E-04  0.1407696E+04  0.7818609E-02  0.8948266E-01
       -1   -1    0    0    0  501  0.00000000000E+00  0.00000000000E+00  0.46716319087E+03  0.46716319089E+03  0.50400001928E-02 0.  1.
        1   -1    0    0  501    0  0.00000000000E+00  0.00000000000E+00 -0.10604476711E+04  0.10604476712E+04  0.50400001928E-02 0. -1.
    10030    2    1    2    0    0  0.00000000000E+00  0.00000000000E+00 -0.59328448027E+03  0.15276108620E+04  0.14076961573E+04 0.  0.
        2    1    3    3  502    0  0.17034139134E+03  0.57334342099E+03  0.10599396258E+03  0.60743196171E+03  0.25500000920E-02 0.  1.
       -2    1    3    3    0  502 -0.17034139134E+03 -0.57334342099E+03 -0.69927844285E+03  0.92017890034E+03  0.25500000920E-02 0. -1.
</event>
<event>
 5   0  0.3975164E-04  0.1399988E+04  0.7818609E-02  0.8953827E-01
        2   -1    0    0  501    0  0.00000000000E+00  0.00000000000E+00  0.51954557343E+03  0.51954557344E+03  0.25500000920E-02 0.  1.
       -2   -1    0    0    0  501  0.00000000000E+00  0.00000000000E+00 -0.94311638685E+03  0.94311638685E+03  0.25500000920E-02 0. -1.
    10030    2    1    2    0    0  0.00000000000E+00  0.00000000000E+00 -0.42357081341E+03  0.14626619603E+04  0.13999884914E+04 0.  0.
        5    1    3    3  502    0  0.29570853793E+03 -0.46562902825E+03  0.23845458872E+03  0.60094643042E+03  0.46999998093E+01 0.  1.
       -5    1    3    3    0  502 -0.29570853793E+03  0.46562902825E+03 -0.66202540213E+03  0.86171552987E+03  0.46999998093E+01 0. -1.
</event>
<event>
 5   0  0.3917598E-04  0.1393434E+04  0.7818609E-02  0.8958585E-01
       -2   -1    0    0    0  501  0.00000000000E+00  0.00000000000E+00  0.43781552767E+03  0.43781552768E+03  0.25500000920E-02 0.  1.
        2   -1    0    0  501    0  0.00000000000E+00  0.00000000000E+00 -0.11087199587E+04  0.11087199587E+04  0.25500000920E-02 0. -1.
    10030    2    1    2    0    0  0.00000000000E+00  0.00000000000E+00 -0.67090443104E+03  0.15465354864E+04  0.13934343383E+04 0.  0.
        3    1    3    3  502    0  0.41711670382E+03 -0.47618774492E+03 -0.12493041520E+02  0.63316443306E+03  0.10100000352E+00 0.  1.
       -3    1    3    3    0  502 -0.41711670382E+03  0.47618774492E+03 -0.65841138952E+03  0.91337105333E+03  0.10100000352E+00 0. -1.
</event>
<event>
 5   0  0.2155352E-04  0.1399372E+04  0.7818609E-02  0.8954273E-01
        1   -1    0    0  501    0  0.00000000000E+00  0.00000000000E+00  0.42939524620E+03  0.42939524623E+03  0.50400001928E-02 0. -1.
       -1   -1    0    0    0  501  0.00000000000E+00  0.00000000000E+00 -0.11401167225E+04  0.11401167225E+04  0.50400001928E-02 0.  1.
    10030    2    1    2    0    0  0.00000000000E+00  0.00000000000E+00 -0.71072147626E+03  0.15695119687E+04  0.13993722889E+04 0.  0.
        2    1    3    3  502    0 -0.15346587800E+03  0.40449649525E+02 -0.11196622632E+04  0.11308543379E+04  0.25500000920E-02 0.  1.
       -2    1    3    3    0  502  0.15346587800E+03 -0.40449649525E+02  0.40894078693E+03  0.43865763082E+03  0.25500000920E-02 0. -1.
</event>
<event>
 5   0  0.4208622E-04  0.1399299E+04  0.7818609E-02  0.8954326E-01
        2   -1    0    0  501    0  0.00000000000E+00  0.00000000000E+00  0.46158442964E+03  0.46158442965E+03  0.25500000920E-02 0. -1.
       -2   -1    0    0    0  501  0.00000000000E+00  0.00000000000E+00 -0.10604978793E+04  0.10604978793E+04  0.25500000920E-02 0.  1.
    10030    2    1    2    0    0  0.00000000000E+00  0.00000000000E+00 -0.59891344969E+03  0.15220823090E+04  0.13992988370E+04 0.  0.
        4    1    3    3  502    0 -0.21088748358E+03  0.47778435598E+03  0.20696637106E+03  0.56177229657E+03  0.12699999809E+01 0. -1.
       -4    1    3    3    0  502  0.21088748358E+03 -0.47778435598E+03 -0.80587982074E+03  0.96031001241E+03  0.12699999809E+01 0.  1.
</event>
<event>
 5   0  0.2143942E-04  0.1406328E+04  0.7818609E-02  0.8949250E-01
       -1   -1    0    0    0  501  0.00000000000E+00  0.00000000000E+00  0.26719200534E+03  0.26719200539E+03  0.50400001928E-02 0. -1.
        1   -1    0    0  501    0  0.00000000000E+00  0.00000000000E+00 -0.18505039886E+04  0.18505039886E+04  0.50400001928E-02 0.  1.
    10030    2    1    2    0    0  0.00000000000E+00  0.00000000000E+00 -0.15833119832E+04  0.21176959940E+04  0.14063283708E+04 0.  0.
        4    1    3    3  502    0  0.25611024462E+03  0.61646061280E+03 -0.11243807881E+04  0.13076122950E+04  0.12699999809E+01 0. -1.
       -4    1    3    3    0  502 -0.25611024462E+03 -0.61646061280E+03 -0.45893119513E+03  0.81008369894E+03  0.12699999809E+01 0.  1.
</event>
<event>
 5   0  0.2215876E-04  0.1393477E+04  0.7818609E-02  0.8958554E-01
       -1   -1    0    0    0  501  0.00000000000E+00  0.00000000000E+00  0.29384672207E+03  0.29384672211E+03  0.50400001928E-02 0. -1.
        1   -1    0    0  501    0  0.00000000000E+00  0.00000000000E+00 -0.16520320904E+04  0.16520320904E+04  0.50400001928E-02 0.  1.
    10030    2    1    2    0    0  0.00000000000E+00  0.00000000000E+00 -0.13581853683E+04  0.19458788125E+04  0.13934765366E+04 0.  0.
        3    1    3    3  502    0 -0.60341689587E+03  0.25967821693E+03 -0.10032892481E+04  0.11992222697E+04  0.10100000352E+00 0. -1.
       -3    1    3    3    0  502  0.60341689587E+03 -0.25967821693E+03 -0.35489612022E+03  0.74665654280E+03  0.10100000352E+00 0.  1.
</event>
<event>
 5   0  0.3917598E-04  0.1394654E+04  0.7818609E-02  0.8957698E-01
        2   -1    0    0  501    0  0.00000000000E+00  0.00000000000E+00  0.22518289832E+04  0.22518289832E+04  0.25500000920E-02 0.  1.
       -2   -1    0    0    0  501  0.00000000000E+00  0.00000000000E+00 -0.21594208945E+03  0.21594208946E+03  0.25500000920E-02 0. -1.
    10030    2    1    2    0    0  0.00000000000E+00  0.00000000000E+00  0.20358868938E+04  0.24677710727E+04  0.13946535853E+04 0.  0.
        3    1    3    3  502    0 -0.97477878831E+02  0.29271890650E+03 -0.88604938524E+02  0.32099398813E+03  0.10100000352E+00 0. -1.
       -3    1    3    3    0  502  0.97477878831E+02 -0.29271890650E+03  0.21244918323E+04  0.21467770845E+04  0.10100000352E+00 0.  1.
</event>
<event>
 5   0  0.2155352E-04  0.1433214E+04  0.7818609E-02  0.8930121E-01
       -1   -1    0    0    0  501  0.00000000000E+00  0.00000000000E+00  0.70950564008E+03  0.70950564010E+03  0.50400001928E-02 0. -1.
        1   -1    0    0  501    0  0.00000000000E+00  0.00000000000E+00 -0.72377968589E+03  0.72377968591E+03  0.50400001928E-02 0.  1.
    10030    2    1    2    0    0  0.00000000000E+00  0.00000000000E+00 -0.14274045812E+02  0.14332853260E+04  0.14332142468E+04 0.  0.
        2    1    3    3  502    0  0.53716204477E+03 -0.23654671216E+03  0.40401395428E+03  0.71254802268E+03  0.25500000920E-02 0. -1.
       -2    1    3    3    0  502 -0.53716204477E+03  0.23654671216E+03 -0.41828800009E+03  0.72073730332E+03  0.25500000920E-02 0.  1.
</event>
<event>
 5   0  0.4310348E-04  0.1401557E+04  0.7818609E-02  0.8952693E-01
       -2   -1    0    0    0  501  0.00000000000E+00  0.00000000000E+00  0.12764194023E+04  0.12764194023E+04  0.25500000920E-02 0.  1.
        2   -1    0    0  501    0  0.00000000000E+00  0.00000000000E+00 -0.38474047185E+03  0.38474047186E+03  0.25500000920E-02 0. -1.
    10030    2    1    2    0    0  0.00000000000E+00  0.00000000000E+00  0.89167893044E+03  0.16611598742E+04  0.14015565677E+04 0.  0.
        1    1    3    3  502    0 -0.28938034440E+03 -0.31835841642E+03 -0.20979154007E+03  0.47864972093E+03  0.50400001928E-02 0. -1.
       -1    1    3    3    0  502  0.28938034440E+03  0.31835841642E+03  0.11014704705E+04  0.11825101532E+04  0.50400001928E-02 0.  1.
</event>
<event>
 5   0  0.3917598E-04  0.1403669E+04  0.7818609E-02  0.8951167E-01
        2   -1    0    0  501    0  0.00000000000E+00  0.00000000000E+00  0.84028781793E+03  0.84028781793E+03  0.25500000920E-02 0.  1.
       -2   -1    0    0    0  501  0.00000000000E+00  0.00000000000E+00 -0.58619377506E+03  0.58619377507E+03  0.25500000920E-02 0. -1.
    10030    2    1    2    0    0  0.00000000000E+00  0.00000000000E+00  0.25409404287E+03  0.14264815930E+04  0.14036687474E+04 0.  0.
        3    1    3    3  502    0  0.52352327609E+03  0.24023868448E+03  0.53453787651E+03  0.78582567899E+03  0.10100000352E+00 0.  1.
       -3    1    3    3    0  502 -0.52352327609E+03 -0.24023868448E+03 -0.28044383364E+03  0.64065591401E+03  0.10100000352E+00 0. -1.
</event>
<event>
 5   0  0.2223112E-04  0.1407306E+04  0.7818609E-02  0.8948547E-01
       -1   -1    0    0    0  501  0.00000000000E+00  0.00000000000E+00  0.10710331151E+04  0.10710331151E+04  0.50400001928E-02 0. -1.
        1   -1    0    0  501    0  0.00000000000E+00  0.00000000000E+00 -0.46228991021E+03  0.46228991024E+03  0.50400001928E-02 0.  1.
    10030    2    1    2    0    0  0.00000000000E+00  0.00000000000E+00  0.60874320489E+03  0.15333230253E+04  0.14073063670E+04 0.  0.
        1    1    3    3  502    0  0.11209839190E+03 -0.20935841589E+03 -0.41730740124E+03  0.48014837595E+03  0.50400001928E-02 0.  1.
       -1    1    3    3    0  502 -0.11209839190E+03  0.20935841589E+03  0.10260506061E+04  0.10531746494E+04  0.50400001928E-02 0. -1.
</event>
<event>
 5   0  0.2223112E-04  0.1403877E+04  0.7818609E-02  0.8951017E-01
        1   -1    0    0  501    0  0.00000000000E+00  0.00000000000E+00  0.11746733991E+04  0.11746733991E+04  0.50400001928E-02 0.  1.
       -1   -1    0    0    0  501  0.00000000000E+00  0.00000000000E+00 -0.41945070933E+03  0.41945070936E+03  0.50400001928E-02 0. -1.
    10030    2    1    2    0    0  0.00000000000E+00  0.00000000000E+00  0.75522268977E+03  0.15941241085E+04  0.14038769042E+04 0.  0.
        1    1    3    3  502    0 -0.58757969778E+03  0.21902024691E+03  0.19432538595E+02  0.62737340825E+03  0.50400001928E-02 0. -1.
       -1    1    3    3    0  502  0.58757969778E+03 -0.21902024691E+03  0.73579015118E+03  0.96675070023E+03  0.50400001928E-02 0.  1.
</event>
<event>
 5   0  0.4310348E-04  0.1403489E+04  0.7818609E-02  0.8951297E-01
        2   -1    0    0  501    0  0.00000000000E+00  0.00000000000E+00  0.10192749327E+04  0.10192749327E+04  0.25500000920E-02 0.  1.
       -2   -1    0    0    0  501  0.00000000000E+00  0.00000000000E+00 -0.48313326406E+03  0.48313326407E+03  0.25500000920E-02 0. -1.
    10030    2    1    2    0    0  0.00000000000E+00  0.00000000000E+00  0.53614166864E+03  0.15024081968E+04  0.14034894018E+04 0.  0.
        1    1    3    3  502    0  0.37226397329E+03 -0.30110546844E+02 -0.36790503590E+03  0.52425301745E+03  0.50400001928E-02 0. -1.
       -1    1    3    3    0  502 -0.37226397329E+03  0.30110546844E+02  0.90404670454E+03  0.97815517933E+03  0.50400001928E-02 0.  1.
</event>
<event>
 5   0  0.2155352E-04  0.1398764E+04  0.7818609E-02  0.8954713E-01
       -1   -1    0    0    0  501  0.00000000000E+00  0.00000000000E+00  0.34267572494E+03  0.34267572497E+03  0.50400001928E-02 0.  1.
        1   -1    0    0  501    0  0.00000000000E+00  0.00000000000E+00 -0.14274003133E+04  0.14274003133E+04  0.50400001928E-02 0. -1.
    10030    2    1    2    0    0  0.00000000000E+00  0.00000000000E+00 -0.10847245883E+04  0.17700760382E+04  0.13987643649E+04 0.  0.
        2    1    3    3  502    0  0.55875982481E+03  0.39655754802E+03 -0.36490477339E+03  0.77628984560E+03  0.25500000920E-02 0.  1.
       -2    1    3    3    0  502 -0.55875982481E+03 -0.39655754802E+03 -0.71981981493E+03  0.99378619265E+03  0.25500000920E-02 0. -1.
</event>
<event>
 5   0  0.2223112E-04  0.1400988E+04  0.7818609E-02  0.8953104E-01
        1   -1    0    0  501    0  0.00000000000E+00  0.00000000000E+00  0.10456059074E+04  0.10456059075E+04  0.50400001928E-02 0. -1.
       -1   -1    0    0    0  501  0.00000000000E+00  0.00000000000E+00 -0.46928924216E+03  0.46928924219E+03  0.50400001928E-02 0.  1.
    10030    2    1    2    0    0  0.00000000000E+00  0.00000000000E+00  0.57631666528E+03  0.15148951496E+04  0.14009876572E+04 0.  0.
        1    1    3    3  502    0 -0.45107092193E+02  0.69764789455E+03  0.33583848686E+03  0.77558669652E+03  0.50400001928E-02 0.  1.
       -1    1    3    3    0  502  0.45107092193E+02 -0.69764789455E+03  0.24047817842E+03  0.73930845312E+03  0.50400001928E-02 0. -1.
</event>
<event>
 5   0  0.3917598E-04  0.1396016E+04  0.7818609E-02  0.8956707E-01
       -2   -1    0    0    0  501  0.00000000000E+00  0.00000000000E+00  0.22855790023E+03  0.22855790025E+03  0.25500000920E-02 0.  1.
        2   -1    0    0  501    0  0.00000000000E+00  0.00000000000E+00 -0.21316933211E+04  0.21316933211E+04  0.25500000920E-02 0. -1.
    10030    2    1    2    0    0  0.00000000000E+00  0.00000000000E+00 -0.19031354208E+04  0.23602512213E+04  0.13960162598E+04 0.  0.
        3    1    3    3  502    0  0.57752639098E+03  0.15861974534E+03 -0.15576762198E+04  0.16688475580E+04  0.10100000352E+00 0. -1.
       -3    1    3    3    0  502 -0.57752639098E+03 -0.15861974534E+03 -0.34545920107E+03  0.69140366335E+03  0.10100000352E+00 0.  1.
</event>
<event>
 5   0  0.2143942E-04  0.1396347E+04  0.7818609E-02  0.8956467E-01
       -1   -1    0    0    0  501  0.00000000000E+00  0.00000000000E+00  0.32753097357E+03  0.32753097361E+03  0.50400001928E-02 0. -1.
        1   -1    0    0  501    0  0.00000000000E+00  0.00000000000E+00 -0.14882449949E+04  0.14882449949E+04  0.50400001928E-02 0.  1.
    10030    2    1    2    0    0  0.00000000000E+00  0.00000000000E+00 -0.11607140213E+04  0.18157759685E+04  0.13963471375E+04 0.  0.
        4    1    3    3  502    0 -0.50097887200E+03 -0.30103860768E+03 -0.83755365269E+02  0.59044106194E+03  0.12699999809E+01 0. -1.
       -4    1    3    3    0  502  0.50097887200E+03  0.30103860768E+03 -0.10769586560E+04  0.12253349066E+04  0.12699999809E+01 0.  1.
</event>
<event>
 5   0  0.2223112E-04  0.1409361E+04  0.7818609E-02  0.8947070E-01
       -1   -1    0    0    0  501  0.00000000000E+00  0.00000000000E+00  0.33044222411E+03  0.33044222415E+03  0.50400001928E-02 0. -1.
        1   -1    0    0  501    0  0.00000000000E+00  0.00000000000E+00 -0.15027586136E+04  0.15027586137E+04  0.50400001928E-02 0.  1.
    10030    2    1    2    0    0  0.00000000000E+00  0.00000000000E+00 -0.11723163895E+04  0.18332008378E+04  0.14093614137E+04 0.  0.
        1    1    3    3  502    0 -0.33941064197E+03 -0.43267976351E+03 -0.13003957515E+02  0.55007314474E+03  0.50400001928E-02 0. -1.
       -1    1    3    3    0  502  0.33941064197E+03  0.43267976351E+03 -0.11593124320E+04  0.12831276931E+04  0.50400001928E-02 0.  1.
</event>
<event>
 5   0  0.2223112E-04  0.1392889E+04  0.7818609E-02  0.8958982E-01
        1   -1    0    0  501    0  0.00000000000E+00  0.00000000000E+00  0.33467212869E+03  0.33467212873E+03  0.50400001928E-02 0.  1.
       -1   -1    0    0    0  501  0.00000000000E+00  0.00000000000E+00 -0.14492829741E+04  0.14492829741E+04  0.50400001928E-02 0. -1.
    10030    2    1    2    0    0  0.00000000000E+00  0.00000000000E+00 -0.11146108454E+04  0.17839551029E+04  0.13928885355E+04 0.  0.
        1    1    3    3  502    0 -0.15569721279E+03  0.49994892353E+03 -0.11454014582E+04  0.12594185359E+04  0.50400001928E-02 0. -1.
       -1    1    3    3    0  502  0.15569721279E+03 -0.49994892353E+03  0.30790612726E+02  0.52453656695E+03  0.50400001928E-02 0.  1.
</event>
<event>
 5   0  0.3932568E-04  0.1406882E+04  0.7818609E-02  0.8948852E-01
       -2   -1    0    0    0  501  0.00000000000E+00  0.00000000000E+00  0.28729709623E+03  0.28729709624E+03  0.25500000920E-02 0.  1.
        2   -1    0    0  501    0  0.00000000000E+00  0.00000000000E+00 -0.17223601876E+04  0.17223601876E+04  0.25500000920E-02 0. -1.
    10030    2    1    2    0    0  0.00000000000E+00  0.00000000000E+00 -0.14350630914E+04  0.20096572839E+04  0.14068817727E+04 0.  0.
        2    1    3    3  502    0 -0.39092464432E+03 -0.52335564525E+03 -0.10903150411E+04  0.12710271822E+04  0.25500000920E-02 0. -1.
       -2    1    3    3    0  502  0.39092464432E+03  0.52335564525E+03 -0.34474805032E+03  0.73863010172E+03  0.25500000920E-02 0.  1.
</event>
<event>
 5   0  0.4208622E-04  0.1356178E+04  0.7818609E-02  0.8986164E-01
       -2   -1    0    0    0  501  0.00000000000E+00  0.00000000000E+00  0.19743387837E+04  0.19743387837E+04  0.25500000920E-02 0.  1.
        2   -1    0    0  501    0  0.00000000000E+00  0.00000000000E+00 -0.23289060441E+03  0.23289060443E+03  0.25500000920E-02 0. -1.
    10030    2    1    2    0    0  0.00000000000E+00  0.00000000000E+00  0.17414481793E+04  0.22072293881E+04  0.13561783845E+04 0.  0.
        4    1    3    3  502    0  0.48646507895E+03  0.46234516358E+03  0.71299562572E+03  0.97917092406E+03  0.12699999809E+01 0. -1.
       -4    1    3    3    0  502 -0.48646507895E+03 -0.46234516358E+03  0.10284525536E+04  0.12280584641E+04  0.12699999809E+01 0.  1.
</event>
<event>
 5   0  0.3917598E-04  0.1385553E+04  0.7818609E-02  0.8964343E-01
        2   -1    0    0  501    0  0.00000000000E+00  0.00000000000E+00  0.52469401725E+03  0.52469401726E+03  0.25500000920E-02 0.  1.
       -2   -1    0    0    0  501  0.00000000000E+00  0.00000000000E+00 -0.91470320146E+03  0.91470320147E+03  0.25500000920E-02 0. -1.
    10030    2    1    2    0    0  0.00000000000E+00  0.00000000000E+00 -0.39000918421E+03  0.14393972187E+04  0.13855530266E+04 0.  0.
        3    1    3    3  502    0  0.26085843843E+03 -0.56809613071E+03 -0.50520329462E+03  0.80374791927E+03  0.10100000352E+00 0. -1.
       -3    1    3    3    0  502 -0.26085843843E+03  0.56809613071E+03  0.11519411041E+03  0.63564929946E+03  0.10100000352E+00 0.  1.
</event>
<event>
 5   0  0.2215876E-04  0.1408928E+04  0.7818609E-02  0.8947381E-01
        1   -1    0    0  501    0  0.00000000000E+00  0.00000000000E+00  0.53938537092E+03  0.53938537094E+03  0.50400001928E-02 0.  1.
       -1   -1    0    0    0  501  0.00000000000E+00  0.00000000000E+00 -0.92006527294E+03  0.92006527296E+03  0.50400001928E-02 0. -1.
    10030    2    1    2    0    0  0.00000000000E+00  0.00000000000E+00 -0.38067990203E+03  0.14594506439E+04  0.14089283141E+04 0.  0.
        3    1    3    3  502    0  0.40065724286E+03 -0.15905546775E+03 -0.76749534604E+03  0.88026926816E+03  0.10100000352E+00 0. -1.
       -3    1    3    3    0  502 -0.40065724286E+03  0.15905546775E+03  0.38681544401E+03  0.57918137574E+03  0.10100000352E+00 0.  1.
</event>
<event>
 5   0  0.3975164E-04  0.1399901E+04  0.7818609E-02  0.8953891E-01
       -2   -1    0    0    0  501  0.00000000000E+00  0.00000000000E+00  0.57531877527E+03  0.57531877528E+03  0.25500000920E-02 0. -1.
        2   -1    0    0  501    0  0.00000000000E+00  0.00000000000E+00 -0.85158071666E+03  0.85158071666E+03  0.25500000920E-02 0.  1.
    10030    2    1    2    0    0  0.00000000000E+00  0.00000000000E+00 -0.27626194138E+03  0.14268994919E+04  0.13999005321E+04 0.  0.
        5    1    3    3  502    0  0.34754387675E+03  0.47793610069E+03 -0.52046339202E+03  0.78747310751E+03  0.46999998093E+01 0.  1.
       -5    1    3    3    0  502 -0.34754387675E+03 -0.47793610069E+03  0.24420145064E+03  0.63942638443E+03  0.46999998093E+01 0. -1.
</event>
<event>
 5   0  0.3932568E-04  0.1338567E+04  0.7818609E-02  0.8999528E-01
        2   -1    0    0  501    0  0.00000000000E+00  0.00000000000E+00  0.22805794700E+04  0.22805794700E+04  0.25500000920E-02 0.  1.
       -2   -1    0    0    0  501  0.00000000000E+00  0.00000000000E+00 -0.19641502876E+03  0.19641502878E+03  0.25500000920E-02 0. -1.
    10030    2    1    2    0    0  0.00000000000E+00  0.00000000000E+00  0.20841644412E+04  0.24769944988E+04  0.13385665201E+04 0.  0.
        2    1    3    3  502    0 -0.82107323482E+02 -0.63101954097E+03  0.65830076634E+03  0.91558023822E+03  0.25500000920E-02 0. -1.
       -2    1    3    3    0  502  0.82107323482E+02  0.63101954097E+03  0.14258636749E+04  0.15614142605E+04  0.25500000920E-02 0.  1.
</event>
<event>
 5   0  0.2215876E-04  0.1399097E+04  0.7818609E-02  0.8954473E-01
       -1   -1    0    0    0  501  0.00000000000E+00  0.00000000000E+00  0.42445228675E+03  0.42445228678E+03  0.50400001928E-02 0. -1.
        1   -1    0    0  501    0  0.00000000000E+00  0.00000000000E+00 -0.11529398235E+04  0.11529398235E+04  0.50400001928E-02 0.  1.
    10030    2    1    2    0    0  0.00000000000E+00  0.00000000000E+00 -0.72848753670E+03  0.15773921102E+04  0.13990967723E+04 0.  0.
        3    1    3    3  502    0  0.44189181677E+03  0.10171145213E+03  0.23632558099E+03  0.51133490752E+03  0.10100000352E+00 0. -1.
       -3    1    3    3    0  502 -0.44189181677E+03 -0.10171145213E+03 -0.96481311769E+03  0.10660572027E+04  0.10100000352E+00 0.  1.
</event>
<event>
 5   0  0.3975164E-04  0.1397916E+04  0.7818609E-02  0.8955328E-01
        2   -1    0    0  501    0  0.00000000000E+00  0.00000000000E+00  0.15903026479E+04  0.15903026479E+04  0.25500000920E-02 0.  1.
       -2   -1    0    0    0  501  0.00000000000E+00  0.00000000000E+00 -0.30720095407E+03  0.30720095408E+03  0.25500000920E-02 0. -1.
    10030    2    1    2    0    0  0.00000000000E+00  0.00000000000E+00  0.12831016939E+04  0.18975036020E+04  0.13979162932E+04 0.  0.
        5    1    3    3  502    0  0.14517817473E+03  0.66836926147E+03  0.44613418774E+03  0.81661005110E+03  0.46999998093E+01 0.  1.
       -5    1    3    3    0  502 -0.14517817473E+03 -0.66836926147E+03  0.83696750614E+03  0.10808935509E+04  0.46999998093E+01 0. -1.
</event>
<event>
 5   0  0.1497625E-04  0.1391504E+04  0.7818609E-02  0.8959991E-01
        3   -1    0    0  501    0  0.00000000000E+00  0.00000000000E+00  0.50934929156E+03  0.50934930157E+03  0.10100000352E+00 0. -1.
       -3   -1    0    0    0  501  0.00000000000E+00  0.00000000000E+00 -0.95037152746E+03  0.95037153282E+03  0.10100000352E+00 0.  1.
    10030    2    1    2    0    0  0.00000000000E+00  0.00000000000E+00 -0.44102223590E+03  0.14597208344E+04  0.13915043305E+04 0.  0.
        4    1    3    3  502    0  0.99654628995E+02 -0.64600823047E+03  0.29525984034E+02  0.65431725910E+03  0.12699999809E+01 0.  1.
       -4    1    3    3    0  502 -0.99654628995E+02  0.64600823047E+03 -0.47054821993E+03  0.80540357530E+03  0.12699999809E+01 0. -1.
</event>
<event>
 5   0  0.3975164E-04  0.1393040E+04  0.7818609E-02  0.8958872E-01
       -2   -1    0    0    0  501  0.00000000000E+00  0.00000000000E+00  0.40373149733E+03  0.40373149734E+03  0.25500000920E-02 0. -1.
        2   -1    0    0  501    0  0.00000000000E+00  0.00000000000E+00 -0.12016411997E+04  0.12016411997E+04  0.25500000920E-02 0.  1.
    10030    2    1    2    0    0  0.00000000000E+00  0.00000000000E+00 -0.79790970238E+03  0.16053726971E+04  0.13930404170E+04 0.  0.
        5    1    3    3  502    0 -0.53338149725E+03  0.42076751767E+03 -0.22200176808E+03  0.71473631541E+03  0.46999998093E+01 0. -1.
       -5    1    3    3    0  502  0.53338149725E+03 -0.42076751767E+03 -0.57590793430E+03  0.89063638165E+03  0.46999998093E+01 0.  1.
</event>
<event>
 5   0  0.4310348E-04  0.1400466E+04  0.7818609E-02  0.8953481E-01
        2   -1    0    0  501    0  0.00000000000E+00  0.00000000000E+00  0.88070160381E+03  0.88070160381E+03  0.25500000920E-02 0.  1.
       -2   -1    0    0    0  501  0.00000000000E+00  0.00000000000E+00 -0.55674497742E+03  0.55674497743E+03  0.25500000920E-02 0. -1.
    10030    2    1    2    0    0  0.00000000000E+00  0.00000000000E+00  0.32395662638E+03  0.14374465812E+04  0.14004659147E+04 0.  0.
        1    1    3    3  502    0  0.48901813063E+03 -0.22907266833E+03  0.61952193160E+03  0.82183967002E+03  0.50400001928E-02 0.  1.
       -1    1    3    3    0  502 -0.48901813063E+03  0.22907266833E+03 -0.29556530521E+03  0.61560691121E+03  0.50400001928E-02 0. -1.
</event>
<event>
 5   0  0.4208622E-04  0.1396477E+04  0.7818609E-02  0.8956373E-01
        2   -1    0    0  501    0  0.00000000000E+00  0.00000000000E+00  0.48254484771E+03  0.48254484772E+03  0.25500000920E-02 0.  1.
       -2   -1    0    0    0  501  0.00000000000E+00  0.00000000000E+00 -0.10103449599E+04  0.10103449599E+04  0.25500000920E-02 0. -1.
    10030    2    1    2    0    0  0.00000000000E+00  0.00000000000E+00 -0.52780011222E+03  0.14928898077E+04  0.13964766448E+04 0.  0.
        4    1    3    3  502    0 -0.64979071018E+03  0.23120097173E+02 -0.53597582302E+03  0.84263527205E+03  0.12699999809E+01 0. -1.
       -4    1    3    3    0  502  0.64979071018E+03 -0.23120097173E+02  0.81757108027E+01  0.65025453561E+03  0.12699999809E+01 0.  1.
</event>
<event>
 5   0  0.2215876E-04  0.1413086E+04  0.7818609E-02  0.8944400E-01
        1   -1    0    0  501    0  0.00000000000E+00  0.00000000000E+00  0.18808295095E+04  0.18808295095E+04  0.50400001928E-02 0. -1.
       -1   -1    0    0    0  501  0.00000000000E+00  0.00000000000E+00 -0.26541656808E+03  0.26541656813E+03  0.50400001928E-02 0.  1.
    10030    2    1    2    0    0  0.00000000000E+00  0.00000000000E+00  0.16154129415E+04  0.21462460777E+04  0.14130864285E+04 0.  0.
        3    1    3    3  502    0  0.72257182706E+02 -0.69972907524E+03  0.90801201879E+03  0.11486199178E+04  0.10100000352E+00 0.  1.
       -3    1    3    3    0  502 -0.72257182706E+02  0.69972907524E+03  0.70740092267E+03  0.99762615983E+03  0.10100000352E+00 0. -1.
</event>
<event>
 5   0  0.2143942E-04  0.1398685E+04  0.7818609E-02  0.8954771E-01
        1   -1    0    0  501    0  0.00000000000E+00  0.00000000000E+00  0.22318549426E+04  0.22318549426E+04  0.50400001928E-02 0.  1.
       -1   -1    0    0    0  501  0.00000000000E+00  0.00000000000E+00 -0.21913618538E+03  0.21913618544E+03  0.50400001928E-02 0. -1.
    10030    2    1    2    0    0  0.00000000000E+00  0.00000000000E+00  0.20127187572E+04  0.24509911280E+04  0.13986853521E+04 0.  0.
        4    1    3    3  502    0 -0.56107216989E+02 -0.68797642994E+03  0.80951011316E+03  0.10638457709E+04  0.12699999809E+01 0.  1.
       -4    1    3    3    0  502  0.56107216989E+02  0.68797642994E+03  0.12032086440E+04  0.13871453572E+04  0.12699999809E+01 0. -1.
</event>
<event>
 5   0  0.4310348E-04  0.1400221E+04  0.7818609E-02  0.8953659E-01
        2   -1    0    0  501    0  0.00000000000E+00  0.00000000000E+00  0.69167422645E+03  0.69167422645E+03  0.25500000920E-02 0.  1.
       -2   -1    0    0    0  501  0.00000000000E+00  0.00000000000E+00 -0.70864921081E+03  0.70864921082E+03  0.25500000920E-02 0. -1.
    10030    2    1    2    0    0  0.00000000000E+00  0.00000000000E+00 -0.16974984364E+02  0.14003234373E+04  0.14002205465E+04 0.  0.
        1    1    3    3  502    0  0.25549465342E+03 -0.49933081783E+03 -0.42749991551E+03  0.70524106612E+03  0.50400001928E-02 0. -1.
       -1    1    3    3    0  502 -0.25549465342E+03  0.49933081783E+03  0.41052493114E+03  0.69508237114E+03  0.50400001928E-02 0.  1.
</event>
<event>
 5   0  0.2223112E-04  0.1397258E+04  0.7818609E-02  0.8955806E-01
       -1   -1    0    0    0  501  0.00000000000E+00  0.00000000000E+00  0.35659926652E+03  0.35659926656E+03  0.50400001928E-02 0. -1.
        1   -1    0    0  501    0  0.00000000000E+00  0.00000000000E+00 -0.13687139137E+04  0.13687139137E+04  0.50400001928E-02 0.  1.
    10030    2    1    2    0    0  0.00000000000E+00  0.00000000000E+00 -0.10121146472E+04  0.17253131802E+04  0.13972578541E+04 0.  0.
        1    1    3    3  502    0  0.56912270449E+03  0.18651538901E+03 -0.61888569045E+02  0.60209537293E+03  0.50400001928E-02 0. -1.
       -1    1    3    3    0  502 -0.56912270449E+03 -0.18651538901E+03 -0.95022607811E+03  0.11232178073E+04  0.50400001928E-02 0.  1.
</event>
<event>
 5   0  0.4208622E-04  0.1403040E+04  0.7818609E-02  0.8951621E-01
        2   -1    0    0  501    0  0.00000000000E+00  0.00000000000E+00  0.16816921473E+04  0.16816921473E+04  0.25500000920E-02 0.  1.
       -2   -1    0    0    0  501  0.00000000000E+00  0.00000000000E+00 -0.29263978731E+03  0.29263978732E+03  0.25500000920E-02 0. -1.
    10030    2    1    2    0    0  0.00000000000E+00  0.00000000000E+00  0.13890523600E+04  0.19743319346E+04  0.14030396036E+04 0.  0.
        4    1    3    3  502    0  0.52246552967E+02 -0.49635148512E+03  0.13882453350E+04  0.14752359886E+04  0.12699999809E+01 0.  1.
       -4    1    3    3    0  502 -0.52246552967E+02  0.49635148512E+03  0.80702494916E+00  0.49909594596E+03  0.12699999809E+01 0. -1.
</event>
<event>
 5   0  0.3975164E-04  0.1404238E+04  0.7818609E-02  0.8950757E-01
       -2   -1    0    0    0  501  0.00000000000E+00  0.00000000000E+00  0.37066956602E+03  0.37066956603E+03  0.25500000920E-02 0. -1.
        2   -1    0    0  501    0  0.00000000000E+00  0.00000000000E+00 -0.13299468920E+04  0.13299468920E+04  0.25500000920E-02 0.  1.
    10030    2    1    2    0    0  0.00000000000E+00  0.00000000000E+00 -0.95927732598E+03  0.17006164580E+04  0.14042376399E+04 0.  0.
        5    1    3    3  502    0 -0.51883721802E+03  0.33321178878E+02 -0.10510825541E+04  0.11726461467E+04  0.46999998093E+01 0.  1.
       -5    1    3    3    0  502  0.51883721802E+03 -0.33321178878E+02  0.91805228129E+02  0.52797031136E+03  0.46999998093E+01 0. -1.
</event>
<event>
 5   0  0.3975164E-04  0.1395156E+04  0.7818609E-02  0.8957332E-01
        2   -1    0    0  501    0  0.00000000000E+00  0.00000000000E+00  0.33616574559E+03  0.33616574560E+03  0.25500000920E-02 0.  1.
       -2   -1    0    0    0  501  0.00000000000E+00  0.00000000000E+00 -0.14475451738E+04  0.14475451738E+04  0.25500000920E-02 0. -1.
    10030    2    1    2    0    0  0.00000000000E+00  0.00000000000E+00 -0.11113794282E+04  0.17837109194E+04  0.13951560524E+04 0.  0.
        5    1    3    3  502    0  0.35923485427E+03 -0.51913463956E+03 -0.93504663342E+03  0.11282219423E+04  0.46999998093E+01 0. -1.
       -5    1    3    3    0  502 -0.35923485427E+03  0.51913463956E+03 -0.17633279476E+03  0.65548897704E+03  0.46999998093E+01 0.  1.
</event>
<event>
 5   0  0.2143942E-04  0.1408359E+04  0.7818609E-02  0.8947790E-01
        1   -1    0    0  501    0  0.00000000000E+00  0.00000000000E+00  0.10332536894E+04  0.10332536894E+04  0.50400001928E-02 0. -1.
       -1   -1    0    0    0  501  0.00000000000E+00  0.00000000000E+00 -0.47991014513E+03  0.47991014515E+03  0.50400001928E-02 0.  1.
    10030    2    1    2    0    0  0.00000000000E+00  0.00000000000E+00  0.55334354427E+03  0.15131638346E+04  0.14083592270E+04 0.  0.
        4    1    3    3  502    0 -0.30953144185E+03  0.17640548100E+03 -0.37593206151E+03  0.51793352372E+03  0.12699999809E+01 0.  1.
       -4    1    3    3    0  502  0.30953144185E+03 -0.17640548100E+03  0.92927560578E+03  0.99523031085E+03  0.12699999809E+01 0. -1.
</event>
<event>
 5   0  0.2143942E-04  0.1397244E+04  0.7818609E-02  0.8955816E-01
       -1   -1    0    0    0  501  0.00000000000E+00  0.00000000000E+00  0.33510011456E+03  0.33510011460E+03  0.50400001928E-02 0.  1.
        1   -1    0    0  501    0  0.00000000000E+00  0.00000000000E+00 -0.14564980502E+04  0.14564980502E+04  0.50400001928E-02 0. -1.
    10030    2    1    2    0    0  0.00000000000E+00  0.00000000000E+00 -0.11213979356E+04  0.17915981648E+04  0.13972439494E+04 0.  0.
        4    1    3    3  502    0  0.30945835529E+03 -0.24451899889E+03 -0.13000919457E+04  0.13586002704E+04  0.12699999809E+01 0. -1.
       -4    1    3    3    0  502 -0.30945835529E+03  0.24451899889E+03  0.17869401005E+03  0.43299789445E+03  0.12699999809E+01 0.  1.
</event>
<event>
 5   0  0.2223112E-04  0.1400041E+04  0.7818609E-02  0.8953789E-01
       -1   -1    0    0    0  501  0.00000000000E+00  0.00000000000E+00  0.61005459944E+03  0.61005459946E+03  0.50400001928E-02 0. -1.
        1   -1    0    0  501    0  0.00000000000E+00  0.00000000000E+00 -0.80325407184E+03  0.80325407186E+03  0.50400001928E-02 0.  1.
    10030    2    1    2    0    0  0.00000000000E+00  0.00000000000E+00 -0.19319947240E+03  0.14133086713E+04  0.14000412009E+04 0.  0.
        1    1    3    3  502    0 -0.69070063793E+02  0.49532748853E+03 -0.59104627189E+03  0.77424523902E+03  0.50400001928E-02 0.  1.
       -1    1    3    3    0  502  0.69070063793E+02 -0.49532748853E+03  0.39784679949E+03  0.63906343230E+03  0.50400001928E-02 0. -1.
</event>
<event>
 5   0  0.1497625E-04  0.1401550E+04  0.7818609E-02  0.8952697E-01
        4   -1    0    0  501    0  0.00000000000E+00  0.00000000000E+00  0.72606450958E+03  0.72606562029E+03  0.12699999809E+01 0. -1.
       -4   -1    0    0    0  501  0.00000000000E+00  0.00000000000E+00 -0.67636453692E+03  0.67636572925E+03  0.12699999809E+01 0.  1.
    10030    2    1    2    0    0  0.00000000000E+00  0.00000000000E+00  0.49699972656E+02  0.14024313495E+04  0.14015504282E+04 0.  0.
        2    1    3    3  502    0  0.70045232115E+02 -0.33134985806E+03  0.63873933292E+03  0.72297095267E+03  0.25500000920E-02 0. -1.
       -2    1    3    3    0  502 -0.70045232115E+02  0.33134985806E+03 -0.58903936026E+03  0.67946039687E+03  0.25500000920E-02 0.  1.
</event>
<event>
 5   0  0.4310348E-04  0.1390120E+04  0.7818609E-02  0.8961001E-01
       -2   -1    0    0    0  501  0.00000000000E+00  0.00000000000E+00  0.51075155380E+03  0.51075155380E+03  0.25500000920E-02 0. -1.
        2   -1    0    0  501    0  0.00000000000E+00  0.00000000000E+00 -0.94587752944E+03  0.94587752945E+03  0.25500000920E-02 0.  1.
    10030    2    1    2    0    0  0.00000000000E+00  0.00000000000E+00 -0.43512597564E+03  0.14566290833E+04  0.13901200205E+04 0.  0.
        1    1    3    3  502    0 -0.63943721760E+03 -0.23500199591E+03 -0.36200792672E+03  0.77146330591E+03  0.50400001928E-02 0.  1.
       -1    1    3    3    0  502  0.63943721760E+03  0.23500199591E+03 -0.73118048924E+02  0.68516577734E+03  0.50400001928E-02 0. -1.
</event>
<event>
 5   0  0.4310348E-04  0.1396650E+04  0.7818609E-02  0.8956247E-01
       -2   -1    0    0    0  501  0.00000000000E+00  0.00000000000E+00  0.16391613392E+04  0.16391613392E+04  0.25500000920E-02 0. -1.
        2   -1    0    0  501    0  0.00000000000E+00  0.00000000000E+00 -0.29750454148E+03  0.29750454149E+03  0.25500000920E-02 0.  1.
    10030    2    1    2    0    0  0.00000000000E+00  0.00000000000E+00  0.13416567977E+04  0.19366658807E+04  0.13966501962E+04 0.  0.
        1    1    3    3  502    0  0.49797230921E+03 -0.33774077722E+03  0.17937333817E+03  0.62786945125E+03  0.50400001928E-02 0.  1.
       -1    1    3    3    0  502 -0.49797230921E+03  0.33774077722E+03  0.11622834595E+04  0.13087964294E+04  0.50400001928E-02 0. -1.
</event>
<event>
 5   0  0.3917598E-04  0.1399911E+04  0.7818609E-02  0.8953883E-01
       -2   -1    0    0    0  501  0.00000000000E+00  0.00000000000E+00  0.51578279208E+03  0.51578279208E+03  0.25500000920E-02 0. -1.
        2   -1    0    0  501    0  0.00000000000E+00  0.00000000000E+00 -0.94989208101E+03  0.94989208102E+03  0.25500000920E-02 0.  1.
    10030    2    1    2    0    0  0.00000000000E+00  0.00000000000E+00 -0.43410928894E+03  0.14656748731E+04  0.13999114111E+04 0.  0.
        3    1    3    3  502    0 -0.64973116901E+03 -0.21282265358E+03 -0.37407990535E+03  0.77934578953E+03  0.10100000352E+00 0.  1.
       -3    1    3    3    0  502  0.64973116901E+03  0.21282265358E+03 -0.60029383583E+02  0.68632908357E+03  0.10100000352E+00 0. -1.
</event>
<event>
 5   0  0.2155352E-04  0.1393488E+04  0.7818609E-02  0.8958546E-01
        1   -1    0    0  501    0  0.00000000000E+00  0.00000000000E+00  0.35336951167E+03  0.35336951170E+03  0.50400001928E-02 0.  1.
       -1   -1    0    0    0  501  0.00000000000E+00  0.00000000000E+00 -0.13737804567E+04  0.13737804567E+04  0.50400001928E-02 0. -1.
    10030    2    1    2    0    0  0.00000000000E+00  0.00000000000E+00 -0.10204109450E+04  0.17271499684E+04  0.13934878961E+04 0.  0.
        2    1    3    3  502    0 -0.62748338052E+03 -0.87709788526E+02 -0.86948115654E+03  0.10758372932E+04  0.25500000920E-02 0.  1.
       -2    1    3    3    0  502  0.62748338052E+03  0.87709788526E+02 -0.15092978847E+03  0.65131267520E+03  0.25500000920E-02 0. -1.
</event>
<event>
 5   0  0.2217251E-04  0.1398641E+04  0.7818609E-02  0.8954803E-01
        1   -1    0    0  501    0  0.00000000000E+00  0.00000000000E+00  0.42006050326E+03  0.42006050329E+03  0.50400001928E-02 0. -1.
       -1   -1    0    0    0  501  0.00000000000E+00  0.00000000000E+00 -0.11642343732E+04  0.11642343732E+04  0.50400001928E-02 0.  1.
    10030    2    1    2    0    0  0.00000000000E+00  0.00000000000E+00 -0.74417386991E+03  0.15842948765E+04  0.13986405925E+04 0.  0.
        5    1    3    3  502    0 -0.25405158470E+03 -0.43380968213E+03 -0.92271202421E+03  0.10507866661E+04  0.46999998093E+01 0.  1.
       -5    1    3    3    0  502  0.25405158470E+03  0.43380968213E+03  0.17853815430E+03  0.53350821038E+03  0.46999998093E+01 0. -1.
</event>
<event>
 5   0  0.3975164E-04  0.1399629E+04  0.7818609E-02  0.8954087E-01
       -2   -1    0    0    0  501  0.00000000000E+00  0.00000000000E+00  0.38347804029E+03  0.38347804030E+03  0.25500000920E-02 0. -1.
        2   -1    0    0  501    0  0.00000000000E+00  0.00000000000E+00 -0.12771014286E+04  0.12771014286E+04  0.25500000920E-02 0.  1.
    10030    2    1    2    0    0  0.00000000000E+00  0.00000000000E+00 -0.89362338826E+03  0.16605794689E+04  0.13996290267E+04 0.  0.
        5    1    3    3  502    0 -0.65448080170E+03 -0.14312842599E+03 -0.20690550352E+03  0.70118673940E+03  0.46999998093E+01 0.  1.
       -5    1    3    3    0  502  0.65448080170E+03  0.14312842599E+03 -0.68671788475E+03  0.95939272947E+03  0.46999998093E+01 0. -1.
</event>
<event>
 5   0  0.2143942E-04  0.1403014E+04  0.7818609E-02  0.8951640E-01
       -1   -1    0    0    0  501  0.00000000000E+00  0.00000000000E+00  0.56607666327E+03  0.56607666329E+03  0.50400001928E-02 0. -1.
        1   -1    0    0  501    0  0.00000000000E+00  0.00000000000E+00 -0.86933860559E+03  0.86933860561E+03  0.50400001928E-02 0.  1.
    10030    2    1    2    0    0  0.00000000000E+00  0.00000000000E+00 -0.30326194232E+03  0.14354152689E+04  0.14030143223E+04 0.  0.
        4    1    3    3  502    0 -0.58992734794E+03 -0.37943297377E+03 -0.14010007336E+03  0.71527148754E+03  0.12699999809E+01 0.  1.
       -4    1    3    3    0  502  0.58992734794E+03  0.37943297377E+03 -0.16316186896E+03  0.72014378135E+03  0.12699999809E+01 0. -1.
</event>
<event>
 5   0  0.3932568E-04  0.1394469E+04  0.7818609E-02  0.8957832E-01
        2   -1    0    0  501    0  0.00000000000E+00  0.00000000000E+00  0.69907975480E+03  0.69907975481E+03  0.25500000920E-02 0. -1.
       -2   -1    0    0    0  501  0.00000000000E+00  0.00000000000E+00 -0.69539377791E+03  0.69539377792E+03  0.25500000920E-02 0.  1.
    10030    2    1    2    0    0  0.00000000000E+00  0.00000000000E+00  0.36859768885E+01  0.13944735327E+04  0.13944686612E+04 0.  0.
        2    1    3    3  502    0 -0.46129736311E+02  0.24491031853E+03 -0.64933260824E+03  0.69551553025E+03  0.25500000920E-02 0.  1.
       -2    1    3    3    0  502  0.46129736311E+02 -0.24491031853E+03  0.65301858513E+03  0.69895800247E+03  0.25500000920E-02 0. -1.
</event>
<event>
 5   0  0.2223112E-04  0.1403548E+04  0.7818609E-02  0.8951254E-01
        1   -1    0    0  501    0  0.00000000000E+00  0.00000000000E+00  0.11724747873E+04  0.11724747873E+04  0.50400001928E-02 0.  1.
       -1   -1    0    0    0  501  0.00000000000E+00  0.00000000000E+00 -0.42004060944E+03  0.42004060947E+03  0.50400001928E-02 0. -1.
    10030    2    1    2    0    0  0.00000000000E+00  0.00000000000E+00  0.75243417783E+03  0.15925153967E+04  0.14035483949E+04 0.  0.
        1    1    3    3  502    0  0.27685737842E+03  0.21327805075E+03 -0.31428043099E+03  0.47001034483E+03  0.50400001928E-02 0. -1.
       -1    1    3    3    0  502 -0.27685737842E+03 -0.21327805075E+03  0.10667146088E+04  0.11225050519E+04  0.50400001928E-02 0.  1.
</event>
<event>
 5   0  0.3917598E-04  0.1398473E+04  0.7818609E-02  0.8954925E-01
        2   -1    0    0  501    0  0.00000000000E+00  0.00000000000E+00  0.15687449590E+04  0.15687449590E+04  0.25500000920E-02 0. -1.
       -2   -1    0    0    0  501  0.00000000000E+00  0.00000000000E+00 -0.31167048588E+03  0.31167048589E+03  0.25500000920E-02 0.  1.
    10030    2    1    2    0    0  0.00000000000E+00  0.00000000000E+00  0.12570744731E+04  0.18804154449E+04  0.13984727435E+04 0.  0.
        3    1    3    3  502    0 -0.67649290882E+03  0.10426775741E+03  0.43640663672E+03  0.81176670521E+03  0.10100000352E+00 0.  1.
       -3    1    3    3    0  502  0.67649290882E+03 -0.10426775741E+03  0.82066783636E+03  0.10686487396E+04  0.10100000352E+00 0. -1.
</event>
<event>
 5   0  0.1497625E-04  0.1396816E+04  0.7818609E-02  0.8956127E-01
       -4   -1    0    0    0  501  0.00000000000E+00  0.00000000000E+00  0.56627232119E+03  0.56627374533E+03  0.12699999809E+01 0. -1.
        4   -1    0    0  501    0  0.00000000000E+00  0.00000000000E+00 -0.86137345891E+03  0.86137439515E+03  0.12699999809E+01 0.  1.
    10030    2    1    2    0    0  0.00000000000E+00  0.00000000000E+00 -0.29510113772E+03  0.14276481405E+04  0.13968158545E+04 0.  0.
        2    1    3    3  502    0  0.14339187717E+03  0.14790307783E+03 -0.82961665776E+03  0.85481012494E+03  0.25500000920E-02 0.  1.
       -2    1    3    3    0  502 -0.14339187717E+03 -0.14790307783E+03  0.53451552004E+03  0.57283801553E+03  0.25500000920E-02 0. -1.
</event>
<event>
 5   0  0.2223112E-04  0.1395851E+04  0.7818609E-02  0.8956827E-01
       -1   -1    0    0    0  501  0.00000000000E+00  0.00000000000E+00  0.90445620496E+03  0.90445620497E+03  0.50400001928E-02 0. -1.
        1   -1    0    0  501    0  0.00000000000E+00  0.00000000000E+00 -0.53855554428E+03  0.53855554431E+03  0.50400001928E-02 0.  1.
    10030    2    1    2    0    0  0.00000000000E+00  0.00000000000E+00  0.36590066067E+03  0.14430117493E+04  0.13958508570E+04 0.  0.
        1    1    3    3  502    0 -0.16686884627E+03  0.24908433008E+03  0.83449149445E+03  0.88671543896E+03  0.50400001928E-02 0. -1.
       -1    1    3    3    0  502  0.16686884627E+03 -0.24908433008E+03 -0.46859083378E+03  0.55629631032E+03  0.50400001928E-02 0.  1.
</event>
<event>
 5   0  0.2143942E-04  0.1361865E+04  0.7818609E-02  0.8981895E-01
        1   -1    0    0  501    0  0.00000000000E+00  0.00000000000E+00  0.47860158994E+03  0.47860158996E+03  0.50400001928E-02 0.  1.
       -1   -1    0    0    0  501  0.00000000000E+00  0.00000000000E+00 -0.96879914114E+03  0.96879914116E+03  0.50400001928E-02 0. -1.
    10030    2    1    2    0    0  0.00000000000E+00  0.00000000000E+00 -0.49019755121E+03  0.14474007311E+04  0.13618646178E+04 0.  0.
        4    1    3    3  502    0 -0.29587503336E+03  0.49962837791E+03 -0.62310099915E+03  0.85172003582E+03  0.12699999809E+01 0. -1.
       -4    1    3    3    0  502  0.29587503336E+03 -0.49962837791E+03  0.13290344794E+03  0.59568069530E+03  0.12699999809E+01 0.  1.
</event>
<event>
 5   0  0.1497625E-04  0.1407533E+04  0.7818609E-02  0.8948384E-01
       -3   -1    0    0    0  501  0.00000000000E+00  0.00000000000E+00  0.77999339935E+03  0.77999340589E+03  0.10100000352E+00 0.  1.
        3   -1    0    0  501    0  0.00000000000E+00  0.00000000000E+00 -0.63498895787E+03  0.63498896590E+03  0.10100000352E+00 0. -1.
    10030    2    1    2    0    0  0.00000000000E+00  0.00000000000E+00  0.14500444148E+03  0.14149823718E+04  0.14075328857E+04 0.  0.
        4    1    3    3  502    0 -0.15700067816E+03 -0.15710173068E+03 -0.59883110292E+03  0.63869434744E+03  0.12699999809E+01 0. -1.
       -4    1    3    3    0  502  0.15700067816E+03  0.15710173068E+03  0.74383554440E+03  0.77628802434E+03  0.12699999809E+01 0.  1.
</event>
<event>
 5   0  0.2217251E-04  0.1398580E+04  0.7818609E-02  0.8954847E-01
       -1   -1    0    0    0  501  0.00000000000E+00  0.00000000000E+00  0.51078410860E+03  0.51078410863E+03  0.50400001928E-02 0.  1.
        1   -1    0    0  501    0  0.00000000000E+00  0.00000000000E+00 -0.95736445728E+03  0.95736445729E+03  0.50400001928E-02 0. -1.
    10030    2    1    2    0    0  0.00000000000E+00  0.00000000000E+00 -0.44658034867E+03  0.14681485659E+04  0.13985800670E+04 0.  0.
        5    1    3    3  502    0  0.29369675331E+03  0.44277485898E+03  0.25394105215E+03  0.58891044023E+03  0.46999998093E+01 0.  1.
       -5    1    3    3    0  502 -0.29369675331E+03 -0.44277485898E+03 -0.70052140083E+03  0.87923812569E+03  0.46999998093E+01 0. -1.
</event>
<event>
 5   0  0.1497625E-04  0.1411506E+04  0.7818609E-02  0.8945532E-01
        4   -1    0    0  501    0  0.00000000000E+00  0.00000000000E+00  0.49396414995E+03  0.49396578255E+03  0.12699999809E+01 0.  1.
       -4   -1    0    0    0  501  0.00000000000E+00  0.00000000000E+00 -0.10083431594E+04  0.10083439591E+04  0.12699999809E+01 0. -1.
    10030    2    1    2    0    0  0.00000000000E+00  0.00000000000E+00 -0.51437900941E+03  0.15023097417E+04  0.14115058607E+04 0.  0.
        2    1    3    3  502    0 -0.62048456968E+03 -0.24967273460E+03 -0.17420407471E+02  0.66905982260E+03  0.25500000920E-02 0. -1.
       -2    1    3    3    0  502  0.62048456968E+03  0.24967273460E+03 -0.49695860194E+03  0.83324991909E+03  0.25500000920E-02 0.  1.
</event>
<event>
 5   0  0.3975164E-04  0.1409167E+04  0.7818609E-02  0.8947210E-01
        2   -1    0    0  501    0  0.00000000000E+00  0.00000000000E+00  0.16348690749E+04  0.16348690749E+04  0.25500000920E-02 0. -1.
       -2   -1    0    0    0  501  0.00000000000E+00  0.00000000000E+00 -0.30365597393E+03  0.30365597394E+03  0.25500000920E-02 0.  1.
    10030    2    1    2    0    0  0.00000000000E+00  0.00000000000E+00  0.13312131009E+04  0.19385250488E+04  0.14091667910E+04 0.  0.
        5    1    3    3  502    0  0.64162537716E+03  0.26701439663E+03  0.82506286755E+03  0.10787634764E+04  0.46999998093E+01 0.  1.
       -5    1    3    3    0  502 -0.64162537716E+03 -0.26701439663E+03  0.50615023338E+03  0.85976157240E+03  0.46999998093E+01 0. -1.
</event>
<event>
 5   0  0.3975164E-04  0.1398405E+04  0.7818609E-02  0.8954974E-01
        2   -1    0    0  501    0  0.00000000000E+00  0.00000000000E+00  0.14490126345E+04  0.14490126345E+04  0.25500000920E-02 0.  1.
       -2   -1    0    0    0  501  0.00000000000E+00  0.00000000000E+00 -0.33739142330E+03  0.33739142331E+03  0.25500000920E-02 0. -1.
    10030    2    1    2    0    0  0.00000000000E+00  0.00000000000E+00  0.11116212112E+04  0.17864040578E+04  0.13984054278E+04 0.  0.
        5    1    3    3  502    0  0.47856310563E+02  0.28683879813E+03 -0.25645135513E+03  0.38775779827E+03  0.46999998093E+01 0. -1.
       -5    1    3    3    0  502 -0.47856310563E+02 -0.28683879813E+03  0.13680725663E+04  0.13986462595E+04  0.46999998093E+01 0.  1.
</event>
<event>
 5   0  0.3975164E-04  0.1399019E+04  0.7818609E-02  0.8954529E-01
       -2   -1    0    0    0  501  0.00000000000E+00  0.00000000000E+00  0.21020787788E+03  0.21020787789E+03  0.25500000920E-02 0. -1.
        2   -1    0    0  501    0  0.00000000000E+00  0.00000000000E+00 -0.23277602246E+04  0.23277602246E+04  0.25500000920E-02 0.  1.
    10030    2    1    2    0    0  0.00000000000E+00  0.00000000000E+00 -0.21175523467E+04  0.25379681024E+04  0.13990189949E+04 0.  0.
        5    1    3    3  502    0 -0.55558477763E+03  0.13154019976E+03 -0.32565714357E+03  0.65730657569E+03  0.46999998093E+01 0. -1.
       -5    1    3    3    0  502  0.55558477763E+03 -0.13154019976E+03 -0.17918952031E+04  0.18806615268E+04  0.46999998093E+01 0.  1.
</event>
<event>
 5   0  0.2155352E-04  0.1401496E+04  0.7818609E-02  0.8952736E-01
       -1   -1    0    0    0  501  0.00000000000E+00  0.00000000000E+00  0.19600972255E+04  0.19600972255E+04  0.50400001928E-02 0. -1.
        1   -1    0    0  501    0  0.00000000000E+00  0.00000000000E+00 -0.25052214487E+03  0.25052214492E+03  0.50400001928E-02 0.  1.
    10030    2    1    2    0    0  0.00000000000E+00  0.00000000000E+00  0.17095750806E+04  0.22106193704E+04  0.14014960023E+04 0.  0.
        2    1    3    3  502    0 -0.68754221250E+03  0.13140030928E+03  0.80325388224E+03  0.10654563035E+04  0.25500000920E-02 0.  1.
       -2    1    3    3    0  502  0.68754221250E+03 -0.13140030928E+03  0.90632119834E+03  0.11451630669E+04  0.25500000920E-02 0. -1.
</event>
<event>
 5   0  0.3917598E-04  0.1385574E+04  0.7818609E-02  0.8964327E-01
        2   -1    0    0  501    0  0.00000000000E+00  0.00000000000E+00  0.62560210749E+03  0.62560210750E+03  0.25500000920E-02 0. -1.
       -2   -1    0    0    0  501  0.00000000000E+00  0.00000000000E+00 -0.76718716991E+03  0.76718716991E+03  0.25500000920E-02 0.  1.
    10030    2    1    2    0    0  0.00000000000E+00  0.00000000000E+00 -0.14158506241E+03  0.13927892774E+04  0.13855741198E+04 0.  0.
        3    1    3    3  502    0 -0.29955536321E+03 -0.62337183889E+03 -0.11135155739E+03  0.70051769763E+03  0.10100000352E+00 0.  1.
       -3    1    3    3    0  502  0.29955536321E+03  0.62337183889E+03 -0.30233505022E+02  0.69227157979E+03  0.10100000352E+00 0. -1.
</event>
<event>
 5   0  0.4208622E-04  0.1396110E+04  0.7818609E-02  0.8956639E-01
        2   -1    0    0  501    0  0.00000000000E+00  0.00000000000E+00  0.61886098751E+03  0.61886098752E+03  0.25500000920E-02 0. -1.
       -2   -1    0    0    0  501  0.00000000000E+00  0.00000000000E+00 -0.78738287329E+03  0.78738287329E+03  0.25500000920E-02 0.  1.
    10030    2    1    2    0    0  0.00000000000E+00  0.00000000000E+00 -0.16852188578E+03  0.14062438608E+04  0.13961096555E+04 0.  0.
        4    1    3    3  502    0  0.40004580509E+03  0.33920771459E+03  0.37971317072E+03  0.64752005739E+03  0.12699999809E+01 0. -1.
       -4    1    3    3    0  502 -0.40004580509E+03 -0.33920771459E+03 -0.54823505650E+03  0.75872380342E+03  0.12699999809E+01 0.  1.
</event>
<event>
 5   0  0.3917598E-04  0.1394494E+04  0.7818609E-02  0.8957814E-01
       -2   -1    0    0    0  501  0.00000000000E+00  0.00000000000E+00  0.14507689721E+04  0.14507689721E+04  0.25500000920E-02 0.  1.
        2   -1    0    0  501    0  0.00000000000E+00  0.00000000000E+00 -0.33510057545E+03  0.33510057546E+03  0.25500000920E-02 0. -1.
    10030    2    1    2    0    0  0.00000000000E+00  0.00000000000E+00  0.11156683967E+04  0.17858695476E+04  0.13944941985E+04 0.  0.
        3    1    3    3  502    0  0.32370264019E+03  0.37518128263E+03 -0.70352962900E+02  0.50049369995E+03  0.10100000352E+00 0. -1.
       -3    1    3    3    0  502 -0.32370264019E+03 -0.37518128263E+03  0.11860213596E+04  0.12853758476E+04  0.10100000352E+00 0.  1.
</event>
<event>
 5   0  0.2155352E-04  0.1394726E+04  0.7818609E-02  0.8957645E-01
        1   -1    0    0  501    0  0.00000000000E+00  0.00000000000E+00  0.94470246482E+03  0.94470246483E+03  0.50400001928E-02 0. -1.
       -1   -1    0    0    0  501  0.00000000000E+00  0.00000000000E+00 -0.51478099020E+03  0.51478099023E+03  0.50400001928E-02 0.  1.
    10030    2    1    2    0    0  0.00000000000E+00  0.00000000000E+00  0.42992147462E+03  0.14594834551E+04  0.13947255935E+04 0.  0.
        2    1    3    3  502    0 -0.60566744298E+03 -0.34207310030E+03  0.26694435721E+03  0.74505459349E+03  0.25500000920E-02 0. -1.
       -2    1    3    3    0  502  0.60566744298E+03  0.34207310030E+03  0.16297711741E+03  0.71442886157E+03  0.25500000920E-02 0.  1.
</event>
<event>
 5   0  0.3932568E-04  0.1396838E+04  0.7818609E-02  0.8956110E-01
        2   -1    0    0  501    0  0.00000000000E+00  0.00000000000E+00  0.92576999727E+03  0.92576999727E+03  0.25500000920E-02 0. -1.
       -2   -1    0    0    0  501  0.00000000000E+00  0.00000000000E+00 -0.52690109259E+03  0.52690109259E+03  0.25500000920E-02 0.  1.
    10030    2    1    2    0    0  0.00000000000E+00  0.00000000000E+00  0.39886890468E+03  0.14526710899E+04  0.13968381768E+04 0.  0.
        2    1    3    3  502    0  0.51959450304E+03 -0.32896566068E+03 -0.14484520017E+03  0.63180454693E+03  0.25500000920E-02 0. -1.
       -2    1    3    3    0  502 -0.51959450304E+03  0.32896566068E+03  0.54371410485E+03  0.82086654294E+03  0.25500000920E-02 0.  1.
</event>
<event>
 5   0  0.2143942E-04  0.1404225E+04  0.7818609E-02  0.8950766E-01
        1   -1    0    0  501    0  0.00000000000E+00  0.00000000000E+00  0.63036636209E+03  0.63036636211E+03  0.50400001928E-02 0.  1.
       -1   -1    0    0    0  501  0.00000000000E+00  0.00000000000E+00 -0.78202477112E+03  0.78202477114E+03  0.50400001928E-02 0. -1.
    10030    2    1    2    0    0  0.00000000000E+00  0.00000000000E+00 -0.15165840904E+03  0.14123911332E+04  0.14042252099E+04 0.  0.
        4    1    3    3  502    0 -0.13358106658E+03 -0.61267748058E+03 -0.39348677770E+03  0.74030470327E+03  0.12699999809E+01 0. -1.
       -4    1    3    3    0  502  0.13358106658E+03  0.61267748058E+03  0.24182836866E+03  0.67208642997E+03  0.12699999809E+01 0.  1.
</event>
<event>
 5   0  0.2143942E-04  0.1402916E+04  0.7818609E-02  0.8951710E-01
       -1   -1    0    0    0  501  0.00000000000E+00  0.00000000000E+00  0.11600853668E+04  0.11600853668E+04  0.50400001928E-02 0. -1.
        1   -1    0    0  501    0  0.00000000000E+00  0.00000000000E+00 -0.42414415167E+03  0.42414415170E+03  0.50400001928E-02 0.  1.
    10030    2    1    2    0    0  0.00000000000E+00  0.00000000000E+00  0.73594121510E+03  0.15842295185E+04  0.14029161397E+04 0.  0.
        4    1    3    3  502    0 -0.49481555362E+03 -0.21386624137E+03  0.87482295403E+03  0.10275689831E+04  0.12699999809E+01 0. -1.
       -4    1    3    3    0  502  0.49481555362E+03  0.21386624137E+03 -0.13888173893E+03  0.55666053535E+03  0.12699999809E+01 0.  1.
</event>
<event>
 5   0  0.4208622E-04  0.1403618E+04  0.7818609E-02  0.8951204E-01
       -2   -1    0    0    0  501  0.00000000000E+00  0.00000000000E+00  0.45221111607E+03  0.45221111608E+03  0.25500000920E-02 0.  1.
        2   -1    0    0  501    0  0.00000000000E+00  0.00000000000E+00 -0.10891722803E+04  0.10891722803E+04  0.25500000920E-02 0. -1.
    10030    2    1    2    0    0  0.00000000000E+00  0.00000000000E+00 -0.63696116426E+03  0.15413833964E+04  0.14036179145E+04 0.  0.
        4    1    3    3  502    0 -0.15202321092E+03 -0.38129641994E+02 -0.10697062928E+04  0.10811281570E+04  0.12699999809E+01 0. -1.
       -4    1    3    3    0  502  0.15202321092E+03  0.38129641994E+02  0.43274512849E+03  0.46025523940E+03  0.12699999809E+01 0.  1.
</event>
<event>
 5   0  0.2215876E-04  0.1405599E+04  0.7818609E-02  0.8949776E-01
       -1   -1    0    0    0  501  0.00000000000E+00  0.00000000000E+00  0.85043538037E+03  0.85043538039E+03  0.50400001928E-02 0. -1.
        1   -1    0    0  501    0  0.00000000000E+00  0.00000000000E+00 -0.58079285118E+03  0.58079285120E+03  0.50400001928E-02 0.  1.
    10030    2    1    2    0    0  0.00000000000E+00  0.00000000000E+00  0.26964252919E+03  0.14312282316E+04  0.14055985050E+04 0.  0.
        3    1    3    3  502    0  0.67279627624E+03 -0.76908346249E+02 -0.56642086756E+02  0.67954253674E+03  0.10100000352E+00 0. -1.
       -3    1    3    3    0  502 -0.67279627624E+03  0.76908346249E+02  0.32628461594E+03  0.75168569485E+03  0.10100000352E+00 0.  1.
</event>
<event>
 5   0  0.2155352E-04  0.1404201E+04  0.7818609E-02  0.8950783E-01
        1   -1    0    0  501    0  0.00000000000E+00  0.00000000000E+00  0.92267266488E+03  0.92267266490E+03  0.50400001928E-02 0. -1.
       -1   -1    0    0    0  501  0.00000000000E+00  0.00000000000E+00 -0.53425797779E+03  0.53425797781E+03  0.50400001928E-02 0.  1.
    10030    2    1    2    0    0  0.00000000000E+00  0.00000000000E+00  0.38841468710E+03  0.14569306427E+04  0.14042011710E+04 0.  0.
        2    1    3    3  502    0 -0.64120779092E+03 -0.13926971305E+03  0.45339118625E+03  0.79756319617E+03  0.25500000920E-02 0. -1.
       -2    1    3    3    0  502  0.64120779092E+03  0.13926971305E+03 -0.64976499157E+02  0.65936744654E+03  0.25500000920E-02 0.  1.
</event>
<event>
 5   0  0.3917598E-04  0.1336825E+04  0.7818609E-02  0.9000862E-01
       -2   -1    0    0    0  501  0.00000000000E+00  0.00000000000E+00  0.12666252422E+04  0.12666252422E+04  0.25500000920E-02 0.  1.
        2   -1    0    0  501    0  0.00000000000E+00  0.00000000000E+00 -0.35272885725E+03  0.35272885726E+03  0.25500000920E-02 0. -1.
    10030    2    1    2    0    0  0.00000000000E+00  0.00000000000E+00  0.91389638498E+03  0.16193540995E+04  0.13368250061E+04 0.  0.
        3    1    3    3  502    0 -0.51255104041E+03  0.42677050029E+03  0.51021473725E+03  0.83973848146E+03  0.10100000352E+00 0.  1.
       -3    1    3    3    0  502  0.51255104041E+03 -0.42677050029E+03  0.40368164773E+03  0.77961561802E+03  0.10100000352E+00 0. -1.
</event>
<event>
 5   0  0.3917598E-04  0.1402080E+04  0.7818609E-02  0.8952315E-01
        2   -1    0    0  501    0  0.00000000000E+00  0.00000000000E+00  0.12980228782E+04  0.12980228782E+04  0.25500000920E-02 0. -1.
       -2   -1    0    0    0  501  0.00000000000E+00  0.00000000000E+00 -0.37861950568E+03  0.37861950568E+03  0.25500000920E-02 0.  1.
    10030    2    1    2    0    0  0.00000000000E+00  0.00000000000E+00  0.91940337255E+03  0.16766423839E+04  0.14020795705E+04 0.  0.
        3    1    3    3  502    0  0.43793197633E+03 -0.35954942513E+03  0.95332788049E+03  0.11090059797E+04  0.10100000352E+00 0.  1.
       -3    1    3    3    0  502 -0.43793197633E+03  0.35954942513E+03 -0.33924507932E+02  0.56763640426E+03  0.10100000352E+00 0. -1.
</event>
<event>
 5   0  0.4208622E-04  0.1403733E+04  0.7818609E-02  0.8951121E-01
       -2   -1    0    0    0  501  0.00000000000E+00  0.00000000000E+00  0.33792642802E+03  0.33792642803E+03  0.25500000920E-02 0.  1.
        2   -1    0    0  501    0  0.00000000000E+00  0.00000000000E+00 -0.14577619294E+04  0.14577619294E+04  0.25500000920E-02 0. -1.
    10030    2    1    2    0    0  0.00000000000E+00  0.00000000000E+00 -0.11198355014E+04  0.17956883574E+04  0.14037325696E+04 0.  0.
        4    1    3    3  502    0  0.58246422047E+03  0.24525658962E+03 -0.16938907441E+03  0.65430087445E+03  0.12699999809E+01 0.  1.
       -4    1    3    3    0  502 -0.58246422047E+03 -0.24525658962E+03 -0.95044642698E+03  0.11413874830E+04  0.12699999809E+01 0. -1.
</event>
<event>
 5   0  0.2223112E-04  0.1405017E+04  0.7818609E-02  0.8950195E-01
       -1   -1    0    0    0  501  0.00000000000E+00  0.00000000000E+00  0.23423535968E+03  0.23423535974E+03  0.50400001928E-02 0.  1.
        1   -1    0    0  501    0  0.00000000000E+00  0.00000000000E+00 -0.21069332130E+04  0.21069332130E+04  0.50400001928E-02 0. -1.
    10030    2    1    2    0    0  0.00000000000E+00  0.00000000000E+00 -0.18726978534E+04  0.23411685728E+04  0.14050170946E+04 0.  0.
        1    1    3    3  502    0 -0.94770967668E+02 -0.37043826652E+03  0.45650208339E+02  0.38508438966E+03  0.50400001928E-02 0.  1.
       -1    1    3    3    0  502  0.94770967668E+02  0.37043826652E+03 -0.19183480617E+04  0.19560841831E+04  0.50400001928E-02 0. -1.
</event>
<event>
 5   0  0.4208622E-04  0.1398853E+04  0.7818609E-02  0.8954649E-01
       -2   -1    0    0    0  501  0.00000000000E+00  0.00000000000E+00  0.29047195436E+03  0.29047195437E+03  0.25500000920E-02 0.  1.
        2   -1    0    0  501    0  0.00000000000E+00  0.00000000000E+00 -0.16841463732E+04  0.16841463732E+04  0.25500000920E-02 0. -1.
    10030    2    1    2    0    0  0.00000000000E+00  0.00000000000E+00 -0.13936744188E+04  0.19746183276E+04  0.13988527992E+04 0.  0.
        4    1    3    3  502    0  0.55809180647E+03 -0.42083162871E+03 -0.66140773842E+03  0.96230324405E+03  0.12699999809E+01 0. -1.
       -4    1    3    3    0  502 -0.55809180647E+03  0.42083162871E+03 -0.73226668040E+03  0.10123150835E+04  0.12699999809E+01 0.  1.
</event>
<event>
 5   0  0.2215876E-04  0.1393008E+04  0.7818609E-02  0.8958895E-01
        1   -1    0    0  501    0  0.00000000000E+00  0.00000000000E+00  0.47628563767E+03  0.47628563770E+03  0.50400001928E-02 0. -1.
       -1   -1    0    0    0  501  0.00000000000E+00  0.00000000000E+00 -0.10185439270E+04  0.10185439270E+04  0.50400001928E-02 0.  1.
    10030    2    1    2    0    0  0.00000000000E+00  0.00000000000E+00 -0.54225828935E+03  0.14948295647E+04  0.13930080313E+04 0.  0.
        3    1    3    3  502    0  0.41442098850E+03  0.20966536392E+02 -0.87142324459E+03  0.96517502701E+03  0.10100000352E+00 0.  1.
       -3    1    3    3    0  502 -0.41442098850E+03 -0.20966536392E+02  0.32916495524E+03  0.52965453771E+03  0.10100000352E+00 0. -1.
</event>
<event>
 5   0  0.3917598E-04  0.1400488E+04  0.7818609E-02  0.8953465E-01
       -2   -1    0    0    0  501  0.00000000000E+00  0.00000000000E+00  0.32182421050E+03  0.32182421051E+03  0.25500000920E-02 0.  1.
        2   -1    0    0  501    0  0.00000000000E+00  0.00000000000E+00 -0.15236326192E+04  0.15236326192E+04  0.25500000920E-02 0. -1.
    10030    2    1    2    0    0  0.00000000000E+00  0.00000000000E+00 -0.12018084087E+04  0.18454568297E+04  0.14004882931E+04 0.  0.
        3    1    3    3  502    0  0.68315483103E+03 -0.15351787243E+03 -0.58959983392E+03  0.91536672141E+03  0.10100000352E+00 0. -1.
       -3    1    3    3    0  502 -0.68315483103E+03  0.15351787243E+03 -0.61220857478E+03  0.93009010829E+03  0.10100000352E+00 0.  1.
</event>
<event>
 5   0  0.3975164E-04  0.1404578E+04  0.7818609E-02  0.8950512E-01
       -2   -1    0    0    0  501  0.00000000000E+00  0.00000000000E+00  0.48080011371E+03  0.48080011372E+03  0.25500000920E-02 0.  1.
        2   -1    0    0  501    0  0.00000000000E+00  0.00000000000E+00 -0.10258099514E+04  0.10258099514E+04  0.25500000920E-02 0. -1.
    10030    2    1    2    0    0  0.00000000000E+00  0.00000000000E+00 -0.54500983771E+03  0.15066100651E+04  0.14045775754E+04 0.  0.
        5    1    3    3  502    0  0.71684029297E+02 -0.62842767273E+03 -0.59984119151E+03  0.87171754883E+03  0.46999998093E+01 0. -1.
       -5    1    3    3    0  502 -0.71684029297E+02  0.62842767273E+03  0.54831353806E+02  0.63489251631E+03  0.46999998093E+01 0.  1.
</event>
<event>
 5   0  0.2223112E-04  0.1401844E+04  0.7818609E-02  0.8952485E-01
        1   -1    0    0  501    0  0.00000000000E+00  0.00000000000E+00  0.13753311844E+04  0.13753311844E+04  0.50400001928E-02 0.  1.
       -1   -1    0    0    0  501  0.00000000000E+00  0.00000000000E+00 -0.35721691473E+03  0.35721691476E+03  0.50400001928E-02 0. -1.
    10030    2    1    2    0    0  0.00000000000E+00  0.00000000000E+00  0.10181142696E+04  0.17325480991E+04  0.14018438750E+04 0.  0.
        1    1    3    3  502    0 -0.13961805260E+03 -0.35884507898E+03 -0.21479656588E+03  0.44090878428E+03  0.50400001928E-02 0. -1.
       -1    1    3    3    0  502  0.13961805260E+03  0.35884507898E+03  0.12329108355E+04  0.12916393149E+04  0.50400001928E-02 0.  1.
</event>
<event>
 5   0  0.2223112E-04  0.1432239E+04  0.7818609E-02  0.8930807E-01
       -1   -1    0    0    0  501  0.00000000000E+00  0.00000000000E+00  0.44468469796E+03  0.44468469799E+03  0.50400001928E-02 0.  1.
        1   -1    0    0  501    0  0.00000000000E+00  0.00000000000E+00 -0.11532372593E+04  0.11532372593E+04  0.50400001928E-02 0. -1.
    10030    2    1    2    0    0  0.00000000000E+00  0.00000000000E+00 -0.70855256135E+03  0.15979219573E+04  0.14322387543E+04 0.  0.
        1    1    3    3  502    0 -0.39656909226E+03 -0.15671136632E+03 -0.99615813945E+03  0.10835850387E+04  0.50400001928E-02 0. -1.
       -1    1    3    3    0  502  0.39656909226E+03  0.15671136632E+03  0.28760557810E+03  0.51433691861E+03  0.50400001928E-02 0.  1.
</event>
<event>
 5   0  0.4310348E-04  0.1412055E+04  0.7818609E-02  0.8945139E-01
       -2   -1    0    0    0  501  0.00000000000E+00  0.00000000000E+00  0.58791139159E+03  0.58791139160E+03  0.25500000920E-02 0.  1.
        2   -1    0    0  501    0  0.00000000000E+00  0.00000000000E+00 -0.84787383634E+03  0.84787383634E+03  0.25500000920E-02 0. -1.
    10030    2    1    2    0    0  0.00000000000E+00  0.00000000000E+00 -0.25996244474E+03  0.14357852279E+04  0.14120547964E+04 0.  0.
        1    1    3    3  502    0 -0.61180363911E+03  0.28625940253E+03 -0.33892561637E+03  0.75572396536E+03  0.50400001928E-02 0.  1.
       -1    1    3    3    0  502  0.61180363911E+03 -0.28625940253E+03  0.78963171628E+02  0.68006126258E+03  0.50400001928E-02 0. -1.
</event>
<event>
 5   0  0.2143942E-04  0.1413733E+04  0.7818609E-02  0.8943938E-01
       -1   -1    0    0    0  501  0.00000000000E+00  0.00000000000E+00  0.95266987953E+03  0.95266987955E+03  0.50400001928E-02 0. -1.
        1   -1    0    0  501    0  0.00000000000E+00  0.00000000000E+00 -0.52448391818E+03  0.52448391821E+03  0.50400001928E-02 0.  1.
    10030    2    1    2    0    0  0.00000000000E+00  0.00000000000E+00  0.42818596135E+03  0.14771537978E+04  0.14137326921E+04 0.  0.
        4    1    3    3  502    0  0.21576475207E+03 -0.67091573344E+03  0.27109364111E+03  0.75509981113E+03  0.12699999809E+01 0. -1.
       -4    1    3    3    0  502 -0.21576475207E+03  0.67091573344E+03  0.15709232024E+03  0.72205398662E+03  0.12699999809E+01 0.  1.
</event>
<event>
 5   0  0.3975164E-04  0.1406775E+04  0.7818609E-02  0.8948929E-01
       -2   -1    0    0    0  501  0.00000000000E+00  0.00000000000E+00  0.65741652406E+03  0.65741652407E+03  0.25500000920E-02 0.  1.
        2   -1    0    0  501    0  0.00000000000E+00  0.00000000000E+00 -0.75257322728E+03  0.75257322728E+03  0.25500000920E-02 0. -1.
    10030    2    1    2    0    0  0.00000000000E+00  0.00000000000E+00 -0.95156703218E+02  0.14099897514E+04  0.14067751422E+04 0.  0.
        5    1    3    3  502    0 -0.29606709428E+03 -0.63414809330E+03  0.22813584147E+02  0.70024429892E+03  0.46999998093E+01 0. -1.
       -5    1    3    3    0  502  0.29606709428E+03  0.63414809330E+03 -0.11797028737E+03  0.70974545243E+03  0.46999998093E+01 0.  1.
</event>
<event>
 5   0  0.2155352E-04  0.1404189E+04  0.7818609E-02  0.8950792E-01
       -1   -1    0    0    0  501  0.00000000000E+00  0.00000000000E+00  0.87721437027E+03  0.87721437028E+03  0.50400001928E-02 0.  1.
        1   -1    0    0  501    0  0.00000000000E+00  0.00000000000E+00 -0.56193405896E+03  0.56193405898E+03  0.50400001928E-02 0. -1.
    10030    2    1    2    0    0  0.00000000000E+00  0.00000000000E+00  0.31528031131E+03  0.14391484293E+04  0.14041889213E+04 0.  0.
        2    1    3    3  502    0  0.31947065616E+02 -0.28363173433E+03  0.81506882025E+03  0.86359988274E+03  0.25500000920E-02 0.  1.
       -2    1    3    3    0  502 -0.31947065616E+02  0.28363173433E+03 -0.49978850894E+03  0.57554854652E+03  0.25500000920E-02 0. -1.
</event>
<event>
 5   0  0.2217251E-04  0.1393480E+04  0.7818609E-02  0.8958551E-01
        1   -1    0    0  501    0  0.00000000000E+00  0.00000000000E+00  0.94381409417E+03  0.94381409418E+03  0.50400001928E-02 0.  1.
       -1   -1    0    0    0  501  0.00000000000E+00  0.00000000000E+00 -0.51434586623E+03  0.51434586625E+03  0.50400001928E-02 0. -1.
    10030    2    1    2    0    0  0.00000000000E+00  0.00000000000E+00  0.42946822794E+03  0.14581599604E+04  0.13934803592E+04 0.  0.
        5    1    3    3  502    0  0.26699982015E+03 -0.49021319017E+03 -0.22154339486E+03  0.60058425019E+03  0.46999998093E+01 0. -1.
       -5    1    3    3    0  502 -0.26699982015E+03  0.49021319017E+03  0.65101162280E+03  0.85757571024E+03  0.46999998093E+01 0.  1.
</event>
<event>
 5   0  0.2223112E-04  0.1401626E+04  0.7818609E-02  0.8952643E-01
        1   -1    0    0  501    0  0.00000000000E+00  0.00000000000E+00  0.97871728957E+03  0.97871728958E+03  0.50400001928E-02 0.  1.
       -1   -1    0    0    0  501  0.00000000000E+00  0.00000000000E+00 -0.50181857159E+03  0.50181857162E+03  0.50400001928E-02 0. -1.
    10030    2    1    2    0    0  0.00000000000E+00  0.00000000000E+00  0.47689871798E+03  0.14805358612E+04  0.14016255024E+04 0.  0.
        1    1    3    3  502    0  0.51456143448E+03 -0.45051263139E+03  0.76854878219E+02  0.68821637094E+03  0.50400001928E-02 0. -1.
       -1    1    3    3    0  502 -0.51456143448E+03  0.45051263139E+03  0.40004383976E+03  0.79231949026E+03  0.50400001928E-02 0.  1.
</event>
<event>
 5   0  0.3975164E-04  0.1401717E+04  0.7818609E-02  0.8952576E-01
       -2   -1    0    0    0  501  0.00000000000E+00  0.00000000000E+00  0.51331024598E+03  0.51331024598E+03  0.25500000920E-02 0.  1.
        2   -1    0    0  501    0  0.00000000000E+00  0.00000000000E+00 -0.95693161293E+03  0.95693161293E+03  0.25500000920E-02 0. -1.
    10030    2    1    2    0    0  0.00000000000E+00  0.00000000000E+00 -0.44362136695E+03  0.14702418589E+04  0.14017172349E+04 0.  0.
        5    1    3    3  502    0 -0.60229685440E+03 -0.21884234992E+03  0.75835123047E+02  0.64531118914E+03  0.46999998093E+01 0.  1.
       -5    1    3    3    0  502  0.60229685440E+03  0.21884234992E+03 -0.51945649000E+03  0.82493066978E+03  0.46999998093E+01 0. -1.
</event>
<event>
 5   0  0.2155352E-04  0.1406865E+04  0.7818609E-02  0.8948865E-01
       -1   -1    0    0    0  501  0.00000000000E+00  0.00000000000E+00  0.72196343197E+03  0.72196343199E+03  0.50400001928E-02 0.  1.
        1   -1    0    0  501    0  0.00000000000E+00  0.00000000000E+00 -0.68537678402E+03  0.68537678403E+03  0.50400001928E-02 0. -1.
    10030    2    1    2    0    0  0.00000000000E+00  0.00000000000E+00  0.36586647953E+02  0.14073402160E+04  0.14068645638E+04 0.  0.
        2    1    3    3  502    0  0.83512295988E+02  0.44876588027E+03  0.55368624911E+03  0.71758872715E+03  0.25500000920E-02 0.  1.
       -2    1    3    3    0  502 -0.83512295988E+02 -0.44876588027E+03 -0.51709960116E+03  0.68975148887E+03  0.25500000920E-02 0. -1.
</event>
<event>
 5   0  0.2215876E-04  0.1398195E+04  0.7818609E-02  0.8955126E-01
       -1   -1    0    0    0  501  0.00000000000E+00  0.00000000000E+00  0.68804035066E+03  0.68804035068E+03  0.50400001928E-02 0. -1.
        1   -1    0    0  501    0  0.00000000000E+00  0.00000000000E+00 -0.71033252276E+03  0.71033252278E+03  0.50400001928E-02 0.  1.
    10030    2    1    2    0    0  0.00000000000E+00  0.00000000000E+00 -0.22292172097E+02  0.13983728735E+04  0.13981951767E+04 0.  0.
        3    1    3    3  502    0 -0.49495809043E+03  0.32142248982E+03 -0.38594896668E+03  0.70516135978E+03  0.10100000352E+00 0.  1.
       -3    1    3    3    0  502  0.49495809043E+03 -0.32142248982E+03  0.36365679459E+03  0.69321151368E+03  0.10100000352E+00 0. -1.
</event>
<event>
 5   0  0.3975164E-04  0.1398265E+04  0.7818609E-02  0.8955075E-01
       -2   -1    0    0    0  501  0.00000000000E+00  0.00000000000E+00  0.32968460531E+03  0.32968460532E+03  0.25500000920E-02 0.  1.
        2   -1    0    0  501    0  0.00000000000E+00  0.00000000000E+00 -0.14825879029E+04  0.14825879029E+04  0.25500000920E-02 0. -1.
    10030    2    1    2    0    0  0.00000000000E+00  0.00000000000E+00 -0.11529032976E+04  0.18122725082E+04  0.13982652218E+04 0.  0.
        5    1    3    3  502    0  0.48870548095E+03  0.45009437035E+03 -0.29443347304E+03  0.72672632357E+03  0.46999998093E+01 0.  1.
       -5    1    3    3    0  502 -0.48870548095E+03 -0.45009437035E+03 -0.85846982454E+03  0.10855461846E+04  0.46999998093E+01 0. -1.
</event>
<event>
 5   0  0.1497625E-04  0.1398493E+04  0.7818609E-02  0.8954910E-01
       -4   -1    0    0    0  501  0.00000000000E+00  0.00000000000E+00  0.31948528434E+03  0.31948780854E+03  0.12699999809E+01 0.  1.
        4   -1    0    0  501    0  0.00000000000E+00  0.00000000000E+00 -0.15304089132E+04  0.15304094401E+04  0.12699999809E+01 0. -1.
    10030    2    1    2    0    0  0.00000000000E+00  0.00000000000E+00 -0.12109236288E+04  0.18498972487E+04  0.13984934021E+04 0.  0.
        2    1    3    3  502    0 -0.57413662874E+03 -0.30556990217E+03 -0.26578802521E+03  0.70260167088E+03  0.25500000920E-02 0.  1.
       -2    1    3    3    0  502  0.57413662874E+03  0.30556990217E+03 -0.94513560364E+03  0.11472955778E+04  0.25500000920E-02 0. -1.
</event>
<event>
 5   0  0.4310348E-04  0.1402090E+04  0.7818609E-02  0.8952307E-01
        2   -1    0    0  501    0  0.00000000000E+00  0.00000000000E+00  0.13997276376E+04  0.13997276376E+04  0.25500000920E-02 0.  1.
       -2   -1    0    0    0  501  0.00000000000E+00  0.00000000000E+00 -0.35111393279E+03  0.35111393280E+03  0.25500000920E-02 0. -1.
    10030    2    1    2    0    0  0.00000000000E+00  0.00000000000E+00  0.10486137048E+04  0.17508415704E+04  0.14020896914E+04 0.  0.
        1    1    3    3  502    0  0.22299713128E+03 -0.65351197282E+03  0.67549307338E+03  0.96596920830E+03  0.50400001928E-02 0. -1.
       -1    1    3    3    0  502 -0.22299713128E+03  0.65351197282E+03  0.37312063143E+03  0.78487236211E+03  0.50400001928E-02 0.  1.
</event>
<event>
 5   0  0.2143942E-04  0.1392083E+04  0.7818609E-02  0.8959569E-01
        1   -1    0    0  501    0  0.00000000000E+00  0.00000000000E+00  0.55084822418E+03  0.55084822420E+03  0.50400001928E-02 0.  1.
       -1   -1    0    0    0  501  0.00000000000E+00  0.00000000000E+00 -0.87950481241E+03  0.87950481243E+03  0.50400001928E-02 0. -1.
    10030    2    1    2    0    0  0.00000000000E+00  0.00000000000E+00 -0.32865658824E+03  0.14303530366E+04  0.13920828483E+04 0.  0.
        4    1    3    3  502    0  0.35719135981E+03 -0.18046476232E+03  0.42081772878E+03  0.58072572848E+03  0.12699999809E+01 0.  1.
       -4    1    3    3    0  502 -0.35719135981E+03  0.18046476232E+03 -0.74947431702E+03  0.84962730814E+03  0.12699999809E+01 0. -1.
</event>
<event>
 5   0  0.2217251E-04  0.1397861E+04  0.7818609E-02  0.8955368E-01
        1   -1    0    0  501    0  0.00000000000E+00  0.00000000000E+00  0.99472307760E+03  0.99472307762E+03  0.50400001928E-02 0.  1.
       -1   -1    0    0    0  501  0.00000000000E+00  0.00000000000E+00 -0.49109519974E+03  0.49109519977E+03  0.50400001928E-02 0. -1.
    10030    2    1    2    0    0  0.00000000000E+00  0.00000000000E+00  0.50362787786E+03  0.14858182774E+04  0.13978608350E+04 0.  0.
        5    1    3    3  502    0  0.37411927353E+03  0.37877530098E+03  0.73312636078E+03  0.90605314984E+03  0.46999998093E+01 0.  1.
       -5    1    3    3    0  502 -0.37411927353E+03 -0.37877530098E+03 -0.22949848292E+03  0.57976512755E+03  0.46999998093E+01 0. -1.
</event>
<event>
 5   0  0.2223112E-04  0.1382621E+04  0.7818609E-02  0.8966495E-01
       -1   -1    0    0    0  501  0.00000000000E+00  0.00000000000E+00  0.39547493107E+03  0.39547493111E+03  0.50400001928E-02 0. -1.
        1   -1    0    0  501    0  0.00000000000E+00  0.00000000000E+00 -0.12084470683E+04  0.12084470683E+04  0.50400001928E-02 0.  1.
    10030    2    1    2    0    0  0.00000000000E+00  0.00000000000E+00 -0.81297213725E+03  0.16039219994E+04  0.13826214537E+04 0.  0.
        1    1    3    3  502    0  0.35839941382E+03 -0.29649327985E+02 -0.10913936831E+04  0.11491167887E+04  0.50400001928E-02 0.  1.
       -1    1    3    3    0  502 -0.35839941382E+03  0.29649327985E+02  0.27842154589E+03  0.45480521074E+03  0.50400001928E-02 0. -1.
</event>
<event>
 5   0  0.3932568E-04  0.1395406E+04  0.7818609E-02  0.8957150E-01
       -2   -1    0    0    0  501  0.00000000000E+00  0.00000000000E+00  0.37893002914E+03  0.37893002915E+03  0.25500000920E-02 0.  1.
        2   -1    0    0  501    0  0.00000000000E+00  0.00000000000E+00 -0.12846428011E+04  0.12846428011E+04  0.25500000920E-02 0. -1.
    10030    2    1    2    0    0  0.00000000000E+00  0.00000000000E+00 -0.90571277198E+03  0.16635728303E+04  0.13954063696E+04 0.  0.
        2    1    3    3  502    0 -0.57535003319E+03 -0.35782187900E+03 -0.25434683426E+03  0.72371021126E+03  0.25500000920E-02 0.  1.
       -2    1    3    3    0  502  0.57535003319E+03  0.35782187900E+03 -0.65136593772E+03  0.93986261901E+03  0.25500000920E-02 0. -1.
</event>
<event>
 5   0  0.2215876E-04  0.1399245E+04  0.7818609E-02  0.8954365E-01
        1   -1    0    0  501    0  0.00000000000E+00  0.00000000000E+00  0.17448010914E+04  0.17448010914E+04  0.50400001928E-02 0. -1.
       -1   -1    0    0    0  501  0.00000000000E+00  0.00000000000E+00 -0.28053137615E+03  0.28053137619E+03  0.50400001928E-02 0.  1.
    10030    2    1    2    0    0  0.00000000000E+00  0.00000000000E+00  0.14642697152E+04  0.20253324676E+04  0.13992447267E+04 0.  0.
        3    1    3    3  502    0  0.63442714148E+03 -0.23261784775E+03  0.46974111424E+03  0.82296147270E+03  0.10100000352E+00 0.  1.
       -3    1    3    3    0  502 -0.63442714148E+03  0.23261784775E+03  0.99452860099E+03  0.12023709949E+04  0.10100000352E+00 0. -1.
</event>
<event>
 5   0  0.2155352E-04  0.1402866E+04  0.7818609E-02  0.8951746E-01
       -1   -1    0    0    0  501  0.00000000000E+00  0.00000000000E+00  0.57926340371E+03  0.57926340373E+03  0.50400001928E-02 0.  1.
        1   -1    0    0  501    0  0.00000000000E+00  0.00000000000E+00 -0.84936902739E+03  0.84936902741E+03  0.50400001928E-02 0. -1.
    10030    2    1    2    0    0  0.00000000000E+00  0.00000000000E+00 -0.27010562368E+03  0.14286324311E+04  0.14028662001E+04 0.  0.
        2    1    3    3  502    0 -0.60521020065E+03 -0.26804969898E+03  0.10132758645E+03  0.66962475154E+03  0.25500000920E-02 0. -1.
       -2    1    3    3    0  502  0.60521020065E+03  0.26804969898E+03 -0.37143321013E+03  0.75900767960E+03  0.25500000920E-02 0.  1.
</event>
<event>
 5   0  0.2143942E-04  0.1400089E+04  0.7818609E-02  0.8953754E-01
       -1   -1    0    0    0  501  0.00000000000E+00  0.00000000000E+00  0.19863656905E+04  0.19863656905E+04  0.50400001928E-02 0. -1.
        1   -1    0    0  501    0  0.00000000000E+00  0.00000000000E+00 -0.24671314950E+03  0.24671314955E+03  0.50400001928E-02 0.  1.
    10030    2    1    2    0    0  0.00000000000E+00  0.00000000000E+00  0.17396525410E+04  0.22330788400E+04  0.14000893337E+04 0.  0.
        4    1    3    3  502    0 -0.44684942323E+03  0.25380531438E+02  0.11298605894E+02  0.44771402683E+03  0.12699999809E+01 0.  1.
       -4    1    3    3    0  502  0.44684942323E+03 -0.25380531438E+02  0.17283539351E+04  0.17853648132E+04  0.12699999809E+01 0. -1.
</event>
<event>
 5   0  0.3917598E-04  0.1408393E+04  0.7818609E-02  0.8947765E-01
       -2   -1    0    0    0  501  0.00000000000E+00  0.00000000000E+00  0.40671952759E+03  0.40671952760E+03  0.25500000920E-02 0.  1.
        2   -1    0    0  501    0  0.00000000000E+00  0.00000000000E+00 -0.12192504262E+04  0.12192504262E+04  0.25500000920E-02 0. -1.
    10030    2    1    2    0    0  0.00000000000E+00  0.00000000000E+00 -0.81253089857E+03  0.16259699538E+04  0.14083933504E+04 0.  0.
        3    1    3    3  502    0 -0.55945791044E+03 -0.21815898871E+03  0.18400851146E+02  0.60077042157E+03  0.10100000352E+00 0.  1.
       -3    1    3    3    0  502  0.55945791044E+03  0.21815898871E+03 -0.83093174971E+03  0.10251995322E+04  0.10100000352E+00 0. -1.
</event>
<event>
 5   0  0.3917598E-04  0.1402884E+04  0.7818609E-02  0.8951733E-01
        2   -1    0    0  501    0  0.00000000000E+00  0.00000000000E+00  0.10960649568E+04  0.10960649568E+04  0.25500000920E-02 0. -1.
       -2   -1    0    0    0  501  0.00000000000E+00  0.00000000000E+00 -0.44889771865E+03  0.44889771865E+03  0.25500000920E-02 0.  1.
    10030    2    1    2    0    0  0.00000000000E+00  0.00000000000E+00  0.64716723813E+03  0.15449626754E+04  0.14028842555E+04 0.  0.
        3    1    3    3  502    0  0.35968747644E+03 -0.26451002816E+03 -0.27220606601E+03  0.52291183605E+03  0.10100000352E+00 0.  1.
       -3    1    3    3    0  502 -0.35968747644E+03  0.26451002816E+03  0.91937330415E+03  0.10220508394E+04  0.10100000352E+00 0. -1.
</event>
<event>
 5   0  0.2155352E-04  0.1394335E+04  0.7818609E-02  0.8957929E-01
       -1   -1    0    0    0  501  0.00000000000E+00  0.00000000000E+00  0.62609643690E+03  0.62609643692E+03  0.50400001928E-02 0. -1.
        1   -1    0    0  501    0  0.00000000000E+00  0.00000000000E+00 -0.77630620835E+03  0.77630620837E+03  0.50400001928E-02 0.  1.
    10030    2    1    2    0    0  0.00000000000E+00  0.00000000000E+00 -0.15020977146E+03  0.14024026453E+04  0.13943350401E+04 0.  0.
        2    1    3    3  502    0 -0.20431925963E+03  0.96880174682E+02  0.58818822841E+03  0.63015674253E+03  0.25500000920E-02 0. -1.
       -2    1    3    3    0  502  0.20431925963E+03 -0.96880174682E+02 -0.73839799987E+03  0.77224590276E+03  0.25500000920E-02 0.  1.
</event>
<event>
 5   0  0.2217251E-04  0.1401843E+04  0.7818609E-02  0.8952485E-01
       -1   -1    0    0    0  501  0.00000000000E+00  0.00000000000E+00  0.29905081139E+03  0.29905081143E+03  0.50400001928E-02 0.  1.
        1   -1    0    0  501    0  0.00000000000E+00  0.00000000000E+00 -0.16428353738E+04  0.16428353738E+04  0.50400001928E-02 0. -1.
    10030    2    1    2    0    0  0.00000000000E+00  0.00000000000E+00 -0.13437845624E+04  0.19418861853E+04  0.14018434314E+04 0.  0.
        5    1    3    3  502    0 -0.30776265726E+03 -0.15073855900E+03  0.17506375781E+03  0.38484980924E+03  0.46999998093E+01 0.  1.
       -5    1    3    3    0  502  0.30776265726E+03  0.15073855900E+03 -0.15188483202E+04  0.15570363760E+04  0.46999998093E+01 0. -1.
</event>
<event>
 5   0  0.3975164E-04  0.1395431E+04  0.7818609E-02  0.8957133E-01
        2   -1    0    0  501    0  0.00000000000E+00  0.00000000000E+00  0.14071456307E+04  0.14071456307E+04  0.25500000920E-02 0. -1.
       -2   -1    0    0    0  501  0.00000000000E+00  0.00000000000E+00 -0.34595343101E+03  0.34595343102E+03  0.25500000920E-02 0.  1.
    10030    2    1    2    0    0  0.00000000000E+00  0.00000000000E+00  0.10611921997E+04  0.17530990617E+04  0.13954309139E+04 0.  0.
        5    1    3    3  502    0  0.10334715384E+03 -0.19826526444E+02  0.13970984284E+04  0.14010638222E+04  0.46999998093E+01 0. -1.
       -5    1    3    3    0  502 -0.10334715384E+03  0.19826526444E+02 -0.33590622871E+03  0.35203523949E+03  0.46999998093E+01 0.  1.
</event>
<event>
 5   0  0.3917598E-04  0.1394546E+04  0.7818609E-02  0.8957776E-01
        2   -1    0    0  501    0  0.00000000000E+00  0.00000000000E+00  0.19967200035E+04  0.19967200035E+04  0.25500000920E-02 0. -1.
       -2   -1    0    0    0  501  0.00000000000E+00  0.00000000000E+00 -0.24349421447E+03  0.24349421448E+03  0.25500000920E-02 0.  1.
    10030    2    1    2    0    0  0.00000000000E+00  0.00000000000E+00  0.17532257890E+04  0.22402142180E+04  0.13945461897E+04 0.  0.
        3    1    3    3  502    0  0.31329159291E+03 -0.45364732483E+03  0.19083865132E+03  0.58340973471E+03  0.10100000352E+00 0.  1.
       -3    1    3    3    0  502 -0.31329159291E+03  0.45364732483E+03  0.15623871377E+04  0.16568044833E+04  0.10100000352E+00 0. -1.
</event>
<event>
 5   0  0.1497625E-04  0.1418218E+04  0.7818609E-02  0.8940736E-01
       -3   -1    0    0    0  501  0.00000000000E+00  0.00000000000E+00  0.36110742853E+03  0.36110744265E+03  0.10100000352E+00 0.  1.
        3   -1    0    0  501    0  0.00000000000E+00  0.00000000000E+00 -0.13924821355E+04  0.13924821392E+04  0.10100000352E+00 0. -1.
    10030    2    1    2    0    0  0.00000000000E+00  0.00000000000E+00 -0.10313747070E+04  0.17535895818E+04  0.14182181198E+04 0.  0.
        4    1    3    3  502    0  0.59316676484E+03  0.25131694514E+03 -0.88212410169E+03  0.10923147722E+04  0.12699999809E+01 0. -1.
       -4    1    3    3    0  502 -0.59316676484E+03 -0.25131694514E+03 -0.14925060532E+03  0.66127480967E+03  0.12699999809E+01 0.  1.
</event>
<event>
 5   0  0.2143942E-04  0.1393634E+04  0.7818609E-02  0.8958440E-01
        1   -1    0    0  501    0  0.00000000000E+00  0.00000000000E+00  0.32442613597E+04  0.32442613597E+04  0.50400001928E-02 0.  1.
       -1   -1    0    0    0  501  0.00000000000E+00  0.00000000000E+00 -0.14966545900E+03  0.14966545908E+03  0.50400001928E-02 0. -1.
    10030    2    1    2    0    0  0.00000000000E+00  0.00000000000E+00  0.30945959007E+04  0.33939268188E+04  0.13936339055E+04 0.  0.
        4    1    3    3  502    0  0.18739769645E+03  0.50311207109E+03  0.46553730002E+03  0.71060976867E+03  0.12699999809E+01 0. -1.
       -4    1    3    3    0  502 -0.18739769645E+03 -0.50311207109E+03  0.26290586007E+04  0.26833170501E+04  0.12699999809E+01 0.  1.
</event>
<event>
 5   0  0.4208622E-04  0.1402443E+04  0.7818609E-02  0.8952052E-01
       -2   -1    0    0    0  501  0.00000000000E+00  0.00000000000E+00  0.30046757315E+03  0.30046757316E+03  0.25500000920E-02 0.  1.
        2   -1    0    0  501    0  0.00000000000E+00  0.00000000000E+00 -0.16364874704E+04  0.16364874704E+04  0.25500000920E-02 0. -1.
    10030    2    1    2    0    0  0.00000000000E+00  0.00000000000E+00 -0.13360198972E+04  0.19369550435E+04  0.14024427528E+04 0.  0.
        4    1    3    3  502    0  0.36936979941E+02 -0.65434285272E+03 -0.32361015089E+03  0.73092684453E+03  0.12699999809E+01 0.  1.
       -4    1    3    3    0  502 -0.36936979941E+02  0.65434285272E+03 -0.10124097463E+04  0.12060281990E+04  0.12699999809E+01 0. -1.
</event>
<event>
 5   0  0.3917598E-04  0.1400401E+04  0.7818609E-02  0.8953528E-01
        2   -1    0    0  501    0  0.00000000000E+00  0.00000000000E+00  0.70082929209E+03  0.70082929209E+03  0.25500000920E-02 0. -1.
       -2   -1    0    0    0  501  0.00000000000E+00  0.00000000000E+00 -0.69957226267E+03  0.69957226268E+03  0.25500000920E-02 0.  1.
    10030    2    1    2    0    0  0.00000000000E+00  0.00000000000E+00  0.12570294146E+01  0.14004015548E+04  0.14004009906E+04 0.  0.
        3    1    3    3  502    0  0.45617782358E+03 -0.52837419907E+03  0.55430201469E+02  0.70024996851E+03  0.10100000352E+00 0. -1.
       -3    1    3    3    0  502 -0.45617782358E+03  0.52837419907E+03 -0.54173172055E+02  0.70015158626E+03  0.10100000352E+00 0.  1.
</event>
<event>
 5   0  0.3975164E-04  0.1388877E+04  0.7818609E-02  0.8961910E-01
       -2   -1    0    0    0  501  0.00000000000E+00  0.00000000000E+00  0.23385026689E+03  0.23385026691E+03  0.25500000920E-02 0.  1.
        2   -1    0    0  501    0  0.00000000000E+00  0.00000000000E+00 -0.20621936475E+04  0.20621936475E+04  0.25500000920E-02 0. -1.
    10030    2    1    2    0    0  0.00000000000E+00  0.00000000000E+00 -0.18283433806E+04  0.22960439144E+04  0.13888765746E+04 0.  0.
        5    1    3    3  502    0  0.41756588412E+03  0.48396146428E+03 -0.13627938639E+04  0.15052604997E+04  0.46999998093E+01 0. -1.
       -5    1    3    3    0  502 -0.41756588412E+03 -0.48396146428E+03 -0.46554951675E+03  0.79078341475E+03  0.46999998093E+01 0.  1.
</event>
<event>
 5   0  0.3975164E-04  0.1410789E+04  0.7818609E-02  0.8946046E-01
       -2   -1    0    0    0  501  0.00000000000E+00  0.00000000000E+00  0.23734376774E+03  0.23734376775E+03  0.25500000920E-02 0. -1.
        2   -1    0    0  501    0  0.00000000000E+00  0.00000000000E+00 -0.20964589733E+04  0.20964589733E+04  0.25500000920E-02 0.  1.
    10030    2    1    2    0    0  0.00000000000E+00  0.00000000000E+00 -0.18591152055E+04  0.23338027410E+04  0.14107891007E+04 0.  0.
        5    1    3    3  502    0 -0.29788341082E+03  0.32526324604E+03 -0.18923492534E+02  0.44148713938E+03  0.46999998093E+01 0. -1.
       -5    1    3    3    0  502  0.29788341082E+03 -0.32526324604E+03 -0.18401917130E+04  0.18923156016E+04  0.46999998093E+01 0.  1.
</event>
<event>
 5   0  0.3975164E-04  0.1409530E+04  0.7818609E-02  0.8946949E-01
       -2   -1    0    0    0  501  0.00000000000E+00  0.00000000000E+00  0.52102189173E+03  0.52102189174E+03  0.25500000920E-02 0. -1.
        2   -1    0    0  501    0  0.00000000000E+00  0.00000000000E+00 -0.95330636330E+03  0.95330636331E+03  0.25500000920E-02 0.  1.
    10030    2    1    2    0    0  0.00000000000E+00  0.00000000000E+00 -0.43228447157E+03  0.14743282550E+04  0.14095296873E+04 0.  0.
        5    1    3    3  502    0 -0.33282915822E+03  0.61717861399E+03 -0.29000520913E+03  0.75882132380E+03  0.46999998093E+01 0. -1.
       -5    1    3    3    0  502  0.33282915822E+03 -0.61717861399E+03 -0.14227926245E+03  0.71550693124E+03  0.46999998093E+01 0.  1.
</event>
<event>
 5   0  0.2217251E-04  0.1398078E+04  0.7818609E-02  0.8955211E-01
       -1   -1    0    0    0  501  0.00000000000E+00  0.00000000000E+00  0.35700610120E+03  0.35700610124E+03  0.50400001928E-02 0.  1.
        1   -1    0    0  501    0  0.00000000000E+00  0.00000000000E+00 -0.13687595147E+04  0.13687595148E+04  0.50400001928E-02 0. -1.
    10030    2    1    2    0    0  0.00000000000E+00  0.00000000000E+00 -0.10117534135E+04  0.17257656160E+04  0.13980779633E+04 0.  0.
        5    1    3    3  502    0 -0.37292820431E+03 -0.37313603209E+03 -0.10719835622E+04  0.11947706021E+04  0.46999998093E+01 0. -1.
       -5    1    3    3    0  502  0.37292820431E+03  0.37313603209E+03  0.60230148621E+02  0.53099501392E+03  0.46999998093E+01 0.  1.
</event>
<event>
 5   0  0.4310348E-04  0.1405380E+04  0.7818609E-02  0.8949933E-01
       -2   -1    0    0    0  501  0.00000000000E+00  0.00000000000E+00  0.18200237957E+03  0.18200237958E+03  0.25500000920E-02 0.  1.
        2   -1    0    0  501    0  0.00000000000E+00  0.00000000000E+00 -0.27130050695E+04  0.27130050695E+04  0.25500000920E-02 0. -1.
    10030    2    1    2    0    0  0.00000000000E+00  0.00000000000E+00 -0.25310026899E+04  0.28950074490E+04  0.14053802026E+04 0.  0.
        1    1    3    3  502    0  0.31890161962E+03  0.26898479866E+03 -0.10072557539E+03  0.42918143770E+03  0.50400001928E-02 0.  1.
       -1    1    3    3    0  502 -0.31890161962E+03 -0.26898479866E+03 -0.24302771145E+04  0.24658260113E+04  0.50400001928E-02 0. -1.
</event>
<event>
 5   0  0.2155352E-04  0.1399177E+04  0.7818609E-02  0.8954414E-01
        1   -1    0    0  501    0  0.00000000000E+00  0.00000000000E+00  0.11533840717E+04  0.11533840717E+04  0.50400001928E-02 0. -1.
       -1   -1    0    0    0  501  0.00000000000E+00  0.00000000000E+00 -0.42433750941E+03  0.42433750944E+03  0.50400001928E-02 0.  1.
    10030    2    1    2    0    0  0.00000000000E+00  0.00000000000E+00  0.72904656233E+03  0.15777215812E+04  0.13991770787E+04 0.  0.
        2    1    3    3  502    0 -0.66445078872E+02  0.65572679278E+03  0.10000021176E+03  0.66662779542E+03  0.25500000920E-02 0.  1.
       -2    1    3    3    0  502  0.66445078872E+02 -0.65572679278E+03  0.62904635058E+03  0.91109378576E+03  0.25500000920E-02 0. -1.
</event>
<event>
 5   0  0.2155352E-04  0.1401353E+04  0.7818609E-02  0.8952840E-01
        1   -1    0    0  501    0  0.00000000000E+00  0.00000000000E+00  0.12518873967E+04  0.12518873967E+04  0.50400001928E-02 0.  1.
       -1   -1    0    0    0  501  0.00000000000E+00  0.00000000000E+00 -0.39216567107E+03  0.39216567110E+03  0.50400001928E-02 0. -1.
    10030    2    1    2    0    0  0.00000000000E+00  0.00000000000E+00  0.85972172563E+03  0.16440530678E+04  0.14013525767E+04 0.  0.
        2    1    3    3  502    0  0.41545202200E+03  0.12653008059E+03  0.10749416058E+04  0.11593574513E+04  0.25500000920E-02 0.  1.
       -2    1    3    3    0  502 -0.41545202200E+03 -0.12653008059E+03 -0.21521988017E+03  0.48469561655E+03  0.25500000920E-02 0. -1.
</event>
<event>
 5   0  0.2215876E-04  0.1399611E+04  0.7818609E-02  0.8954100E-01
       -1   -1    0    0    0  501  0.00000000000E+00  0.00000000000E+00  0.34432929765E+03  0.34432929769E+03  0.50400001928E-02 0.  1.
        1   -1    0    0  501    0  0.00000000000E+00  0.00000000000E+00 -0.14222665824E+04  0.14222665824E+04  0.50400001928E-02 0. -1.
    10030    2    1    2    0    0  0.00000000000E+00  0.00000000000E+00 -0.10779372847E+04  0.17665958801E+04  0.13996114510E+04 0.  0.
        3    1    3    3  502    0  0.51455621370E+03  0.10996714280E+03 -0.11213186335E+04  0.12386348766E+04  0.10100000352E+00 0. -1.
       -3    1    3    3    0  502 -0.51455621370E+03 -0.10996714280E+03  0.43381348775E+02  0.52796100346E+03  0.10100000352E+00 0.  1.
</event>
<event>
 5   0  0.4310348E-04  0.1391290E+04  0.7818609E-02  0.8960147E-01
       -2   -1    0    0    0  501  0.00000000000E+00  0.00000000000E+00  0.76883896692E+03  0.76883896692E+03  0.25500000920E-02 0. -1.
        2   -1    0    0  501    0  0.00000000000E+00  0.00000000000E+00 -0.62941956215E+03  0.62941956215E+03  0.25500000920E-02 0.  1.
    10030    2    1    2    0    0  0.00000000000E+00  0.00000000000E+00  0.13941940477E+03  0.13982585291E+04  0.13912904599E+04 0.  0.
        1    1    3    3  502    0 -0.59237296723E+03 -0.34051842065E+03  0.20099225780E+03  0.71221935865E+03  0.50400001928E-02 0. -1.
       -1    1    3    3    0  502  0.59237296723E+03  0.34051842065E+03 -0.61572853032E+02  0.68603917043E+03  0.50400001928E-02 0.  1.
</event>
<event>
 5   0  0.2143942E-04  0.1395860E+04  0.7818609E-02  0.8956821E-01
       -1   -1    0    0    0  501  0.00000000000E+00  0.00000000000E+00  0.96313087540E+03  0.96313087541E+03  0.50400001928E-02 0.  1.
        1   -1    0    0  501    0  0.00000000000E+00  0.00000000000E+00 -0.50575305231E+03  0.50575305234E+03  0.50400001928E-02 0. -1.
    10030    2    1    2    0    0  0.00000000000E+00  0.00000000000E+00  0.45737782308E+03  0.14688839277E+04  0.13958601363E+04 0.  0.
        4    1    3    3  502    0  0.53571575507E+03 -0.39702371143E+03  0.44559227982E+03  0.80198085414E+03  0.12699999809E+01 0.  1.
       -4    1    3    3    0  502 -0.53571575507E+03  0.39702371143E+03  0.11785543263E+02  0.66690307361E+03  0.12699999809E+01 0. -1.
</event>
<event>
 5   0  0.2143942E-04  0.1397180E+04  0.7818609E-02  0.8955862E-01
        1   -1    0    0  501    0  0.00000000000E+00  0.00000000000E+00  0.20577748239E+04  0.20577748239E+04  0.50400001928E-02 0. -1.
       -1   -1    0    0    0  501  0.00000000000E+00  0.00000000000E+00 -0.23716305266E+03  0.23716305271E+03  0.50400001928E-02 0.  1.
    10030    2    1    2    0    0  0.00000000000E+00  0.00000000000E+00  0.18206117712E+04  0.22949378766E+04  0.13971802446E+04 0.  0.
        4    1    3    3  502    0  0.37672128018E+03 -0.11299403913E+02  0.18764545574E+04  0.19139304894E+04  0.12699999809E+01 0. -1.
       -4    1    3    3    0  502 -0.37672128018E+03  0.11299403913E+02 -0.55842786112E+02  0.38100738724E+03  0.12699999809E+01 0.  1.
</event>
<event>
 5   0  0.2217251E-04  0.1397908E+04  0.7818609E-02  0.8955334E-01
       -1   -1    0    0    0  501  0.00000000000E+00  0.00000000000E+00  0.39631120531E+03  0.39631120534E+03  0.50400001928E-02 0. -1.
        1   -1    0    0  501    0  0.00000000000E+00  0.00000000000E+00 -0.12327092946E+04  0.12327092946E+04  0.50400001928E-02 0.  1.
    10030    2    1    2    0    0  0.00000000000E+00  0.00000000000E+00 -0.83639808927E+03  0.16290204999E+04  0.13979077314E+04 0.  0.
        5    1    3    3  502    0 -0.72263353914E+01 -0.69495403543E+03 -0.33176751005E+03  0.77013317160E+03  0.46999998093E+01 0. -1.
       -5    1    3    3    0  502  0.72263353914E+01  0.69495403543E+03 -0.50463057921E+03  0.85888732832E+03  0.46999998093E+01 0.  1.
</event>
<event>
 5   0  0.3932568E-04  0.1392228E+04  0.7818609E-02  0.8959463E-01
       -2   -1    0    0    0  501  0.00000000000E+00  0.00000000000E+00  0.70370748678E+03  0.70370748679E+03  0.25500000920E-02 0. -1.
        2   -1    0    0  501    0  0.00000000000E+00  0.00000000000E+00 -0.68860275125E+03  0.68860275126E+03  0.25500000920E-02 0.  1.
    10030    2    1    2    0    0  0.00000000000E+00  0.00000000000E+00  0.15104735531E+02  0.13923102380E+04  0.13922283024E+04 0.  0.
        2    1    3    3  502    0  0.38959259511E+02 -0.56400288664E+03 -0.39862154605E+03  0.69174866608E+03  0.25500000920E-02 0.  1.
       -2    1    3    3    0  502 -0.38959259511E+02  0.56400288664E+03  0.41372628158E+03  0.70056157197E+03  0.25500000920E-02 0. -1.
</event>
<event>
 5   0  0.4208622E-04  0.1439187E+04  0.7818609E-02  0.8925931E-01
       -2   -1    0    0    0  501  0.00000000000E+00  0.00000000000E+00  0.45391191769E+03  0.45391191769E+03  0.25500000920E-02 0.  1.
        2   -1    0    0  501    0  0.00000000000E+00  0.00000000000E+00 -0.11407832408E+04  0.11407832408E+04  0.25500000920E-02 0. -1.
    10030    2    1    2    0    0  0.00000000000E+00  0.00000000000E+00 -0.68687132307E+03  0.15946951584E+04  0.14391874214E+04 0.  0.
        4    1    3    3  502    0  0.61620259728E+03  0.26894872097E+03 -0.62761264591E+03  0.91974904273E+03  0.12699999809E+01 0. -1.
       -4    1    3    3    0  502 -0.61620259728E+03 -0.26894872097E+03 -0.59258677159E+02  0.67494611572E+03  0.12699999809E+01 0.  1.
</event>
<event>
 5   0  0.3975164E-04  0.1399464E+04  0.7818609E-02  0.8954206E-01
       -2   -1    0    0    0  501  0.00000000000E+00  0.00000000000E+00  0.29204959573E+03  0.29204959574E+03  0.25500000920E-02 0.  1.
        2   -1    0    0  501    0  0.00000000000E+00  0.00000000000E+00 -0.16765134213E+04  0.16765134213E+04  0.25500000920E-02 0. -1.
    10030    2    1    2    0    0  0.00000000000E+00  0.00000000000E+00 -0.13844638256E+04  0.19685630171E+04  0.13994642788E+04 0.  0.
        5    1    3    3  502    0  0.10530456707E+03 -0.64993347739E+03 -0.35905838806E+03  0.74996506113E+03  0.46999998093E+01 0.  1.
       -5    1    3    3    0  502 -0.10530456707E+03  0.64993347739E+03 -0.10254054375E+04  0.12185979559E+04  0.46999998093E+01 0. -1.
</event>
<event>
 5   0  0.3917598E-04  0.1408437E+04  0.7818609E-02  0.8947734E-01
        2   -1    0    0  501    0  0.00000000000E+00  0.00000000000E+00  0.10251531095E+04  0.10251531095E+04  0.25500000920E-02 0.  1.
       -2   -1    0    0    0  501  0.00000000000E+00  0.00000000000E+00 -0.48375566140E+03  0.48375566140E+03  0.25500000920E-02 0. -1.
    10030    2    1    2    0    0  0.00000000000E+00  0.00000000000E+00  0.54139744814E+03  0.15089087710E+04  0.14084368932E+04 0.  0.
        3    1    3    3  502    0 -0.46219819668E+03 -0.49434817662E+02 -0.29604966120E+03  0.55110469633E+03  0.10100000352E+00 0. -1.
       -3    1    3    3    0  502  0.46219819668E+03  0.49434817662E+02  0.83744710935E+03  0.95780407462E+03  0.10100000352E+00 0.  1.
</event>
<event>
 5   0  0.3975164E-04  0.1398144E+04  0.7818609E-02  0.8955163E-01
        2   -1    0    0  501    0  0.00000000000E+00  0.00000000000E+00  0.13945177612E+04  0.13945177612E+04  0.25500000920E-02 0.  1.
       -2   -1    0    0    0  501  0.00000000000E+00  0.00000000000E+00 -0.35044474377E+03  0.35044474378E+03  0.25500000920E-02 0. -1.
    10030    2    1    2    0    0  0.00000000000E+00  0.00000000000E+00  0.10440730175E+04  0.17449625050E+04  0.13981436543E+04 0.  0.
        5    1    3    3  502    0  0.81318761471E+02  0.44324933269E+03 -0.14494045350E+03  0.47340525658E+03  0.46999998093E+01 0. -1.
       -5    1    3    3    0  502 -0.81318761471E+02 -0.44324933269E+03  0.11890134710E+04  0.12715572484E+04  0.46999998093E+01 0.  1.
</event>
<event>
 5   0  0.3932568E-04  0.1451701E+04  0.7818609E-02  0.8917222E-01
       -2   -1    0    0    0  501  0.00000000000E+00  0.00000000000E+00  0.47006483558E+03  0.47006483559E+03  0.25500000920E-02 0.  1.
        2   -1    0    0  501    0  0.00000000000E+00  0.00000000000E+00 -0.11208218823E+04  0.11208218823E+04  0.25500000920E-02 0. -1.
    10030    2    1    2    0    0  0.00000000000E+00  0.00000000000E+00 -0.65075704672E+03  0.15908867179E+04  0.14517010075E+04 0.  0.
        2    1    3    3  502    0 -0.57582008130E+03  0.40613693676E+03 -0.51627203505E+03  0.87352893004E+03  0.25500000920E-02 0.  1.
       -2    1    3    3    0  502  0.57582008130E+03 -0.40613693676E+03 -0.13448501168E+03  0.71735778786E+03  0.25500000920E-02 0. -1.
</event>
<event>
 5   0  0.2223112E-04  0.1399239E+04  0.7818609E-02  0.8954369E-01
       -1   -1    0    0    0  501  0.00000000000E+00  0.00000000000E+00  0.24292051438E+03  0.24292051443E+03  0.50400001928E-02 0. -1.
        1   -1    0    0  501    0  0.00000000000E+00  0.00000000000E+00 -0.20149294658E+04  0.20149294658E+04  0.50400001928E-02 0.  1.
    10030    2    1    2    0    0  0.00000000000E+00  0.00000000000E+00 -0.17720089514E+04  0.22578499802E+04  0.13992393681E+04 0.  0.
        1    1    3    3  502    0 -0.56855279277E+03  0.37165183967E+03 -0.11564510718E+04  0.13411772626E+04  0.50400001928E-02 0.  1.
       -1    1    3    3    0  502  0.56855279277E+03 -0.37165183967E+03 -0.61555787954E+03  0.91667271760E+03  0.50400001928E-02 0. -1.
</event>
<event>
 5   0  0.2143942E-04  0.1404268E+04  0.7818609E-02  0.8950735E-01
       -1   -1    0    0    0  501  0.00000000000E+00  0.00000000000E+00  0.96181841148E+03  0.96181841149E+03  0.50400001928E-02 0. -1.
        1   -1    0    0  501    0  0.00000000000E+00  0.00000000000E+00 -0.51256252308E+03  0.51256252310E+03  0.50400001928E-02 0.  1.
    10030    2    1    2    0    0  0.00000000000E+00  0.00000000000E+00  0.44925588840E+03  0.14743809346E+04  0.14042678829E+04 0.  0.
        4    1    3    3  502    0 -0.16059940800E+03  0.84830309450E+02 -0.48746987196E+03  0.52020845843E+03  0.12699999809E+01 0.  1.
       -4    1    3    3    0  502  0.16059940800E+03 -0.84830309450E+02  0.93672576036E+03  0.95417247616E+03  0.12699999809E+01 0. -1.
</event>
<event>
 5   0  0.4310348E-04  0.1424593E+04  0.7818609E-02  0.8936207E-01
        2   -1    0    0  501    0  0.00000000000E+00  0.00000000000E+00  0.10296086833E+04  0.10296086833E+04  0.25500000920E-02 0. -1.
       -2   -1    0    0    0  501  0.00000000000E+00  0.00000000000E+00 -0.49277605862E+03  0.49277605863E+03  0.25500000920E-02 0.  1.
    10030    2    1    2    0    0  0.00000000000E+00  0.00000000000E+00  0.53683262469E+03  0.15223847419E+04  0.14245932878E+04 0.  0.
        1    1    3    3  502    0  0.48127504956E+03 -0.14406070311E+03 -0.27120966226E+03  0.57090615730E+03  0.50400001928E-02 0.  1.
       -1    1    3    3    0  502 -0.48127504956E+03  0.14406070311E+03  0.80804228695E+03  0.95147858465E+03  0.50400001928E-02 0. -1.
</event>
<event>
 5   0  0.4208622E-04  0.1407735E+04  0.7818609E-02  0.8948239E-01
       -2   -1    0    0    0  501  0.00000000000E+00  0.00000000000E+00  0.36915212485E+03  0.36915212486E+03  0.25500000920E-02 0. -1.
        2   -1    0    0  501    0  0.00000000000E+00  0.00000000000E+00 -0.13420732784E+04  0.13420732784E+04  0.25500000920E-02 0.  1.
    10030    2    1    2    0    0  0.00000000000E+00  0.00000000000E+00 -0.97292115354E+03  0.17112254032E+04  0.14077346375E+04 0.  0.
        4    1    3    3  502    0  0.12937339590E+03  0.64455994008E+03 -0.79213347425E+03  0.10294037332E+04  0.12699999809E+01 0.  1.
       -4    1    3    3    0  502 -0.12937339590E+03 -0.64455994008E+03 -0.18078767929E+03  0.68182167009E+03  0.12699999809E+01 0. -1.
</event>
<event>
 5   0  0.2155352E-04  0.1396287E+04  0.7818609E-02  0.8956511E-01
       -1   -1    0    0    0  501  0.00000000000E+00  0.00000000000E+00  0.36162643683E+03  0.36162643686E+03  0.50400001928E-02 0. -1.
        1   -1    0    0  501    0  0.00000000000E+00  0.00000000000E+00 -0.13478110275E+04  0.13478110276E+04  0.50400001928E-02 0.  1.
    10030    2    1    2    0    0  0.00000000000E+00  0.00000000000E+00 -0.98618459072E+03  0.17094374644E+04  0.13962866460E+04 0.  0.
        2    1    3    3  502    0  0.27418191372E+03 -0.64189532912E+03 -0.51035256534E+03  0.86467628411E+03  0.25500000920E-02 0.  1.
       -2    1    3    3    0  502 -0.27418191372E+03  0.64189532912E+03 -0.47583202538E+03  0.84476118030E+03  0.25500000920E-02 0. -1.
</event>
<event>
 5   0  0.2155352E-04  0.1401395E+04  0.7818609E-02  0.8952809E-01
        1   -1    0    0  501    0  0.00000000000E+00  0.00000000000E+00  0.69450826823E+03  0.69450826824E+03  0.50400001928E-02 0.  1.
       -1   -1    0    0    0  501  0.00000000000E+00  0.00000000000E+00 -0.70694191095E+03  0.70694191096E+03  0.50400001928E-02 0. -1.
    10030    2    1    2    0    0  0.00000000000E+00  0.00000000000E+00 -0.12433642720E+02  0.14014501792E+04  0.14013950226E+04 0.  0.
        2    1    3    3  502    0  0.27302339478E+03 -0.45124095081E+03 -0.46755572619E+03  0.70481808071E+03  0.25500000920E-02 0. -1.
       -2    1    3    3    0  502 -0.27302339478E+03  0.45124095081E+03  0.45512208347E+03  0.69663209850E+03  0.25500000920E-02 0.  1.
</event>
<event>
 5   0  0.3932568E-04  0.1385783E+04  0.7818609E-02  0.8964174E-01
        2   -1    0    0  501    0  0.00000000000E+00  0.00000000000E+00  0.50230196968E+03  0.50230196968E+03  0.25500000920E-02 0. -1.
       -2   -1    0    0    0  501  0.00000000000E+00  0.00000000000E+00 -0.95579674524E+03  0.95579674524E+03  0.25500000920E-02 0.  1.
    10030    2    1    2    0    0  0.00000000000E+00  0.00000000000E+00 -0.45349477556E+03  0.14580987149E+04  0.13857829379E+04 0.  0.
        2    1    3    3  502    0 -0.37277229042E+03 -0.29913018848E+03  0.30108894063E+03  0.56488282001E+03  0.25500000920E-02 0. -1.
       -2    1    3    3    0  502  0.37277229042E+03  0.29913018848E+03 -0.75458371620E+03  0.89321589491E+03  0.25500000920E-02 0.  1.
</event>
<event>
 5   0  0.3917598E-04  0.1397677E+04  0.7818609E-02  0.8955502E-01
        2   -1    0    0  501    0  0.00000000000E+00  0.00000000000E+00  0.68706404472E+03  0.68706404473E+03  0.25500000920E-02 0. -1.
       -2   -1    0    0    0  501  0.00000000000E+00  0.00000000000E+00 -0.71081438922E+03  0.71081438922E+03  0.25500000920E-02 0.  1.
    10030    2    1    2    0    0  0.00000000000E+00  0.00000000000E+00 -0.23750344494E+02  0.13978784339E+04  0.13976766569E+04 0.  0.
        3    1    3    3  502    0  0.69361020672E+03  0.69474791453E+02  0.37661096728E+02  0.69809758195E+03  0.10100000352E+00 0.  1.
       -3    1    3    3    0  502 -0.69361020672E+03 -0.69474791453E+02 -0.61411441222E+02  0.69978085200E+03  0.10100000352E+00 0. -1.
</event>
<event>
 5   0  0.3932568E-04  0.1402588E+04  0.7818609E-02  0.8951948E-01
       -2   -1    0    0    0  501  0.00000000000E+00  0.00000000000E+00  0.41553059305E+03  0.41553059306E+03  0.25500000920E-02 0. -1.
        2   -1    0    0  501    0  0.00000000000E+00  0.00000000000E+00 -0.11835783689E+04  0.11835783689E+04  0.25500000920E-02 0.  1.
    10030    2    1    2    0    0  0.00000000000E+00  0.00000000000E+00 -0.76804777589E+03  0.15991089620E+04  0.14025876394E+04 0.  0.
        2    1    3    3  502    0  0.74382277264E+02 -0.42365582925E+03 -0.10155232591E+04  0.11028619473E+04  0.25500000920E-02 0.  1.
       -2    1    3    3    0  502 -0.74382277264E+02  0.42365582925E+03  0.24747548326E+03  0.49624701475E+03  0.25500000920E-02 0. -1.
</event>
<event>
 5   0  0.4310348E-04  0.1397853E+04  0.7818609E-02  0.8955374E-01
        2   -1    0    0  501    0  0.00000000000E+00  0.00000000000E+00  0.30196341749E+04  0.30196341749E+04  0.25500000920E-02 0. -1.
       -2   -1    0    0    0  501  0.00000000000E+00  0.00000000000E+00 -0.16177406381E+03  0.16177406383E+03  0.25500000920E-02 0.  1.
    10030    2    1    2    0    0  0.00000000000E+00  0.00000000000E+00  0.28578601111E+04  0.31814082387E+04  0.13978533424E+04 0.  0.
        1    1    3    3  502    0  0.23504395296E+03  0.49334109793E+02  0.29227739107E+04  0.29326245664E+04  0.50400001928E-02 0. -1.
       -1    1    3    3    0  502 -0.23504395296E+03 -0.49334109793E+02 -0.64913799633E+02  0.24878367233E+03  0.50400001928E-02 0.  1.
</event>
<event>
 5   0  0.2217251E-04  0.1399479E+04  0.7818609E-02  0.8954196E-01
       -1   -1    0    0    0  501  0.00000000000E+00  0.00000000000E+00  0.82439024750E+03  0.82439024752E+03  0.50400001928E-02 0.  1.
        1   -1    0    0  501    0  0.00000000000E+00  0.00000000000E+00 -0.59393620736E+03  0.59393620739E+03  0.50400001928E-02 0. -1.
    10030    2    1    2    0    0  0.00000000000E+00  0.00000000000E+00  0.23045404014E+03  0.14183264549E+04  0.13994787844E+04 0.  0.
        5    1    3    3  502    0 -0.10996412990E+03 -0.66144266266E+03 -0.87503548896E+02  0.67622294173E+03  0.46999998093E+01 0. -1.
       -5    1    3    3    0  502  0.10996412990E+03  0.66144266266E+03  0.31795758903E+03  0.74210351318E+03  0.46999998093E+01 0.  1.
</event>
<event>
 5   0  0.3975164E-04  0.1400161E+04  0.7818609E-02  0.8953702E-01
       -2   -1    0    0    0  501  0.00000000000E+00  0.00000000000E+00  0.35837566611E+03  0.35837566612E+03  0.25500000920E-02 0. -1.
        2   -1    0    0  501    0  0.00000000000E+00  0.00000000000E+00 -0.13675949151E+04  0.13675949151E+04  0.25500000920E-02 0.  1.
    10030    2    1    2    0    0  0.00000000000E+00  0.00000000000E+00 -0.10092192490E+04  0.17259705813E+04  0.14001610460E+04 0.  0.
        5    1    3    3  502    0 -0.66456640882E+03  0.18618189306E+03 -0.35991399372E+03  0.77837804562E+03  0.46999998093E+01 0.  1.
       -5    1    3    3    0  502  0.66456640882E+03 -0.18618189306E+03 -0.64930525532E+03  0.94759253564E+03  0.46999998093E+01 0. -1.
</event>
<event>
 5   0  0.4208622E-04  0.1400338E+04  0.7818609E-02  0.8953574E-01
        2   -1    0    0  501    0  0.00000000000E+00  0.00000000000E+00  0.12891200779E+04  0.12891200779E+04  0.25500000920E-02 0.  1.
       -2   -1    0    0    0  501  0.00000000000E+00  0.00000000000E+00 -0.38028794096E+03  0.38028794096E+03  0.25500000920E-02 0. -1.
    10030    2    1    2    0    0  0.00000000000E+00  0.00000000000E+00  0.90883213691E+03  0.16694080188E+04  0.14003382735E+04 0.  0.
        4    1    3    3  502    0 -0.57355269886E+03  0.20981820811E+03  0.46205925045E+02  0.61247283959E+03  0.12699999809E+01 0. -1.
       -4    1    3    3    0  502  0.57355269886E+03 -0.20981820811E+03  0.86262621186E+03  0.10569351792E+04  0.12699999809E+01 0.  1.
</event>
<event>
 5   0  0.3932568E-04  0.1403872E+04  0.7818609E-02  0.8951021E-01
       -2   -1    0    0    0  501  0.00000000000E+00  0.00000000000E+00  0.60180121500E+03  0.60180121501E+03  0.25500000920E-02 0. -1.
        2   -1    0    0  501    0  0.00000000000E+00  0.00000000000E+00 -0.81873244411E+03  0.81873244411E+03  0.25500000920E-02 0.  1.
    10030    2    1    2    0    0  0.00000000000E+00  0.00000000000E+00 -0.21693122911E+03  0.14205336591E+04  0.14038720449E+04 0.  0.
        2    1    3    3  502    0 -0.35682143568E+03 -0.23713659519E+03 -0.67108522247E+03  0.79618507745E+03  0.25500000920E-02 0.  1.
       -2    1    3    3    0  502  0.35682143568E+03  0.23713659519E+03  0.45415399336E+03  0.62434858167E+03  0.25500000920E-02 0. -1.
</event>
<event>
 5   0  0.2217251E-04  0.1400453E+04  0.7818609E-02  0.8953491E-01
       -1   -1    0    0    0  501  0.00000000000E+00  0.00000000000E+00  0.55387735897E+03  0.55387735900E+03  0.50400001928E-02 0.  1.
        1   -1    0    0  501    0  0.00000000000E+00  0.00000000000E+00 -0.88524469404E+03  0.88524469405E+03  0.50400001928E-02 0. -1.
    10030    2    1    2    0    0  0.00000000000E+00  0.00000000000E+00 -0.33136733507E+03  0.14391220530E+04  0.14004527742E+04 0.  0.
        5    1    3    3  502    0 -0.44386972727E+03 -0.21361392724E+03 -0.67706252180E+03  0.83730937719E+03  0.46999998093E+01 0. -1.
       -5    1    3    3    0  502  0.44386972727E+03  0.21361392724E+03  0.34569518674E+03  0.60181267586E+03  0.46999998093E+01 0.  1.
</event>
<event>
 5   0  0.2217251E-04  0.1414459E+04  0.7818609E-02  0.8943418E-01
        1   -1    0    0  501    0  0.00000000000E+00  0.00000000000E+00  0.12613997113E+04  0.12613997113E+04  0.50400001928E-02 0. -1.
       -1   -1    0    0    0  501  0.00000000000E+00  0.00000000000E+00 -0.39652267679E+03  0.39652267682E+03  0.50400001928E-02 0.  1.
    10030    2    1    2    0    0  0.00000000000E+00  0.00000000000E+00  0.86487703448E+03  0.16579223881E+04  0.14144590345E+04 0.  0.
        5    1    3    3  502    0 -0.49853422095E+03  0.48024570455E+03  0.26266567469E+03  0.74039695627E+03  0.46999998093E+01 0.  1.
       -5    1    3    3    0  502  0.49853422095E+03 -0.48024570455E+03  0.60221135979E+03  0.91752543183E+03  0.46999998093E+01 0. -1.
</event>
<event>
 5   0  0.4310348E-04  0.1400137E+04  0.7818609E-02  0.8953719E-01
        2   -1    0    0  501    0  0.00000000000E+00  0.00000000000E+00  0.18995830726E+03  0.18995830728E+03  0.25500000920E-02 0. -1.
       -2   -1    0    0    0  501  0.00000000000E+00  0.00000000000E+00 -0.25800200765E+04  0.25800200765E+04  0.25500000920E-02 0.  1.
    10030    2    1    2    0    0  0.00000000000E+00  0.00000000000E+00 -0.23900617692E+04  0.27699783838E+04  0.14001374882E+04 0.  0.
        1    1    3    3  502    0 -0.46331586963E+03 -0.12462906994E+01 -0.22333091424E+04  0.22808623093E+04  0.50400001928E-02 0.  1.
       -1    1    3    3    0  502  0.46331586963E+03  0.12462906994E+01 -0.15675262682E+03  0.48911607449E+03  0.50400001928E-02 0. -1.
</event>
<event>
 5   0  0.3975164E-04  0.1396677E+04  0.7818609E-02  0.8956228E-01
       -2   -1    0    0    0  501  0.00000000000E+00  0.00000000000E+00  0.42182723616E+03  0.42182723617E+03  0.25500000920E-02 0.  1.
        2   -1    0    0  501    0  0.00000000000E+00  0.00000000000E+00 -0.11561045826E+04  0.11561045826E+04  0.25500000920E-02 0. -1.
    10030    2    1    2    0    0  0.00000000000E+00  0.00000000000E+00 -0.73427734643E+03  0.15779318188E+04  0.13966766280E+04 0.  0.
        5    1    3    3  502    0 -0.10275519191E+03  0.42827257452E+03 -0.97938795509E+03  0.10738709811E+04  0.46999998093E+01 0. -1.
       -5    1    3    3    0  502  0.10275519191E+03 -0.42827257452E+03  0.24511060866E+03  0.50406083763E+03  0.46999998093E+01 0.  1.
</event>
<event>
 5   0  0.3975164E-04  0.1399393E+04  0.7818609E-02  0.8954258E-01
       -2   -1    0    0    0  501  0.00000000000E+00  0.00000000000E+00  0.12881089909E+04  0.12881089909E+04  0.25500000920E-02 0. -1.
        2   -1    0    0  501    0  0.00000000000E+00  0.00000000000E+00 -0.38007299634E+03  0.38007299635E+03  0.25500000920E-02 0.  1.
    10030    2    1    2    0    0  0.00000000000E+00  0.00000000000E+00  0.90803599452E+03  0.16681819872E+04  0.13993933597E+04 0.  0.
        5    1    3    3  502    0  0.51185514124E+03 -0.13070146035E+03  0.10009126382E+04  0.11317803482E+04  0.46999998093E+01 0. -1.
       -5    1    3    3    0  502 -0.51185514124E+03  0.13070146035E+03 -0.92876643676E+02  0.53640163897E+03  0.46999998093E+01 0.  1.
</event>
<event>
 5   0  0.2143942E-04  0.1398381E+04  0.7818609E-02  0.8954991E-01
       -1   -1    0    0    0  501  0.00000000000E+00  0.00000000000E+00  0.41310460034E+03  0.41310460037E+03  0.50400001928E-02 0. -1.
        1   -1    0    0  501    0  0.00000000000E+00  0.00000000000E+00 -0.11833987013E+04  0.11833987013E+04  0.50400001928E-02 0.  1.
    10030    2    1    2    0    0  0.00000000000E+00  0.00000000000E+00 -0.77029410092E+03  0.15965033016E+04  0.13983811320E+04 0.  0.
        4    1    3    3  502    0 -0.43830378596E+03  0.26691140685E+03 -0.92731139042E+03  0.10598395801E+04  0.12699999809E+01 0.  1.
       -4    1    3    3    0  502  0.43830378596E+03 -0.26691140685E+03  0.15701728950E+03  0.53666372152E+03  0.12699999809E+01 0. -1.
</event>
<event>
 5   0  0.2143942E-04  0.1396852E+04  0.7818609E-02  0.8956100E-01
       -1   -1    0    0    0  501  0.00000000000E+00  0.00000000000E+00  0.24772469474E+03  0.24772469479E+03  0.50400001928E-02 0.  1.
        1   -1    0    0  501    0  0.00000000000E+00  0.00000000000E+00 -0.19691180532E+04  0.19691180532E+04  0.50400001928E-02 0. -1.
    10030    2    1    2    0    0  0.00000000000E+00  0.00000000000E+00 -0.17213933585E+04  0.22168427480E+04  0.13968524170E+04 0.  0.
        4    1    3    3  502    0 -0.51734993587E+03 -0.26355381657E+03 -0.24463982317E+03  0.63004906662E+03  0.12699999809E+01 0. -1.
       -4    1    3    3    0  502  0.51734993587E+03  0.26355381657E+03 -0.14767535353E+04  0.15867936814E+04  0.12699999809E+01 0.  1.
</event>
<event>
 5   0  0.2155352E-04  0.1396974E+04  0.7818609E-02  0.8956012E-01
       -1   -1    0    0    0  501  0.00000000000E+00  0.00000000000E+00  0.90048393356E+03  0.90048393358E+03  0.50400001928E-02 0.  1.
        1   -1    0    0  501    0  0.00000000000E+00  0.00000000000E+00 -0.54180226144E+03  0.54180226147E+03  0.50400001928E-02 0. -1.
    10030    2    1    2    0    0  0.00000000000E+00  0.00000000000E+00  0.35868167212E+03  0.14422861950E+04  0.13969742039E+04 0.  0.
        2    1    3    3  502    0  0.30919577930E+03 -0.50705317314E+03  0.55893377614E+03  0.81554393901E+03  0.25500000920E-02 0.  1.
       -2    1    3    3    0  502 -0.30919577930E+03  0.50705317314E+03 -0.20025210402E+03  0.62674225604E+03  0.25500000920E-02 0. -1.
</event>
<event>
 5   0  0.4310348E-04  0.1397202E+04  0.7818609E-02  0.8955846E-01
       -2   -1    0    0    0  501  0.00000000000E+00  0.00000000000E+00  0.10594308687E+04  0.10594308687E+04  0.25500000920E-02 0.  1.
        2   -1    0    0  501    0  0.00000000000E+00  0.00000000000E+00 -0.46066578197E+03  0.46066578197E+03  0.25500000920E-02 0. -1.
    10030    2    1    2    0    0  0.00000000000E+00  0.00000000000E+00  0.59876508675E+03  0.15200966507E+04  0.13972022754E+04 0.  0.
        1    1    3    3  502    0  0.66261454489E+02  0.31442349916E+03 -0.37549391055E+03  0.49421492699E+03  0.50400001928E-02 0. -1.
       -1    1    3    3    0  502 -0.66261454489E+02 -0.31442349916E+03  0.97425899730E+03  0.10258817237E+04  0.50400001928E-02 0.  1.
</event>
<event>
 5   0  0.3975164E-04  0.1411984E+04  0.7818609E-02  0.8945189E-01
       -2   -1    0    0    0  501  0.00000000000E+00  0.00000000000E+00  0.26654528281E+03  0.26654528283E+03  0.25500000920E-02 0.  1.
        2   -1    0    0  501    0  0.00000000000E+00  0.00000000000E+00 -0.18699445694E+04  0.18699445694E+04  0.25500000920E-02 0. -1.
    10030    2    1    2    0    0  0.00000000000E+00  0.00000000000E+00 -0.16033992866E+04  0.21364898522E+04  0.14119842834E+04 0.  0.
        5    1    3    3  502    0  0.39927621151E+03  0.89248061672E+02 -0.16722532787E+04  0.17215806190E+04  0.46999998093E+01 0. -1.
       -5    1    3    3    0  502 -0.39927621151E+03 -0.89248061672E+02  0.68853992116E+02  0.41490923323E+03  0.46999998093E+01 0.  1.
</event>
<event>
 5   0  0.3917598E-04  0.1409297E+04  0.7818609E-02  0.8947116E-01
       -2   -1    0    0    0  501  0.00000000000E+00  0.00000000000E+00  0.88065303280E+03  0.88065303280E+03  0.25500000920E-02 0.  1.
        2   -1    0    0  501    0  0.00000000000E+00  0.00000000000E+00 -0.56381995950E+03  0.56381995951E+03  0.25500000920E-02 0. -1.
    10030    2    1    2    0    0  0.00000000000E+00  0.00000000000E+00  0.31683307330E+03  0.14444729923E+04  0.14092973530E+04 0.  0.
        3    1    3    3  502    0  0.27109723228E+03  0.54385650269E+03 -0.20721712071E+03  0.64203781056E+03  0.10100000352E+00 0.  1.
       -3    1    3    3    0  502 -0.27109723228E+03 -0.54385650269E+03  0.52405019401E+03  0.80243518175E+03  0.10100000352E+00 0. -1.
</event>
<event>
 5   0  0.2143942E-04  0.1412794E+04  0.7818609E-02  0.8944610E-01
        1   -1    0    0  501    0  0.00000000000E+00  0.00000000000E+00  0.18182588306E+04  0.18182588306E+04  0.50400001928E-02 0.  1.
       -1   -1    0    0    0  501  0.00000000000E+00  0.00000000000E+00 -0.27443638510E+03  0.27443638515E+03  0.50400001928E-02 0. -1.
    10030    2    1    2    0    0  0.00000000000E+00  0.00000000000E+00  0.15438224455E+04  0.20926952158E+04  0.14127935174E+04 0.  0.
        4    1    3    3  502    0 -0.42045232796E+03 -0.97791647554E+02 -0.56331212198E+02  0.43533686357E+03  0.12699999809E+01 0. -1.
       -4    1    3    3    0  502  0.42045232796E+03  0.97791647554E+02  0.16001536577E+04  0.16573583522E+04  0.12699999809E+01 0.  1.
</event>
<event>
 5   0  0.4310348E-04  0.1388834E+04  0.7818609E-02  0.8961941E-01
        2   -1    0    0  501    0  0.00000000000E+00  0.00000000000E+00  0.14092736658E+04  0.14092736658E+04  0.25500000920E-02 0.  1.
       -2   -1    0    0    0  501  0.00000000000E+00  0.00000000000E+00 -0.34217254956E+03  0.34217254957E+03  0.25500000920E-02 0. -1.
    10030    2    1    2    0    0  0.00000000000E+00  0.00000000000E+00  0.10671011162E+04  0.17514462154E+04  0.13888337024E+04 0.  0.
        1    1    3    3  502    0 -0.57822678727E+03  0.33968205199E+03  0.76084334283E+03  0.10142054557E+04  0.50400001928E-02 0.  1.
       -1    1    3    3    0  502  0.57822678727E+03 -0.33968205199E+03  0.30625777340E+03  0.73724075969E+03  0.50400001928E-02 0. -1.
</event>
<event>
 5   0  0.2143942E-04  0.1407055E+04  0.7818609E-02  0.8948727E-01
       -1   -1    0    0    0  501  0.00000000000E+00  0.00000000000E+00  0.49250646992E+03  0.49250646994E+03  0.50400001928E-02 0. -1.
        1   -1    0    0  501    0  0.00000000000E+00  0.00000000000E+00 -0.10049637554E+04  0.10049637554E+04  0.50400001928E-02 0.  1.
    10030    2    1    2    0    0  0.00000000000E+00  0.00000000000E+00 -0.51245728545E+03  0.14974702253E+04  0.14070552961E+04 0.  0.
        4    1    3    3  502    0 -0.63114104404E+03 -0.81623235628E+02 -0.57541417173E+03  0.85796529766E+03  0.12699999809E+01 0.  1.
       -4    1    3    3    0  502  0.63114104404E+03  0.81623235628E+02  0.62956886288E+02  0.63950492765E+03  0.12699999809E+01 0. -1.
</event>
<event>
 5   0  0.3917598E-04  0.1398137E+04  0.7818609E-02  0.8955168E-01
       -2   -1    0    0    0  501  0.00000000000E+00  0.00000000000E+00  0.42825994634E+03  0.42825994635E+03  0.25500000920E-02 0.  1.
        2   -1    0    0  501    0  0.00000000000E+00  0.00000000000E+00 -0.11411219474E+04  0.11411219474E+04  0.25500000920E-02 0. -1.
    10030    2    1    2    0    0  0.00000000000E+00  0.00000000000E+00 -0.71286200105E+03  0.15693818937E+04  0.13981370805E+04 0.  0.
        3    1    3    3  502    0 -0.72593503068E+02  0.24966021983E+03  0.37196883624E+03  0.45382911695E+03  0.10100000352E+00 0.  1.
       -3    1    3    3    0  502  0.72593503068E+02 -0.24966021983E+03 -0.10848308373E+04  0.11155527768E+04  0.10100000352E+00 0. -1.
</event>
<event>
 5   0  0.4208622E-04  0.1397240E+04  0.7818609E-02  0.8955819E-01
       -2   -1    0    0    0  501  0.00000000000E+00  0.00000000000E+00  0.18291135293E+03  0.18291135295E+03  0.25500000920E-02 0. -1.
        2   -1    0    0  501    0  0.00000000000E+00  0.00000000000E+00 -0.26683412274E+04  0.26683412274E+04  0.25500000920E-02 0.  1.
    10030    2    1    2    0    0  0.00000000000E+00  0.00000000000E+00 -0.24854298745E+04  0.28512525803E+04  0.13972399994E+04 0.  0.
        4    1    3    3  502    0  0.52572053052E+03  0.17921746595E+03 -0.37798931882E+03  0.67184709150E+03  0.12699999809E+01 0. -1.
       -4    1    3    3    0  502 -0.52572053052E+03 -0.17921746595E+03 -0.21074405556E+04  0.21794054888E+04  0.12699999809E+01 0.  1.
</event>
<event>
 5   0  0.2223112E-04  0.1401960E+04  0.7818609E-02  0.8952401E-01
        1   -1    0    0  501    0  0.00000000000E+00  0.00000000000E+00  0.13140437408E+04  0.13140437408E+04  0.50400001928E-02 0. -1.
       -1   -1    0    0    0  501  0.00000000000E+00  0.00000000000E+00 -0.37393933968E+03  0.37393933971E+03  0.50400001928E-02 0.  1.
    10030    2    1    2    0    0  0.00000000000E+00  0.00000000000E+00  0.94010440116E+03  0.16879830805E+04  0.14019595555E+04 0.  0.
        1    1    3    3  502    0 -0.17884857577E+02 -0.61906157481E+03  0.86539451455E+03  0.10641732788E+04  0.50400001928E-02 0.  1.
       -1    1    3    3    0  502  0.17884857577E+02  0.61906157481E+03  0.74709886606E+02  0.62380980172E+03  0.50400001928E-02 0. -1.
</event>
<event>
 5   0  0.3917598E-04  0.1392725E+04  0.7818609E-02  0.8959101E-01
       -2   -1    0    0    0  501  0.00000000000E+00  0.00000000000E+00  0.47496169947E+03  0.47496169947E+03  0.25500000920E-02 0.  1.
        2   -1    0    0  501    0  0.00000000000E+00  0.00000000000E+00 -0.10209682767E+04  0.10209682767E+04  0.25500000920E-02 0. -1.
    10030    2    1    2    0    0  0.00000000000E+00  0.00000000000E+00 -0.54600657725E+03  0.14959299762E+04  0.13927251385E+04 0.  0.
        3    1    3    3  502    0 -0.66845291835E+03  0.92240771343E+02 -0.45774632832E+03  0.81539522640E+03  0.10100000352E+00 0.  1.
       -3    1    3    3    0  502  0.66845291835E+03 -0.92240771343E+02 -0.88260248935E+02  0.68053474980E+03  0.10100000352E+00 0. -1.
</event>
<event>
 5   0  0.2217251E-04  0.1400928E+04  0.7818609E-02  0.8953147E-01
       -1   -1    0    0    0  501  0.00000000000E+00  0.00000000000E+00  0.14056131778E+04  0.14056131779E+04  0.50400001928E-02 0. -1.
        1   -1    0    0  501    0  0.00000000000E+00  0.00000000000E+00 -0.34906437248E+03  0.34906437252E+03  0.50400001928E-02 0.  1.
    10030    2    1    2    0    0  0.00000000000E+00  0.00000000000E+00  0.10565488054E+04  0.17546775504E+04  0.14009275241E+04 0.  0.
        5    1    3    3  502    0  0.53412693692E+03  0.39060093112E+03  0.24055993531E+03  0.70409647393E+03  0.46999998093E+01 0.  1.
       -5    1    3    3    0  502 -0.53412693692E+03 -0.39060093112E+03  0.81598887006E+03  0.10505810764E+04  0.46999998093E+01 0. -1.
</event>
<event>
 5   0  0.2217251E-04  0.1391329E+04  0.7818609E-02  0.8960119E-01
        1   -1    0    0  501    0  0.00000000000E+00  0.00000000000E+00  0.15102638527E+04  0.15102638527E+04  0.50400001928E-02 0. -1.
       -1   -1    0    0    0  501  0.00000000000E+00  0.00000000000E+00 -0.32044022933E+03  0.32044022937E+03  0.50400001928E-02 0.  1.
    10030    2    1    2    0    0  0.00000000000E+00  0.00000000000E+00  0.11898236234E+04  0.18307040821E+04  0.13913292858E+04 0.  0.
        5    1    3    3  502    0 -0.11403144346E+03 -0.68601541690E+03  0.57186161374E+03  0.90037109993E+03  0.46999998093E+01 0.  1.
       -5    1    3    3    0  502  0.11403144346E+03  0.68601541690E+03  0.61796200962E+03  0.93033298214E+03  0.46999998093E+01 0. -1.
</event>
<event>
 5   0  0.2223112E-04  0.1397150E+04  0.7818609E-02  0.8955884E-01
       -1   -1    0    0    0  501  0.00000000000E+00  0.00000000000E+00  0.21470595109E+03  0.21470595115E+03  0.50400001928E-02 0. -1.
        1   -1    0    0  501    0  0.00000000000E+00  0.00000000000E+00 -0.22729098906E+04  0.22729098906E+04  0.50400001928E-02 0.  1.
    10030    2    1    2    0    0  0.00000000000E+00  0.00000000000E+00 -0.20582039395E+04  0.24876158418E+04  0.13971503568E+04 0.  0.
        1    1    3    3  502    0 -0.36889254125E+03  0.55845080953E+03 -0.13854597475E+04  0.15386512684E+04  0.50400001928E-02 0.  1.
       -1    1    3    3    0  502  0.36889254125E+03 -0.55845080953E+03 -0.67274419198E+03  0.94896457338E+03  0.50400001928E-02 0. -1.
</event>
<event>
 5   0  0.2215876E-04  0.1398321E+04  0.7818609E-02  0.8955035E-01
       -1   -1    0    0    0  501  0.00000000000E+00  0.00000000000E+00  0.88148544271E+03  0.88148544272E+03  0.50400001928E-02 0.  1.
        1   -1    0    0  501    0  0.00000000000E+00  0.00000000000E+00 -0.55454728395E+03  0.55454728397E+03  0.50400001928E-02 0. -1.
    10030    2    1    2    0    0  0.00000000000E+00  0.00000000000E+00  0.32693815876E+03  0.14360327267E+04  0.13983209333E+04 0.  0.
        3    1    3    3  502    0 -0.18152594271E+03  0.51719180506E+03  0.60920964090E+03  0.81949705787E+03  0.10100000352E+00 0.  1.
       -3    1    3    3    0  502  0.18152594271E+03 -0.51719180506E+03 -0.28227148214E+03  0.61653566882E+03  0.10100000352E+00 0. -1.
</event>
<event>
 5   0  0.2215876E-04  0.1399989E+04  0.7818609E-02  0.8953826E-01
        1   -1    0    0  501    0  0.00000000000E+00  0.00000000000E+00  0.77210433534E+03  0.77210433535E+03  0.50400001928E-02 0. -1.
       -1   -1    0    0    0  501  0.00000000000E+00  0.00000000000E+00 -0.63461968934E+03  0.63461968936E+03  0.50400001928E-02 0.  1.
    10030    2    1    2    0    0  0.00000000000E+00  0.00000000000E+00  0.13748464599E+03  0.14067240247E+04  0.13999894478E+04 0.  0.
        3    1    3    3  502    0 -0.41774736935E+03 -0.53915947762E+02 -0.49302922579E+03  0.64845787967E+03  0.10100000352E+00 0.  1.
       -3    1    3    3    0  502  0.41774736935E+03  0.53915947762E+02  0.63051387178E+03  0.75826614505E+03  0.10100000352E+00 0. -1.
</event>
<event>
 5   0  0.2143942E-04  0.1401129E+04  0.7818609E-02  0.8953002E-01
        1   -1    0    0  501    0  0.00000000000E+00  0.00000000000E+00  0.96453096605E+03  0.96453096606E+03  0.50400001928E-02 0.  1.
       -1   -1    0    0    0  501  0.00000000000E+00  0.00000000000E+00 -0.50883866679E+03  0.50883866681E+03  0.50400001928E-02 0. -1.
    10030    2    1    2    0    0  0.00000000000E+00  0.00000000000E+00  0.45569229926E+03  0.14733696329E+04  0.14011290460E+04 0.  0.
        4    1    3    3  502    0 -0.28762728038E+02 -0.51556789303E+03 -0.27001059425E+03  0.58270479726E+03  0.12699999809E+01 0. -1.
       -4    1    3    3    0  502  0.28762728038E+02  0.51556789303E+03  0.72570289351E+03  0.89066483561E+03  0.12699999809E+01 0.  1.
</event>
<event>
 5   0  0.2215876E-04  0.1398341E+04  0.7818609E-02  0.8955020E-01
       -1   -1    0    0    0  501  0.00000000000E+00  0.00000000000E+00  0.76381496933E+03  0.76381496935E+03  0.50400001928E-02 0. -1.
        1   -1    0    0  501    0  0.00000000000E+00  0.00000000000E+00 -0.63999730772E+03  0.63999730774E+03  0.50400001928E-02 0.  1.
    10030    2    1    2    0    0  0.00000000000E+00  0.00000000000E+00  0.12381766161E+03  0.14038122771E+04  0.13983411944E+04 0.  0.
        3    1    3    3  502    0  0.35406540142E+03 -0.60070497845E+03  0.10417470195E+02  0.69736454850E+03  0.10100000352E+00 0. -1.
       -3    1    3    3    0  502 -0.35406540142E+03  0.60070497845E+03  0.11340019142E+03  0.70644772859E+03  0.10100000352E+00 0.  1.
</event>
<event>
 5   0  0.2223112E-04  0.1399446E+04  0.7818609E-02  0.8954220E-01
       -1   -1    0    0    0  501  0.00000000000E+00  0.00000000000E+00  0.31826387307E+03  0.31826387311E+03  0.50400001928E-02 0. -1.
        1   -1    0    0  501    0  0.00000000000E+00  0.00000000000E+00 -0.15383837278E+04  0.15383837278E+04  0.50400001928E-02 0.  1.
    10030    2    1    2    0    0  0.00000000000E+00  0.00000000000E+00 -0.12201198547E+04  0.18566476009E+04  0.13994455524E+04 0.  0.
        1    1    3    3  502    0  0.54531456381E+03  0.43845631312E+03 -0.60975890499E+03  0.92812597973E+03  0.50400001928E-02 0. -1.
       -1    1    3    3    0  502 -0.54531456381E+03 -0.43845631312E+03 -0.61036094972E+03  0.92852162117E+03  0.50400001928E-02 0.  1.
</event>
<event>
 5   0  0.2217251E-04  0.1400151E+04  0.7818609E-02  0.8953710E-01
        1   -1    0    0  501    0  0.00000000000E+00  0.00000000000E+00  0.69107924053E+03  0.69107924055E+03  0.50400001928E-02 0. -1.
       -1   -1    0    0    0  501  0.00000000000E+00  0.00000000000E+00 -0.70918842062E+03  0.70918842064E+03  0.50400001928E-02 0.  1.
    10030    2    1    2    0    0  0.00000000000E+00  0.00000000000E+00 -0.18109180087E+02  0.14002676612E+04  0.14001505564E+04 0.  0.
        5    1    3    3  502    0 -0.82105775166E+02 -0.44880887909E+03 -0.54005336184E+03  0.70700105509E+03  0.46999998093E+01 0.  1.
       -5    1    3    3    0  502  0.82105775166E+02  0.44880887909E+03  0.52194418176E+03  0.69326660610E+03  0.46999998093E+01 0. -1.
</event>
<event>
 5   0  0.3917598E-04  0.1399833E+04  0.7818609E-02  0.8953939E-01
        2   -1    0    0  501    0  0.00000000000E+00  0.00000000000E+00  0.20618711142E+04  0.20618711142E+04  0.25500000920E-02 0.  1.
       -2   -1    0    0    0  501  0.00000000000E+00  0.00000000000E+00 -0.23759168290E+03  0.23759168291E+03  0.25500000920E-02 0. -1.
    10030    2    1    2    0    0  0.00000000000E+00  0.00000000000E+00  0.18242794313E+04  0.22994627971E+04  0.13998334586E+04 0.  0.
        3    1    3    3  502    0  0.10506110833E+03  0.59007719263E+03  0.31837801076E+03  0.67867038957E+03  0.10100000352E+00 0.  1.
       -3    1    3    3    0  502 -0.10506110833E+03 -0.59007719263E+03  0.15059014205E+04  0.16207924075E+04  0.10100000352E+00 0. -1.
</event>
<event>
 5   0  0.3932568E-04  0.1401530E+04  0.7818609E-02  0.8952712E-01
        2   -1    0    0  501    0  0.00000000000E+00  0.00000000000E+00  0.21460645619E+04  0.21460645619E+04  0.25500000920E-02 0. -1.
       -2   -1    0    0    0  501  0.00000000000E+00  0.00000000000E+00 -0.22882409959E+03  0.22882409960E+03  0.25500000920E-02 0.  1.
    10030    2    1    2    0    0  0.00000000000E+00  0.00000000000E+00  0.19172404623E+04  0.23748886615E+04  0.14015295802E+04 0.  0.
        2    1    3    3  502    0  0.22466293800E+03 -0.48232328641E+03  0.18588077887E+03  0.56361409872E+03  0.25500000920E-02 0.  1.
       -2    1    3    3    0  502 -0.22466293800E+03  0.48232328641E+03  0.17313596835E+04  0.18112745628E+04  0.25500000920E-02 0. -1.
</event>
<event>
 5   0  0.2217251E-04  0.1397915E+04  0.7818609E-02  0.8955329E-01
        1   -1    0    0  501    0  0.00000000000E+00  0.00000000000E+00  0.76282473369E+03  0.76282473371E+03  0.50400001928E-02 0. -1.
       -1   -1    0    0    0  501  0.00000000000E+00  0.00000000000E+00 -0.64043728997E+03  0.64043728999E+03  0.50400001928E-02 0.  1.
    10030    2    1    2    0    0  0.00000000000E+00  0.00000000000E+00  0.12238744372E+03  0.14032620237E+04  0.13979147402E+04 0.  0.
        5    1    3    3  502    0  0.36572255897E+03 -0.38272818501E+03  0.51932249224E+03  0.74158734798E+03  0.46999998093E+01 0. -1.
       -5    1    3    3    0  502 -0.36572255897E+03  0.38272818501E+03 -0.39693504853E+03  0.66167467572E+03  0.46999998093E+01 0.  1.
</event>
<event>
 5   0  0.3917598E-04  0.1400604E+04  0.7818609E-02  0.8953382E-01
        2   -1    0    0  501    0  0.00000000000E+00  0.00000000000E+00  0.16255089646E+04  0.16255089646E+04  0.25500000920E-02 0.  1.
       -2   -1    0    0    0  501  0.00000000000E+00  0.00000000000E+00 -0.30170399858E+03  0.30170399859E+03  0.25500000920E-02 0. -1.
    10030    2    1    2    0    0  0.00000000000E+00  0.00000000000E+00  0.13238049660E+04  0.19272129632E+04  0.14006035190E+04 0.  0.
        3    1    3    3  502    0 -0.51203220291E+03  0.57048631078E+02  0.13145776491E+04  0.14119298597E+04  0.10100000352E+00 0. -1.
       -3    1    3    3    0  502  0.51203220291E+03 -0.57048631078E+02  0.92273169300E+01  0.51528310346E+03  0.10100000352E+00 0.  1.
</event>
<event>
 5   0  0.4310348E-04  0.1400759E+04  0.7818609E-02  0.8953269E-01
       -2   -1    0    0    0  501  0.00000000000E+00  0.00000000000E+00  0.78139759099E+03  0.78139759100E+03  0.25500000920E-02 0. -1.
        2   -1    0    0  501    0  0.00000000000E+00  0.00000000000E+00 -0.62776160849E+03  0.62776160850E+03  0.25500000920E-02 0.  1.
    10030    2    1    2    0    0  0.00000000000E+00  0.00000000000E+00  0.15363598250E+03  0.14091591995E+04  0.14007589494E+04 0.  0.
        1    1    3    3  502    0 -0.28334511066E+03 -0.18976652085E+03  0.69223460706E+03  0.77167644477E+03  0.50400001928E-02 0. -1.
       -1    1    3    3    0  502  0.28334511066E+03  0.18976652085E+03 -0.53859862456E+03  0.63748275473E+03  0.50400001928E-02 0.  1.
</event>
<event>
 5   0  0.4208622E-04  0.1412371E+04  0.7818609E-02  0.8944912E-01
        2   -1    0    0  501    0  0.00000000000E+00  0.00000000000E+00  0.11707386262E+04  0.11707386262E+04  0.25500000920E-02 0. -1.
       -2   -1    0    0    0  501  0.00000000000E+00  0.00000000000E+00 -0.42596892020E+03  0.42596892021E+03  0.25500000920E-02 0.  1.
    10030    2    1    2    0    0  0.00000000000E+00  0.00000000000E+00  0.74476970602E+03  0.15967075464E+04  0.14123714362E+04 0.  0.
        4    1    3    3  502    0  0.39778932538E+03  0.13637663848E+03  0.10137585072E+04  0.10975166781E+04  0.12699999809E+01 0. -1.
       -4    1    3    3    0  502 -0.39778932538E+03 -0.13637663848E+03 -0.26898880121E+03  0.49919086830E+03  0.12699999809E+01 0.  1.
</event>
<event>
 5   0  0.3932568E-04  0.1400238E+04  0.7818609E-02  0.8953646E-01
        2   -1    0    0  501    0  0.00000000000E+00  0.00000000000E+00  0.10253665095E+04  0.10253665095E+04  0.25500000920E-02 0. -1.
       -2   -1    0    0    0  501  0.00000000000E+00  0.00000000000E+00 -0.47804060961E+03  0.47804060962E+03  0.25500000920E-02 0.  1.
    10030    2    1    2    0    0  0.00000000000E+00  0.00000000000E+00  0.54732589993E+03  0.15034071192E+04  0.14002383102E+04 0.  0.
        2    1    3    3  502    0  0.21584875721E+03  0.31816731031E+03  0.90187619764E+03  0.98040899589E+03  0.25500000920E-02 0. -1.
       -2    1    3    3    0  502 -0.21584875721E+03 -0.31816731031E+03 -0.35455029771E+03  0.52299812328E+03  0.25500000920E-02 0.  1.
</event>
<event>
 5   0  0.2217251E-04  0.1399304E+04  0.7818609E-02  0.8954322E-01
       -1   -1    0    0    0  501  0.00000000000E+00  0.00000000000E+00  0.51383454615E+03  0.51383454618E+03  0.50400001928E-02 0. -1.
        1   -1    0    0  501    0  0.00000000000E+00  0.00000000000E+00 -0.95266680577E+03  0.95266680579E+03  0.50400001928E-02 0.  1.
    10030    2    1    2    0    0  0.00000000000E+00  0.00000000000E+00 -0.43883225962E+03  0.14665013520E+04  0.13993042783E+04 0.  0.
        5    1    3    3  502    0  0.61245285071E+03  0.16084719094E+03  0.92395821093E+02  0.63994483429E+03  0.46999998093E+01 0.  1.
       -5    1    3    3    0  502 -0.61245285071E+03 -0.16084719094E+03 -0.53122808072E+03  0.82655651768E+03  0.46999998093E+01 0. -1.
</event>
<event>
 5   0  0.3932568E-04  0.1397759E+04  0.7818609E-02  0.8955442E-01
       -2   -1    0    0    0  501  0.00000000000E+00  0.00000000000E+00  0.35831947194E+03  0.35831947195E+03  0.25500000920E-02 0. -1.
        2   -1    0    0  501    0  0.00000000000E+00  0.00000000000E+00 -0.13631198686E+04  0.13631198686E+04  0.25500000920E-02 0.  1.
    10030    2    1    2    0    0  0.00000000000E+00  0.00000000000E+00 -0.10048003967E+04  0.17214393406E+04  0.13977587653E+04 0.  0.
        2    1    3    3  502    0 -0.14814593390E+03 -0.66860399489E+03 -0.33062418301E+03  0.76045438398E+03  0.25500000920E-02 0. -1.
       -2    1    3    3    0  502  0.14814593390E+03  0.66860399489E+03 -0.67417621369E+03  0.96098495661E+03  0.25500000920E-02 0.  1.
</event>
<event>
 5   0  0.2217251E-04  0.1422435E+04  0.7818609E-02  0.8937737E-01
        1   -1    0    0  501    0  0.00000000000E+00  0.00000000000E+00  0.99129316359E+03  0.99129316360E+03  0.50400001928E-02 0. -1.
       -1   -1    0    0    0  501  0.00000000000E+00  0.00000000000E+00 -0.51027291757E+03  0.51027291760E+03  0.50400001928E-02 0.  1.
    10030    2    1    2    0    0  0.00000000000E+00  0.00000000000E+00  0.48102024602E+03  0.15015660812E+04  0.14224346098E+04 0.  0.
        5    1    3    3  502    0  0.71215648791E+02  0.12657948363E+03 -0.49443496120E+03  0.51534653891E+03  0.46999998093E+01 0.  1.
       -5    1    3    3    0  502 -0.71215648791E+02 -0.12657948363E+03  0.97545520722E+03  0.98621954229E+03  0.46999998093E+01 0. -1.
</event>
<event>
 5   0  0.2143942E-04  0.1397758E+04  0.7818609E-02  0.8955443E-01
        1   -1    0    0  501    0  0.00000000000E+00  0.00000000000E+00  0.18455554196E+04  0.18455554196E+04  0.50400001928E-02 0. -1.
       -1   -1    0    0    0  501  0.00000000000E+00  0.00000000000E+00 -0.26465320481E+03  0.26465320486E+03  0.50400001928E-02 0.  1.
    10030    2    1    2    0    0  0.00000000000E+00  0.00000000000E+00  0.15809022148E+04  0.21102086245E+04  0.13977584291E+04 0.  0.
        4    1    3    3  502    0  0.10043394903E+03 -0.10823549299E+03  0.18217367480E+04  0.18277112168E+04  0.12699999809E+01 0. -1.
       -4    1    3    3    0  502 -0.10043394903E+03  0.10823549299E+03 -0.24083453320E+03  0.28249740768E+03  0.12699999809E+01 0.  1.
</event>
<event>
 5   0  0.2155352E-04  0.1400638E+04  0.7818609E-02  0.8953357E-01
        1   -1    0    0  501    0  0.00000000000E+00  0.00000000000E+00  0.94537071737E+03  0.94537071738E+03  0.50400001928E-02 0.  1.
       -1   -1    0    0    0  501  0.00000000000E+00  0.00000000000E+00 -0.51878759216E+03  0.51878759218E+03  0.50400001928E-02 0. -1.
    10030    2    1    2    0    0  0.00000000000E+00  0.00000000000E+00  0.42658312521E+03  0.14641583096E+04  0.14006378521E+04 0.  0.
        2    1    3    3  502    0  0.17997941012E+03  0.38316057683E+03 -0.36990004293E+03  0.56216604084E+03  0.25500000920E-02 0. -1.
       -2    1    3    3    0  502 -0.17997941012E+03 -0.38316057683E+03  0.79648316814E+03  0.90199226873E+03  0.25500000920E-02 0.  1.
</event>
<event>
 5   0  0.2143942E-04  0.1401748E+04  0.7818609E-02  0.8952554E-01
       -1   -1    0    0    0  501  0.00000000000E+00  0.00000000000E+00  0.27500638101E+03  0.27500638106E+03  0.50400001928E-02 0. -1.
        1   -1    0    0  501    0  0.00000000000E+00  0.00000000000E+00 -0.17862280726E+04  0.17862280727E+04  0.50400001928E-02 0.  1.
    10030    2    1    2    0    0  0.00000000000E+00  0.00000000000E+00 -0.15112216916E+04  0.20612344537E+04  0.14017476491E+04 0.  0.
        4    1    3    3  502    0 -0.38698949803E+03 -0.58430299116E+03 -0.74504305151E+03  0.10228693067E+04  0.12699999809E+01 0.  1.
       -4    1    3    3    0  502  0.38698949803E+03  0.58430299116E+03 -0.76617864012E+03  0.10383651470E+04  0.12699999809E+01 0. -1.
</event>
<event>
 5   0  0.4310348E-04  0.1401123E+04  0.7818609E-02  0.8953006E-01
        2   -1    0    0  501    0  0.00000000000E+00  0.00000000000E+00  0.11234372300E+04  0.11234372300E+04  0.25500000920E-02 0. -1.
       -2   -1    0    0    0  501  0.00000000000E+00  0.00000000000E+00 -0.43686132581E+03  0.43686132582E+03  0.25500000920E-02 0.  1.
    10030    2    1    2    0    0  0.00000000000E+00  0.00000000000E+00  0.68657590419E+03  0.15602985558E+04  0.14011228037E+04 0.  0.
        1    1    3    3  502    0  0.62715021497E+03  0.14637702331E+03  0.36201869509E+02  0.64502263562E+03  0.50400001928E-02 0.  1.
       -1    1    3    3    0  502 -0.62715021497E+03 -0.14637702331E+03  0.65037403468E+03  0.91527592020E+03  0.50400001928E-02 0. -1.
</event>
<event>
 5   0  0.4208622E-04  0.1399966E+04  0.7818609E-02  0.8953843E-01
       -2   -1    0    0    0  501  0.00000000000E+00  0.00000000000E+00  0.21379579908E+03  0.21379579910E+03  0.25500000920E-02 0. -1.
        2   -1    0    0  501    0  0.00000000000E+00  0.00000000000E+00 -0.22917956588E+04  0.22917956588E+04  0.25500000920E-02 0.  1.
    10030    2    1    2    0    0  0.00000000000E+00  0.00000000000E+00 -0.20779998597E+04  0.25055914579E+04  0.13999661199E+04 0.  0.
        4    1    3    3  502    0  0.29098121273E+03 -0.60398239593E+03 -0.13992243592E+04  0.15515460744E+04  0.12699999809E+01 0. -1.
       -4    1    3    3    0  502 -0.29098121273E+03  0.60398239593E+03 -0.67877550053E+03  0.95404538350E+03  0.12699999809E+01 0.  1.
</event>
<event>
 5   0  0.2215876E-04  0.1400064E+04  0.7818609E-02  0.8953772E-01
        1   -1    0    0  501    0  0.00000000000E+00  0.00000000000E+00  0.26428982739E+03  0.26428982744E+03  0.50400001928E-02 0. -1.
       -1   -1    0    0    0  501  0.00000000000E+00  0.00000000000E+00 -0.18541945265E+04  0.18541945265E+04  0.50400001928E-02 0.  1.
    10030    2    1    2    0    0  0.00000000000E+00  0.00000000000E+00 -0.15899046991E+04  0.21184843540E+04  0.14000639291E+04 0.  0.
        3    1    3    3  502    0  0.58923534530E+03 -0.34749039769E+03 -0.57002472336E+03  0.89043588432E+03  0.10100000352E+00 0.  1.
       -3    1    3    3    0  502 -0.58923534530E+03  0.34749039769E+03 -0.10198799758E+04  0.12280484696E+04  0.10100000352E+00 0. -1.
</event>
<event>
 5   0  0.3917598E-04  0.1404214E+04  0.7818609E-02  0.8950774E-01
        2   -1    0    0  501    0  0.00000000000E+00  0.00000000000E+00  0.45898394139E+03  0.45898394139E+03  0.25500000920E-02 0.  1.
       -2   -1    0    0    0  501  0.00000000000E+00  0.00000000000E+00 -0.10740112912E+04  0.10740112912E+04  0.25500000920E-02 0. -1.
    10030    2    1    2    0    0  0.00000000000E+00  0.00000000000E+00 -0.61502734978E+03  0.15329952326E+04  0.14042135671E+04 0.  0.
        3    1    3    3  502    0 -0.35372859543E+03  0.58252273888E+03 -0.49180683978E+03  0.84043479128E+03  0.10100000352E+00 0. -1.
       -3    1    3    3    0  502  0.35372859543E+03 -0.58252273888E+03 -0.12322051000E+03  0.69256044128E+03  0.10100000352E+00 0.  1.
</event>
<event>
 5   0  0.2215876E-04  0.1393833E+04  0.7818609E-02  0.8958294E-01
        1   -1    0    0  501    0  0.00000000000E+00  0.00000000000E+00  0.10954557174E+04  0.10954557174E+04  0.50400001928E-02 0.  1.
       -1   -1    0    0    0  501  0.00000000000E+00  0.00000000000E+00 -0.44337060068E+03  0.44337060070E+03  0.50400001928E-02 0. -1.
    10030    2    1    2    0    0  0.00000000000E+00  0.00000000000E+00  0.65208511673E+03  0.15388263181E+04  0.13938333609E+04 0.  0.
        3    1    3    3  502    0 -0.73375984779E+01  0.64143358090E+03  0.62677928528E+03  0.89685180588E+03  0.10100000352E+00 0.  1.
       -3    1    3    3    0  502  0.73375984779E+01 -0.64143358090E+03  0.25305831458E+02  0.64197451224E+03  0.10100000352E+00 0. -1.
</event>
<event>
 5   0  0.2155352E-04  0.1401264E+04  0.7818609E-02  0.8952904E-01
        1   -1    0    0  501    0  0.00000000000E+00  0.00000000000E+00  0.14402444235E+04  0.14402444235E+04  0.50400001928E-02 0. -1.
       -1   -1    0    0    0  501  0.00000000000E+00  0.00000000000E+00 -0.34083456577E+03  0.34083456580E+03  0.50400001928E-02 0.  1.
    10030    2    1    2    0    0  0.00000000000E+00  0.00000000000E+00  0.10994098578E+04  0.17810789893E+04  0.14012638334E+04 0.  0.
        2    1    3    3  502    0  0.12168083558E+03  0.31019543490E+02 -0.32641465895E+03  0.34973556783E+03  0.25500000920E-02 0.  1.
       -2    1    3    3    0  502 -0.12168083558E+03 -0.31019543490E+02  0.14258245167E+04  0.14313434215E+04  0.25500000920E-02 0. -1.
</event>
<event>
 5   0  0.3932568E-04  0.1401284E+04  0.7818609E-02  0.8952890E-01
       -2   -1    0    0    0  501  0.00000000000E+00  0.00000000000E+00  0.54113095415E+03  0.54113095415E+03  0.25500000920E-02 0. -1.
        2   -1    0    0  501    0  0.00000000000E+00  0.00000000000E+00 -0.90717278542E+03  0.90717278542E+03  0.25500000920E-02 0.  1.
    10030    2    1    2    0    0  0.00000000000E+00  0.00000000000E+00 -0.36604183127E+03  0.14483037396E+04  0.14012840896E+04 0.  0.
        2    1    3    3  502    0 -0.38179476835E+03  0.82131933190E+02 -0.78424988086E+03  0.87610545896E+03  0.25500000920E-02 0.  1.
       -2    1    3    3    0  502  0.38179476835E+03 -0.82131933190E+02  0.41820804959E+03  0.57219828061E+03  0.25500000920E-02 0. -1.
</event>
<event>
 5   0  0.1497625E-04  0.1400766E+04  0.7818609E-02  0.8953264E-01
       -3   -1    0    0    0  501  0.00000000000E+00  0.00000000000E+00  0.35176740799E+03  0.35176742249E+03  0.10100000352E+00 0. -1.
        3   -1    0    0  501    0  0.00000000000E+00  0.00000000000E+00 -0.13944902649E+04  0.13944902685E+04  0.10100000352E+00 0.  1.
    10030    2    1    2    0    0  0.00000000000E+00  0.00000000000E+00 -0.10427228569E+04  0.17462576910E+04  0.14007658502E+04 0.  0.
        2    1    3    3  502    0 -0.16517475591E+03 -0.65460416184E+03 -0.28898020946E+03  0.73436970945E+03  0.25500000920E-02 0. -1.
       -2    1    3    3    0  502  0.16517475591E+03  0.65460416184E+03 -0.75374264741E+03  0.10118879816E+04  0.25500000920E-02 0.  1.
</event>
<event>
 5   0  0.2223112E-04  0.1420103E+04  0.7818609E-02  0.8939394E-01
       -1   -1    0    0    0  501  0.00000000000E+00  0.00000000000E+00  0.49061474270E+03  0.49061474272E+03  0.50400001928E-02 0. -1.
        1   -1    0    0  501    0  0.00000000000E+00  0.00000000000E+00 -0.10276356539E+04  0.10276356539E+04  0.50400001928E-02 0.  1.
    10030    2    1    2    0    0  0.00000000000E+00  0.00000000000E+00 -0.53702091120E+03  0.15182503966E+04  0.14201030976E+04 0.  0.
        1    1    3    3  502    0 -0.62057714241E+03  0.52262061751E+02 -0.63314828191E+03  0.88810137917E+03  0.50400001928E-02 0.  1.
       -1    1    3    3    0  502  0.62057714241E+03 -0.52262061751E+02  0.96127370710E+02  0.63014901746E+03  0.50400001928E-02 0. -1.
</event>
<event>
 5   0  0.4208622E-04  0.1401387E+04  0.7818609E-02  0.8952815E-01
       -2   -1    0    0    0  501  0.00000000000E+00  0.00000000000E+00  0.49778659632E+03  0.49778659632E+03  0.25500000920E-02 0.  1.
        2   -1    0    0  501    0  0.00000000000E+00  0.00000000000E+00 -0.98630909389E+03  0.98630909390E+03  0.25500000920E-02 0. -1.
    10030    2    1    2    0    0  0.00000000000E+00  0.00000000000E+00 -0.48852249758E+03  0.14840956902E+04  0.14013870940E+04 0.  0.
        4    1    3    3  502    0 -0.19466298598E+03 -0.13095975391E+01 -0.95709552097E+03  0.97669280857E+03  0.12699999809E+01 0. -1.
       -4    1    3    3    0  502  0.19466298598E+03  0.13095975391E+01  0.46857302339E+03  0.50740288165E+03  0.12699999809E+01 0.  1.
</event>
<event>
 5   0  0.2223112E-04  0.1398806E+04  0.7818609E-02  0.8954683E-01
       -1   -1    0    0    0  501  0.00000000000E+00  0.00000000000E+00  0.16813099510E+04  0.16813099510E+04  0.50400001928E-02 0.  1.
        1   -1    0    0  501    0  0.00000000000E+00  0.00000000000E+00 -0.29094264159E+03  0.29094264164E+03  0.50400001928E-02 0. -1.
    10030    2    1    2    0    0  0.00000000000E+00  0.00000000000E+00  0.13903673094E+04  0.19722525927E+04  0.13988062890E+04 0.  0.
        1    1    3    3  502    0  0.53039609655E+03  0.12556109808E+03  0.13131218952E+04  0.14217505830E+04  0.50400001928E-02 0.  1.
       -1    1    3    3    0  502 -0.53039609655E+03 -0.12556109808E+03  0.77245414210E+02  0.55050200965E+03  0.50400001928E-02 0. -1.
</event>
<event>
 5   0  0.4208622E-04  0.1400917E+04  0.7818609E-02  0.8953155E-01
       -2   -1    0    0    0  501  0.00000000000E+00  0.00000000000E+00  0.57620592332E+03  0.57620592332E+03  0.25500000920E-02 0. -1.
        2   -1    0    0  501    0  0.00000000000E+00  0.00000000000E+00 -0.85150461844E+03  0.85150461844E+03  0.25500000920E-02 0.  1.
    10030    2    1    2    0    0  0.00000000000E+00  0.00000000000E+00 -0.27529869512E+03  0.14277105418E+04  0.14009168496E+04 0.  0.
        4    1    3    3  502    0  0.31295661123E+03  0.62400823449E+03 -0.19630244946E+03  0.72516507210E+03  0.12699999809E+01 0. -1.
       -4    1    3    3    0  502 -0.31295661123E+03 -0.62400823449E+03 -0.78996245657E+02  0.70254546967E+03  0.12699999809E+01 0.  1.
</event>
<event>
 5   0  0.3975164E-04  0.1391589E+04  0.7818609E-02  0.8959930E-01
       -2   -1    0    0    0  501  0.00000000000E+00  0.00000000000E+00  0.50209807088E+03  0.50209807089E+03  0.25500000920E-02 0. -1.
        2   -1    0    0  501    0  0.00000000000E+00  0.00000000000E+00 -0.96421388104E+03  0.96421388104E+03  0.25500000920E-02 0.  1.
    10030    2    1    2    0    0  0.00000000000E+00  0.00000000000E+00 -0.46211581016E+03  0.14663119519E+04  0.13915889186E+04 0.  0.
        5    1    3    3  502    0  0.28789610782E+03  0.37984843819E+03 -0.76516738686E+03  0.90148334693E+03  0.46999998093E+01 0.  1.
       -5    1    3    3    0  502 -0.28789610782E+03 -0.37984843819E+03  0.30305157670E+03  0.56482860500E+03  0.46999998093E+01 0. -1.
</event>
<event>
 5   0  0.2143942E-04  0.1403026E+04  0.7818609E-02  0.8951631E-01
       -1   -1    0    0    0  501  0.00000000000E+00  0.00000000000E+00  0.61248413584E+03  0.61248413586E+03  0.50400001928E-02 0.  1.
        1   -1    0    0  501    0  0.00000000000E+00  0.00000000000E+00 -0.80348296661E+03  0.80348296663E+03  0.50400001928E-02 0. -1.
    10030    2    1    2    0    0  0.00000000000E+00  0.00000000000E+00 -0.19099883077E+03  0.14159671025E+04  0.14030261159E+04 0.  0.
        4    1    3    3  502    0 -0.25773684690E+02  0.38792474307E+03 -0.68481089336E+03  0.78747537210E+03  0.12699999809E+01 0. -1.
       -4    1    3    3    0  502  0.25773684690E+02 -0.38792474307E+03  0.49381206258E+03  0.62849173038E+03  0.12699999809E+01 0.  1.
</event>
<event>
 5   0  0.3975164E-04  0.1395292E+04  0.7818609E-02  0.8957234E-01
       -2   -1    0    0    0  501  0.00000000000E+00  0.00000000000E+00  0.11634606788E+04  0.11634606788E+04  0.25500000920E-02 0.  1.
        2   -1    0    0  501    0  0.00000000000E+00  0.00000000000E+00 -0.41832930357E+03  0.41832930357E+03  0.25500000920E-02 0. -1.
    10030    2    1    2    0    0  0.00000000000E+00  0.00000000000E+00  0.74513137519E+03  0.15817899823E+04  0.13952916476E+04 0.  0.
        5    1    3    3  502    0 -0.24971325367E+03 -0.88660282109E+02  0.11041692617E+04  0.11355303621E+04  0.46999998093E+01 0.  1.
       -5    1    3    3    0  502  0.24971325367E+03  0.88660282109E+02 -0.35903788654E+03  0.44625962024E+03  0.46999998093E+01 0. -1.
</event>
<event>
 5   0  0.2155352E-04  0.1400239E+04  0.7818609E-02  0.8953645E-01
       -1   -1    0    0    0  501  0.00000000000E+00  0.00000000000E+00  0.33512945210E+03  0.33512945214E+03  0.50400001928E-02 0. -1.
        1   -1    0    0  501    0  0.00000000000E+00  0.00000000000E+00 -0.14626216781E+04  0.14626216781E+04  0.50400001928E-02 0.  1.
    10030    2    1    2    0    0  0.00000000000E+00  0.00000000000E+00 -0.11274922260E+04  0.17977511303E+04  0.14002394105E+04 0.  0.
        2    1    3    3  502    0  0.15729079853E+03 -0.14556057252E+03  0.29198194950E+03  0.36219019094E+03  0.25500000920E-02 0. -1.
       -2    1    3    3    0  502 -0.15729079853E+03  0.14556057252E+03 -0.14194741755E+04  0.14355609393E+04  0.25500000920E-02 0.  1.
</event>
<event>
 5   0  0.3932568E-04  0.1348765E+04  0.7818609E-02  0.8991763E-01
        2   -1    0    0  501    0  0.00000000000E+00  0.00000000000E+00  0.82765572211E+03  0.82765572211E+03  0.25500000920E-02 0. -1.
       -2   -1    0    0    0  501  0.00000000000E+00  0.00000000000E+00 -0.54949398981E+03  0.54949398982E+03  0.25500000920E-02 0.  1.
    10030    2    1    2    0    0  0.00000000000E+00  0.00000000000E+00  0.27816173229E+03  0.13771497119E+04  0.13487651314E+04 0.  0.
        2    1    3    3  502    0 -0.11535263038E+03  0.26555794062E+03 -0.48280553089E+03  0.56296396850E+03  0.25500000920E-02 0.  1.
       -2    1    3    3    0  502  0.11535263038E+03 -0.26555794062E+03  0.76096726318E+03  0.81418574343E+03  0.25500000920E-02 0. -1.
</event>
<event>
 5   0  0.2217251E-04  0.1380027E+04  0.7818609E-02  0.8968404E-01
       -1   -1    0    0    0  501  0.00000000000E+00  0.00000000000E+00  0.83492081578E+03  0.83492081580E+03  0.50400001928E-02 0. -1.
        1   -1    0    0  501    0  0.00000000000E+00  0.00000000000E+00 -0.57025620433E+03  0.57025620435E+03  0.50400001928E-02 0.  1.
    10030    2    1    2    0    0  0.00000000000E+00  0.00000000000E+00  0.26466461145E+03  0.14051770202E+04  0.13800272104E+04 0.  0.
        5    1    3    3  502    0  0.20292436747E+02  0.17027189911E+03  0.81286291296E+03  0.83076621734E+03  0.46999998093E+01 0. -1.
       -5    1    3    3    0  502 -0.20292436747E+02 -0.17027189911E+03 -0.54819830150E+03  0.57441080281E+03  0.46999998093E+01 0.  1.
</event>
</LesHouchesEvents>
